/*--------------------------------*- C++ -*----------------------------------*\
| =========                 |                                                 |
| \\      /  F ield         | OpenFOAM: The Open Source CFD Toolbox           |
|  \\    /   O peration     | Version:  4.1                                   |
|   \\  /    A nd           | Web:      www.OpenFOAM.org                      |
|    \\/     M anipulation  |                                                 |
\*---------------------------------------------------------------------------*/
FoamFile
{
    version     2.0;
    format      ascii;
    class       volScalarField;
    location    "7.5";
    object      epsilon;
}
// * * * * * * * * * * * * * * * * * * * * * * * * * * * * * * * * * * * * * //

dimensions      [0 2 -3 0 0 0 0];

internalField   nonuniform List<scalar> 
204246
(
0.583713
0.671121
0.671328
0.672017
0.67142
0.671561
0.671216
0.671678
0.671406
0.672024
0.671887
0.672634
0.672249
0.673914
0.674112
0.67552
0.67646
0.675588
0.678858
0.680128
0.681825
0.683796
0.68531
0.687401
0.688944
0.691488
0.693459
0.698282
0.703473
0.715463
0.730996
0.763042
0.820898
0.940517
1.17559
1.61397
2.3265
3.21681
3.58871
3.72336
3.76855
3.79822
3.81173
3.82187
3.80805
3.80274
3.77015
3.75945
3.71822
3.69808
3.66408
3.64606
3.62653
3.60016
3.60392
3.59987
3.60559
3.61559
3.62707
3.64658
3.66139
3.67966
3.69777
3.71946
3.73841
3.76253
3.78099
3.80924
3.82903
3.85968
3.87101
3.91799
3.93813
3.97356
4.00395
4.03287
4.06748
4.09596
4.12722
4.16262
4.19177
4.22659
4.25538
4.28859
4.3193
4.3503
4.3782
4.39683
4.44534
4.45877
4.50374
4.5175
4.56352
4.57487
4.62608
4.64111
4.68923
4.70981
4.75472
4.78121
4.82147
4.85252
4.8933
4.92429
4.96779
4.99728
5.0323
5.08582
5.11442
5.16411
5.19298
5.24806
5.28108
5.33128
5.37311
5.41937
5.46134
5.51026
5.55358
5.60403
5.64899
5.70108
5.7484
5.785
5.86357
5.89188
5.96672
5.99956
6.07359
6.11137
6.18447
6.22529
6.29909
6.34252
6.41779
6.4636
6.53969
6.58798
6.66587
6.71646
6.77639
6.86505
6.91082
6.99874
7.04631
7.13588
7.18376
7.27607
7.32419
7.41907
7.46712
7.5644
7.61193
7.71203
7.75943
7.86225
7.90937
7.99072
8.08259
8.142
8.23513
8.29275
8.38919
8.44446
8.54444
8.5968
8.70159
8.75008
8.86022
8.90554
9.023
9.06419
9.19105
9.2293
9.3701
9.40234
9.53183
9.63005
9.72094
9.84749
9.93353
10.0904
10.181
10.3723
10.4794
10.7106
10.8491
11.1264
11.3113
11.6097
11.8015
11.9678
11.9889
0.0440469
0.108006
0.105802
0.104284
0.106061
0.104248
0.105894
0.104756
0.10633
0.105238
0.106973
0.105935
0.107796
0.106382
0.109037
0.107687
0.11134
0.11054
0.111569
0.115634
0.11486
0.119564
0.118833
0.12333
0.123243
0.12943
0.130944
0.143511
0.151676
0.184549
0.223047
0.322833
0.479243
0.801326
1.31807
2.02361
2.29354
2.31825
2.05248
1.45158
1.06316
0.91738
0.858898
0.768697
0.723459
0.696076
0.701531
0.680683
0.688812
0.680234
0.702127
0.705778
0.741555
0.752057
0.778264
0.799258
0.819153
0.837035
0.851749
0.869881
0.877884
0.894879
0.899472
0.914384
0.918249
0.932074
0.939065
0.954958
0.966158
0.985531
0.998993
1.00908
1.02816
1.02867
1.05018
1.04997
1.07287
1.07213
1.09438
1.09157
1.11539
1.11113
1.13311
1.1283
1.14594
1.14344
1.1641
1.16325
1.16457
1.1865
1.18524
1.20946
1.20871
1.23468
1.23281
1.26021
1.25737
1.28583
1.28327
1.31284
1.31063
1.34154
1.34345
1.37566
1.37837
1.41301
1.41513
1.43968
1.46625
1.4701
1.50636
1.50776
1.54668
1.54667
1.58764
1.58808
1.63163
1.63519
1.67964
1.6841
1.73069
1.73603
1.78717
1.7954
1.82831
1.86875
1.87588
1.9304
1.93892
1.99448
2.00291
2.0627
2.07291
2.13529
2.14669
2.2123
2.22475
2.29371
2.30764
2.38308
2.40094
2.45179
2.5139
2.53023
2.61041
2.62868
2.71197
2.73125
2.81814
2.83866
2.92986
2.95219
3.04433
3.06628
3.16403
3.18823
3.29349
3.3219
3.39116
3.47814
3.50345
3.60748
3.63252
3.73752
3.76271
3.86672
3.89123
3.99366
4.01671
4.11643
4.13842
4.23483
4.25524
4.35097
4.37593
4.46658
4.48969
4.52953
4.60001
4.60551
4.67429
4.67203
4.72528
4.71587
4.75341
4.73785
4.77497
4.76273
4.90209
5.02969
5.51367
5.80476
5.95378
0.00464438
0.00992932
0.00894171
0.00838372
0.00856947
0.00826542
0.00851627
0.00836025
0.00861439
0.00847711
0.00878037
0.00866352
0.00903123
0.00888659
0.00938888
0.00925404
0.0099043
0.00982716
0.0102707
0.0109178
0.0109076
0.0120351
0.0121755
0.0140335
0.014904
0.0183434
0.0219809
0.0309969
0.0446888
0.0736592
0.124022
0.223326
0.402761
0.73407
1.28391
1.79086
1.89294
1.69782
1.10257
0.649935
0.518738
0.479706
0.47408
0.472689
0.478756
0.488632
0.505652
0.512093
0.525474
0.533168
0.553088
0.569734
0.600928
0.627449
0.660657
0.69383
0.724921
0.761642
0.786503
0.819052
0.837267
0.863957
0.877865
0.898668
0.909079
0.926233
0.934701
0.948258
0.955326
0.96675
0.97351
0.983765
0.989554
1.00003
1.00617
1.01737
1.02492
1.03668
1.04444
1.05665
1.06495
1.07696
1.08456
1.09645
1.10417
1.1158
1.1235
1.13423
1.14122
1.15164
1.15996
1.17022
1.18037
1.19113
1.20289
1.21434
1.2269
1.23807
1.25139
1.26213
1.27565
1.28661
1.30035
1.31219
1.32656
1.33916
1.3536
1.36558
1.38076
1.39281
1.40859
1.42098
1.43717
1.44985
1.46669
1.47964
1.49728
1.51066
1.52875
1.54221
1.5613
1.57507
1.59536
1.60888
1.62674
1.64368
1.65844
1.67836
1.69133
1.71286
1.72461
1.74784
1.75827
1.78233
1.79203
1.81618
1.82544
1.84975
1.85875
1.88317
1.89164
1.90972
1.9246
1.9338
1.95268
1.95769
1.97595
1.97931
1.99536
1.9969
2.01034
2.00986
2.01904
2.01605
2.02103
2.01525
2.01926
2.00718
2.00039
1.99763
1.97598
1.97454
1.94465
1.94066
1.90457
1.89828
1.85709
1.84945
1.80457
1.79595
1.74787
1.73882
1.68772
1.67813
1.62791
1.61884
1.56472
1.54058
1.52116
1.47861
1.47265
1.42607
1.42135
1.37777
1.37507
1.3386
1.33992
1.31977
1.32935
1.31746
1.32542
1.20906
1.16548
0.000769712
0.00124741
0.0011402
0.00108385
0.0010883
0.00105331
0.00106903
0.00105572
0.0010773
0.00106793
0.00109708
0.00109074
0.00112885
0.00112123
0.00117384
0.00116788
0.00123688
0.00123638
0.00130045
0.00138789
0.00145829
0.00169956
0.00189004
0.0024929
0.0032921
0.00515716
0.00838713
0.01513
0.0278756
0.0533698
0.101871
0.194602
0.363398
0.657801
1.10969
1.39381
1.43062
1.2547
0.755169
0.420886
0.329743
0.298519
0.28827
0.279729
0.264964
0.246776
0.241765
0.235966
0.234622
0.232668
0.236043
0.243789
0.26514
0.290131
0.329604
0.38352
0.439068
0.511369
0.569543
0.646274
0.698988
0.767213
0.805595
0.861521
0.890012
0.934039
0.954287
0.988272
1.00466
1.03204
1.04532
1.06702
1.07773
1.09573
1.10473
1.1215
1.13052
1.14669
1.15521
1.16995
1.17782
1.19088
1.19744
1.20898
1.21529
1.22497
1.23022
1.2375
1.24204
1.24499
1.24926
1.25129
1.25603
1.25885
1.26546
1.26997
1.27846
1.28373
1.29258
1.29779
1.30613
1.31125
1.31883
1.32402
1.33103
1.33637
1.34261
1.34804
1.35357
1.35856
1.36419
1.3683
1.37445
1.37761
1.38418
1.38624
1.39265
1.39461
1.4003
1.40175
1.40694
1.40772
1.4123
1.41228
1.41339
1.41541
1.41397
1.41538
1.41247
1.41338
1.40832
1.40869
1.40114
1.40076
1.39039
1.38902
1.37587
1.37331
1.35758
1.35402
1.33361
1.32399
1.30952
1.29059
1.28015
1.25357
1.24465
1.21312
1.20275
1.16808
1.15636
1.11854
1.10544
1.06484
1.05054
1.00824
0.993428
0.947154
0.925071
0.891822
0.858556
0.835006
0.793331
0.777486
0.73332
0.718013
0.675688
0.661377
0.622851
0.609849
0.575193
0.563821
0.533179
0.523491
0.496685
0.488568
0.465134
0.454756
0.440359
0.427686
0.419214
0.4043
0.40002
0.385179
0.381719
0.372146
0.371815
0.371356
0.385064
0.397533
0.420767
0.428461
0.434286
0.000808112
0.000807971
0.00080141
0.000798401
0.000798115
0.000796082
0.000796394
0.000795822
0.000796592
0.000796265
0.000797615
0.000797478
0.000799495
0.000799397
0.000802951
0.000803475
0.00081032
0.000813807
0.000826554
0.000847442
0.000884142
0.000964021
0.00110995
0.00142327
0.00203587
0.0033083
0.00585333
0.0110484
0.0214208
0.0421553
0.0824539
0.159372
0.299135
0.538208
0.891473
1.09486
1.11977
0.988169
0.612874
0.286464
0.182377
0.137752
0.117363
0.105534
0.0952612
0.0788999
0.0688289
0.063684
0.0623099
0.0611003
0.0619398
0.0650633
0.0768025
0.0945375
0.118443
0.141933
0.165431
0.189986
0.217317
0.256021
0.302796
0.369189
0.444205
0.541711
0.626465
0.716186
0.774415
0.839518
0.880012
0.933064
0.964625
1.00576
1.03303
1.06199
1.08308
1.10325
1.12201
1.13731
1.15367
1.16456
1.17857
1.1859
1.19649
1.20146
1.20938
1.21298
1.21695
1.21791
1.21803
1.21713
1.21354
1.20852
1.20141
1.19529
1.18819
1.18469
1.17988
1.17904
1.17566
1.17584
1.17275
1.17285
1.16919
1.16876
1.16346
1.16234
1.15437
1.15093
1.14578
1.13861
1.13493
1.12439
1.12159
1.10895
1.10561
1.09128
1.08688
1.0718
1.06655
1.05013
1.04427
1.02631
1.01999
0.999387
0.989484
0.973833
0.957796
0.945453
0.924081
0.914279
0.889199
0.879881
0.852838
0.842923
0.814652
0.804279
0.774935
0.764084
0.734157
0.723075
0.691677
0.67668
0.652975
0.631977
0.613812
0.588074
0.574977
0.546671
0.53597
0.507854
0.497675
0.471026
0.461472
0.436585
0.427817
0.405074
0.397248
0.376016
0.366341
0.352567
0.340684
0.332175
0.31901
0.314369
0.30225
0.298586
0.288834
0.286097
0.278406
0.276433
0.270685
0.269474
0.265533
0.265063
0.262708
0.262872
0.262032
0.26201
0.263782
0.263949
0.266874
0.267504
0.270447
0.271049
0.273336
0.27368
0.276987
0.27826
0.285633
0.29051
0.299731
0.303433
0.306095
0.000789256
0.000790858
0.000789708
0.000789366
0.000789154
0.000788987
0.000788944
0.000788875
0.000788875
0.000788838
0.000788837
0.000788815
0.000788872
0.000789016
0.000789466
0.000790139
0.000791581
0.000794049
0.000799108
0.00080948
0.000830838
0.000876931
0.000973924
0.00118258
0.00162143
0.00254812
0.0044723
0.00846697
0.0166103
0.0330816
0.065387
0.127273
0.239738
0.432223
0.719225
0.898046
0.923927
0.838473
0.571494
0.246837
0.116677
0.0694984
0.0496885
0.040123
0.0350468
0.0288899
0.0249369
0.0237928
0.0241086
0.0265078
0.0335571
0.0459721
0.066323
0.0953337
0.132604
0.156405
0.165397
0.16672
0.165991
0.155594
0.14943
0.148513
0.158559
0.187867
0.235403
0.297385
0.369722
0.456657
0.539865
0.622823
0.686789
0.749999
0.807621
0.855625
0.904736
0.936744
0.976483
0.997286
1.02606
1.03842
1.05862
1.06591
1.07665
1.07932
1.08301
1.08292
1.08341
1.08036
1.075
1.06921
1.05649
1.04576
1.02682
1.0126
0.990519
0.977522
0.955483
0.945481
0.925957
0.91861
0.90142
0.895205
0.879885
0.874023
0.858029
0.851688
0.832853
0.823873
0.808278
0.794778
0.781683
0.763836
0.753387
0.731745
0.723354
0.699817
0.690738
0.667453
0.658022
0.634687
0.625232
0.601968
0.592578
0.568396
0.55694
0.538393
0.522968
0.508649
0.490042
0.479477
0.458838
0.450682
0.429911
0.422147
0.402384
0.395093
0.37646
0.369612
0.352283
0.345958
0.329353
0.321641
0.310175
0.30064
0.292576
0.281653
0.276617
0.265546
0.261568
0.251473
0.247997
0.239135
0.236131
0.228459
0.225919
0.219408
0.217335
0.211597
0.209067
0.205809
0.202853
0.201088
0.1981
0.19719
0.194796
0.19423
0.19263
0.192405
0.191634
0.191769
0.191623
0.192527
0.192723
0.194493
0.1951
0.197645
0.19869
0.201809
0.203826
0.207324
0.210311
0.214216
0.21817
0.222543
0.227501
0.23236
0.238246
0.243472
0.250066
0.255305
0.260649
0.263013
0.264351
0.000790674
0.000790032
0.000789548
0.000789302
0.00078907
0.000788952
0.000788866
0.00078882
0.000788793
0.000788749
0.000788744
0.000788743
0.000788738
0.000788725
0.000788747
0.000788877
0.0007893
0.000790319
0.000792686
0.000798055
0.000809955
0.000836586
0.000894986
0.00102367
0.00130183
0.00190262
0.00317831
0.00588487
0.0115227
0.0232023
0.0466259
0.0925476
0.177612
0.326481
0.55836
0.745869
0.783271
0.741576
0.559535
0.275198
0.105043
0.0468501
0.0267774
0.0203654
0.0185996
0.0181676
0.0185339
0.0210095
0.0281053
0.0420177
0.0678753
0.112478
0.181251
0.27695
0.386902
0.465928
0.496289
0.501484
0.495828
0.45069
0.37225
0.262669
0.175598
0.135107
0.120676
0.116091
0.121471
0.146691
0.194178
0.255248
0.321743
0.389691
0.463003
0.525189
0.590782
0.639908
0.693939
0.730099
0.7716
0.79363
0.822016
0.832807
0.846005
0.848585
0.850909
0.849779
0.84951
0.844325
0.837316
0.829708
0.81443
0.801916
0.779672
0.762506
0.735285
0.717182
0.688047
0.671488
0.642611
0.629005
0.602903
0.592027
0.569757
0.560527
0.540436
0.532057
0.511374
0.501514
0.484423
0.471252
0.456994
0.441403
0.430406
0.412297
0.404436
0.385483
0.377971
0.360402
0.353234
0.336967
0.330378
0.315411
0.309403
0.295087
0.288577
0.278108
0.270353
0.262633
0.253898
0.248702
0.239519
0.235958
0.227209
0.224071
0.216277
0.21354
0.206647
0.204247
0.198212
0.196133
0.190666
0.188179
0.184795
0.181747
0.179694
0.176437
0.175267
0.172257
0.171324
0.168826
0.168102
0.166102
0.165574
0.164047
0.163708
0.162622
0.162462
0.161758
0.161517
0.161615
0.161475
0.161897
0.161928
0.162812
0.163059
0.164321
0.164785
0.166512
0.167237
0.169451
0.170456
0.173194
0.174504
0.177759
0.179382
0.183116
0.185063
0.189076
0.191696
0.195815
0.199127
0.203391
0.207299
0.211753
0.216259
0.221052
0.226127
0.231253
0.236633
0.241378
0.245441
0.247428
0.248418
0.000789617
0.000789211
0.000788791
0.000788576
0.000788419
0.000788315
0.000788273
0.000788237
0.000788205
0.000788186
0.000788188
0.000788183
0.00078818
0.000788202
0.000788339
0.00078865
0.000789237
0.000790256
0.000792087
0.000795609
0.000802904
0.00081878
0.000853698
0.000931471
0.00110245
0.00147824
0.00229023
0.00404319
0.00775906
0.0156138
0.0317125
0.0640979
0.125791
0.237463
0.419752
0.622742
0.679331
0.668594
0.557485
0.343227
0.129298
0.0508896
0.0243805
0.0159998
0.0142477
0.0143322
0.0167158
0.0236332
0.0387155
0.0676249
0.116872
0.192758
0.298158
0.431322
0.580237
0.723923
0.828605
0.870701
0.887951
0.889534
0.874737
0.817752
0.72077
0.567066
0.398332
0.225193
0.134227
0.0967276
0.0868373
0.0863738
0.100744
0.133964
0.181146
0.231113
0.282332
0.328803
0.377722
0.420554
0.466371
0.500361
0.536521
0.55795
0.579643
0.585787
0.589544
0.589032
0.589086
0.584938
0.578728
0.572345
0.558803
0.548421
0.529324
0.515043
0.491137
0.475319
0.449218
0.434191
0.408079
0.395509
0.372236
0.362181
0.342839
0.334652
0.318738
0.31207
0.2976
0.290846
0.279597
0.27175
0.262357
0.254002
0.24693
0.237547
0.232783
0.223036
0.219113
0.21045
0.206933
0.199369
0.196323
0.189741
0.187119
0.181161
0.178484
0.17434
0.171447
0.168393
0.165298
0.163288
0.160083
0.158827
0.155796
0.154726
0.152079
0.151171
0.148878
0.148108
0.146149
0.145509
0.143784
0.143011
0.142062
0.141091
0.140646
0.139702
0.139444
0.138695
0.138547
0.138036
0.137994
0.137722
0.137783
0.137699
0.137961
0.137981
0.138539
0.138697
0.139399
0.139988
0.140692
0.14167
0.14246
0.143867
0.144882
0.146689
0.147941
0.150148
0.151713
0.154373
0.156342
0.159517
0.161954
0.165654
0.168596
0.172811
0.176266
0.180879
0.184801
0.189601
0.193814
0.198713
0.203231
0.20826
0.213058
0.218203
0.223211
0.228342
0.233223
0.237671
0.241084
0.242979
0.243812
0.000790232
0.000789734
0.000789433
0.000789196
0.000789074
0.000788916
0.000788841
0.000788752
0.000788702
0.000788656
0.000788646
0.000788636
0.000788632
0.00078862
0.000788625
0.000788741
0.000789034
0.000789597
0.000790557
0.000792359
0.000796009
0.000804039
0.000821844
0.000862068
0.000951678
0.00115225
0.00159324
0.00256434
0.0046619
0.00920607
0.0187788
0.0387598
0.078497
0.154617
0.287291
0.489546
0.607683
0.620679
0.562735
0.407251
0.204003
0.0718464
0.0299385
0.0171637
0.0140832
0.0138685
0.0156864
0.0220711
0.0362448
0.0632612
0.110746
0.187613
0.30185
0.454653
0.629582
0.791506
0.91128
0.982283
1.02353
1.04096
1.04532
1.03784
1.01105
0.967995
0.915312
0.830837
0.699983
0.495849
0.255715
0.121601
0.080289
0.0696205
0.0691369
0.0799698
0.104744
0.137673
0.173659
0.207096
0.241116
0.270141
0.302065
0.326641
0.355376
0.36816
0.374155
0.374659
0.37511
0.372981
0.369214
0.36564
0.356821
0.350307
0.337764
0.328833
0.313183
0.303183
0.286102
0.276666
0.259636
0.251837
0.237233
0.230888
0.219091
0.214032
0.204741
0.20081
0.19298
0.189356
0.183495
0.179687
0.174737
0.170902
0.167003
0.162862
0.160097
0.155675
0.153773
0.149791
0.148141
0.144767
0.143384
0.140534
0.139381
0.136885
0.135763
0.134053
0.132927
0.131696
0.130514
0.129715
0.128523
0.12806
0.12698
0.12662
0.125726
0.125454
0.124735
0.124541
0.123993
0.123875
0.123474
0.123319
0.123284
0.123186
0.123259
0.123249
0.123531
0.123597
0.124081
0.124249
0.124924
0.125198
0.126064
0.126455
0.127502
0.128041
0.129274
0.129994
0.13132
0.132329
0.133692
0.134996
0.136495
0.13808
0.139741
0.141639
0.143513
0.145814
0.147988
0.150703
0.153226
0.156383
0.159353
0.16304
0.166535
0.170781
0.174832
0.179607
0.184104
0.189315
0.194212
0.199738
0.204871
0.210562
0.215735
0.221383
0.226303
0.231589
0.235814
0.240162
0.242783
0.244688
0.245381
0.000790155
0.000789507
0.000789198
0.000788942
0.000788833
0.000788728
0.000788672
0.000788612
0.000788603
0.000788594
0.000788583
0.000788582
0.00078858
0.000788577
0.000788574
0.000788587
0.000788683
0.00078894
0.00078947
0.000790524
0.000792583
0.000796926
0.000806225
0.000826966
0.000873098
0.000977004
0.00120764
0.00172153
0.00284452
0.0053108
0.0105917
0.0218786
0.0450368
0.0914251
0.177552
0.324981
0.51652
0.58339
0.576515
0.4856
0.320224
0.138857
0.0519417
0.0249304
0.0176339
0.0167152
0.0184188
0.0258166
0.0422828
0.0729665
0.12331
0.200513
0.307012
0.439448
0.575616
0.692395
0.774457
0.84047
0.92
1.02654
1.07088
1.07758
1.06936
1.03991
0.996114
0.956116
0.940877
0.93056
0.890338
0.764591
0.524292
0.233006
0.110465
0.0741035
0.0632034
0.063022
0.0703462
0.0881534
0.112551
0.137126
0.161798
0.182051
0.203686
0.21991
0.235609
0.241029
0.243232
0.243154
0.242249
0.241144
0.237288
0.234085
0.227862
0.223345
0.215289
0.209841
0.200667
0.195311
0.186096
0.181449
0.173414
0.169844
0.163448
0.160616
0.155546
0.153336
0.149141
0.147186
0.14401
0.142093
0.139321
0.137324
0.135014
0.132793
0.131036
0.128687
0.127477
0.125255
0.124282
0.122404
0.121606
0.120063
0.119419
0.118127
0.117544
0.116665
0.116135
0.115516
0.115024
0.114632
0.114167
0.113959
0.113566
0.113451
0.113159
0.113102
0.112925
0.112921
0.112855
0.112904
0.112897
0.11303
0.113229
0.113381
0.113767
0.113965
0.114519
0.114806
0.115521
0.115929
0.116798
0.117349
0.118363
0.119069
0.12024
0.121125
0.122453
0.123519
0.124999
0.126362
0.128017
0.129736
0.13161
0.133666
0.135846
0.138268
0.140823
0.143608
0.146542
0.149715
0.153075
0.156715
0.160567
0.164731
0.169146
0.173872
0.178894
0.184198
0.189646
0.195479
0.201288
0.207534
0.213562
0.220035
0.226033
0.232394
0.237951
0.243689
0.248241
0.252675
0.255451
0.25736
0.258048
0.000791006
0.000789974
0.000789632
0.000789253
0.000789091
0.000788915
0.000788842
0.000788767
0.00078873
0.00078866
0.000788636
0.000788633
0.00078863
0.000788609
0.000788612
0.000788605
0.000788606
0.000788684
0.000788912
0.000789433
0.000790489
0.000792652
0.000797091
0.000806644
0.000827474
0.000874241
0.000978574
0.00121414
0.00173614
0.00290317
0.00544578
0.011016
0.0227902
0.0474082
0.0958051
0.186403
0.337882
0.510226
0.559825
0.544318
0.452614
0.296199
0.130782
0.0550471
0.0312613
0.0264658
0.0269278
0.0340495
0.0513866
0.0825861
0.128591
0.192121
0.269256
0.349453
0.412843
0.46296
0.51307
0.604231
0.73841
0.909431
1.02342
1.05291
1.05483
1.03942
1.00232
0.947301
0.908757
0.900873
0.913666
0.964533
1.00416
1.00272
0.903265
0.638473
0.288245
0.134297
0.0829838
0.0685542
0.0656062
0.0687178
0.0801755
0.0985162
0.119423
0.137911
0.154488
0.167086
0.176385
0.179344
0.180036
0.180283
0.17958
0.178716
0.176282
0.174079
0.170151
0.167096
0.162362
0.159074
0.15415
0.150863
0.146163
0.143368
0.139429
0.137266
0.134062
0.132445
0.129768
0.128436
0.126331
0.124981
0.123202
0.121731
0.120156
0.118575
0.11717
0.115574
0.114426
0.112937
0.112092
0.110788
0.110185
0.109138
0.108679
0.107872
0.107506
0.106995
0.106713
0.1064
0.106199
0.106037
0.105915
0.105882
0.105834
0.10586
0.105886
0.106035
0.106103
0.106363
0.106488
0.106838
0.10705
0.107474
0.107844
0.108326
0.108849
0.109441
0.110113
0.11083
0.111665
0.112517
0.113509
0.114523
0.115673
0.116847
0.118157
0.11951
0.120986
0.122562
0.124223
0.126006
0.127871
0.129868
0.131959
0.134203
0.136618
0.139192
0.142015
0.145043
0.148321
0.151887
0.155683
0.159816
0.164215
0.168934
0.173987
0.179311
0.185054
0.19102
0.197217
0.203788
0.210375
0.217404
0.22422
0.23147
0.238211
0.245255
0.251389
0.257594
0.262399
0.267038
0.269762
0.271749
0.272407
0.000790486
0.000789969
0.000789417
0.000789213
0.00078906
0.000788993
0.000788967
0.000788946
0.000788933
0.000788933
0.000788923
0.000788908
0.000788912
0.000788913
0.000788892
0.000788895
0.000788892
0.00078889
0.000788937
0.000789132
0.000789616
0.000790636
0.000792755
0.000797228
0.000806759
0.000827667
0.000873797
0.0009776
0.00120841
0.00172824
0.0028705
0.00540455
0.0108536
0.022567
0.0465298
0.094254
0.181978
0.326845
0.493288
0.540143
0.53138
0.45985
0.327308
0.17546
0.0826057
0.0531297
0.0462396
0.047871
0.0572998
0.0774691
0.106672
0.143581
0.182589
0.221776
0.264368
0.323996
0.411049
0.537905
0.70054
0.884155
1.0135
1.04953
1.05269
1.03411
0.986584
0.915623
0.833125
0.75668
0.729451
0.72859
0.755204
0.826585
0.943447
0.997917
0.998592
0.902773
0.653773
0.316679
0.138171
0.0874404
0.0711064
0.0688616
0.0703952
0.0790275
0.0936233
0.110966
0.127155
0.140229
0.148531
0.151915
0.15278
0.153053
0.15283
0.152552
0.151565
0.150617
0.148711
0.14685
0.144113
0.141358
0.13811
0.135229
0.132346
0.129947
0.127603
0.125671
0.123768
0.122174
0.120635
0.119231
0.11786
0.116511
0.115153
0.113795
0.11235
0.111058
0.109719
0.108589
0.107457
0.106524
0.105641
0.104953
0.104315
0.103844
0.103386
0.103102
0.102811
0.102681
0.102539
0.102496
0.102477
0.102491
0.102588
0.102697
0.10285
0.103036
0.103237
0.103494
0.103792
0.104082
0.104459
0.104858
0.10536
0.105853
0.106498
0.107127
0.107916
0.108708
0.109641
0.11061
0.111689
0.112845
0.114058
0.115408
0.116789
0.11834
0.119904
0.121707
0.123495
0.12556
0.127626
0.129994
0.132406
0.135124
0.137929
0.140967
0.144249
0.147648
0.151467
0.155364
0.159799
0.164307
0.169468
0.174655
0.18062
0.186511
0.193325
0.199992
0.207337
0.214763
0.222576
0.230587
0.23866
0.246979
0.254934
0.263044
0.270205
0.277303
0.282761
0.287945
0.290909
0.293084
0.293768
0.000791269
0.000790707
0.000789998
0.000789758
0.000789461
0.00078934
0.000789215
0.000789156
0.000789118
0.00078909
0.000789058
0.000789044
0.000789038
0.00078903
0.000789031
0.000789023
0.000789019
0.000789054
0.000789186
0.000789469
0.000789969
0.000790765
0.000792077
0.000794328
0.000798575
0.00080722
0.000825569
0.00086618
0.000956013
0.00115959
0.00161086
0.00262625
0.00484145
0.00971458
0.0199865
0.041415
0.0835521
0.16086
0.289727
0.455623
0.525029
0.530273
0.495424
0.405837
0.280874
0.167929
0.106634
0.0873847
0.0834805
0.0883979
0.10149
0.122204
0.148859
0.185864
0.239776
0.325469
0.454099
0.622492
0.818622
0.965563
1.01353
1.01967
1.0042
0.957935
0.888913
0.809338
0.726996
0.649129
0.571799
0.511093
0.491924
0.492999
0.522253
0.58428
0.687474
0.780153
0.807992
0.802131
0.725673
0.54942
0.310177
0.164217
0.112425
0.0958697
0.0897414
0.0892989
0.0913117
0.0989153
0.109926
0.123085
0.134434
0.14258
0.145664
0.14694
0.147356
0.147455
0.147397
0.146981
0.146016
0.144289
0.142183
0.139524
0.136992
0.134189
0.131825
0.129232
0.127283
0.125136
0.123455
0.121749
0.120239
0.118866
0.117226
0.116016
0.114164
0.112969
0.111105
0.110084
0.108475
0.107723
0.106472
0.10591
0.104998
0.104611
0.104017
0.10373
0.10341
0.103248
0.103139
0.103068
0.103078
0.103074
0.103222
0.103282
0.103518
0.103631
0.103915
0.104081
0.104485
0.104675
0.105191
0.105519
0.10613
0.106621
0.107364
0.108065
0.10893
0.109856
0.110849
0.112006
0.113129
0.114509
0.115762
0.117383
0.11879
0.120668
0.122262
0.124427
0.126305
0.128641
0.130892
0.133452
0.136122
0.138971
0.142101
0.145327
0.148994
0.152672
0.156954
0.161191
0.166169
0.171096
0.176892
0.182593
0.189333
0.195879
0.203645
0.211165
0.219615
0.228088
0.237145
0.246373
0.255789
0.265434
0.274775
0.284237
0.292683
0.300943
0.307329
0.313231
0.316555
0.318959
0.319684
0.000790955
0.000790128
0.000789529
0.000789261
0.000788979
0.000788876
0.000788766
0.000788729
0.000788718
0.000788698
0.000788694
0.000788771
0.000788974
0.000789126
0.000789171
0.000789184
0.000789188
0.000789191
0.000789199
0.000789234
0.000789389
0.000789735
0.00079037
0.000791527
0.000793619
0.000797604
0.000805416
0.000821659
0.000856075
0.000932284
0.00109942
0.00147548
0.00229885
0.00412807
0.00803998
0.0164222
0.0335709
0.0670928
0.129271
0.231315
0.379638
0.496365
0.532015
0.533141
0.504149
0.440843
0.353735
0.275127
0.215531
0.199088
0.198469
0.216421
0.252288
0.319665
0.419497
0.555748
0.72334
0.877058
0.973139
0.996348
0.993321
0.953057
0.873832
0.76943
0.657331
0.557025
0.467865
0.401485
0.343239
0.302807
0.268635
0.259852
0.262233
0.274562
0.310076
0.368383
0.465502
0.57655
0.696587
0.7464
0.754573
0.717888
0.610997
0.465068
0.303118
0.196398
0.15034
0.133423
0.12734
0.125378
0.126156
0.129641
0.137012
0.145719
0.153097
0.155999
0.157466
0.157914
0.158251
0.158059
0.157892
0.15664
0.155263
0.152744
0.150785
0.147745
0.145796
0.142838
0.140436
0.138139
0.135671
0.134111
0.131288
0.130093
0.127137
0.125917
0.12311
0.121948
0.119654
0.118756
0.11701
0.116368
0.115064
0.114658
0.1138
0.113289
0.11285
0.112373
0.112176
0.111614
0.111547
0.110994
0.110958
0.11051
0.110459
0.110141
0.110138
0.109999
0.110081
0.110009
0.110294
0.110419
0.110807
0.111226
0.111748
0.112461
0.113113
0.114123
0.114877
0.11618
0.117058
0.11861
0.119654
0.121472
0.122716
0.124831
0.1263
0.128737
0.130534
0.133103
0.135358
0.138103
0.140856
0.143875
0.147184
0.150581
0.15456
0.158438
0.163139
0.167642
0.173142
0.178394
0.184852
0.190985
0.198559
0.205719
0.214573
0.222966
0.232776
0.242421
0.253083
0.263742
0.274958
0.286231
0.297485
0.30873
0.319065
0.329055
0.336897
0.344126
0.34799
0.350882
0.351701
0.000791481
0.000790206
0.000789658
0.000789253
0.000789019
0.00078885
0.000788767
0.00078871
0.000788691
0.000788672
0.000788626
0.000788633
0.000788756
0.00078895
0.000789027
0.000789039
0.000789038
0.000789033
0.000789054
0.000789169
0.000789418
0.00078985
0.00079052
0.000791523
0.000793023
0.000795384
0.000799306
0.000806367
0.000819744
0.000847088
0.000904102
0.00102938
0.00130093
0.00190612
0.00320887
0.00604642
0.0119909
0.0240613
0.0478507
0.0906613
0.164074
0.274585
0.40601
0.497266
0.545355
0.56646
0.570331
0.565617
0.554108
0.550567
0.555505
0.58607
0.635013
0.711582
0.799787
0.886236
0.965394
0.989805
0.987946
0.949946
0.866604
0.748646
0.611685
0.480529
0.353258
0.261157
0.18058
0.138061
0.101349
0.0846532
0.0678108
0.0631151
0.0630964
0.0657471
0.0753597
0.0913248
0.12188
0.167583
0.246012
0.344766
0.461068
0.563809
0.661253
0.697756
0.702665
0.678403
0.616326
0.535764
0.440803
0.346139
0.276639
0.232912
0.214676
0.204501
0.201578
0.199017
0.199712
0.199668
0.201542
0.201081
0.201571
0.200648
0.200712
0.199137
0.198806
0.196148
0.195332
0.192202
0.189727
0.187553
0.184102
0.182569
0.178067
0.176567
0.172135
0.170773
0.166964
0.165738
0.16282
0.162054
0.160228
0.16006
0.159205
0.159582
0.1596
0.159237
0.159539
0.158663
0.158844
0.156723
0.156482
0.15292
0.152051
0.147937
0.146612
0.142695
0.141412
0.138008
0.137014
0.134144
0.13348
0.131739
0.130707
0.130068
0.129324
0.129309
0.128973
0.129227
0.129139
0.129924
0.130026
0.131306
0.131677
0.133404
0.134046
0.136225
0.137127
0.139764
0.141138
0.143741
0.14585
0.148521
0.151363
0.154232
0.157845
0.16106
0.165493
0.169173
0.174456
0.178736
0.184933
0.189995
0.197275
0.203326
0.211924
0.219193
0.22937
0.238202
0.249577
0.26014
0.272651
0.284692
0.297987
0.311093
0.324556
0.338078
0.350665
0.363232
0.37288
0.382384
0.387008
0.390692
0.3917
0.000791608
0.000790088
0.000789458
0.000788985
0.000788731
0.000788527
0.00078844
0.00078837
0.00078834
0.000788332
0.000788322
0.00078831
0.000788359
0.000788531
0.000788668
0.000788698
0.000788703
0.000788704
0.000788702
0.000788697
0.000788729
0.000788871
0.000789134
0.000789663
0.000790488
0.000791842
0.000793958
0.000797543
0.000803594
0.000814697
0.000835425
0.000877458
0.000963386
0.00114907
0.00154181
0.00239552
0.00419165
0.00789793
0.0154359
0.0296316
0.0557613
0.0988724
0.166394
0.260932
0.375562
0.468228
0.536529
0.575345
0.615504
0.646949
0.688189
0.723997
0.771544
0.814241
0.860913
0.875137
0.869402
0.832348
0.75552
0.646882
0.50997
0.379135
0.250212
0.165127
0.0983628
0.0691492
0.0431208
0.0322403
0.0212392
0.016798
0.0118408
0.00990245
0.00928886
0.00930114
0.0104593
0.0129216
0.018165
0.0265516
0.041499
0.0633053
0.0982338
0.144764
0.222229
0.304896
0.399557
0.481436
0.56863
0.629911
0.706006
0.747097
0.755797
0.742444
0.708056
0.647618
0.580444
0.502866
0.451383
0.408103
0.391801
0.370526
0.363417
0.347222
0.341542
0.328969
0.325026
0.31655
0.314605
0.310147
0.307495
0.307066
0.304526
0.30446
0.299674
0.298968
0.293599
0.293096
0.290216
0.290785
0.290223
0.292766
0.293456
0.299136
0.301578
0.310816
0.316413
0.323155
0.332473
0.33654
0.34396
0.34432
0.346617
0.342868
0.342064
0.330955
0.325768
0.310391
0.30423
0.288622
0.283045
0.267446
0.26249
0.25049
0.243562
0.235996
0.228198
0.223542
0.215428
0.212959
0.205324
0.203347
0.196862
0.195344
0.190024
0.188971
0.184843
0.184253
0.18129
0.181164
0.180173
0.179246
0.179687
0.179597
0.181442
0.181749
0.184963
0.186008
0.190408
0.19217
0.197703
0.200325
0.206979
0.210715
0.218676
0.223552
0.233048
0.239226
0.250566
0.258761
0.271204
0.281946
0.295632
0.308824
0.323502
0.338804
0.353965
0.370659
0.385366
0.402025
0.413826
0.426906
0.433044
0.437883
0.439206
0.000793625
0.000790894
0.000790004
0.000789564
0.000789103
0.000788955
0.000788777
0.00078872
0.000788646
0.000788643
0.000788606
0.000788608
0.000788591
0.000788614
0.000788601
0.000788615
0.000788615
0.000788607
0.000788608
0.0007887
0.000788946
0.000789331
0.000789871
0.000790543
0.000791414
0.000792572
0.000794263
0.000796783
0.000800699
0.00080681
0.000816671
0.000833511
0.000863392
0.000920838
0.00103332
0.00126679
0.00174613
0.00272773
0.00474189
0.00860305
0.0159782
0.0287568
0.0503153
0.0824304
0.128918
0.186536
0.264182
0.337346
0.41247
0.463147
0.519196
0.552131
0.575666
0.574812
0.559935
0.523254
0.457998
0.38308
0.292232
0.218569
0.144695
0.100456
0.0578695
0.0395347
0.0220779
0.0153814
0.00933511
0.00703003
0.0048872
0.00405526
0.00315821
0.00275585
0.00240101
0.00230712
0.00233517
0.0025156
0.00304761
0.00405071
0.00599486
0.00912009
0.01459
0.0224025
0.0352824
0.0519382