/*--------------------------------*- C++ -*----------------------------------*\
| =========                 |                                                 |
| \\      /  F ield         | OpenFOAM: The Open Source CFD Toolbox           |
|  \\    /   O peration     | Version:  4.1                                   |
|   \\  /    A nd           | Web:      www.OpenFOAM.org                      |
|    \\/     M anipulation  |                                                 |
\*---------------------------------------------------------------------------*/
FoamFile
{
    version     2.0;
    format      ascii;
    class       volScalarField;
    location    "7.5";
    object      k;
}
// * * * * * * * * * * * * * * * * * * * * * * * * * * * * * * * * * * * * * //

dimensions      [0 2 -2 0 0 0 0];

internalField   nonuniform List<scalar> 
204246
(
0.736644
0.806607
0.80857
0.807296
0.808635
0.807212
0.808224
0.807325
0.80839
0.807613
0.808784
0.80811
0.809351
0.808869
0.810855
0.810164
0.812753
0.812061
0.812871
0.815721
0.815247
0.818661
0.818302
0.82126
0.821185
0.824547
0.824842
0.83038
0.832812
0.84451
0.855442
0.883564
0.92831
1.02358
1.19272
1.4827
1.89582
2.32048
2.48046
2.53166
2.5545
2.56335
2.573
2.57313
2.57127
2.56278
2.55376
2.54308
2.52989
2.51595
2.50483
2.49245
2.4876
2.47681
2.47318
2.47709
2.47507
2.4838
2.48521
2.49807
2.50087
2.51397
2.51656
2.53208
2.53498
2.55164
2.55509
2.57188
2.57674
2.59465
2.60064
2.61677
2.62979
2.64154
2.65901
2.66772
2.6871
2.69539
2.71426
2.72368
2.74243
2.75148
2.77009
2.77918
2.79675
2.80567
2.82204
2.83098
2.84629
2.85654
2.87114
2.88158
2.89648
2.90687
2.92191
2.93487
2.94846
2.96376
2.97585
2.99366
3.00464
3.02237
3.03442
3.0521
3.06514
3.08319
3.09651
3.11353
3.13011
3.14539
3.16314
3.1783
3.19881
3.21245
3.23511
3.24774
3.27075
3.28394
3.30747
3.32109
3.34523
3.35932
3.38436
3.39859
3.42284
3.44043
3.46287
3.48221
3.50409
3.52534
3.5466
3.56901
3.59028
3.61368
3.63512
3.65952
3.68112
3.70631
3.72832
3.75434
3.77663
3.80221
3.82641
3.8514
3.87612
3.90155
3.92649
3.95247
3.97749
4.00408
4.02906
4.0562
4.08098
4.10879
4.13352
4.16183
4.18659
4.21524
4.23936
4.26827
4.29253
4.32079
4.34589
4.37332
4.39933
4.42575
4.45296
4.4782
4.50706
4.53108
4.56208
4.58472
4.61854
4.64022
4.67832
4.69803
4.74091
4.76444
4.80356
4.83588
4.87333
4.91507
4.95391
5.00618
5.05023
5.11445
5.16833
5.24577
5.31407
5.39677
5.46651
5.50717
5.52422
0.170864
0.251701
0.247671
0.245293
0.247509
0.245481
0.247528
0.24623
0.248268
0.246981
0.249252
0.248065
0.250713
0.249209
0.253274
0.251957
0.257738
0.257222
0.260347
0.266797
0.266679
0.274983
0.274978
0.28308
0.2841
0.295182
0.299112
0.319916
0.333724
0.380539
0.42974
0.549563
0.720081
1.04942
1.53056
1.95072
2.04245
2.01423
1.75899
1.33663
1.15272
1.08425
1.06206
1.04692
1.04829
1.05468
1.1078
1.13085
1.17925
1.20091
1.26891
1.29946
1.36668
1.40193
1.46507
1.49838
1.55206
1.58018
1.62289
1.64381
1.67519
1.68973
1.70907
1.7164
1.72474
1.72755
1.73602
1.73928
1.74987
1.75478
1.76796
1.77364
1.78528
1.79006
1.80228
1.80683
1.81649
1.81938
1.82817
1.8311
1.84312
1.8469
1.86024
1.86464
1.87809
1.88332
1.89821
1.90439
1.91312
1.92801
1.93448
1.95234
1.95972
1.97864
1.98619
2.00566
2.01337
2.03335
2.04133
2.06184
2.07014
2.09197
2.10143
2.12445
2.13468
2.15929
2.17012
2.19079
2.21015
2.22644
2.25088
2.26362
2.29114
2.30335
2.33269
2.34556
2.37703
2.39084
2.4236
2.43841
2.47285
2.48861
2.52551
2.5428
2.57443
2.60115
2.62885
2.66058
2.68737
2.72192
2.74881
2.78699
2.81438
2.85505
2.8838
2.9266
2.95718
3.00198
3.03518
3.08236
3.11938
3.16087
3.20748
3.24797
3.29689
3.34075
3.39075
3.43836
3.48943
3.54103
3.59341
3.64907
3.70096
3.76145
3.81523
3.88036
3.93699
4.00728
4.05855
4.1371
4.19331
4.26628
4.33443
4.40148
4.48005
4.54158
4.6284
4.68581
4.77745
4.83328
4.92556
4.98269
5.06799
5.12854
5.21705
5.27653
5.36357
5.40549
5.5039
5.54222
5.63644
5.67127
5.76089
5.79232
5.87876
5.90724
6.00004
6.03337
6.2041
6.35323
6.7754
7.04025
7.15271
0.0174468
0.0376352
0.035337
0.0340647
0.0345137
0.0338344
0.0344344
0.0340872
0.0347482
0.0344585
0.0352915
0.0350713
0.0361299
0.0358757
0.0373525
0.0371529
0.0390735
0.0390403
0.0406482
0.0424039
0.0428495
0.0464375
0.0472811
0.0527583
0.0553403
0.0644537
0.0727749
0.0927248
0.118725
0.171468
0.251234
0.396869
0.62608
1.00527
1.53835
1.86932
1.91681
1.73636
1.24154
0.97138
0.904865
0.892211
0.905552
0.947303
0.999125
1.04292
1.09115
1.13854
1.19026
1.23867
1.29049
1.34773
1.41499
1.48691
1.56137
1.64841
1.72697
1.82
1.89268
1.97612
2.03782
2.10704
2.15866
2.21474
2.2586
2.30457
2.33786
2.36807
2.38981
2.40763
2.42218
2.43728
2.44123
2.45572
2.45848
2.47216
2.47437
2.4877
2.48966
2.50471
2.50592
2.52369
2.52593
2.54561
2.54956
2.56712
2.57078
2.58772
2.59578
2.59861
2.61098
2.6131
2.62885
2.63249
2.6509
2.65436
2.6737
2.67743
2.69629
2.69993
2.7184
2.72273
2.73997
2.74489
2.76246
2.76765
2.78738
2.79585
2.80635
2.82183
2.82747
2.84638
2.85167
2.87118
2.8769
2.89716
2.90389
2.92337
2.93028
2.95016
2.95739
2.97777
2.98543
3.00639
3.01617
3.03017
3.0448
3.05432
3.07199
3.0797
3.09818
3.10622
3.1243
3.13244
3.14973
3.15783
3.17445
3.18271
3.19893
3.20745
3.22243
3.22965
3.24125
3.24792
3.25759
3.26347
3.27125
3.27437
3.28076
3.28056
3.2841
3.28114
3.28198
3.27274
3.27316
3.25782
3.25699
3.23176
3.21941
3.20467
3.17247
3.1638
3.11879
3.10681
3.0534
3.03822
2.9777
2.96017
2.89419
2.87463
2.80366
2.78266
2.70744
2.68558
2.61001
2.58892
2.50773
2.46989
2.43306
2.36832
2.35215
2.27952
2.26457
2.19453
2.18183
2.11988
2.11239
2.07001
2.07371
2.04551
2.05036
1.91245
1.86125
0.00599775
0.00748225
0.00709274
0.00688357
0.00689967
0.00676967
0.00683071
0.00678225
0.00687041
0.00683844
0.00696046
0.00694184
0.00710348
0.00708247
0.00730472
0.00729162
0.00758033
0.00759314
0.00787671
0.00821674
0.00851848
0.00939603
0.0100029
0.0119369
0.0140941
0.0191462
0.0268545
0.04242
0.0690502
0.119026
0.204925
0.354789
0.597691
0.973332
1.46038
1.66332
1.67622
1.48424
1.02602
0.772846
0.702252
0.679149
0.676169
0.67365
0.667057
0.6405
0.627104
0.615974
0.614911
0.610673
0.623136
0.646517
0.706686
0.770469
0.869967
0.99835
1.13492
1.30988
1.45503
1.64554
1.78369
1.95671
2.06308
2.21111
2.30061
2.42716
2.49157
2.5903
2.63987
2.71887
2.75791
2.81783
2.84622
2.89037
2.91097
2.9461
2.96206
2.98973
3.0014
3.02199
3.02907
3.04344
3.04745
3.05865
3.0615
3.06776
3.06787
3.06885
3.0677
3.05872
3.05128
3.03699
3.03051
3.02261
3.02093
3.01765
3.01802
3.01687
3.01792
3.01745
3.01832
3.0178
3.01797
3.01642
3.01591
3.01324
3.01229
3.00986
3.0064
3.0046
3.00025
2.99802
2.99338
2.99078
2.98587
2.98282
2.97755
2.97398
2.96809
2.96396
2.9576
2.95265
2.94588
2.93859
2.93011
2.92193
2.91057
2.90257
2.88743
2.87977
2.86018
2.85332
2.82957
2.82155
2.7939
2.78454
2.75261
2.74162
2.70561
2.69323
2.64922
2.62765
2.59501
2.55686
2.53233
2.48091
2.46083
2.40142
2.37927
2.31546
2.29139
2.22332
2.19727
2.12541
2.09764
2.02348
1.99488
1.91508
1.87633
1.81446
1.75945
1.71123
1.64325
1.60746
1.53234
1.50294
1.42764
1.39979
1.32995
1.30421
1.24059
1.21755
1.16053
1.14034
1.08977
1.07231
1.02706
1.00648
0.976552
0.951902
0.932221
0.903946
0.891403
0.86249
0.853206
0.832774
0.829279
0.824752
0.838425
0.855769
0.885995
0.895609
0.902978
0.0054815
0.00554701
0.00551747
0.00550352
0.00550235
0.00549297
0.00549478
0.00549209
0.00549636
0.00549495
0.00550231
0.0055019
0.00551257
0.00551236
0.00553023
0.00553285
0.00556538
0.00557809
0.00562953
0.00570494
0.00582393
0.00607658
0.006492
0.00737463
0.00899051
0.0122735
0.0185061
0.0306985
0.0535735
0.0964489
0.173512
0.308799
0.532502
0.878256
1.30271
1.46217
1.47304
1.31676
0.928317
0.563726
0.424856
0.354708
0.314615
0.282613
0.256346
0.218974
0.197907
0.187115
0.185212
0.183065
0.187172
0.199143
0.234222
0.28293
0.346434
0.40703
0.467743
0.532005
0.606856
0.714035
0.844192
1.02817
1.23305
1.49111
1.70894
1.938
2.09192
2.26774
2.38569
2.53172
2.62414
2.73667
2.81328
2.89215
2.94832
3.00202
3.04701
3.08388
3.11674
3.13811
3.15915
3.16895
3.17738
3.18073
3.18208
3.18242
3.18069
3.17515
3.16364
3.1442
3.12089
3.09216
3.06335
3.03359
3.00812
2.98373
2.96242
2.94311
2.92502
2.91108
2.89448
2.88406
2.86696
2.85657
2.83577
2.8238
2.79844
2.78328
2.76181
2.74095
2.72173
2.69412
2.67844
2.64449
2.63123
2.59303
2.5781
2.53861
2.52239
2.48052
2.46332
2.41867
2.40074
2.35082
2.32632
2.28765
2.25024
2.2194
2.17147
2.14624
2.09081
2.06816
2.00883
1.98523
1.92405
1.89974
1.83699
1.81191
1.74848
1.72306
1.65723
1.62528
1.57285
1.53009
1.48756
1.43649
1.40283
1.34505
1.32
1.26036
1.23687
1.17967
1.15739
1.10347
1.08273
1.03281
1.01391
0.966889
0.944966
0.911604
0.885818
0.862387
0.833673
0.81922
0.790927
0.780623
0.75594
0.747574
0.727072
0.720343
0.703821
0.698691
0.685846
0.68223
0.672717
0.670485
0.66364
0.660987
0.659948
0.657727
0.65825
0.657105
0.657919
0.65654
0.657069
0.655494
0.656598
0.656929
0.666314
0.671981
0.685023
0.689789
0.693655
0.0054594
0.00546025
0.00545473
0.00545303
0.00545198
0.00545107
0.00545082
0.0054504
0.00545038
0.0054501
0.00545016
0.00545017
0.00545088
0.00545162
0.00545379
0.00545613
0.00546174
0.0054702
0.00548723
0.00551951
0.00558211
0.00571349
0.0059792
0.00653997
0.00769065
0.0100733
0.0148823
0.0245231
0.043272
0.0791182
0.144875
0.261717
0.45675
0.759454
1.15118
1.31867
1.33639
1.2225
0.908091
0.5136
0.281295
0.18864
0.143947
0.120743
0.107117
0.0900272
0.0810725
0.078626
0.0801037
0.0882669
0.110148
0.147279
0.206044
0.286374
0.383272
0.434552
0.45419
0.456686
0.454142
0.431414
0.42448
0.42778
0.473026
0.569993
0.712558
0.895814
1.10822
1.36142
1.59348
1.81958
1.99369
2.16894
2.3277
2.46324
2.59429
2.68338
2.78407
2.84124
2.91041
2.94085
2.98189
2.99609
3.00854
3.00931
3.01064
3.0075
3.00388
2.98955
2.9702
2.94545
2.90677
2.8693
2.81608
2.77054
2.71052
2.6678
2.60859
2.57313
2.51757
2.48988
2.4394
2.41828
2.37419
2.35542
2.31106
2.29172
2.24183
2.21576
2.17322
2.13808
2.10135
2.05769
2.0269
1.97513
1.94914
1.89205
1.86778
1.81006
1.78523
1.72761
1.70285
1.64549
1.62094
1.56177
1.53326
1.48569
1.44873
1.41022
1.36676
1.33603
1.28747
1.26363
1.21303
1.19229
1.14286
1.12322
1.0763
1.05771
1.01366
0.996271
0.953903
0.93385
0.902395
0.878613
0.854536
0.828019
0.810492
0.782254
0.770519
0.742961
0.732447
0.707793
0.69845
0.676604
0.668409
0.649295
0.642242
0.624992
0.617094
0.605427
0.596682
0.588468
0.579135
0.574054
0.565053
0.561693
0.554024
0.551429
0.545589
0.543774
0.53973
0.538691
0.536353
0.536065
0.53535
0.535807
0.536116
0.537904
0.539984
0.542538
0.54634
0.549696
0.555044
0.559132
0.566025
0.571088
0.579482
0.585407
0.595165
0.601548
0.609106
0.612096
0.614042
0.00545708
0.00545562
0.0054517
0.00545019
0.00544869
0.00544799
0.00544763
0.00544734
0.00544725
0.0054473
0.00544795
0.00544832
0.00544838
0.00544834
0.00544839
0.0054488
0.00545024
0.00545346
0.00546075
0.00547659
0.00551042
0.00558425
0.00574248
0.00608589
0.00681744
0.00837577
0.0116238
0.0183377
0.0318162
0.0584518
0.108889
0.201486
0.360732
0.617127
0.97482
1.18792
1.22329
1.1596
0.920616
0.552573
0.248937
0.126904
0.0822305
0.0669494
0.0626067
0.0615596
0.0629185
0.0707037
0.0919974
0.133164
0.208109
0.333815
0.521285
0.771397
1.0403
1.19046
1.24532
1.25077
1.22203
1.0938
0.894963
0.633201
0.457905
0.384618
0.361269
0.357454
0.393948
0.495258
0.654904
0.848379
1.05269
1.2601
1.47675
1.6595
1.84794
1.99053
2.14357
2.24788
2.36295
2.42584
2.50026
2.52845
2.55344
2.55552
2.55808
2.55325
2.54961
2.53162
2.50932
2.48324
2.43859
2.39902
2.33694
2.28533
2.21188
2.15725
2.08002
2.02883
1.9536
1.90991
1.8392
1.80327
1.74015
1.71212
1.65703
1.6327
1.57631
1.54838
1.49954
1.46307
1.42183
1.37929
1.34673
1.2978
1.27197
1.22029
1.19807
1.14843
1.12713
1.08073
1.06093
1.0178
0.999507
0.958108
0.938815
0.906765
0.884464
0.859202
0.834711
0.815766
0.789727
0.776205
0.750046
0.739425
0.714949
0.705443
0.683429
0.674899
0.65521
0.647597
0.629473
0.620998
0.608146
0.598406
0.589019
0.578595
0.572006
0.561333
0.55699
0.546908
0.543139
0.534395
0.531162
0.523652
0.52092
0.51454
0.512272
0.506796
0.50431
0.500983
0.498242
0.496422
0.493785
0.492943
0.490904
0.490445
0.489305
0.489277
0.489002
0.489653
0.489987
0.491798
0.492505
0.495336
0.496512
0.500198
0.501823
0.505974
0.508611
0.512888
0.516465
0.520996
0.525616
0.530662
0.53631
0.541914
0.54858
0.554831
0.56227
0.568285
0.573811
0.576321
0.577713
0.00544981
0.00544808
0.00544581
0.00544474
0.00544393
0.00544335
0.0054431
0.00544295
0.00544286
0.0054428
0.00544277
0.00544272
0.00544281
0.00544324
0.00544433
0.00544619
0.00544911
0.00545351
0.00546036
0.00547206
0.00549429
0.00553991
0.00563662
0.00584687
0.00630173
0.00728842
0.0093912
0.0138449
0.0230236
0.0416947
0.0781439
0.147416
0.271091
0.479865
0.795721
1.07307
1.13644
1.11391
0.950746
0.648045
0.301082
0.132289
0.0730315
0.0536719
0.0497383
0.0502399
0.0573275
0.0771347
0.119451
0.199034
0.331882
0.531365
0.798538
1.11913
1.45288
1.75116
1.95001
2.02995
2.06052
2.05951
2.00965
1.86129
1.62547
1.26832
0.886611
0.516558
0.360825
0.299682
0.287559
0.299946
0.371854
0.499738
0.663298
0.828805
0.998542
1.15317
1.31432
1.45289
1.59618
1.70186
1.81132
1.87713
1.93437
1.94863
1.95628
1.95426
1.95329
1.94015
1.92135
1.90043
1.86085
1.82734
1.77174
1.72619
1.65736
1.60656
1.53182
1.48233
1.40819
1.3651
1.29561
1.25971
1.19826
1.17087
1.12165
1.09998
1.05449
1.03269
0.995475
0.970291
0.938781
0.911525
0.887664
0.856832
0.839223
0.807357
0.793509
0.764132
0.751555
0.725455
0.714321
0.691139
0.6813
0.660029
0.650191
0.634125
0.623801
0.610981
0.600181
0.590474
0.579364
0.572041
0.560655
0.555595
0.544619
0.5402
0.530232
0.526257
0.517316
0.513753
0.505518
0.501639
0.495607
0.491178
0.48659
0.481904
0.478553
0.473676
0.471475
0.466802
0.464984
0.460875
0.459327
0.45583
0.454546
0.451647
0.450629
0.44828
0.447235
0.446147
0.445091
0.444804
0.444201
0.444266
0.444293
0.445314
0.445652
0.447573
0.448379
0.451249
0.452659
0.456515
0.458615
0.46348
0.466304
0.472161
0.475666
0.482173
0.486548
0.493203
0.498269
0.504894
0.510559
0.517222
0.52333
0.529929
0.536295
0.542731
0.5489
0.554411
0.55869
0.560957
0.562062
0.00545403
0.00545174
0.00545126
0.00545153
0.00545232
0.00545228
0.00545201
0.00545167
0.00545145
0.00545136
0.0054513
0.00545126
0.00545117
0.00545116
0.00545109
0.00545118
0.00545159
0.00545301
0.00545592
0.00546195
0.00547391
0.00549845
0.00554973
0.00566081
0.00590223
0.00643391
0.00758792
0.0100932
0.0153954
0.0265479
0.0491152
0.0939654
0.178158
0.329439
0.574373
0.913651
1.07281
1.08731
0.995976
0.761604
0.442256
0.178015
0.0849769
0.0559397
0.0490305
0.0487914
0.0544986
0.0730933
0.113137
0.187424
0.313766
0.510083
0.787179
1.13479
1.50928
1.84114
2.08511
2.24107
2.33556
2.37405
2.38322
2.36595
2.30163
2.19207
2.0479
1.82425
1.5041
1.04012
0.55014
0.327562
0.26143
0.24844
0.259428
0.318908
0.424714
0.550586
0.681864
0.802318
0.925689
1.03287
1.14779
1.23517
1.33088
1.37227
1.39094
1.39282
1.39404
1.38756
1.37577
1.3634
1.33577
1.31291
1.2728
1.24085
1.19033
1.15372
1.09829
1.06255
1.00756
0.976542
0.92571
0.900263
0.856789
0.837344
0.803386
0.788369
0.759294
0.745526
0.722633
0.708388
0.688423
0.673565
0.65802
0.641548
0.62993
0.612702
0.604465
0.588218
0.58106
0.566831
0.560597
0.548114
0.542657
0.531358
0.526081
0.517301
0.512074
0.504901
0.499483
0.493702
0.488289
0.48362
0.478207
0.474616
0.46927
0.466538
0.461306
0.459082
0.454236
0.452242
0.447813
0.445723
0.44239
0.440167
0.437597
0.43535
0.433489
0.43132
0.430086
0.428118
0.42735
0.42573
0.425178
0.424033
0.423697
0.423043
0.422935
0.42274
0.422697
0.423094
0.423165
0.424096
0.424439
0.425865
0.426478
0.428482
0.429418
0.432189
0.4336
0.437185
0.439171
0.443674
0.446384
0.451831
0.455415
0.461741
0.46621
0.473151
0.478495
0.485725
0.491705
0.499034
0.505301
0.512557
0.519038
0.526209
0.532607
0.53931
0.545054
0.550409
0.554134
0.556282
0.557222
0.005456
0.00545227
0.00545076
0.00544942
0.00544882
0.00544822
0.00544801
0.00544782
0.00544774
0.00544764
0.00544761
0.00544755
0.0054477
0.00544811
0.00544864
0.00544887
0.0054493
0.00545004
0.00545163
0.00545479
0.00546118
0.00547473
0.00550267
0.00556273
0.00569127
0.00597326
0.00658729
0.00793523
0.0108336
0.0170606
0.0299797
0.0564797
0.108167
0.205928
0.37616
0.649855
0.958559
1.05174
1.04189
0.907017
0.646964
0.33367
0.136161
0.0742263
0.0575114
0.055638
0.0606994
0.0810098
0.124826
0.203122
0.325591
0.503645
0.73965
1.02246
1.30518
1.55512
1.74804
1.92056
2.11065
2.33842
2.43426
2.45121
2.43853
2.38538
2.30297
2.21332
2.12978
2.01912
1.83717
1.50843
1.01772
0.50371
0.305287
0.249327
0.236679
0.246784
0.295369
0.379944
0.482875
0.580867
0.678639
0.760199
0.847548
0.914176
0.974005
0.994111
1.00197
1.0019
0.998913
0.994667
0.981289
0.968931
0.946503
0.928086
0.898294
0.875466
0.841173
0.81781
0.783274
0.762378
0.730954
0.71417
0.687414
0.674117
0.65203
0.641948
0.623607
0.614833
0.600131
0.591611
0.579027
0.569507
0.559083
0.548855
0.540395
0.529828
0.523057
0.512879
0.507755
0.49831
0.493986
0.485707
0.48194
0.474511
0.470979
0.464928
0.461535
0.456423
0.453128
0.448781
0.445563
0.441881
0.438782
0.435626
0.432574
0.429957
0.426952
0.424869
0.421836
0.420234
0.417213
0.415746
0.413375
0.411918
0.410076
0.408687
0.407287
0.406086
0.405114
0.404163
0.403625
0.402952
0.402728
0.402414
0.402398
0.402407
0.402814
0.403107
0.403745
0.404703
0.405564
0.407262
0.408441
0.410753
0.41246
0.415367
0.417724
0.421174
0.424106
0.428119
0.431627
0.436299
0.440464
0.445895
0.450815
0.457081
0.462758
0.469785
0.47607
0.483651
0.490458
0.498415
0.505578
0.513659
0.520767
0.52849
0.53507
0.541836
0.547265
0.552294
0.555675
0.557712
0.558538
0.00545813
0.00545326
0.00545161
0.00544978
0.00544898
0.00544802
0.0054476
0.00544717
0.00544699
0.00544677
0.00544666
0.00544653
0.00544649
0.00544647
0.00544645
0.00544644
0.00544669
0.00544745
0.00544898
0.00545172
0.00545639
0.00546478
0.00548008
0.00551013
0.00557139
0.0057028
0.00598712
0.00661595
0.00798707
0.0110019
0.017424
0.0310617
0.058724
0.113795
0.216107
0.396525
0.680283
0.961658
1.03401
1.01359
0.875722
0.624754
0.328449
0.148019
0.0909487
0.0791481
0.080061
0.0964052
0.135591
0.206392
0.31154
0.4551
0.622365
0.791272
0.935148
1.06479
1.19913
1.40501
1.67411
1.9965
2.25748
2.34508
2.3602
2.35394
2.31742
2.25023
2.16652
2.07861
2.0211
1.99827
1.98068
1.89674
1.63026
1.13698
0.580038
0.355779
0.281798
0.265066
0.266292
0.296413
0.362791
0.448333
0.538201
0.613907
0.6832
0.736322
0.776352
0.789443
0.792807
0.793834
0.791319
0.7876
0.77805
0.768499
0.752631
0.738808
0.718902
0.703028
0.681644
0.665298
0.644655
0.63019
0.61252
0.600689
0.585967
0.576475
0.563991
0.555968
0.545734
0.538073
0.529173
0.521331
0.513229
0.505187
0.497705
0.489698
0.48306
0.475537
0.469989
0.463134
0.458734
0.452547
0.449072
0.443413
0.440523
0.435764
0.433092
0.429028
0.426484
0.423057
0.420677
0.417773
0.415481
0.413053
0.410836
0.408851
0.406728
0.40514
0.403057
0.4018
0.399838
0.398822
0.39725
0.396358
0.395217
0.394546
0.393832
0.39342
0.393128
0.392955
0.392954
0.393099
0.393541
0.39392
0.394656
0.395393
0.396373
0.397525
0.398777
0.400316
0.401868
0.403774
0.405627
0.407946
0.410274
0.413156
0.416087
0.419765
0.423323
0.427929
0.432185
0.437675
0.442797
0.449101
0.455135
0.462215
0.46913
0.476952
0.484482
0.492889
0.500915
0.509661
0.517973
0.526758
0.53499
0.543271
0.550804
0.557854
0.563824
0.568814
0.572353
0.574368
0.575152
0.00545763
0.00545471
0.00545188
0.0054508
0.00544986
0.00544944
0.00544922
0.00544901
0.00544891
0.00544892
0.0054489
0.00544883
0.00544884
0.00544884
0.00544878
0.00544878
0.00544875
0.00544882
0.00544924
0.00545037
0.00545274
0.00545711
0.00546526
0.00548084
0.00551142
0.00557412
0.00570587
0.00599208
0.00661322
0.0079863
0.0109499
0.0173786
0.0307809
0.0584724
0.112457
0.214387
0.391319
0.66826
0.946807
1.01871
1.00982
0.903387
0.692618
0.430268
0.221043
0.146746
0.128193
0.130544
0.150009
0.193014
0.254613
0.33247
0.420022
0.517744
0.629348
0.7774
0.975208
1.23899
1.55343
1.88586
2.14837
2.24134
2.25835
2.24699
2.19486
2.10794
1.99919
1.88474
1.79515
1.77429
1.78123
1.82671
1.87493
1.87944
1.82304
1.59226
1.15024
0.614188
0.36546
0.297272
0.279516
0.281678
0.306887
0.362427
0.438576
0.517215
0.586974
0.64031
0.677076
0.692948
0.697418
0.698758
0.697974
0.696401
0.691616
0.686162
0.676827
0.666999
0.653715
0.639846
0.624051
0.609297
0.594628
0.581689
0.569274
0.558471
0.548157
0.539094
0.530481
0.522468
0.51469
0.507118
0.499536
0.492118
0.484365
0.47722
0.469843
0.46332
0.45675
0.451045
0.445475
0.440709
0.436094
0.4321
0.428131
0.424711
0.421196
0.418255
0.415189
0.412657
0.40997
0.407655
0.405293
0.403255
0.401222
0.399368
0.397473
0.395839
0.394161
0.392635
0.391117
0.389747
0.388697
0.387547
0.386786
0.385982
0.3856
0.385232
0.38511
0.38507
0.385216
0.385657
0.386036
0.38674
0.387528
0.388485
0.389606
0.390996
0.392423
0.394339
0.396169
0.398592
0.400958
0.403948
0.406857
0.410312
0.413906
0.417853
0.422209
0.426866
0.432029
0.437573
0.443687
0.450119
0.457281
0.464559
0.472731
0.480862
0.489646
0.498495
0.507794
0.517084
0.526611
0.53601
0.54533
0.554237
0.56257
0.570128
0.576473
0.581721
0.585249
0.58736
0.588115
0.00546051
0.00545822
0.00545564
0.00545475
0.00545348
0.00545296
0.00545232
0.00545199
0.00545181
0.0054517
0.00545156
0.00545143
0.00545141
0.00545138
0.00545137
0.00545134
0.00545135
0.00545165
0.00545239
0.00545369
0.00545585
0.00545909
0.00546434
0.00547291
0.00548826
0.00551722
0.00557453
0.00569398
0.0059466
0.00650071
0.00770086
0.0103487
0.0159976
0.02807
0.052569
0.10143
0.19267
0.351219
0.601952
0.893976
1.00758
1.02054
0.971884
0.834939
0.634022
0.428156
0.283618
0.234478
0.22345
0.233068
0.26196
0.311966
0.377051
0.467429
0.592968
0.778693
1.03605
1.34786
1.68477
1.9537
2.06574
2.08777
2.07605
2.02283
1.93036
1.81941
1.69611
1.58069
1.46373
1.36063
1.31201
1.30708
1.33624
1.40186
1.50319
1.53338
1.53385
1.47901
1.29841
0.981747
0.598158
0.427366
0.373274
0.361718
0.359145
0.368769
0.398995
0.450703
0.511171
0.574116
0.623891
0.656926
0.669539
0.674874
0.676323
0.67659
0.675654
0.672302
0.666013
0.656544
0.645497
0.631998
0.618792
0.604265
0.591542
0.57784
0.5669
0.555229
0.545585
0.536162
0.527401
0.519525
0.510492
0.503512
0.493953
0.487184
0.477586
0.471478
0.462867
0.457893
0.450463
0.44647
0.440063
0.437022
0.431728
0.429024
0.424459
0.42204
0.418191
0.41594
0.412846
0.41058
0.408074
0.405844
0.403855
0.401684
0.399976
0.397813
0.396447
0.394304
0.393271
0.391492
0.390606
0.389385
0.38876
0.388076
0.387717
0.387583
0.387502
0.387704
0.388064
0.388654
0.389152
0.390269
0.390979
0.392493
0.393614
0.395528
0.397115
0.399344
0.401491
0.404036
0.406823
0.409799
0.413224
0.416752
0.420952
0.425042
0.430129
0.434956
0.440935
0.446716
0.453714
0.460452
0.468629
0.476348
0.4857
0.494491
0.504583
0.514284
0.524995
0.535323
0.546314
0.556845
0.567621
0.577699
0.587333
0.595864
0.60312
0.608941
0.612776
0.615078
0.615856
0.00546032
0.00545589
0.00545322
0.00545192
0.0054505
0.00544996
0.00544943
0.00544922
0.00544906
0.00544901
0.00544901
0.00544889
0.00544889
0.00544883
0.00544881
0.00544898
0.00544964
0.00545045
0.00545126
0.00545196
0.00545292
0.00545473
0.00545757
0.00546244
0.00547057
0.00548556
0.00551301
0.00556607
0.00567087
0.00589066
0.00635332
0.00736414
0.00952723
0.0142275
0.0240082
0.0442569
0.0839635
0.157971
0.288395
0.491723
0.767584
0.967625
1.03305
1.03967
1.00145
0.909414
0.779019
0.649349
0.538828
0.503902
0.503384
0.542612
0.618728
0.758062
0.953047
1.19676
1.47406
1.71459
1.89475
1.95429
1.95722
1.90955
1.80161
1.65259
1.48192
1.32251
1.17016
1.05508
0.947523
0.86767
0.795558
0.776408
0.781275
0.802737
0.863992
0.954649
1.09624
1.24071
1.31313
1.32417
1.31139
1.22853
1.0619
0.851234
0.622697
0.523972
0.492273
0.486468
0.486178
0.492463
0.514741
0.555818
0.605443
0.652032
0.684988
0.699753
0.706922
0.709646
0.710838
0.709863
0.707636
0.700511
0.692488
0.680154
0.669432
0.654443
0.642876
0.627663
0.614426
0.602317
0.589307
0.579945
0.565601
0.558494
0.544316
0.537872
0.523718
0.517438
0.505342
0.500184
0.490369
0.48624
0.478041
0.474756
0.468051
0.464361
0.459074
0.455197
0.450767
0.44608
0.442428
0.437328
0.434578
0.429371
0.427178
0.422231
0.420203
0.415788
0.414031
0.410074
0.408561
0.405515
0.403899
0.401863
0.400652
0.39942
0.39845
0.398002
0.397367
0.397274
0.397102
0.397268
0.397426
0.398177
0.39863
0.399978
0.400741
0.402681
0.403922
0.406017
0.408016
0.410243
0.412961
0.415599
0.419025
0.422222
0.426608
0.430451
0.435819
0.440527
0.446875
0.452512
0.460041
0.466672
0.475536
0.483333
0.493628
0.502749
0.514104
0.524423
0.536603
0.547783
0.560373
0.571929
0.584317
0.595597
0.606756
0.616546
0.624845
0.631772
0.635754
0.638483
0.639304
0.00546208
0.00545584
0.00545311
0.00545099
0.00544988
0.00544895
0.00544852
0.00544809
0.0054479
0.0054478
0.00544774
0.00544763
0.00544758
0.00544751
0.00544751
0.00544746
0.00544745
0.00544765
0.00544832
0.00544965
0.00545161
0.00545447
0.0054582
0.00546335
0.00547039
0.00548088
0.00549714
0.00552449
0.00557212
0.0056615
0.00583446
0.00619269
0.00693651
0.00854489
0.0119229
0.0190973
0.0336675
0.0621699
0.115984
0.208348
0.359282
0.575555
0.818176
0.97748
1.05959
1.10106
1.11453
1.11305
1.10698
1.11159
1.13257
1.18718
1.27051
1.39173
1.5286
1.6622
1.80096
1.86084
1.86696
1.82357
1.71082
1.5408
1.33045
1.1215
0.902985
0.721513
0.547463
0.436492
0.331328
0.280036
0.236416
0.226271
0.228268
0.237934
0.265947
0.305688
0.375449
0.469379
0.614605
0.762526
0.927409
1.05348
1.14864
1.17443
1.17478
1.14169
1.07186
0.983753
0.874077
0.767654
0.732131
0.723523
0.724229
0.726724
0.738857
0.753418
0.778941
0.801444
0.823572
0.830065
0.834507
0.834626
0.835595
0.833736
0.832613
0.824687
0.818141
0.804768
0.790675
0.779976
0.763465
0.754678
0.733656
0.724716
0.704477
0.697063
0.679158
0.672342
0.657706
0.652655
0.641837
0.638717
0.631041
0.629774
0.624543
0.620562
0.6179
0.610536
0.608303
0.595421
0.591412
0.574087
0.568134
0.549655
0.542557
0.524974
0.518161
0.502568
0.496785
0.483031
0.478344
0.468188
0.462643
0.455913
0.450903
0.446376
0.441823
0.439516
0.435053
0.433747
0.430336
0.429506
0.427291
0.426951
0.425877
0.426005
0.425758
0.426674
0.427254
0.428147
0.429953
0.430889
0.433872
0.43513
0.439236
0.441075
0.446323
0.448832
0.455124
0.458375
0.465708
0.469897
0.478463
0.483824
0.493891
0.500711
0.512535
0.521132
0.534151
0.544627
0.558613
0.570544
0.584966
0.597858
0.611976
0.62518
0.637899
0.6501
0.659413
0.668591
0.672939
0.676387
0.677363
0.0054621
0.00545497
0.00545193
0.00544961
0.00544837
0.00544734
0.00544688
0.00544649
0.00544633
0.00544617
0.00544599
0.00544593
0.00544592
0.00544586
0.00544578
0.00544576
0.00544576
0.00544576
0.00544573
0.00544579
0.00544617
0.0054472
0.00544893
0.00545187
0.00545621
0.00546302
0.00547301
0.00548911
0.00551439
0.00555744
0.0056309
0.00576781
0.00602675
0.00655385
0.00762006
0.00986634
0.0144679
0.0237089
0.0419121
0.0749445
0.133376
0.225759
0.364614
0.551404
0.765623
0.931458
1.05147
1.11911
1.18746
1.24065
1.31056
1.37006
1.44911
1.51815
1.60056
1.6357
1.63457
1.59108
1.48716
1.33364
1.12361
0.899308
0.657651
0.47132
0.301092
0.217575
0.146557
0.116114
0.0827917
0.0687293
0.0510635
0.0445176
0.0427251
0.0430303
0.047486
0.0558493
0.0720479
0.0952131
0.133196
0.181887
0.254838
0.344767
0.481327
0.608802
0.75278
0.866789
0.986288
1.06065
1.15182
1.21922
1.28022
1.29134
1.28632
1.25756
1.21231
1.15678
1.14239
1.13646
1.13861
1.13367
1.13683
1.13499
1.13807
1.13619
1.13787
1.13307
1.13357
1.1305
1.12799
1.1293
1.12502
1.12515
1.1116
1.10656
1.08603
1.08118
1.06618
1.06376
1.05869
1.06174
1.0614
1.07088
1.07366
1.09226
1.10298
1.11346
1.13058
1.13483
1.14482
1.14052
1.14227
1.12058
1.10961
1.06809
1.04927
0.997319
0.973036
0.922121
0.901596
0.850353
0.831709
0.791106
0.768498
0.740605
0.715323
0.695351
0.668986
0.657865
0.631153
0.621995
0.598482
0.590628
0.570384
0.563825
0.546767
0.541407
0.527239
0.522965
0.513121
0.507132
0.501869
0.496411
0.494857
0.490967
0.490588
0.489202
0.489819
0.489886
0.492803
0.493625
0.498552
0.500524
0.507462
0.510579
0.519655
0.524207
0.535516
0.542509
0.554846
0.564797
0.57818
0.590826
0.604806
0.619667
0.633625
0.649888
0.662985
0.679035
0.689143
0.701221
0.706766
0.710958
0.712168
0.00547187
0.00545928
0.00545512
0.00545314
0.00545091
0.00545024
0.00544944
0.00544921
0.00544885
0.00544884
0.00544863
0.00544863
0.00544847
0.00544855
0.00544846
0.0054484
0.00544833
0.0054485
0.00544861
0.0054489
0.00544984
0.00545121
0.00545385
0.00545724
0.00546219
0.00546836
0.00547711
0.00548904
0.00550705
0.00553398
0.00557593
0.00564272
0.00575216
0.00594338
0.00628788
0.00695414
0.00825454
0.0108224
0.0159409
0.0254859
0.0431925
0.0728935
0.121387
0.19124
0.289203
0.408188
0.561319
0.6999
0.840482
0.933577
1.03364
1.09168
1.14127
1.14539
1.12696
1.07363
0.971763
0.849421
0.690359
0.54252
0.384514
0.281923
0.179908
0.129959
0.0793507
0.0591417
0.0388022
0.0309809
0.0229218
0.0197876
0.0161417
0.0145347
0.0132009
0.0128761
0.0130349
0.0137921
0.0158471
0.0193605
0.0256319
0.0346857
0.0493955
0.0683799
0.0978668
0.132419
0.181434
0.236313
0.322948
0.421595
0.542557
0.678781
0.830674
1.01022
1.17797
1.34998
1.49339
1.63196
1.74093
1.86378
1.91837
1.92627
1.92408
1.89942
1.87468
1.8345
1.81559
1.77944
1.76381
1.73527
1.72313
1.72322
1.72085
1.7263
1.72327
1.72801
1.72456
1.73041
1.7285
1.73819
1.73973
1.7608
1.7719
1.80858
1.83019
1.88102
1.91423
1.95929
2.00866
2.04974
2.10629
2.13183
2.16663
2.17167
2.17957
2.17003
2.15944
2.11483
2.08228
2.02288
1.99201
1.91689
1.88511
1.81574
1.77074
1.72671
1.66769
1.63466
1.56863
1.54425
1.47718
1.45294
1.38588
1.36153
1.29231
1.26663
1.19558
1.16887
1.09689
1.06938
1.00491
0.963828
0.915813
0.86869
0.835734
0.787202
0.767794
0.72508
0.709973
0.67695
0.666105
0.642742
0.635818
0.621302
0.617844
0.611007
0.610394
0.607935
0.608979
0.611051
0.613893
0.620616
0.625652
0.637127
0.644203
0.659766
0.669448
0.687815
0.70002
0.71953
0.731953
0.747706
0.755244
0.76056
0.762123
0.00567288
0.00553706
0.00551124
0.00550498
0.00548979
0.0054907
0.00548433
0.00548585
0.00548173
0.00548342
0.00547924
0.0054806
0.0054759
0.00547721
0.00547121