/*--------------------------------*- C++ -*----------------------------------*\
| =========                 |                                                 |
| \\      /  F ield         | OpenFOAM: The Open Source CFD Toolbox           |
|  \\    /   O peration     | Version:  4.1                                   |
|   \\  /    A nd           | Web:      www.OpenFOAM.org                      |
|    \\/     M anipulation  |                                                 |
\*---------------------------------------------------------------------------*/
FoamFile
{
    version     2.0;
    format      ascii;
    class       volScalarField;
    location    "7.5";
    object      p;
}
// * * * * * * * * * * * * * * * * * * * * * * * * * * * * * * * * * * * * * //

dimensions      [0 2 -2 0 0 0 0];

internalField   nonuniform List<scalar> 
204246
(
-11.1461
-21.2177
-21.8677
-22.104
-22.421
-22.588
-22.7669
-22.8792
-22.9801
-23.0363
-23.0683
-23.0465
-23.0092
-22.9465
-22.9687
-23.06
-23.3341
-23.4464
-23.3696
-23.3548
-23.3468
-23.398
-23.4364
-23.5222
-23.6276
-23.7861
-23.9765
-24.2108
-24.4178
-24.6252
-24.7169
-24.6746
-24.3342
-23.813
-23.2284
-23.0519
-23.8599
-27.1525
-32.7859
-40.6651
-48.5387
-52.5224
-57.2526
-60.9621
-63.6241
-65.6973
-67.3771
-68.1978
-68.8836
-68.9443
-68.6849
-67.8229
-66.9823
-65.6696
-63.658
-61.713
-59.6154
-57.6225
-55.7259
-54.0936
-52.5703
-51.3389
-50.1523
-49.4244
-48.5952
-48.1825
-47.7801
-47.4956
-47.5067
-48.3457
-49.0644
-48.9538
-49.3367
-49.4481
-50.0816
-50.4488
-51.1401
-51.5371
-52.4822
-52.6358
-53.5343
-53.6503
-54.6008
-54.6988
-55.2696
-55.546
-56.7505
-57.5413
-57.596
-58.1298
-58.2899
-58.5202
-58.6204
-59.4144
-59.4523
-59.6457
-59.8192
-60.0955
-60.3049
-60.5619
-60.68
-60.7973
-60.8387
-60.9345
-61.0178
-62.174
-62.6678
-62.5863
-62.8834
-62.7424
-63.4556
-63.5002
-63.7307
-63.909
-64.0878
-64.0567
-64.7156
-64.5379
-65.1608
-64.8512
-65.3178
-65.105
-66.2976
-66.8546
-66.7188
-67.1644
-66.8878
-67.62
-67.7397
-67.8654
-67.7836
-68.4932
-68.313
-69.0096
-68.7938
-69.4729
-69.1637
-69.7054
-69.5028
-70.8302
-71.4993
-71.4719
-72.0334
-71.8069
-72.5316
-72.3481
-73.1196
-72.876
-73.6161
-73.4547
-74.2894
-74.486
-74.5541
-74.2335
-74.6142
-74.0699
-75.3391
-75.6771
-75.1183
-75.2966
-74.7013
-74.1865
-73.4745
-72.7113
-71.6386
-70.4054
-68.7611
-66.8757
-64.5248
-61.9109
-58.8765
-55.6486
-51.0332
-46.3935
-40.9996
-35.1233
-28.2969
-20.3691
-11.7653
-1.95486
9.04008
21.688
36.0467
52.5932
71.2944
92.4176
115.841
142.134
172.244
211.752
271.767
367.442
496.116
-16.7837
-18.4438
-20.1181
-21.2757
-22.0088
-22.4042
-22.6671
-22.8264
-22.9542
-23.0244
-23.0848
-23.0725
-23.069
-23.0091
-23.0169
-23.0721
-23.2159
-23.3036
-23.3307
-23.3358
-23.3292
-23.3642
-23.3833
-23.448
-23.5181
-23.628
-23.7959
-24.0131
-24.2701
-24.5587
-24.8297
-25.013
-25.0056
-24.7124
-24.1495
-23.5818
-23.688
-25.7087
-29.9995
-37.4548
-45.1926
-50.9347
-55.5556
-59.3776
-62.4454
-64.8955
-66.806
-68.234
-69.1625
-69.6956
-69.7954
-69.3403
-68.5454
-67.2828
-65.5451
-63.4989
-61.3516
-59.2097
-57.1734
-55.3175
-53.6177
-52.1499
-50.888
-49.8366
-49.0071
-48.3808
-47.9086
-47.5567
-47.5386
-47.7761
-48.1389
-48.4334
-48.812
-49.0822
-49.5059
-49.9462
-50.557
-51.1529
-51.7424
-52.2754
-52.8507
-53.4099
-53.9485
-54.4329
-54.9357
-55.5014
-56.1351
-56.7476
-57.2192
-57.6374
-58.0048
-58.3012
-58.6062
-58.9284
-59.1985
-59.4513
-59.6926
-59.9413
-60.1902
-60.4015
-60.5673
-60.6791
-60.783
-60.9316
-61.1909
-61.6096
-62.0105
-62.2899
-62.5291
-62.7576
-63.0302
-63.2883
-63.5227
-63.7353
-63.9278
-64.1326
-64.387
-64.6111
-64.8308
-64.9541
-65.1212
-65.3626
-65.7857
-66.2151
-66.522
-66.7868
-67.0144
-67.2775
-67.5159
-67.7015
-67.9049
-68.1571
-68.4036
-68.6845
-68.9402
-69.1761
-69.3407
-69.5396
-69.8483
-70.345
-70.8695
-71.2885
-71.6544
-71.9669
-72.2683
-72.5854
-72.8835
-73.1887
-73.471
-73.8348
-74.1975
-74.582
-74.7585
-74.9734
-75.0172
-75.2959
-75.5143
-75.7541
-75.8719
-75.8805
-75.842
-75.4637
-75.1816
-74.5574
-73.9011
-72.9304
-71.7371
-70.2204
-68.4159
-66.3073
-63.8112
-60.9312
-57.4387
-53.4842
-48.8904
-43.771
-37.7823
-30.9406
-23.3555
-14.8183
-5.37719
5.30362
17.2863
31.026
46.5711
64.1947
83.5093
104.284
126.137
151.163
187.074
252.506
349.244
-22.4379
-21.456
-21.3534
-21.6525
-22.027
-22.3492
-22.6064
-22.7976
-22.9375
-23.0273
-23.0738
-23.0872
-23.0834
-23.0799
-23.0954
-23.1331
-23.1817
-23.2285
-23.2662
-23.2907
-23.3096
-23.3281
-23.3538
-23.3961
-23.4543
-23.5391
-23.6661
-23.8253
-24.0277
-24.2857
-24.6016
-24.9334
-25.2111
-25.3505
-25.333
-25.441
-26.598
-29.4568
-33.6864
-39.7799
-46.1269
-51.4747
-55.9536
-59.9002
-62.8324
-64.9489
-66.6662
-68.196
-69.3311
-70.0403
-70.2958
-70.0827
-69.431
-68.2021
-66.518
-64.4908
-62.3014
-60.0926
-57.9786
-56.0103
-54.1956
-52.5986
-51.2265
-50.085
-49.2187
-48.537
-47.9994
-47.6602
-47.6047
-47.8083
-47.9565
-48.1867
-48.5168
-48.8882
-49.3067
-49.7628
-50.3119
-50.9047
-51.4926
-52.0701
-52.6511
-53.2324
-53.7867
-54.3129
-54.8807
-55.4419
-56.0117
-56.5189
-57.0093
-57.4286
-57.8209
-58.1782
-58.5259
-58.8077
-59.0773
-59.3375
-59.5875
-59.8367
-60.0863
-60.3052
-60.4972
-60.6481
-60.8036
-60.9943
-61.2531
-61.5319
-61.8122
-62.0883
-62.348
-62.6123
-62.8613
-63.1136
-63.3492
-63.5809
-63.7973
-64.0369
-64.2688
-64.5057
-64.718
-64.9205
-65.1269
-65.3883
-65.6718
-65.9647
-66.2627
-66.5428
-66.8118
-67.055
-67.2872
-67.5107
-67.7296
-67.9558
-68.2023
-68.461
-68.7179
-68.9588
-69.1863
-69.4278
-69.7282
-70.093
-70.4785
-70.8564
-71.2235
-71.5602
-71.8844
-72.1931
-72.5001
-72.7925
-73.1002
-73.4153
-73.7514
-74.0275
-74.2715
-74.4421
-74.6143
-74.7782
-75.0463
-75.2214
-75.2567
-75.2142
-75.0223
-74.7513
-74.3285
-73.787
-73.0484
-72.0867
-70.8594
-69.3143
-67.5186
-65.3511
-62.8791
-59.9456
-56.6437
-52.804
-48.4179
-43.3332
-37.5174
-30.9782
-23.5479
-15.2187
-5.87575
4.52408
16.2147
29.3868
44.3996
61.3463
80.1619
100.211
121.169
143.62
172.288
215.435
272.635
-24.6485
-23.4759
-22.815
-22.5665
-22.5307
-22.6171
-22.7396
-22.8734
-22.979
-23.0557
-23.0915
-23.107
-23.1152
-23.1317
-23.1559
-23.1805
-23.1969
-23.2158
-23.2379
-23.2541
-23.2772
-23.2886
-23.3077
-23.3378
-23.3804
-23.4441
-23.5254
-23.6298
-23.7655
-23.9612
-24.2251
-24.5519
-24.9065
-25.2468
-25.5522
-26.1005
-28.045
-31.5962
-36.7189
-42.9628
-49.2896
-53.8178
-57.103
-59.9256
-62.6317
-64.9322
-66.7826
-68.2965
-69.5769
-70.595
-71.1606
-71.0849
-70.7334
-69.6674
-68.02
-65.9231
-63.5702
-61.1632
-58.8365
-56.6764
-54.7082
-52.9867
-51.4999
-50.2527
-49.2658
-48.4842
-47.9162
-47.5263
-47.4027
-47.4441
-47.6191
-47.8153
-48.1354
-48.4931
-48.9229
-49.4092
-49.9552
-50.5398
-51.1377
-51.7432
-52.3422
-52.9421
-53.517
-54.0942
-54.6733
-55.2505
-55.802
-56.3184
-56.8015
-57.2394
-57.6448
-58.0276
-58.3851
-58.6798
-58.9662
-59.2211
-59.4824
-59.7176
-59.9696
-60.1786
-60.3898
-60.5612
-60.7499
-60.9532
-61.1986
-61.4349
-61.6853
-61.9399
-62.1993
-62.4669
-62.7141
-62.9702
-63.1876
-63.4534
-63.6569
-63.9292
-64.1538
-64.4018
-64.6106
-64.8546
-65.0748
-65.364
-65.5995
-65.8727
-66.1486
-66.4081
-66.7044
-66.9229
-67.193
-67.3968
-67.6558
-67.8593
-68.131
-68.3579
-68.6391
-68.8599
-69.1358
-69.3817
-69.7315
-70.0301
-70.3765
-70.7381
-71.0816
-71.47
-71.7867
-72.1593
-72.454
-72.8204
-73.107
-73.504
-73.8026
-74.1867
-74.4168
-74.7351
-74.9277
-75.3452
-75.4897
-75.7251
-75.9261
-76.0221
-76.046
-75.9398
-75.7745
-75.4782
-75.0822
-74.5407
-73.7669
-72.7581
-71.3643
-69.6376
-67.5024
-64.9888
-62.0348
-58.6387
-54.7141
-50.2214
-45.0184
-39.0938
-32.4
-24.8447
-16.4013
-6.95616
3.55916
15.3206
28.4181
42.9609
58.9217
76.3344
95.3831
117.177
144.441
179.181
217.577
-26.0263
-24.8659
-24.0339
-23.4848
-23.1727
-23.0348
-22.9981
-23.0253
-23.0624
-23.093
-23.1161
-23.124
-23.1351
-23.1478
-23.1671
-23.1811
-23.1961
-23.2089
-23.2103
-23.2191
-23.2205
-23.2281
-23.2399
-23.2579
-23.2884
-23.3286
-23.374
-23.427
-23.5106
-23.6412
-23.836
-24.0959
-24.4247
-24.8062
-25.2747
-26.1162
-28.4917
-32.1747
-37.4463
-44.1499
-50.8089
-55.3633
-58.909
-61.0048
-63.1553
-65.2138
-67.0329
-68.6045
-69.9562
-71.1206
-71.9582
-72.4877
-72.199
-71.2503
-69.6948
-67.5296
-65.0177
-62.4025
-59.8411
-57.4469
-55.2848
-53.4022
-51.7537
-50.3646
-49.2793
-48.4584
-47.8343
-47.3813
-47.2125
-47.1879
-47.3634
-47.5354
-47.8145
-48.1699
-48.5985
-49.0867
-49.6301
-50.2147
-50.8218
-51.4482
-52.0633
-52.6861
-53.2802
-53.8877
-54.4778
-55.063
-55.6125
-56.1371
-56.6259
-57.0771
-57.5025
-57.8939
-58.26
-58.5715
-58.88
-59.1322
-59.4074
-59.6222
-59.8895
-60.0785
-60.3145
-60.4853
-60.6958
-60.8885
-61.1335
-61.3377
-61.5891
-61.8306
-62.0697
-62.3424
-62.5709
-62.8451
-63.0547
-63.3333
-63.537
-63.8175
-64.04
-64.3004
-64.5126
-64.7657
-64.9913
-65.2728
-65.5046
-65.7746
-66.0408
-66.2831
-66.573
-66.7932
-67.0671
-67.2716
-67.5382
-67.7398
-68.0156
-68.2318
-68.5178
-68.7357
-69.0246
-69.2618
-69.6017
-69.8883
-70.2289
-70.5665
-70.9055
-71.2802
-71.598
-71.9603
-72.276
-72.6198
-72.943
-73.2902
-73.6221
-73.9476
-74.2392
-74.4931
-74.7388
-74.9629
-75.232
-75.4574
-75.5985
-75.6699
-75.6452
-75.5191
-75.2633
-74.8486
-74.2986
-73.5762
-72.7577
-71.7353
-70.5369
-69.0442
-67.2524
-65.0809
-62.5149
-59.4875
-55.9719
-51.8978
-47.2046
-41.8758
-35.7949
-28.887
-21.0629
-12.2583
-2.42826
8.41434
20.2115
32.8492
46.3005
60.6673
76.5508
95.3058
118.669
146.681
174.641
-27.0301
-25.9169
-25.0157
-24.3346
-23.8562
-23.5578
-23.3787
-23.2936
-23.2525
-23.2495
-23.2412
-23.2388
-23.2237
-23.2224
-23.2218
-23.2261
-23.2232
-23.2292
-23.2406
-23.2413
-23.2381
-23.2321
-23.2276
-23.2342
-23.2481
-23.2641
-23.2734
-23.2868
-23.3195
-23.387
-23.4987
-23.6656
-23.9087
-24.287
-24.8515
-25.8102
-28.2412
-32.3269
-37.5005
-44.2213
-51.1059
-56.4906
-59.7255
-61.8916
-63.6376
-65.4264
-67.1178
-68.6318
-70.0294
-71.3088
-72.3912
-73.1648
-73.3168
-72.5825
-71.4112
-69.3899
-66.8015
-63.9555
-61.099
-58.3916
-55.9367
-53.8046
-51.9887
-50.4933
-49.2798
-48.2926
-47.586
-47.1419
-46.9306
-46.824
-46.8503
-47.1287
-47.4508
-47.8141
-48.252
-48.7551
-49.3069
-49.9041
-50.5279
-51.1737
-51.8006
-52.4392
-53.054
-53.6803
-54.2807
-54.872
-55.4283
-55.9642
-56.4647
-56.9286
-57.3677
-57.7705
-58.1509
-58.4718
-58.7945
-59.0497
-59.3279
-59.5478
-59.8059
-60.0044
-60.2374
-60.4176
-60.6342
-60.8232
-61.0577
-61.2565
-61.5006
-61.7364
-61.961
-62.2253
-62.4517
-62.7257
-62.9401
-63.2143
-63.4273
-63.7042
-63.9324
-64.1985
-64.4209
-64.681
-64.908
-65.1819
-65.4153
-65.6834
-65.935
-66.1757
-66.4539
-66.6761
-66.942
-67.1532
-67.4124
-67.6202
-67.8864
-68.1039
-68.3822
-68.606
-68.8942
-69.134
-69.4575
-69.7357
-70.0684
-70.3961
-70.7329
-71.102
-71.4316
-71.8028
-72.1291
-72.5008
-72.8294
-73.2133
-73.5474
-73.9294
-74.2365
-74.6187
-74.913
-75.3239
-75.5268
-75.8109
-76.1462
-76.3587
-76.5902
-76.6637
-76.7323
-76.7672
-76.663
-76.4248
-75.9049
-75.1484
-74.1084
-72.7939
-71.1608
-69.2005
-66.8642
-64.1324
-60.9514
-57.2903
-53.0574
-48.2368
-42.7432
-36.4641
-29.3168
-21.2103
-12.1337
-2.10791
8.74639
20.3022
32.5047
45.4168
59.5225
76.0068
95.6712
118.37
139.897
-27.7736
-26.674
-25.7528
-25.013
-24.45
-24.0451
-23.7564
-23.5655
-23.4392
-23.3652
-23.3182
-23.2744
-23.2619
-23.2454
-23.2422
-23.2313
-23.2326
-23.229
-23.2237
-23.2128
-23.2053
-23.1956
-23.1872
-23.1823
-23.185
-23.1868
-23.1824
-23.1739
-23.172
-23.1849
-23.2269
-23.3146
-23.4842
-23.7961
-24.3208
-25.21
-27.1896
-31.6547
-36.7826
-43.5299
-50.5967
-56.4221
-59.6604
-62.2807
-63.9462
-65.4364
-67.0215
-68.5802
-70.0957
-71.5565
-72.8946
-73.9755
-74.5904
-74.5984
-73.3441
-71.4138
-68.8202
-65.8302
-62.7349
-59.7623
-57.0528
-54.655
-52.591
-50.8753
-49.4689
-48.3701
-47.6017
-47.0168
-46.7297
-46.6238
-46.6657
-46.8268
-47.1114
-47.485
-47.9236
-48.4285
-48.9842
-49.5831
-50.2167
-50.8806
-51.5295
-52.1814
-52.8142
-53.4554
-54.0686
-54.6707
-55.2381
-55.7869
-56.3001
-56.7808
-57.2327
-57.6475
-58.0395
-58.3725
-58.7042
-58.9719
-59.2536
-59.4811
-59.7416
-59.9367
-60.1705
-60.3562
-60.5772
-60.7633
-60.9925
-61.1862
-61.4213
-61.6507
-61.8717
-62.1259
-62.3505
-62.6182
-62.8385
-63.1085
-63.329
-63.6023
-63.8359
-64.1054
-64.3366
-64.5986
-64.836
-65.1066
-65.3376
-65.594
-65.8433
-66.0907
-66.3568
-66.5828
-66.8376
-67.054
-67.3004
-67.515
-67.7626
-67.9869
-68.2456
-68.4818
-68.7528
-69.0079
-69.3039
-69.5786
-69.8934
-70.2112
-70.5446
-70.8854
-71.221
-71.568
-71.9078
-72.2558
-72.5997
-72.9509
-73.2964
-73.6354
-73.9637
-74.2792
-74.5931
-74.8859
-75.1991
-75.4723
-75.6853
-75.8485
-75.9362
-75.942
-75.8429
-75.6443
-75.4042
-75.0803
-74.7375
-74.2566
-73.6139
-72.7257
-71.5598
-70.0621
-68.205
-65.9486
-63.2672
-60.1251
-56.4694
-52.2929
-47.5014
-42.007
-35.7233
-28.5807
-20.5649
-11.6993
-2.06243
8.25619
19.202
30.8527
43.5932
58.2105
75.0378
93.8144
111.043
-28.3063
-27.2318
-26.3234
-25.5702
-24.9676
-24.5047
-24.1522
-23.8953
-23.704
-23.5815
-23.4931
-23.4509
-23.3964
-23.3569
-23.325
-23.311
-23.2817
-23.2665
-23.257
-23.2487
-23.231
-23.2123
-23.1933
-23.1806
-23.1677
-23.1505
-23.124
-23.0981
-23.0727
-23.0513
-23.0427
-23.0648
-23.1449
-23.3423
-23.7609
-24.5335
-26.0454
-30.0255
-34.9788
-41.615
-48.8275
-55.2614
-59.9306
-62.3004
-64.1882
-65.5531
-67.0157
-68.4983
-70.0207
-71.5819
-73.1029
-74.4376
-75.3544
-75.6623
-74.9689
-73.3683
-70.9193
-67.8883
-64.6072
-61.3698
-58.3862
-55.7449
-53.4509
-51.5603
-49.9754
-48.6786
-47.6399
-46.9364
-46.6226
-46.3872
-46.335
-46.5176
-46.7805
-47.1312
-47.5598
-48.0649
-48.627
-49.2401
-49.8936
-50.5816
-51.2534
-51.9147
-52.5671
-53.2273
-53.8515
-54.4618
-55.0369
-55.5954
-56.1185
-56.6142
-57.0805
-57.509
-57.9114
-58.2607
-58.599
-58.8816
-59.1695
-59.405
-59.6655
-59.8646
-60.1022
-60.2875
-60.5103
-60.6953
-60.9181
-61.1068
-61.3333
-61.5561
-61.773
-62.0155
-62.2348
-62.4924
-62.7149
-62.9786
-63.2045
-63.4711
-63.7099
-63.9755
-64.2153
-64.4791
-64.7222
-64.9863
-65.2203
-65.4773
-65.7294
-65.9768
-66.2344
-66.4611
-66.7114
-66.9292
-67.1746
-67.3887
-67.6348
-67.8591
-68.1125
-68.3524
-68.6171
-68.8793
-69.1614
-69.4413
-69.744
-70.0635
-70.3949
-70.7399
-71.0851
-71.4449
-71.7969
-72.1664
-72.5268
-72.9064
-73.2739
-73.6598
-74.029
-74.4165
-74.7774
-75.1501
-75.4823
-75.8407
-76.211
-76.5665
-76.9068
-77.1915
-77.4334
-77.6025
-77.6491
-77.5702
-77.3015
-76.8703
-76.2458
-75.4264
-74.3658
-73.0406
-71.3975
-69.4079
-67.0273
-64.2303
-60.9555
-57.1923
-52.8622
-47.8955
-42.2431
-35.8633
-28.7471
-20.9006
-12.3729
-3.21329
6.57069
17.0754
28.6117
41.6405
56.2894
72.2187
86.4719
-28.5952
-27.5649
-26.696
-25.9502
-25.3376
-24.8446
-24.4592
-24.1569
-23.9162
-23.7385
-23.6054
-23.5009
-23.4436
-23.3901
-23.3558
-23.3145
-23.3011
-23.2799
-23.2587
-23.2369
-23.2201
-23.1999
-23.1811
-23.1628
-23.1462
-23.1216
-23.0914
-23.0557
-23.0161
-22.9727
-22.9342
-22.9142
-22.9385
-23.0502
-23.352
-24.0069
-25.2348
-27.7799
-32.648
-38.6518
-45.7312
-52.472
-58.0226
-61.5732
-63.797
-65.0801
-66.7026
-68.1886
-69.7362
-71.3373
-72.9455
-74.4474
-75.6332
-76.2417
-75.971
-74.6982
-72.5148
-69.6356
-66.3546
-62.997
-59.8256
-56.9078
-54.453
-52.4605
-50.7164
-49.214
-48.0543
-47.2606
-46.7243
-46.3972
-46.3341
-46.4393
-46.6192
-46.9395
-47.3427
-47.8246
-48.3662
-48.9603
-49.6042
-50.2998
-50.9777
-51.6437
-52.3058
-52.9751
-53.6068
-54.2221
-54.8087
-55.3791
-55.9122
-56.4206
-56.9011
-57.3467
-57.7567
-58.1241
-58.473
-58.7753
-59.0685
-59.3186
-59.5754
-59.7881
-60.0215
-60.2149
-60.4288
-60.6211
-60.8323
-61.0242
-61.2419
-61.4596
-61.6773
-61.9116
-62.1264
-62.3746
-62.5949
-62.8517
-63.0835
-63.3377
-63.5842
-63.8423
-64.0945
-64.3545
-64.6068
-64.8616
-65.1065
-65.3597
-65.6117
-65.86
-66.1066
-66.3426
-66.5765
-66.7972
-67.0243
-67.2401
-67.4675
-67.6932
-67.9294
-68.1685
-68.4189
-68.6756
-68.9442
-69.224
-69.5208
-69.8258
-70.1441
-70.4695
-70.8059
-71.1459
-71.4936
-71.8438
-72.2012
-72.5585
-72.9219
-73.2815
-73.6448
-73.9997
-74.3617
-74.72
-75.0912
-75.4389
-75.7359
-75.9956
-76.2036
-76.4096
-76.5611
-76.6711
-76.7417
-76.7576
-76.7829
-76.7163
-76.53
-76.156
-75.565
-74.7102
-73.5554
-72.059
-70.185
-67.8961
-65.1329
-61.8791
-58.0798
-53.6855
-48.6691
-43.0089
-36.7101
-29.7825
-22.2519
-14.1289
-5.39548
4.06684
14.4938
26.1577
39.0941
52.9123
65.0581
-28.69
-27.7567
-26.9302
-26.2242
-25.6335
-25.1428
-24.7419
-24.4246
-24.1645
-23.9647
-23.8006
-23.7058
-23.5934
-23.5248
-23.4574
-23.4164
-23.3644
-23.3298
-23.3032
-23.2814
-23.253
-23.2258
-23.1976
-23.1736
-23.1458
-23.1142
-23.0759
-23.0368
-22.993
-22.9444
-22.8952
-22.8589
-22.8541
-22.9145
-23.1147
-23.6001
-24.551
-26.4108
-30.2622
-35.4287
-42.0379
-48.8458
-55.0667
-59.9134
-62.5776
-64.9055
-66.6585
-67.8258
-69.3188
-70.9144
-72.5952
-74.1744
-75.496
-76.2977
-76.3161
-75.3875
-73.5373
-70.9168
-67.7743
-64.4341
-61.1742
-58.1564
-55.5877
-53.3818
-51.5234
-50.0155
-48.7946
-47.7693
-47.073
-46.6879
-46.4946
-46.4767
-46.5827
-46.803
-47.1583
-47.6016
-48.1153
-48.6799
-49.2963
-49.98
-50.6641
-51.3257
-52.0063
-52.6958
-53.3478
-53.9773
-54.5747
-55.1522
-55.6897
-56.2045
-56.694
-57.1545
-57.5776
-57.9649
-58.3244
-58.6415
-58.9383
-59.206
-59.4623
-59.6917
-59.917
-60.1265
-60.335
-60.5365
-60.739
-60.9367
-61.1454
-61.3568
-61.5745
-61.7977
-62.0189
-62.2503
-62.477
-62.7194
-62.956
-63.2051
-63.452
-63.7103
-63.9664
-64.2301
-64.4867
-64.7458
-64.9941
-65.2485
-65.5008
-65.7518
-66.0001
-66.24
-66.4796
-66.7022
-66.9292
-67.1438
-67.368
-67.5887
-67.8246
-68.0591
-68.3113
-68.5632
-68.8329
-69.1012
-69.3922
-69.6997
-70.02
-70.3542
-70.6958
-71.0508
-71.4052
-71.7758
-72.1433
-72.5271
-72.9055
-73.2998
-73.6861
-74.0887
-74.4817
-74.8892
-75.2779
-75.6828
-76.0951
-76.5046
-76.9146
-77.2897
-77.632
-77.9016
-78.0897
-78.1867
-78.177
-78.0749
-77.8729
-77.5645
-77.1217
-76.5036
-75.6655
-74.5577
-73.1265
-71.3148
-69.0568
-66.3287
-63.0821
-59.2791
-54.9056
-49.9515
-44.4287
-38.3482
-31.7234
-24.5413
-16.7601
-8.25687
1.15161
11.6354
23.194
35.3996
46.0051
-28.5288
-27.688
-26.9508
-26.3085
-25.7621
-25.2912
-24.896
-24.5679
-24.2994
-24.078
-23.8927
-23.744
-23.6508
-23.5674
-23.4992
-23.4347
-23.3968
-23.3563
-23.3185
-23.2825
-23.2546
-23.2272
-23.2023
-23.1759
-23.1483
-23.1137
-23.0768
-23.0366
-22.9915
-22.9403
-22.8894
-22.8481
-22.8337
-22.8693
-23.0144
-23.3837
-24.1315
-25.52
-28.2337
-32.6611
-38.1338
-44.4901
-50.8347
-56.4637
-60.6579
-63.6584
-65.6798
-67.5962
-69.1508
-70.5921
-72.2046
-73.7353
-75.0371
-75.8966
-76.0876
-75.4403
-73.9109
-71.6037
-68.7205
-65.5486
-62.3597
-59.338
-56.6584
-54.3398
-52.3962
-50.8165
-49.4749
-48.4354
-47.6671
-47.1311
-46.8052
-46.6566
-46.7176
-46.8905
-47.1814
-47.5147
-47.9228
-48.4626
-49.0863
-49.7807
-50.4604
-51.1039
-51.7602
-52.4449
-53.0885
-53.7022
-54.31
-54.901
-55.4477
-55.9686
-56.4617
-56.9301
-57.3668
-57.7672
-58.1417
-58.4777
-58.7912
-59.0726
-59.3349
-59.5735
-59.8044
-60.0233
-60.2367
-60.4414
-60.6431
-60.8408
-61.0455
-61.2538
-61.4682
-61.6851
-61.9033
-62.1257
-62.3478
-62.5823
-62.8158
-63.0605
-63.3064
-63.5627
-63.8205
-64.0845
-64.3448
-64.6063
-64.8605
-65.1174
-65.3699
-65.6217
-65.8686
-66.1076
-66.3379
-66.5578
-66.7743
-66.9854
-67.1968
-67.4102
-67.6305
-67.8587
-68.0944
-68.3397
-68.5953
-68.8632
-69.1469
-69.4405
-69.7484
-70.0669
-70.398
-70.7364
-71.0841
-71.4389
-71.8024
-72.171
-72.5465
-72.9248
-73.31
-73.6978
-74.0933
-74.4901
-74.8942
-75.2972
-75.69
-76.0793
-76.4541
-76.8216
-77.1744
-77.5386
-77.8911
-78.2185
-78.4978
-78.6852
-78.7614
-78.7115
-78.5213
-78.1772
-77.6478
-76.8942
-75.8643
-74.5007
-72.7326
-70.5267
-67.8342
-64.6246
-60.8901
-56.6282
-51.8521
-46.5714
-40.7902
-34.4853
-27.5931
-19.9868
-11.5141
-2.05641
8.36707
19.3121
28.751
-28.1936
-27.4834
-26.8666
-26.3085
-25.8228
-25.4025
-25.0413
-24.7324
-24.4706
-24.2538
-24.0628
-23.911
-23.7822
-23.6851
-23.5969
-23.5293
-23.462
-23.4108
-23.3685
-23.3341
-23.2967
-23.2622
-23.2285
-23.1993
-23.1646
-23.1264
-23.0841
-23.0434
-23.0016
-22.9578
-22.9135
-22.879
-22.8646
-22.8922
-23.0058
-23.2909
-23.8783
-24.9475
-26.8604
-30.0717
-34.6234
-40.0803
-45.9927
-51.7264
-56.7701
-60.8343
-63.8985
-66.2542
-68.1261
-69.8598
-71.4695
-72.967
-74.2223
-75.0759
-75.3049
-74.8666
-73.6216
-71.6512
-69.1086
-66.2269
-63.2693
-60.4097
-57.779
-55.43
-53.4079
-51.7167
-50.3118
-49.2394
-48.3492
-47.6968
-47.2762
-47.0629
-47.0235
-47.1
-47.2773
-47.5762
-47.9748
-48.4849
-48.9904
-49.5148
-50.1347
-50.7874
-51.4835
-52.1854
-52.8154
-53.4226
-54.03
-54.6235
-55.1807
-55.7107
-56.2151
-56.6938
-57.1409
-57.5577
-57.9518
-58.3023
-58.6303
-58.9204
-59.1946
-59.444
-59.6874
-59.913
-60.1338
-60.3433
-60.5489
-60.7473
-60.9502
-61.1569
-61.3676
-61.5815
-61.7962
-62.0142
-62.2309
-62.4592
-62.6886
-62.9299
-63.174
-63.4294
-63.6874
-63.9533
-64.2169
-64.4836
-64.7417
-65.0033
-65.261
-65.5156
-65.7665
-66.0102
-66.248
-66.4675
-66.6886
-66.8951
-67.1072
-67.3125
-67.5302
-67.751
-67.9861
-68.2245
-68.4783
-68.735
-69.0124
-69.3058
-69.613
-69.935
-70.268
-70.6141
-70.9642
-71.3295
-71.6971
-72.0795
-72.4619
-72.858
-73.2539
-73.665
-74.0753
-74.4995
-74.9214
-75.3614
-75.8062
-76.2441
-76.6751
-77.0908
-77.4949
-77.8784
-78.2502
-78.6036
-78.9379
-79.2379
-79.4839
-79.6471
-79.7061
-79.6398
-79.4222
-79.0172
-78.3775
-77.446
-76.155
-74.4616
-72.3179
-69.694
-66.5857
-62.9947
-58.9365
-54.4189
-49.4413
-43.9731
-37.9391
-31.1967
-23.5994
-15.0505
-5.58261
4.3543
12.8945
-27.6673
-27.0898
-26.5821
-26.1211
-25.7034
-25.3411
-25.0242
-24.7425
-24.4992
-24.2924
-24.1133
-23.9592
-23.8337
-23.7274
-23.6394
-23.5594
-23.5
-23.4429
-23.3899
-23.3418
-23.3023
-23.2668
-23.2376
-23.207
-23.1764
-23.1416
-23.1056
-23.067
-23.0259
-22.9835
-22.9458
-22.917
-22.9085
-22.9362
-23.0348
-23.2684
-23.7353
-24.5714
-26.0051
-28.3182
-31.6832
-36.1207
-41.3052
-46.7344
-51.8775
-56.4371
-60.2778
-63.3884
-65.8987
-68.0072
-69.8299
-71.4054
-72.6862
-73.574
-73.9233
-73.6564
-72.7064
-71.114
-68.9928
-66.5118
-63.8864
-61.2711
-58.7855
-56.5098
-54.4996
-52.7685
-51.304
-50.1143
-49.1544
-48.4049
-47.8621
-47.5217
-47.3676
-47.3578
-47.4771
-47.7067
-48.0083
-48.3926
-48.9018
-49.5049
-50.1154
-50.6792
-51.2302
-51.8545
-52.4901
-53.1186
-53.7496
-54.3646
-54.9243
-55.4531
-55.9668
-56.4477
-56.8999
-57.3229
-57.7234
-58.0931
-58.4437
-58.7558
-59.0451
-59.3042
-59.5549
-59.7894
-60.0178
-60.2328
-60.4422
-60.643
-60.8479
-61.0543
-61.2633
-61.474
-61.6861
-61.8989
-62.1098
-62.3292
-62.5531
-62.7884
-63.0288
-63.2806
-63.5372
-63.8016
-64.0669
-64.3353
-64.5989
-64.865
-65.1257
-65.3837
-65.6368
-65.8825
-66.1162
-66.3342
-66.5463
-66.748
-66.9494
-67.147
-67.3516
-67.5641
-67.7855
-68.0156
-68.2564
-68.5092
-68.7795
-69.0619
-69.3601
-69.671
-69.9961
-70.3309
-70.676
-71.0326
-71.3981
-71.7736
-72.1566
-72.5478
-72.9456
-73.3515
-73.7651
-74.189
-74.6259
-75.0788
-75.5381
-76.0087
-76.4867
-76.9693
-77.4478
-77.9184
-78.3792
-78.8299
-79.2673
-79.6825
-80.0665
-80.4049
-80.6796
-80.8679
-80.9454
-80.8779
-80.6203
-80.1156
-79.2969
-78.112
-76.5119
-74.4647
-71.9656
-69.0191
-65.6454
-61.8567
-57.6522
-52.9983
-47.8101
-41.9283
-35.1827
-27.4706
-18.8316
-9.71636
-1.87334
-26.9588
-26.5345
-26.1626
-25.8274
-25.5227
-25.2515
-24.9985
-24.7639
-24.5594
-24.3714
-24.2034
-24.0562
-23.9269
-23.8164
-23.7193
-23.6379
-23.5608
-23.4946
-23.4396
-23.3966
-23.3526
-23.3105
-23.2721
-23.2403
-23.205
-23.1682
-23.1283
-23.088
-23.047
-23.0114
-22.982
-22.9655
-22.965
-22.9958
-23.089
-23.2914
-23.672
-24.3306
-25.4303
-27.1733
-29.7048
-33.1007
-37.2882
-42.0414
-46.9406
-51.6088
-55.7969
-59.4032
-62.4489
-65.0154
-67.1781
-68.9807
-70.4251
-71.4658
-72.0316
-71.9648
-71.3406
-70.157
-68.4857
-66.4523
-64.2094
-61.8921
-59.6208
-57.4844
-55.5449
-53.8329
-52.3559
-51.1121
-50.0896
-49.2659
-48.6203
-48.1665
-47.8455
-47.7398
-47.7577
-47.8906
-48.1217
-48.4497
-48.8677
-49.3481
-49.8865
-50.4755
-51.1023
-51.757
-52.3513
-52.9029
-53.446
-54.0166
-54.5619
-55.111
-55.6571
-56.1678
-56.6412
-57.0827
-57.504
-57.8902
-58.2481
-58.5669
-58.8731
-59.1461
-59.4099
-59.6542
-59.8941
-60.1189
-60.3364
-60.5417
-60.7496
-60.956
-61.1644
-61.3755
-61.5861
-61.7953
-62.0016
-62.214
-62.4309
-62.661
-62.8966
-63.1456
-63.3996
-63.6638
-63.9297
-64.2014
-64.468
-64.7386
-65.0049
-65.2683
-65.5278
-65.7795
-66.0206
-66.2402
-66.456
-66.6564
-66.8553
-67.0436
-67.2407
-67.4428
-67.6588
-67.8803
-68.1165
-68.3571
-68.6185
-68.8955
-69.1882
-69.4958
-69.8176
-70.1527
-70.4946
-70.8518
-71.2148
-71.5924
-71.9744
-72.3698
-72.7682
-73.179
-73.5933
-74.0212
-74.4553
-74.9075
-75.3705
-75.8473
-76.3399
-76.8453
-77.3617
-77.8843
-78.4114
-78.9389
-79.4653
-79.9864
-80.4964
-80.9854
-81.4433
-81.8538
-82.1964
-82.4415
-82.5479
-82.4598
-82.1109
-81.4368
-80.3813
-78.9059
-77.0015
-74.6723
-71.9449
-68.8451
-65.3822
-61.5275
-57.1897
-52.1855
-46.3058
-39.4108
-31.5309
-23.1047
-15.793
-26.051
-25.8035
-25.5832
-25.3809
-25.1797
-24.9971
-24.8198
-24.6429
-24.4819
-24.3327
-24.1914
-24.0619
-23.9457
-23.8398
-23.7476
-23.6629
-23.5928
-23.5263
-23.4621
-23.4079
-23.3589
-23.3122
-23.2772
-23.2435
-23.2124
-23.1768
-23.1413
-23.1076
-23.0767
-23.0445
-23.0213
-23.0081
-23.0116
-23.0457
-23.1363
-23.3174
-23.6426
-24.1827
-25.0473
-26.3879
-28.3376
-30.9835
-34.314
-38.2333
-42.5405
-46.9427
-51.1683
-55.0369
-58.4506
-61.3896
-63.8876
-65.9708
-67.645
-68.8955
-69.6606
-69.9532
-69.6872
-68.9118
-67.6799
-66.0802
-64.2318
-62.2498
-60.2472
-58.307
-56.4956
-54.8526
-53.3961
-52.1302
-51.0574
-50.1672
-49.4454
-48.9048
-48.5341
-48.2649
-48.1593
-48.1767
-48.305
-48.5412
-48.8753
-49.2899
-49.7682
-50.2961
-50.8472
-51.4375
-52.0378
-52.6468
-53.2412
-53.8401
-54.3893
-54.9015
-55.3816
-55.8528
-56.318
-56.779
-57.2254
-57.6428
-58.0322
-58.3711
-58.6928
-58.9756
-59.2542
-59.5093
-59.7587
-59.9908
-60.2159
-60.4263
-60.64
-60.8506
-61.0624
-61.2741
-61.4849
-61.6918
-61.8936
-62.1003
-62.3097
-62.5331
-62.7623
-63.0066
-63.2556
-63.5167
-63.7802
-64.0518
-64.32
-64.5943
-64.8657
-65.1347
-65.3987
-65.656
-65.9007
-66.1216
-66.3345
-66.5293
-66.7221
-66.9059
-67.0941
-67.2869
-67.4923
-67.7045
-67.9291
-68.1617
-68.4162
-68.6849
-68.9695
-69.2703
-69.5868
-69.9161
-70.2542
-70.6076
-70.9691
-71.345
-71.7279
-72.1246
-72.5274
-72.943
-73.3645
-73.799
-74.2397
-74.6979
-75.1675
-75.6535
-76.1587
-76.6824
-77.2248
-77.7829
-78.3581
-78.9451
-79.5444
-80.1514
-80.766
-81.3817
-81.9937
-82.5931
-83.1658
-83.6885
-84.1277
-84.4325
-84.5411
-84.3773
-83.8722
-82.972
-81.6566
-79.926
-77.809
-75.3481
-72.579
-69.493
-66.0101
-61.9259
-56.9678
-50.926
-43.8027
-35.9967
-29.0944
-24.9989
-24.9222
-24.88
-24.8303
-24.7563
-24.692
-24.613
-24.5156
-24.4214
-24.3145
-24.2049
-24.0936
-23.9877
-23.889
-23.7992
-23.718
-23.6419
-23.5731
-23.5152
-23.4532
-23.4123
-23.3613
-23.3163
-23.2812
-23.2479
-23.2144
-23.1782
-23.143
-23.1057
-23.0747
-23.0524
-23.0441
-23.0532
-23.0907
-23.1763
-23.3406
-23.625
-24.0798
-24.7847
-25.8452
-27.3682
-29.4501
-32.1233
-35.3531
-39.0248
-42.9578
-46.9393
-50.7837
-54.3496
-57.5428
-60.3328
-62.7001
-64.648
-66.164
-67.2042
-67.7818
-67.8565
-67.4841
-66.6725
-65.4902
-64.0373
-62.4043
-60.6869
-58.9609
-57.2956
-55.7382
-54.3238
-53.0707
-51.9835
-51.0558
-50.2851
-49.6619
-49.1915
-48.8278
-48.6194
-48.532
-48.5561
-48.6836
-48.911
-49.2297
-49.6254
-50.0916
-50.6017
-51.1534
-51.7164
-52.2925
-52.8588
-53.4292
-53.9914
-54.5436
-55.0712
-55.586
-56.0797
-56.5394
-56.9708
-57.3808
-57.7702
-58.12
-58.4502
-58.7552
-59.053
-59.3239
-59.5891
-59.8356
-60.0758
-60.2951
-60.5218
-60.7388
-60.9572
-61.173
-61.3848
-61.5938
-61.7949
-62.0007
-62.2027
-62.4204
-62.6413
-62.8784
-63.12
-63.3769
-63.6356
-63.9068
-64.1733
-64.4495
-64.7243
-64.9977
-65.2699
-65.5323
-65.7873
-66.0104
-66.2321
-66.4259
-66.6241
-66.7996
-66.9789
-67.1594
-67.3554
-67.5568
-67.773
-67.9929
-68.2366
-68.4967
-68.7735
-69.0663
-69.3742
-69.6984
-70.0302
-70.379
-70.7346
-71.1071
-71.4853
-71.8796
-72.2794
-72.6951
-73.1162
-73.5525
-73.994
-74.4558
-74.9309
-75.424
-75.9381
-76.4737
-77.0331
-77.6133
-78.2217
-78.8513
-79.5058
-80.1788
-80.8744
-81.5905
-82.3291
-83.0861
-83.8541
-84.6141
-85.3423
-85.9988
-86.534
-86.8653
-86.9127
-86.599
-85.8826
-84.7513
-83.2265
-81.3554
-79.2051
-76.8133
-74.1493
-71.0266
-67.1011
-62.0295
-55.7622
-48.595
-42.0758
-23.7742
-23.895
-24.0361
-24.1571
-24.2175
-24.2748
-24.2914
-24.2758
-24.2496
-24.2008
-24.131
-24.0532
-23.9699
-23.8861
-23.8052
-23.7282
-23.6585
-23.5909
-23.5255
-23.4645
-23.4
-23.3567
-23.3141
-23.2747
-23.2436
-23.2137
-23.183
-23.1489
-23.1186
-23.0921
-23.0772
-23.0744
-23.0876
-23.1217
-23.2011
-23.3505
-23.6006
-23.993
-24.5876
-25.4616
-26.6912
-28.3626
-30.5237
-33.1896
-36.303
-39.7531
-43.3859
-47.0419
-50.581
-53.8748
-56.8546
-59.4588
-61.6711
-63.4667
-64.811
-65.7026
-66.0881
-66.1104
-65.6635
-64.8395
-63.72
-62.3831
-60.9197
-59.4081
-57.9112
-56.4709
-55.1271
-53.9013
-52.8119
-51.8607
-51.0519
-50.3803
-49.8459
-49.4317
-49.1176
-48.9463
-48.8796
-48.9119
-49.0419
-49.263
-49.5628
-49.9382
-50.371
-50.8614
-51.3816
-51.9331
-52.4931
-53.0622
-53.619
-54.1643
-54.6934
-55.2052
-55.7003
-56.1847
-56.6571
-57.1018
-57.5192
-57.9012
-58.2609
-58.5768
-58.8793
-59.1507
-59.421
-59.6726
-59.9171
-60.1447
-60.3806
-60.6041
-60.8296
-61.0503
-61.2672
-61.4811
-61.6893
-61.8964
-62.0976
-62.3111
-62.5235
-62.7523
-62.9838
-63.2344
-63.4856
-63.7538
-64.0155
-64.2923
-64.5668
-64.8414
-65.1178
-65.3849
-65.6522
-65.8804
-66.1175
-66.3119
-66.5222
-66.6996
-66.8824
-67.0586
-67.2467
-67.4365
-67.6449
-67.8522
-68.0847
-68.3338
-68.6008
-68.8851
-69.1839
-69.5008
-69.8218
-70.166
-70.5139
-70.8816
-71.2529
-71.6424
-72.0371
-72.4489
-72.8651
-73.2991
-73.7368
-74.1979
-74.6726
-75.1672
-75.6844
-76.2261
-76.7948
-77.3862
-78.016
-78.6717
-79.3658
-80.0856
-80.8436
-81.6353
-82.474
-83.3525
-84.273
-85.2184
-86.1767
-87.1244
-88.0299
-88.8137
-89.4015
-89.6923
-89.6115
-89.1102
-88.1879
-86.8739
-85.2536
-83.4308
-81.4712
-79.291
-76.5421
-72.6933
-67.5323
-61.1878
-55.081
-22.3867
-22.7639
-23.0924
-23.3858
-23.6119
-23.7988
-23.9309