/*--------------------------------*- C++ -*----------------------------------*\
| =========                 |                                                 |
| \\      /  F ield         | OpenFOAM: The Open Source CFD Toolbox           |
|  \\    /   O peration     | Version:  4.1                                   |
|   \\  /    A nd           | Web:      www.OpenFOAM.org                      |
|    \\/     M anipulation  |                                                 |
\*---------------------------------------------------------------------------*/
FoamFile
{
    version     2.0;
    format      ascii;
    class       volScalarField;
    location    "5";
    object      p;
}
// * * * * * * * * * * * * * * * * * * * * * * * * * * * * * * * * * * * * * //

dimensions      [0 2 -2 0 0 0 0];

internalField   nonuniform List<scalar> 
204246
(
-18.7132
-30.7767
-31.6522
-31.9896
-32.3039
-32.497
-32.7169
-32.8134
-32.8692
-32.8525
-32.8419
-32.8496
-32.8555
-32.7895
-32.6981
-32.713
-33.0601
-33.3081
-33.0116
-33.0159
-32.999
-33.0045
-32.9741
-32.9797
-32.9662
-32.9786
-32.9943
-33.009
-32.9643
-32.8997
-32.8547
-32.8399
-32.7597
-32.684
-32.7324
-33.0004
-33.227
-32.9512
-32.9798
-32.9646
-32.9578
-32.9293
-32.9174
-32.8771
-32.8659
-32.8608
-32.8476
-32.7927
-32.7622
-32.7005
-32.5823
-32.4335
-32.7216
-32.8367
-32.5967
-32.6842
-32.4672
-32.4711
-32.2255
-32.2142
-31.9847
-32.0013
-31.6173
-31.5046
-31.1319
-30.8613
-30.4845
-30.0445
-29.6787
-29.3109
-28.8208
-28.2423
-27.6669
-27.0696
-26.6592
-26.4534
-26.7288
-27.7093
-29.9937
-34.3635
-42.9453
-56.3695
-68.1163
-71.2298
-74.0825
-76.5415
-79.1329
-80.4978
-80.5027
-81.0052
-80.8881
-80.6886
-80.2355
-79.4948
-78.5688
-77.7731
-76.0237
-75.4582
-73.936
-73.4894
-72.7871
-72.0244
-71.3742
-71.2845
-71.6893
-72.5172
-73.1038
-72.5499
-73.2369
-73.2607
-74.2157
-73.9326
-74.8413
-74.771
-75.6915
-75.5862
-76.4641
-76.3036
-77.2278
-77.273
-77.2952
-77.2753
-78.8715
-79.6325
-79.3615
-80.0126
-79.6915
-80.3774
-80.0872
-81.0081
-81.1866
-81.252
-81.1141
-81.8768
-81.5406
-82.3466
-82.25
-82.1694
-82.0618
-83.6347
-84.4233
-84.1292
-84.8387
-84.5622
-85.3297
-85.1233
-86.2263
-86.7181
-87.2593
-87.7341
-88.1576
-88.4342
-89.705
-90.0419
-90.3805
-90.6693
-92.7266
-93.8322
-93.7784
-94.6503
-94.776
-95.2233
-94.3338
-94.8533
-93.9488
-93.307
-91.5317
-90.2788
-87.7367
-85.4394
-81.8685
-78.2281
-73.7993
-68.9179
-63.3547
-57.1891
-50.1644
-42.2024
-33.466
-23.4278
-12.078
0.912752
15.5725
32.2201
50.8487
71.6927
94.7349
120.575
150.005
188.998
247.956
341.197
466.175
-26.9796
-28.2787
-29.9997
-31.171
-31.9438
-32.411
-32.6815
-32.8307
-32.9071
-32.9156
-32.928
-32.937
-32.9189
-32.8521
-32.7837
-32.7938
-32.9686
-33.1028
-33.0875
-33.0513
-33.046
-33.0278
-33.0205
-33.0061
-32.999
-33.0114
-33.0209
-33.0321
-33.0081
-32.973
-32.9372
-32.9031
-32.8324
-32.7741
-32.8008
-32.9321
-33.0462
-33.0395
-33.0152
-33.0091
-32.9875
-32.986
-32.9616
-32.9287
-32.9183
-32.9174
-32.9012
-32.8651
-32.8348
-32.7763
-32.7051
-32.6676
-32.704
-32.7325
-32.6984
-32.6947
-32.6537
-32.5483
-32.4381
-32.3382
-32.2388
-32.1142
-31.9582
-31.7613
-31.5151
-31.2243
-30.9196
-30.6142
-30.2776
-29.8566
-29.3529
-28.785
-28.1445
-27.4622
-26.8104
-26.2956
-25.9819
-26.1583
-27.312
-30.4481
-38.7884
-55.0014
-67.1952
-73.158
-74.8317
-76.2749
-78.2343
-79.864
-80.6815
-81.1433
-81.5573
-81.5623
-81.2611
-80.6505
-79.6694
-78.555
-77.3319
-76.1147
-74.9513
-73.9104
-73.0838
-72.4305
-71.855
-71.5305
-71.6448
-72.0369
-72.3895
-72.5606
-72.8423
-73.2111
-73.6219
-73.9948
-74.3821
-74.8283
-75.2372
-75.6933
-76.0609
-76.4569
-76.8866
-77.2959
-77.3656
-77.6763
-78.2708
-78.8675
-79.2538
-79.5931
-79.8658
-80.0867
-80.3595
-80.6992
-81.0963
-81.205
-81.4497
-81.6625
-81.9606
-82.2144
-82.4707
-82.418
-82.6634
-83.1874
-83.7483
-84.1221
-84.476
-84.8299
-85.106
-85.495
-85.9471
-86.6097
-87.0989
-87.7485
-88.1576
-88.8301
-89.5065
-90.3117
-90.7283
-91.4819
-92.3756
-93.2831
-94.0659
-94.7592
-95.5255
-95.9224
-96.2426
-96.2161
-96.221
-95.8926
-95.1154
-94.3795
-92.8877
-90.9651
-88.3946
-85.2931
-81.5628
-77.3003
-72.4247
-66.9516
-60.7078
-53.7193
-45.9413
-37.2161
-27.4737
-16.4393
-4.00638
10.0964
25.8845
43.4394
62.5434
83.155
105.216
130.731
166.575
232.747
330.687
-34.1739
-32.2287
-31.634
-31.7003
-32.016
-32.3062
-32.554
-32.7008
-32.7933
-32.8301
-32.8586
-32.8826
-32.886
-32.8669
-32.8475
-32.8565
-32.8961
-32.9469
-32.9741
-32.9804
-32.9871
-32.9857
-32.9699
-32.9519
-32.9384
-32.9479
-32.9566
-32.9543
-32.9344
-32.9161
-32.9027
-32.8819
-32.8512
-32.8275
-32.8262
-32.8539
-32.9007
-32.9332
-32.9446
-32.9333
-32.9267
-32.9173
-32.9008
-32.8702
-32.8692
-32.8756
-32.8595
-32.8191
-32.7747
-32.7382
-32.7127
-32.703
-32.6975
-32.6687
-32.6234
-32.6042
-32.5516
-32.496
-32.4137
-32.3283
-32.2397
-32.1197
-31.9676
-31.7802
-31.5423
-31.3042
-31.0533
-30.7842
-30.4734
-30.0953
-29.6612
-29.198
-28.687
-28.1535
-27.6103
-27.1149
-26.8799
-27.3436
-29.7219
-35.7712
-42.8961
-54.4506
-66.4173
-72.7021
-74.8026
-76.2248
-77.9064
-79.1635
-80.0287
-80.6901
-80.8694
-80.9968
-81.1289
-80.668
-79.9627
-78.9221
-77.6086
-76.2741
-75.0458
-73.9736
-73.0576
-72.3002
-71.845
-71.5416
-71.5401
-71.6429
-71.8394
-72.1102
-72.442
-72.8481
-73.219
-73.6558
-74.0406
-74.5017
-74.8878
-75.3251
-75.7318
-76.1407
-76.5397
-76.9427
-77.2482
-77.6153
-78.0069
-78.4342
-78.8334
-79.1962
-79.5085
-79.7316
-80.0155
-80.2817
-80.5814
-80.7677
-80.9983
-81.2016
-81.4647
-81.6873
-81.914
-82.0889
-82.3453
-82.6646
-83.0333
-83.4009
-83.7451
-84.0728
-84.3536
-84.6873
-85.0932
-85.5457
-86.0238
-86.5044
-87.0395
-87.583
-88.2074
-88.8315
-89.5455
-90.3257
-91.1846
-91.9919
-92.6916
-93.3249
-93.8303
-94.2238
-94.4032
-94.3101
-93.8801
-93.1136
-92.0365
-90.626
-88.9206
-86.8399
-84.3877
-81.4613
-78.0352
-74.0154
-69.3721
-64.031
-57.9416
-51.1336
-43.4538
-34.8625
-25.2269
-14.4726
-2.36596
11.2049
26.4852
43.4309
62.0143
81.5764
102.086
123.971
153.043
196.463
254.008
-37.3489
-35.2108
-33.7955
-33.0741
-32.7807
-32.7549
-32.8063
-32.8931
-32.9355
-32.9609
-32.9737
-32.9713
-32.9571
-32.9464
-32.9511
-32.9645
-32.9883
-33.0075
-33.0101
-33.0179
-33.0293
-33.0387
-33.0384
-33.0241
-33.0278
-33.0362
-33.0393
-33.0223
-33.0109
-32.9871
-32.9578
-32.9385
-32.9253
-32.9224
-32.9268
-32.9613
-32.9783
-32.9798
-32.9951
-32.9992
-32.9996
-33.0055
-32.9849
-32.968
-32.9548
-32.9497
-32.9281
-32.8986
-32.8689
-32.8432
-32.8334
-32.8293
-32.8156
-32.7856
-32.7557
-32.7302
-32.697
-32.639
-32.5634
-32.4971
-32.4148
-32.3233
-32.203
-32.0424
-31.8466
-31.6505
-31.433
-31.1973
-30.9249
-30.5892
-30.1963
-29.7844
-29.3473
-28.8811
-28.4244
-28.0431
-27.9065
-28.2348
-30.0248
-35.7525
-44.6426
-55.3775
-66.677
-72.807
-75.4056
-76.8555
-78.1133
-79.5026
-80.5289
-81.2597
-81.975
-82.1715
-82.0168
-81.7279
-81.0186
-80.047
-78.814
-77.3509
-75.8565
-74.4706
-73.4255
-72.6222
-72.0651
-71.8034
-71.7171
-71.7613
-71.9222
-72.1944
-72.5013
-72.8832
-73.2439
-73.693
-74.0897
-74.5769
-74.9821
-75.4296
-75.8313
-76.2654
-76.6578
-77.0665
-77.4283
-77.8147
-78.1754
-78.5583
-78.9405
-79.3139
-79.6646
-79.9432
-80.3085
-80.5703
-80.9206
-81.1296
-81.4443
-81.6392
-81.9508
-82.1497
-82.4512
-82.6357
-82.975
-83.1982
-83.5073
-83.8702
-84.2397
-84.6304
-84.9941
-85.4395
-85.875
-86.3852
-86.8851
-87.4606
-87.996
-88.6402
-89.2513
-89.9867
-90.7
-91.5194
-92.2948
-93.1255
-93.9793
-94.8085
-95.6081
-96.3617
-97.0619
-97.6284
-98.1318
-98.39
-98.3297
-98.0613
-96.9715
-95.3901
-93.2087
-90.5329
-87.3183
-83.6102
-79.3246
-74.4521
-68.8489
-62.5585
-55.4995
-47.6018
-38.7996
-28.9854
-18.0755
-5.94082
7.45326
22.1216
37.9873
55.1164
73.8786
96.0042
124.166
159.509
198.233
-38.9225
-36.8833
-35.357
-34.2829
-33.6005
-33.2429
-33.0557
-32.9579
-32.929
-32.9167
-32.9144
-32.9087
-32.8941
-32.8876
-32.8871
-32.9019
-32.9178
-32.9295
-32.9316
-32.9276
-32.9421
-32.9453
-32.9359
-32.9255
-32.9197
-32.9334
-32.9325
-32.9273
-32.9207
-32.9133
-32.898
-32.8806
-32.87
-32.8579
-32.8547
-32.8487
-32.8659
-32.8914
-32.8999
-32.8977
-32.8987
-32.8916
-32.8866
-32.8725
-32.8777
-32.8747
-32.8656
-32.8407
-32.8061
-32.7703
-32.7532
-32.7503
-32.7446
-32.7215
-32.6917
-32.6723
-32.6263
-32.5799
-32.5424
-32.4903
-32.4365
-32.3517
-32.2476
-32.1149
-31.9731
-31.8151
-31.6415
-31.459
-31.254
-31.0055
-30.7195
-30.4012
-30.0506
-29.698
-29.3605
-29.0963
-29.0525
-29.3884
-30.5432
-34.2171
-42.0671
-51.4692
-61.7979
-69.7522
-74.3212
-76.6547
-77.2368
-78.4217
-79.3587
-80.1972
-80.7421
-81.2836
-81.6432
-81.7298
-81.3457
-80.4246
-79.1884
-77.7468
-76.1917
-74.66
-73.4015
-72.4207
-71.7392
-71.3898
-71.2753
-71.2016
-71.2842
-71.4643
-71.7943
-72.1207
-72.5873
-73.0101
-73.4631
-73.868
-74.3326
-74.801
-75.2433
-75.6551
-76.0576
-76.4361
-76.8239
-77.2083
-77.613
-78.0051
-78.3682
-78.7092
-79.0201
-79.3143
-79.5989
-79.8781
-80.1318
-80.3779
-80.5934
-80.8335
-81.0521
-81.2786
-81.4649
-81.6785
-81.8843
-82.1818
-82.4912
-82.7762
-83.0843
-83.3184
-83.6315
-83.8621
-84.2602
-84.5174
-84.9695
-85.3928
-85.8979
-86.4203
-87.0258
-87.6798
-88.4286
-89.2269
-90.0971
-90.9651
-91.8009
-92.5952
-93.3162
-93.9404
-94.2893
-94.4966
-94.3049
-93.9295
-93.398
-92.6755
-91.7497
-90.5243
-88.9715
-86.9723
-84.4974
-81.4769
-77.9123
-73.7246
-68.8785
-63.3693
-57.097
-49.967
-41.9024
-32.8376
-22.759
-11.7125
0.217008
12.865
26.207
40.3376
56.0298
74.8427
98.4153
126.785
154.92
-39.9845
-38.0379
-36.5014
-35.3294
-34.4813
-33.9233
-33.5758
-33.3869
-33.2564
-33.1882
-33.1315
-33.0898
-33.0557
-33.0283
-33.0128
-33.0087
-33.0183
-33.0248
-33.0199
-33.0305
-33.0302
-33.0376
-33.0378
-33.0337
-33.0431
-33.0403
-33.0435
-33.0308
-33.0253
-33.0077
-32.9934
-32.9851
-32.976
-32.9742
-32.9686
-32.9876
-32.9978
-32.993
-32.9952
-33.0017
-33.007
-33.0162
-33.0029
-32.9987
-32.9806
-32.9718
-32.9572
-32.9446
-32.9284
-32.9209
-32.9157
-32.9055
-32.8807
-32.8546
-32.837
-32.8131
-32.7934
-32.752
-32.6943
-32.6472
-32.5863
-32.5262
-32.441
-32.3383
-32.217
-32.0837
-31.9341
-31.7835
-31.6154
-31.4184
-31.1946
-30.9551
-30.7156
-30.4877
-30.2906
-30.1866
-30.312
-30.8287
-32.0215
-34.7308
-40.4834
-48.4839
-57.85
-66.6351
-72.7992
-75.7067
-78.0976
-79.5257
-80.2451
-81.0646
-81.777
-82.2736
-82.5583
-82.5795
-82.3925
-81.7704
-80.5454
-78.9104
-77.1159
-75.3548
-73.9064
-72.7311
-72.041
-71.7187
-71.5414
-71.6426
-71.7496
-71.8269
-72.099
-72.4899
-72.8102
-73.2653
-73.743
-74.2315
-74.6623
-75.1177
-75.5561
-76.0084
-76.4315
-76.8552
-77.247
-77.6425
-77.9805
-78.3418
-78.7124
-79.086
-79.4495
-79.7798
-80.1198
-80.4108
-80.7353
-80.9942
-81.3081
-81.5237
-81.8344
-82.0435
-82.3807
-82.6118
-82.9112
-83.055
-83.2853
-83.6239
-83.9851
-84.3772
-84.7321
-85.1818
-85.5596
-86.0539
-86.4525
-87.001
-87.4577
-88.052
-88.6022
-89.2984
-89.9914
-90.8056
-91.6079
-92.499
-93.4233
-94.3597
-95.3017
-96.2451
-97.2105
-98.1505
-99.0984
-99.8551
-100.297
-100.261
-99.6397
-98.4658
-96.7567
-94.566
-91.8851
-88.7308
-85.1036
-81.0054
-76.3328
-71.1008
-65.198
-58.5037
-50.9356
-42.4503
-33.0632
-22.8097
-11.8144
-0.17808
12.0774
25.0519
39.2487
55.9085
75.6689
98.473
119.979
-40.4637
-38.6784
-37.2097
-36.0084
-35.0789
-34.3709
-33.8818
-33.5412
-33.3243
-33.1768
-33.0842
-33.0223
-32.9783
-32.9493
-32.9307
-32.9289
-32.9259
-32.9235
-32.9182
-32.9139
-32.9209
-32.9205
-32.9115
-32.9072
-32.9023
-32.912
-32.9054
-32.9066
-32.9033
-32.9001
-32.8941
-32.8866
-32.8813
-32.8711
-32.8682
-32.8509
-32.8527
-32.8722
-32.879
-32.8776
-32.8798
-32.8733
-32.8782
-32.8686
-32.8753
-32.8607
-32.8572
-32.8466
-32.8305
-32.8111
-32.7937
-32.7831
-32.787
-32.7787
-32.7626
-32.75
-32.7115
-32.6938
-32.6777
-32.6444
-32.6153
-32.562
-32.5027
-32.432
-32.3567
-32.261
-32.1592
-32.0573
-31.9482
-31.8103
-31.6503
-31.4892
-31.3372
-31.2083
-31.1178
-31.1258
-31.336
-31.8993
-33.0526
-35.303
-39.4299
-45.6071
-53.4029
-61.6263
-68.64
-73.3539
-76.2587
-77.9426
-79.1934
-80.1968
-81.1336
-81.7675
-82.2153
-82.4707
-82.2672
-82.0805
-80.9004
-79.4387
-77.6314
-75.9015
-74.1974
-72.7214
-71.7008
-71.111
-70.8271
-70.697
-70.8517
-71.1705
-71.3381
-71.5183
-72.0512
-72.4459
-72.8543
-73.3666
-73.8551
-74.3166
-74.7722
-75.2055
-75.6326
-76.0529
-76.4647
-76.8633
-77.2657
-77.6421
-77.9937
-78.3419
-78.6698
-78.987
-79.2717
-79.5739
-79.7951
-80.0815
-80.28
-80.5482
-80.7203
-80.9815
-81.1126
-81.3748
-81.5163
-81.8373
-82.1112
-82.3162
-82.5821
-82.7099
-83.0138
-83.2183
-83.51
-83.8218
-84.2123
-84.62
-85.103
-85.6046
-86.1755
-86.7952
-87.5151
-88.3187
-89.2073
-90.1315
-91.0548
-91.974
-92.8779
-93.7448
-94.522
-95.1948
-95.5556
-95.7977
-95.8255
-95.7573
-95.5922
-95.1846
-94.4534
-93.2804
-91.6218
-89.3939
-86.6001
-83.2445
-79.2845
-74.7279
-69.5221
-63.6056
-56.9418
-49.5065
-41.3019
-32.3329
-22.6596
-12.3046
-1.27348
10.5305
23.476
38.3135
55.2216
73.9713
91.1225
-40.657
-39.0196
-37.6519
-36.5177
-35.6083
-34.9149
-34.3703
-33.9884
-33.7032
-33.5099
-33.3645
-33.2622
-33.1842
-33.1233
-33.0845
-33.0624
-33.057
-33.0497
-33.0361
-33.0424
-33.0329
-33.0363
-33.0394
-33.0414
-33.0522
-33.0471
-33.0514
-33.0402
-33.0365
-33.0221
-33.0122
-33.0054
-32.9983
-32.9991
-32.9979
-33.014
-33.0182
-33.0066
-33.0046
-33.0103
-33.0147
-33.0263
-33.0185
-33.0216
-33.0081
-33.0048
-32.992
-32.9847
-32.969
-32.9733
-32.9728
-32.9669
-32.9393
-32.9189
-32.9074
-32.8926
-32.8904
-32.861
-32.8211
-32.7922
-32.751
-32.7161
-32.667
-32.6154
-32.5487
-32.4746
-32.3954
-32.3248
-32.2495
-32.1612
-32.0624
-31.9685
-31.8986
-31.8594
-31.8662
-31.9679
-32.2461
-32.8064
-33.8274
-35.6407
-38.7128
-43.332
-49.4253
-56.4346
-63.3458
-69.1889
-73.6553
-76.7795
-78.8278
-80.2234
-81.2751
-82.0835
-82.8268
-83.4457
-83.8809
-83.6726
-82.6909
-81.0003
-78.9083
-76.8675
-74.8434
-73.205
-72.0823
-71.4134
-71.1472
-71.1219
-71.0678
-71.1654
-71.7807
-72.2371
-72.425
-72.8592
-73.2739
-73.7221
-74.206
-74.6995
-75.1674
-75.6401
-76.0819
-76.5154
-76.922
-77.3284
-77.704
-78.085
-78.4614
-78.8222
-79.1827
-79.523
-79.8807
-80.1764
-80.5224
-80.7698
-81.1083
-81.3248
-81.6493
-81.8423
-82.1731
-82.3671
-82.7019
-82.8151
-83.0306
-83.3254
-83.642
-84.0304
-84.2878
-84.713
-84.9997
-85.4264
-85.7391
-86.1848
-86.5792
-87.0938
-87.5859
-88.1801
-88.813
-89.5646
-90.3791
-91.304
-92.3079
-93.3744
-94.4802
-95.6074
-96.7419
-97.8771
-98.9952
-100.021
-100.877
-101.352
-101.337
-100.86
-99.9099
-98.4975
-96.646
-94.3505
-91.572
-88.3172
-84.5329
-80.2086
-75.303
-69.7988
-63.6796
-56.9346
-49.5663
-41.5768
-32.9679
-23.7343
-13.8385
-3.14934
8.64667
21.8789
36.6001
52.4518
66.5692
-40.3414
-38.9247
-37.7064
-36.6508
-35.7778
-35.0562
-34.4768
-34.0385
-33.7192
-33.4788
-33.3083
-33.1832
-33.0949
-33.0327
-32.9885
-32.9653
-32.9439
-32.9287
-32.9205
-32.9122
-32.9107
-32.9055
-32.8979
-32.8957
-32.8882
-32.8969
-32.8883
-32.8931
-32.8939
-32.8957
-32.8934
-32.888
-32.8826
-32.8721
-32.8692
-32.8502
-32.8476
-32.8648
-32.8724
-32.8701
-32.8713
-32.8643
-32.873
-32.8655
-32.8721
-32.8712
-32.869
-32.8616
-32.851
-32.8337
-32.8165
-32.8169
-32.8316
-32.8314
-32.8212
-32.8162
-32.7987
-32.7958
-32.7974
-32.7819
-32.7738
-32.7459
-32.7207
-32.6918
-32.6646
-32.6234
-32.5833
-32.548
-32.5143
-32.4712
-32.4245
-32.3919
-32.3861
-32.4178
-32.5013
-32.6804
-33.0118
-33.5826
-34.5137
-36.0164
-38.3779
-41.8485
-46.4893
-52.0926
-58.1005
-63.8065
-68.7237
-72.6488
-75.5832
-77.7555
-79.3661
-80.5616
-81.4566
-82.1114
-82.4701
-82.4303
-82.2653
-80.5779
-78.8693
-77.0371
-75.0285
-73.1907
-71.7194
-70.8105
-70.5976
-70.4191
-70.3589
-70.5643
-70.7233
-70.9054
-71.5444
-72.0488
-72.4944
-72.9638
-73.4611
-73.9237
-74.402
-74.8728
-75.3204
-75.7647
-76.1915
-76.5902
-76.9869
-77.3684
-77.7322
-78.0841
-78.4257
-78.7546
-79.0405
-79.3316
-79.5734
-79.8504
-80.0746
-80.3366
-80.532
-80.7882
-80.942
-81.1851
-81.3155
-81.6111
-81.8443
-82.011
-82.1993
-82.3715
-82.603
-82.8339
-83.1287
-83.4284
-83.7732
-84.1325
-84.5537
-85.0171
-85.5433
-86.1178
-86.7681
-87.4905
-88.3087
-89.2338
-90.2396
-91.2913
-92.369
-93.4796
-94.6169
-95.7376
-96.7655
-97.6989
-98.4718
-99.1067
-99.5709
-99.8174
-99.788
-99.3385
-98.4037
-96.9506
-94.9044
-92.2595
-89.0075
-85.1896
-80.7993
-75.8442
-70.3355
-64.2817
-57.6823
-50.5345
-42.8465
-34.5843
-25.6889
-16.0039
-5.31927
6.51548
19.4987
33.2401
45.206
-39.6833
-38.5318
-37.5199
-36.6038
-35.8448
-35.2096
-34.7105
-34.2952
-33.9805
-33.7429
-33.5576
-33.4135
-33.3
-33.2143
-33.1571
-33.1163
-33.0943
-33.0765
-33.0553
-33.0583
-33.0401
-33.0388
-33.0421
-33.0454
-33.0581
-33.0535
-33.057
-33.0447
-33.0408
-33.0284
-33.0204
-33.0155
-33.0105
-33.0137
-33.0136
-33.0309
-33.0315
-33.0148
-33.0114
-33.0178
-33.0224
-33.0355
-33.0302
-33.037
-33.0217
-33.0211
-33.008
-33.0063
-32.9972
-33.0091
-33.012
-33.0079
-32.986
-32.9763
-32.9688
-32.9588
-32.9577
-32.9505
-32.9288
-32.9196
-32.8951
-32.8826
-32.8632
-32.8485
-32.8243
-32.7996
-32.7747
-32.7618
-32.7543
-32.7487
-32.7464
-32.76
-32.8074
-32.8951
-33.0383
-33.2695
-33.6388
-34.2059
-35.0635
-36.3513
-38.2484
-40.9362
-44.5058
-48.9095
-53.8766
-58.9748
-63.7913
-68.0524
-71.5833
-74.4162
-76.6511
-78.4011
-79.756
-80.8117
-81.5681
-81.9177
-81.7894
-80.8574
-79.5632
-77.7054
-75.8379
-74.1743
-72.7242
-71.5855
-70.9845
-70.6614
-70.4846
-70.5157
-71.0062
-71.6172
-71.8476
-72.2579
-72.6803
-73.1936
-73.7527
-74.2136
-74.7069
-75.2144
-75.6602
-76.0998
-76.5267
-76.9422
-77.3382
-77.7456
-78.1337
-78.5137
-78.8791
-79.2283
-79.5803
-79.8923
-80.2266
-80.4996
-80.811
-81.0565
-81.3505
-81.5688
-81.8481
-82.0624
-82.3346
-82.4755
-82.6912
-82.9551
-83.2191
-83.5208
-83.7512
-84.0534
-84.2894
-84.617
-84.8889
-85.2357
-85.5453
-85.9438
-86.3929
-86.909
-87.4527
-88.0957
-88.8524
-89.7513
-90.7645
-91.8741
-93.073
-94.3417
-95.6699
-97.0355
-98.3884
-99.674
-100.843
-101.81
-102.474
-102.777
-102.721
-102.276
-101.417
-100.156
-98.4352
-96.1723
-93.3414
-89.9985
-86.1255
-81.7201
-76.8226
-71.4346
-65.5519
-59.1797
-52.3203
-44.9288
-36.9284
-28.171
-18.5149
-7.88615
3.7004
15.8083
26.2571
-38.6774
-37.7666
-36.948
-36.2015
-35.5909
-35.0601
-34.5904
-34.2059
-33.886
-33.629
-33.4313
-33.2858
-33.1766
-33.0969
-33.0365
-32.996
-32.9591
-32.9329
-32.918
-32.9097
-32.9118
-32.9015
-32.8912
-32.888
-32.8795
-32.8877
-32.8785
-32.8853
-32.8858
-32.8904
-32.8915
-32.8876
-32.8834
-32.873
-32.8712
-32.8532
-32.8507
-32.8667
-32.8729
-32.8693
-32.8697
-32.8628
-32.8727
-32.8647
-32.8749
-32.8807
-32.887
-32.8795
-32.8679
-32.8542
-32.8456
-32.8595
-32.8689
-32.8721
-32.8724
-32.8776
-32.8777
-32.8771
-32.893
-32.8912
-32.9006
-32.8919
-32.8901
-32.8891
-32.8981
-32.9009
-32.9099
-32.9261
-32.9527
-32.9819
-33.0187
-33.0773
-33.1644
-33.2941
-33.48
-33.7527
-34.1434
-34.7036
-35.4978
-36.625
-38.2036
-40.3604
-43.1767
-46.6644
-50.7006
-55.0448
-59.4019
-63.5303
-67.2031
-70.343
-72.9473
-75.0478
-76.6863
-77.9165
-78.758
-79.1973
-79.1361
-78.9332
-78.1967
-76.9103
-75.4581
-73.9838
-72.7085
-71.6121
-70.8517
-70.4942
-70.1668
-70.0067
-70.0734
-70.5053
-71.2802
-71.9184
-72.1876
-72.6099
-73.1106
-73.5721
-74.0622
-74.583
-75.0504
-75.5102
-75.9395
-76.3347
-76.7297
-77.129
-77.5056
-77.864
-78.2351
-78.5903
-78.8895
-79.1744
-79.4121
-79.6876
-79.9403
-80.2036
-80.449
-80.7076
-80.8871
-81.0994
-81.2373
-81.4817
-81.6973
-81.8755
-82.0542
-82.2291
-82.4435
-82.6666
-82.9224
-83.2005
-83.5103
-83.8148
-84.1433
-84.5021
-84.9247
-85.4247
-85.992
-86.6137
-87.3174
-88.1545
-89.1394
-90.2478
-91.4586
-92.7453
-94.1127
-95.5812
-97.1352
-98.707
-100.221
-101.611
-102.813
-103.744
-104.318
-104.478
-104.148
-103.304
-101.946
-100.055
-97.6197
-94.697
-91.2967
-87.4201
-83.0901
-78.3165
-73.1145
-67.479
-61.3865
-54.8021
-47.6399
-39.7522
-31.0284
-21.4354
-10.9966
-0.161841
9.09788
-37.4261
-36.7654
-36.1687
-35.6359
-35.2046
-34.8075
-34.4543
-34.1566
-33.9189
-33.7274
-33.5862
-33.4522
-33.3382
-33.2466
-33.1861
-33.1405
-33.1146
-33.0904
-33.0598
-33.0497
-33.0298
-33.0332
-33.0398
-33.0443
-33.0572
-33.0525
-33.0574
-33.0461
-33.0436
-33.0321
-33.0233
-33.018
-33.0135
-33.0172
-33.0168
-33.0366
-33.0375
-33.0191
-33.016
-33.0229
-33.0275
-33.041
-33.0367
-33.0437
-33.0275
-33.0208
-33.0071
-33.0097
-33.0124
-33.0227
-33.0297
-33.039
-33.0293
-33.0175
-33.014
-33.0135
-33.0372
-33.0182
-33.0111
-33.0209
-33.01
-33.0143
-33.0164
-33.0283
-33.0356
-33.0483
-33.0634
-33.0935
-33.1347
-33.1872
-33.252
-33.3372
-33.4545
-33.6156
-33.8358
-34.1345
-34.544
-35.0949
-35.8379
-36.8435
-38.1929
-39.9762
-42.2585
-45.0693
-48.3593
-52.0027
-55.8078
-59.5924
-63.1437
-66.3547
-69.172
-71.5708
-73.551
-75.1437
-76.3677
-77.2651
-77.838
-78.0466
-77.6697
-76.7175
-75.7141
-74.569
-73.4517
-72.4572
-71.7414
-71.1592
-70.9148
-70.864
-70.9749
-71.1941
-71.5195
-71.8694
-72.2603
-72.7248
-73.3827
-74.039
-74.3668
-74.7808
-75.2145
-75.6719
-76.1299
-76.5732
-76.9735
-77.4093
-77.8156
-78.173
-78.5332
-78.9006
-79.2668
-79.5904
-79.9025
-80.1827
-80.4746
-80.729
-81.0072
-81.2538
-81.499
-81.7153
-81.9427
-82.0942
-82.2954
-82.5172
-82.7455
-82.9857
-83.1651
-83.3939
-83.5749
-83.8163
-84.0717
-84.3682
-84.6161
-84.8942
-85.2144
-85.5975
-86.0695
-86.6276
-87.2768
-88.046
-88.9651
-90.0512
-91.2737
-92.5973
-94.0074
-95.5061
-97.0959
-98.7599
-100.459
-102.119
-103.651
-104.954
-105.937
-106.548
-106.697
-106.308
-105.365
-103.88
-101.843
-99.3104
-96.3342
-92.933
-89.1164
-84.9119
-80.3475
-75.3997
-70.0361
-64.2223
-57.8622
-50.8068
-42.946
-34.2526
-24.7833
-14.9823
-6.62309
-35.9001
-35.5034
-35.1513
-34.8334
-34.5672
-34.3069
-34.0694
-33.8651
-33.6776
-33.5099
-33.3567
-33.2479
-33.1615
-33.0923
-33.0334
-32.9924
-32.9531
-32.9236
-32.9093
-32.9023
-32.9074
-32.8955
-32.8857
-32.8832
-32.8761
-32.8852
-32.8768
-32.8836
-32.8835
-32.8907
-32.8936
-32.8896
-32.8861
-32.8769
-32.8738
-32.8535
-32.8521
-32.8692
-32.8757
-32.8734
-32.8743
-32.8685
-32.8797
-32.8741
-32.8891
-32.8978
-32.9042
-32.8938
-32.8834
-32.8759
-32.874
-32.8843
-32.8954
-32.9048
-32.9081
-32.9125
-32.9071
-32.9316
-32.941
-32.9621
-32.9903
-32.9968
-33.011
-33.0274
-33.0595
-33.0927
-33.1361
-33.1857
-33.2477
-33.3221
-33.4194
-33.5493
-33.7115
-33.9038
-34.1389
-34.4493
-34.8548
-35.3902
-36.0889
-37.0006
-38.1835
-39.7038
-41.6105
-43.9334
-46.6569
-49.7219
-53.008
-56.3903
-59.6882
-62.7957
-65.6398
-68.1605
-70.3231
-72.1144
-73.5352
-74.5859
-75.2474
-75.5054
-75.2879
-75.2077
-74.747
-74.0074
-73.1619
-72.308
-71.5464
-71.0873
-70.6966
-70.4994
-70.4884
-70.666
-70.9986
-71.396
-71.7785
-72.1582
-72.6183
-73.1691
-73.887
-74.5503
-74.9036
-75.2193
-75.5885
-75.9652
-76.3819
-76.8233
-77.2691
-77.6757
-78.0733
-78.4251
-78.7186
-79.01
-79.2809
-79.5614
-79.8278
-80.0945
-80.3798
-80.6509
-80.8665
-81.0636
-81.208
-81.4211
-81.6148
-81.7874
-81.9858
-82.1787
-82.3722
-82.5676
-82.7899
-83.0199
-83.2689
-83.5542
-83.8287
-84.099
-84.3993
-84.7366
-85.1544
-85.6778
-86.2951
-87.0187
-87.8808
-88.922
-90.1507
-91.5373
-93.0595
-94.6924
-96.4395
-98.3049
-100.265
-102.256
-104.182
-105.926
-107.377
-108.445
-109.07
-109.177
-108.69
-107.619
-105.991
-103.845
-101.243
-98.2522
-94.9041
-91.2211
-87.223
-82.9098
-78.2527
-73.1743
-67.5859
-61.3535
-54.3227
-46.4748
-37.8577
-28.8891
-21.2124
-34.1895
-34.0681
-33.9664
-33.8818
-33.813
-33.7232
-33.6377
-33.5584
-33.4711
-33.3949
-33.3404
-33.2831
-33.2336
-33.176
-33.1391
-33.1029
-33.0904
-33.0735
-33.0464
-33.0401
-33.0177
-33.0199
-33.0286
-33.034
-33.0467
-33.0445
-33.0524
-33.045
-33.0454
-33.0354
-33.0246
-33.0171
-33.0111
-33.0139
-33.0127
-33.0306
-33.0342
-33.0186
-33.015
-33.0216
-33.0269
-33.0404
-33.0379
-33.0448
-33.0322
-33.0299
-33.0231
-33.0214
-33.0222
-33.0301
-33.0377
-33.0356
-33.0343
-33.0323
-33.0343
-33.0372
-33.0541
-33.0594
-33.0789
-33.0972
-33.0946
-33.1092
-33.1246
-33.1543
-33.1824
-33.2211
-33.2645
-33.3216
-33.3908
-33.4792
-33.5884
-33.7265
-33.901
-34.1076
-34.3593
-34.6727
-35.0798
-35.6011
-36.2633
-37.1016
-38.1596
-39.4857
-41.1175
-43.0822
-45.3805
-47.9875
-50.8328
-53.8333
-56.8435
-59.7731
-62.5475
-65.0968
-67.3634
-69.3236
-70.9678
-72.3036
-73.3235
-74.0294
-74.418
-74.5219
-74.303
-73.9405
-73.3665
-72.8358
-72.3806
-71.8031
-71.4296
-71.1904
-71.0927
-71.138
-71.3154
-71.5917
-71.9585
-72.3962
-72.9057
-73.4125
-73.9035
-74.3797
-74.8681
-75.3596
-75.8641
-76.365
-76.7006
-76.9966
-77.39
-77.7797
-78.1861
-78.6051
-79.0042
-79.314
-79.6088
-79.8871
-80.1688
-80.4025
-80.695
-80.944
-81.184
-81.4147
-81.6423
-81.7804
-81.9436
-82.1231
-82.3172
-82.5137
-82.6705
-82.8207
-82.9525
-83.146
-83.3431
-83.5834
-83.8132
-84.0159
-84.2045
-84.4235
-84.689
-85.0505
-85.5588
-86.2189
-87.0056
-87.9504
-89.1102
-90.4751
-91.9954
-93.6458
-95.4631
-97.4879
-99.709
-102.031
-104.332
-106.516
-108.485
-110.102
-111.254
-111.895
-111.925
-111.293
-110.043
-108.275
-106.04
-103.4
-100.45
-97.2371
-93.7299
-89.9786
-85.9825
-81.615
-76.806
-71.3929
-65.1976
-58.1779
-50.3563
-42.0695
-34.9238
-32.2563
-32.4206
-32.5806
-32.7209
-32.8621
-32.954
-33.0174
-33.0587
-33.0609
-33.0647
-33.0521
-33.0251
-32.9885
-32.9605
-32.9442
-32.9276
-32.9046
-32.8834
-32.8747
-32.8771
-32.8901
-32.8848
-32.879
-32.879
-32.8737
-32.8837
-32.8793
-32.8875
-32.8858
-32.8949
-32.9008
-32.8958
-32.8913
-32.8834
-32.879
-32.8556
-32.8514
-32.8701
-32.8784
-32.8789
-32.8804
-32.877
-32.8899
-32.8885
-32.9052
-32.9114
-32.9182
-32.9097
-32.9008
-32.8963
-32.8967
-32.9078
-32.9115
-32.9219
-32.9306
-32.9388
-32.9427
-32.9705
-32.9935
-33.0235
-33.0575
-33.0688
-33.0924
-33.1167
-33.1601
-33.2104
-33.276
-33.3471
-33.4276
-33.5202
-33.6414
-33.7986
-33.9922
-34.2328
-34.5189
-34.8602
-35.2657
-35.7672
-36.3866
-37.1575
-38.1128
-39.2893
-40.7163
-42.4165
-44.396
-46.6484
-49.1309
-51.7942
-54.525
-57.252
-59.9056
-62.4103
-64.7079
-66.7524
-68.5262
-70.0173
-71.21
-72.0863
-72.6332
-72.8871
-72.8425
-72.7736
-72.6701
-72.2273
-71.8237
-71.5602
-71.3122
-71.1389
-71.0571
-71.0759
-71.1885
-71.3832
-71.6498
-71.9836
-72.3955
-72.8667
-73.396
-73.9253
-74.4011
-74.8081
-75.1971
-75.615
-76.1016
-76.7055
-77.1574
-77.4415
-77.7772
-78.1286
-78.4346
-78.7636
-79.0491
-79.3586
-79.6875
-79.9772
-80.3035
-80.594
-80.8067
-80.9983
-81.1705
-81.3494
-81.5223
-81.6927
-81.8984
-82.1409
-82.3539
-82.5083
-82.6773
-82.8435
-83.0404
-83.3181
-83.6007
-83.8298
-84.0284
-84.2172
-84.4219
-84.6755
-85.0408
-85.6
-86.349
-87.2389
-88.2968
-89.5533
-90.9828
-92.6009
-94.4436
-96.5581
-98.9317
-101.488
-104.141
-106.798
-109.352
-111.627
-113.431
-114.57
-115.016
-114.838
-114.016
-112.615
-110.707
-108.378
-105.761
-102.933
-99.8525
-96.5858
-93.1583
-89.477
-85.4524
-80.8938
-75.5583
-69.3767
-62.3725
-54.7421
-47.9442
-30.158
-30.593
-31.0364
-31.4331
-31.8023
-32.0986
-32.3407
-32.5374
-32.6708
-32.7731
-32.8502
-32.9141
-32.9676
-32.9827
-32.9879
-32.9836
-32.994
-33.0024
-32.9868
-32.9872
-32.9728
-32.9822
-32.9978
-33.0092
-33.0244
-33.028
-33.0409
-33.0408
-33.0465
-33.0401
-33.0274
-33.0158
-33.0066
-33.0071
-33.0044
-33.0142
-33.0123
-32.9984
-32.9984
-33.0085
-33.0171
-33.03
-33.0312
-33.0429
-33.0349
-33.0359
-33.0311
-33.0295
-33.0291
-33.0315
-33.0367
-33.0334
-33.0356
-33.0358
-33.0382
-33.0456
-33.0666
-33.0855
-33.1261
-33.1316
-33.1398
-33.1708
-33.1943
-33.232
-33.2713
-33.3251
-33.3862
-33.4605
-33.5432
-33.6467
-33.7734
-33.9313
-34.1308
-34.3653
-34.6471
-34.9764
-35.3714
-35.8493
-36.4324
-37.1499
-38.0264
-39.0886
-40.3612
-41.8604
-43.5976
-45.5726
-47.7638
-50.1409
-52.6192
-55.1473
-57.6601
-60.0896
-62.3711
-64.4623
-66.3335
-67.9678
-69.3427
-70.4538
-71.2949
-71.8795
-72.2256
-72.3662
-72.3713
-72.2545
-71.9897
-71.7502
-71.5224
-71.3389
-71.2384
-71.2176
-71.2806
-71.417
-71.6246
-71.9066
-72.2627
-72.6798
-73.1471
-73.6468
-74.1533
-74.6575
-75.158
-75.6435
-76.0657
-76.5032
-76.9309
-77.3814
-77.8574
-78.3247
-78.7701
-79.0658
-79.2853
-79.5105
-79.7766
-80.066
-80.3838
-80.6805
-80.9494
-81.1766
-81.397
-81.5215
-81.659
-81.7958
-81.9253
-82.1089
-82.2862
-82.4143
-82.5039
-82.5922
-82.7569
-82.9973
-83.2842
-83.5308
-83.6525
-83.7113
-83.8025
-83.9168
-84.1251
-84.5351
-85.2046
-86.0897
-87.1303
-88.3253
-89.6946
-91.2502
-93.0405
-95.1181
-97.545
-100.297
-103.311
-106.492
-109.67
-112.565
-114.863
-116.485
-117.612
-118.18
-117.95
-116.892
-115.252
-113.178
-110.814
-108.294
-105.609
-102.709
-99.7298
-96.6524
-93.3717
-89.7265
-85.3607
-80.101
-74.0212
-67.0886
-60.4905
-27.8537
-28.5836
-29.3192
-29.9874
-30.5919
-31.0962
-31.5213
-31.8742
-32.1355
-32.3423
-32.4906
-32.5918
-32.6643
-32.725
-32.7665
-32.7986
-32.7947
-32.8053
-32.83
-32.8417
-32.8546
-32.8546
-32.8564
-32.8641
-32.8675
-32.8808
-32.8845
-32.8982
-32.9024
-32.9155
-32.9204
-32.9129
-32.9048
-32.8941
-32.8862
-32.864
-32.8625
-32.8785
-32.8815
-32.8812
-32.8832
-32.8831
-32.8974
-32.9049
-32.922
-32.93
-32.9397
-32.9329
-32.9239
-32.9178
-32.9149
-32.9231
-32.9232
-32.9304
-32.9414
-32.9492
-32.9581
-32.9849
-33.0096
-33.059
-33.0867
-33.1153
-33.1335
-33.1664
-33.2149
-33.2706
-33.3449
-33.4268
-33.5191
-33.6166
-33.739
-33.9002
-34.0987
-34.3461
-34.6368
-34.9836
-35.3923
-35.8775
-36.4483
-37.1273
-37.9379
-38.9039
-40.0426
-41.3815
-42.9293
-44.691
-46.6482
-48.7873
-51.0472
-53.3891
-55.7645
-58.1005
-60.3396
-62.4415
-64.3728
-66.1002
-67.6015
-68.8586
-69.8699
-70.6349
-71.1745
-71.5207
-71.7361
-71.8097
-71.7777
-71.6853
-71.5654
-71.4526
-71.3747
-71.3453
-71.3752
-71.4562
-71.5999
-71.8048
-72.0898
-72.4415
-72.8426
-73.2759
-73.7216
-74.1755
-74.6305
-75.0942
-75.5602
-76.0495
-76.5232
-76.9596
-77.364
-77.7548
-78.1518
-78.5243
-78.8918
-79.2617
-79.6172
-79.8609
-80.131
-80.402
-80.6374
-80.8549
-81.09
-81.2691
-81.4325
-81.6134
-81.8075
-82.0515
-82.2853
-82.4469
-82.5187
-82.5884
-82.6884
-82.8664
-83.1777
-83.543
-83.7521
-83.8142
-83.8276
-83.833
-83.8843
-84.1028
-84.581
-85.3408
-86.3149
-87.422
-88.6771
-90.1216
-91.8099
-93.7902
-96.1746
-99.0553
-102.373
-105.966
-109.702
-113.317
-116.478
-119.054
-121.011
-122.117
-122.033
-121.098
-119.609
-117.744
-115.614
-113.35
-110.956
-108.342
-105.676
-103.079
-100.447
-97.6892
-94.4719
-90.3669
-85.3738
-79.2779
-73.0492
-25.3644
-26.4276
-27.4734