/*--------------------------------*- C++ -*----------------------------------*\
| =========                 |                                                 |
| \\      /  F ield         | OpenFOAM: The Open Source CFD Toolbox           |
|  \\    /   O peration     | Version:  4.1                                   |
|   \\  /    A nd           | Web:      www.OpenFOAM.org                      |
|    \\/     M anipulation  |                                                 |
\*---------------------------------------------------------------------------*/
FoamFile
{
    version     2.0;
    format      ascii;
    class       volScalarField;
    location    "27.5";
    object      p;
}
// * * * * * * * * * * * * * * * * * * * * * * * * * * * * * * * * * * * * * //

dimensions      [0 2 -2 0 0 0 0];

internalField   nonuniform List<scalar> 
204246
(
154.198
11.1335
58.9376
36.9868
28.4564
40.7049
19.2678
39.8767
15.7901
38.7934
14.25
38.3226
12.783
36.937
15.263
31.7227
24.7728
16.512
33.7935
12.0703
36.0822
11.6331
35.0314
12.0344
35.0768
11.494
36.1377
9.49746
36.9248
9.4151
36.1994
10.717
33.7665
14.9169
27.2699
24.3064
13.9779
32.0117
11.0434
32.607
10.6837
33.2019
9.96559
34.4697
8.08249
35.2926
8.44259
34.3016
10.9096
30.6343
15.208
25.8241
24.0407
13.1385
31.6594
10.5128
32.3004
10.3079
32.9378
9.63134
34.2004
7.68975
34.9646
7.90281
33.8807
10.131
30.1393
14.058
25.424
22.2082
13.4692
28.1636
10.5508
30.162
9.20909
31.1163
8.10985
32.4442
5.99351
33.2334
6.16828
32.1871
8.45461
28.4996
12.5177
23.8481
20.8882
11.8997
27.1344
8.92643
29.6109
7.19708
31.6828
4.60253
33.1085
3.98155
33.1157
4.29627
32.099
5.96976
29.125
8.10579
26.9128
10.6355
23.2367
16.9446
10.8944
24.4287
6.08118
27.4371
2.18141
28.1229
1.25029
26.605
0.196197
24.8019
-1.02117
22.1964
-1.83368
17.9929
-1.05034
11.0183
3.9313
-5.38459
8.20538
-12.9931
6.43934
-18.1587
2.39245
-22.9732
-2.17767
-27.7689
-6.7713
-31.9437
-11.2116
-34.2948
-16.0099
-33.7845
-22.3053
-26.9287
-36.6554
-18.6334
-40.2574
-15.1518
-40.173
-12.5232
-38.7037
-10.2539
-36.3929
-8.32613
-33.5699
-6.94134
-30.0078
-6.64785
-24.4774
-9.18042
-13.159
-20.4394
-2.08929
-22.2048
3.34617
-20.7898
7.34689
-17.8303
11.2577
-13.6416
15.6172
-7.74759
20.3495
0.164443
25.684
10.6769
30.7368
24.9028
37.1795
42.2278
43.7961
58.4444
63.6609
75.7241
87.5541
99.361
120.151
127.475
155.197
163.812
202.375
211.337
273.886
277.039
396.025
384.871
610.039
73.2172
34.7033
35.3162
41.6041
26.4078
38.3244
22.6752
35.1492
20.7642
33.1754
19.9478
31.5697
20.405
28.4912
23.3477
23.5456
28.7636
18.705
29.3486
18.0411
29.254
18.2367
28.9715
17.8394
29.2638
17.2655
29.7211
16.9068
29.1323
17.5436
27.7869
19.1847
25.0773
22.5559
20.7015
27.1709
16.8219
27.3606
16.6515
27.2208
16.1628
27.5754
15.6209
28.0352
15.447
27.3727
16.4794
25.8614
18.6748
23.3226
21.6441
19.6322
26.4224
16.0884
26.7976
16.1462
26.822
15.8066
27.2912
15.3286
27.8001
15.1266
27.1226
16.0327
25.5553
17.9923
22.9684
20.5832
19.3199
24.824
15.9034
24.9548
15.0444
25.3357
14.4233
25.6935
13.7482
26.101
13.4249
25.3637
14.2933
23.7841
16.2983
21.2246
19.0132
17.6236
23.459
14.232
23.8777
13.31
24.6996
12.4635
25.6081
11.8115
25.5216
11.9551
24.9913
12.5697
23.8465
13.8111
22.219
14.9041
20.2754
17.0893
16.8137
21.2245
12.2752
21.9571
10.6582
22.3969
9.47424
21.4451
8.98193
20.1366
8.11353
18.4344
7.17389
15.8154
6.69357
11.6354
7.08192
5.48254
9.36433
-1.12493
5.84627
-5.42271
2.12761
-9.90392
-2.06146
-14.5821
-6.79244
-19.0947
-12.0122
-23.0035
-17.5371
-25.6179
-23.13
-25.9554
-29.1157
-23.2746
-34.596
-23.4858
-35.1773
-22.6307
-34.3546
-20.9549
-32.5136
-19.0616
-29.9675
-17.3156
-26.9191
-16.1252
-23.1485
-16.0743
-17.8901
-17.838
-10.6537
-19.7183
-7.40272
-18.0766
-4.4584
-15.733
-1.47913
-12.7301
1.80058
-8.82996
5.39047
-3.39414
9.35658
3.91282
14.3716
13.0889
19.3976
23.7045
27.2261
35.236
39.5244
46.0433
54.5015
62.0809
76.2119
80.7732
103.205
106.817
132.942
134.898
170.779
166.511
225.492
199.091
301.61
248.082
383.881
29.1487
51.4215
33.5382
43.4288
29.3063
38.5205
24.5876
35.6761
21.7795
33.6649
20.8348
31.7413
21.1303
29.0452
23.1418
25.1855
26.4283
21.1391
28.2727
19.0627
29.141
18.2796
29.3014
17.8327
29.4246
17.4445
29.5211
17.2267
29.1044
17.6818
27.9524
19.0701
25.6809
21.6548
22.2159
24.8188
18.8021
26.4152
17.1657
27.1712
16.3088
27.574
15.8291
27.7696
15.7399
27.3546
16.504
26.163
18.2496
24.0284
20.8737
21.0199
24.1786
17.9574
25.9194
16.5853
26.8121
15.8975
27.3142
15.4866
27.5502
15.3656
27.1156
16.0009
25.8616
17.5189
23.6597
19.8081
20.6148
22.694
17.4781
24.1755
15.6651
25.1218
14.6404
25.6235
13.9614
25.8276
13.6852
25.3649
14.2682
24.1096
15.8257
21.9341
18.2395
18.9284
21.3387
15.7988
23.109
13.9397
24.4208
12.7842
25.2655
12.0585
25.4752
11.939
25.1389
12.3592
24.202
13.2964
22.7165
14.5489
20.7059
16.516
17.6978
19.2363
14.0128
20.8951
11.5142
21.7645
9.84972
21.4574
8.88737
20.3737
7.99817
18.7222
7.1527
16.1365
6.82514
12.1876
7.02298
6.76935
7.18109
0.737581
5.39691
-4.35008
2.46359
-8.92271
-1.82803
-13.4464
-6.80015
-17.949
-12.0292
-22.0083
-17.3001
-24.8412
-22.6788
-25.7607
-28.0471
-25.4444
-32.2992
-24.4528
-34.1959
-22.7352
-34.0979
-20.748
-32.5267
-18.7614
-30.0326
-17.0002
-27.0017
-15.8037
-23.3235
-15.5797
-18.5433
-16.518
-12.8624
-17.6854
-8.49854
-17.2938
-4.73491
-15.6179
-1.43111
-12.831
1.79894
-8.82345
5.1636
-3.33978
8.79927
3.66025
13.482
12.1104
20.4167
21.561
29.4741
33.0011
40.2777
46.8271
55.7168
62.245
77.1758
83.2758
103.876
109.876
137.306
141.737
181.81
178.038
243.799
222.568
320.488
294.941
388.792
13.9312
32.3314
23.5804
36.2616
24.3863
35.0007
23.2306
32.489
22.7737
30.1151
22.8802
27.9513
23.8126
25.2808
25.659
22.4624
27.5018
20.9111
27.1445
20.7266
26.6403
20.8217
26.3761
20.6404
26.335
20.4882
26.1687
20.6978
25.386
21.439
24.0694
22.7638
22.1336
24.5952
20.0289
25.9985
18.976
25.4681
18.9214
25.0322
18.7581
24.8186
18.6958
24.5204
19.0758
23.6548
20.0633
22.3661
21.5884
20.748
23.3691
19.0019
25.0242
18.2274
24.7676
18.4092
24.5744
18.4203
24.5445
18.4524
24.353
18.8324
23.5153
19.7193
22.1901
21.0421
20.4926
22.5315
18.6304
23.8857
17.611
23.5331
17.2293
23.2609
16.9829
23.0483
16.8309
22.69
17.0904
21.7358
17.9302
20.3545
19.2876
18.6556
20.8962
16.8308
22.4515
15.8558
22.3654
15.5066
22.4056
15.3019
22.4181
15.3534
22.0014
15.7124
21.3416
16.3184
20.4001
17.1438
19.2537
18.0389
17.7346
19.4243
15.7461
20.9192
14.1606
20.6652
13.4584
20.0949
13.0779
18.9673
12.7606
17.6517
12.1973
15.9843
11.5627
13.5101
11.2268
10.0877
10.8005
6.09015
9.87069
3.09476
5.69339
-0.418361
1.32623
-4.24658
-3.43006
-8.59287
-8.62631
-13.1507
-14.2444
-17.5516
-19.9872
-21.342
-25.2503
-23.9044
-29.4832
-25.5291
-32.8641
-27.0088
-33.4079
-26.9971
-32.5245
-25.8546
-30.3966
-24.1812
-27.4846
-22.4427
-24.2107
-21.1344
-20.6053
-20.6111
-16.5819
-20.2591
-12.9641
-18.8953
-10.8773
-16.8566
-8.84836
-14.4377
-6.68498
-11.5836
-4.05981
-8.17569
-1.17734
-3.7068
2.51417
1.87375
7.20302
8.7551
13.2536
16.7121
20.9724
26.0698
31.2121
36.2095
44.7261
48.3467
62.2337
63.4166
83.1128
82.874
108.366
103.312
140.569
124.381
184.318
147.741
223.239
199.028
271.222
13.0946
35.8518
23.54
35.744
25.8045
34.8376
25.2069
32.986
24.1635
30.7018
23.9958
28.554
24.4814
26.2443
25.4499
24.0726
26.2535
22.8153
26.2705
21.9371
26.3632
21.3365
26.4556
20.9185
26.418
20.7738
26.1411
20.9937
25.4731
21.5576
24.414
22.5148
22.9336
23.6896
21.4066
24.4708
20.5163
24.5129
19.8042
24.6607
19.2456
24.6509
19.0645
24.3715
19.3679
23.7124
20.0971
22.7497
21.2056
21.5464
22.5047
20.2711
23.5727
19.635
23.8703
19.1732
24.239
18.8082
24.3943
18.7324
24.2053
19.0425
23.5603
19.6805
22.5447
20.6114
21.2385
21.6703
19.7985
22.4835
18.9034
22.6537
18.084
22.827
17.4992
22.8166
17.2183
22.5018
17.3806
21.7689
17.9466
20.7116
18.8899
19.4073
20.0416
18.0065
21.0438
17.1485
21.4508
16.3704
21.8748
15.847
22.0458
15.7022
21.8569
15.8267
21.4052
16.2053
20.6637
16.7984
19.678
17.5769
18.3058
18.6225
16.6904
19.5043
15.4777
19.5656
14.43
19.4121
13.6452
18.7795
12.9894
17.7633
12.3781
16.2355
11.7788
13.9462
11.5722
10.8289
10.8638
7.59284
8.7903
4.45556
6.17689
1.09404
2.23984
-2.71984
-2.43011
-6.97242
-7.70684
-11.572
-13.2495
-16.1347
-18.7413
-20.371
-23.631
-24.2231
-27.6259
-26.8916
-30.5589
-27.9654
-31.9699
-27.2905
-31.9201
-25.8355
-30.1663
-24.0633
-27.337
-22.1776
-24.1716
-20.6904
-20.7561
-19.849
-17.5161
-18.5381
-14.4833
-17.0781
-12.0181
-15.6602
-9.30298
-13.8652
-6.65684
-11.506
-3.89779
-8.37266
-0.688022
-4.22887
3.15838
1.03485
7.96057
7.46404
14.4298
15.1534
22.6321
24.584
33.1875
36.1484
47.3498
49.8701
65.4704
67.9454
88.2977
89.7556
117.972
114.969
156.629
142.08
201.192
180.189
240.257
228.941
274.393
8.69655
24.9296
17.3245
28.941
21.1892
30.0306
22.8286
29.3249
23.5323
27.7393
24.1419
26.0035
24.9851
24.1842
25.8853
22.7441
26.2689
22.2448
25.7444
22.1971
25.2503
22.2355
24.9262
22.2336
24.6566
22.3504
24.2432
22.7265
23.5167
23.3457
22.5305
24.1512
21.3892
24.8762
20.5095
24.998
20.2815
24.3404
20.2809
23.7781
20.2768
23.2478
20.4376
22.6334
20.9148
21.8138
21.6682
20.899
22.5887
20.0344
23.4369
19.411
23.8588
19.4658
23.5247
19.7388
23.2703
19.9538
22.997
20.2556
22.5502
20.7722
21.7984
21.4652
20.8517
22.2338
19.8571
22.8672
19.0246
23.058
18.7413
22.5632
18.6027
22.074
18.5466
21.5535
18.6309
20.8923
18.9951
19.9795
19.6127
18.9387
20.3939
17.9217
21.1289
17.12
21.5086
16.9235
21.2488
16.9084
21.0048
17.0134
20.6719
17.3009
20.1598
17.7099
19.5405
18.2172
18.8057
18.7876
17.9888
19.3878
17.0193
20.0365
16.0631
20.3348
15.567
19.7856
15.3425
19.0016
15.2372
17.9356
15.0678
16.7024
14.7325
15.2174
14.2445
13.183
13.6173
10.7109
12.609
8.30689
10.4943
5.72056
7.27935
2.6373
3.21685
-0.938865
-1.53398
-5.1438
-6.95376
-9.91006
-12.8572
-15.0485
-18.7917
-20.1395
-24.2622
-24.6511
-28.7237
-28.4396
-31.848
-30.457
-33.3474
-30.6475
-32.7421
-29.7356
-30.2939
-28.0388
-26.9109
-25.8517
-23.5969
-23.7895
-20.5806
-22.2076
-17.6906
-20.6521
-15.5094
-18.5891
-13.6207
-16.634
-11.904
-14.6043
-9.85944
-12.5861
-7.4649
-10.1177
-4.91459
-6.57602
-1.88403
-2.08493
2.18795
3.15303
7.45931
9.48037
14.103
16.8799
22.6278
25.2072
33.9458
34.9023
47.9671
46.7298
65.5108
61.2651
87.2807
76.9219
115.579
93.8952
142.974
122.243
170.747
161.955
204.227
12.5077
30.0787
19.2289
30.5884
23.008
30.5758
24.5455
29.8969
24.902
28.5358
25.1486
26.8316
25.5888
25.2298
25.9059
24.058
25.8021
23.6095
25.2988
23.2608
25.0193
22.9247
24.8795
22.6926
24.6812
22.705
24.3055
22.992
23.7062
23.4404
22.9515
23.9499
22.1535
24.2961
21.5437
24.1622
21.3938
23.6926
21.1642
23.3844
20.9142
23.0422
20.9056
22.5621
21.2219
21.9402
21.7467
21.2889
22.3415
20.7135
22.8513
20.3373
23.0604
20.4076
22.9056
20.4434
22.9013
20.4251
22.7977
20.5723
22.4677
20.9487
21.8934
21.4379
21.1905
21.9297
20.4853
22.28
19.8808
22.2667
19.6802
21.9421
19.3954
21.6759
19.1537
21.3229
19.0942
20.789
19.3062
20.0622
19.6905
19.2721
20.1577
18.5379
20.5467
17.9841
20.7006
17.8438
20.5675
17.6713
20.5088
17.5716
20.338
17.6671
19.9984
17.8845
19.5455
18.1974
18.9735
18.5734
18.3117
18.9795
17.5231
19.3782
16.7876
19.4431
16.4483
18.9975
16.1233
18.4672
15.8051
17.7361
15.4254
16.8039
15.0941
15.464
14.7458
13.6651
14.1146
11.6648
12.7552
9.66007
10.7102
7.19497
8.19435
4.44365
4.54651
0.994031
0.1378
-3.14835
-5.00518
-7.95148
-10.652
-13.2652
-16.5034
-18.6564
-22.0982
-23.7582
-26.7746
-28.0018
-30.2816
-30.3672
-32.1057
-30.9527
-32.1918
-30.1093
-30.2837
-28.1485
-27.1503
-25.6271
-23.8143
-23.1176
-20.9435
-21.0348
-18.3936
-19.3234
-15.8639
-17.8139
-13.8124
-16.0386
-11.6347
-14.2888
-9.30302
-12.4135
-6.91957
-9.8936
-4.3557
-6.49479
-1.06563
-2.47039
3.26179
2.48219
8.78508
8.71788
15.8886
16.4572
25.199
25.7329
37.3759
36.9082
52.7937
51.1665
72.2781
68.5098
97.6684
87.6876
127.05
112.257
154.812
143.672
180.301
175.608
203.601
7.36775
23.8727
15.0717
24.9053
19.3801
26.1852
21.8699
26.4092
23.4154
25.8767
24.3479
24.8211
25.091
23.7661
25.5172
23.1099
25.3881
23.0047
24.814
23.0562
24.3375
23.1179
23.9744
23.2123
23.6249
23.4331
23.192
23.8054
22.6266
24.2406
21.9953
24.6331
21.3828
24.789
21.125
24.3898
21.1245
23.6545
21.1951
22.9884
21.2503
22.2967
21.4373
21.5973
21.8346
20.8934
22.3252
20.3132
22.8064
19.9583
23.1083
19.8715
23.0837
20.2175
22.7086
20.5984
22.4213
20.9301
22.0808
21.324
21.6171
21.8114
21.0239
22.2969
20.4068
22.6727
19.859
22.8248
19.5763
22.5271
19.5348
21.9297
19.5399
21.33
19.5771
20.6802
19.7149
19.9518
20.005
19.1549
20.3688
18.4004
20.7274
17.8354
20.9325
17.5268
20.8389
17.6417
20.4465
17.8331
20.0856
18.0891
19.6567
18.4479
19.147
18.8414
18.6154
19.2427
18.0646
19.6185
17.5276
19.929
16.9876
20.1243
16.6217
19.9261
16.5664
19.2736
16.612
18.498
16.6583
17.5635
16.6046
16.5087
16.3183
15.2785
15.9482
13.7315
15.1976
12.0975
13.9135
10.3276
11.9318
8.13965
9.0626
5.52901
5.4735
2.20353
1.07451
-1.92367
-4.15787
-6.90107
-10.1042
-12.6186
-16.5259
-18.7082
-22.861
-24.7033
-28.475
-29.9082
-32.6046
-33.3945
-34.6794
-34.345
-34.3836
-33.3708
-32.039
-30.9821
-28.5318
-27.8856
-24.9035
-24.9273
-21.6111
-22.7149
-18.8283
-20.9303
-16.9343
-19.0021
-15.335
-17.1985
-13.8226
-15.5331
-12.069
-14.0535
-10.2047
-12.1471
-8.21309
-9.50329
-5.60427
-6.27614
-2.27565
-2.25627
1.95694
2.63278
7.32755
8.36034
14.5172
14.9554
24.2065
22.4317
36.004
31.6949
50.6177
42.6336
69.4587
55.4434
89.3958
74.203
109.233
100.117
132.231
129.537
157.907
12.9463
27.6401
18.1498
27.6788
21.4881
27.7107
23.6204
27.3165
24.7544
26.705
25.2826
25.6992
25.7014
24.7374
25.722
24.1615
25.3341
24.0399
24.6742
23.9438
24.2145
23.8049
23.9129
23.726
23.6258
23.8158
23.2772
24.071
22.8463
24.3699
22.3843
24.6017
22.0407
24.4488
21.9121
24.0217
22.0112
23.2964
22.0107
22.6905
21.9478
22.1395
21.9807
21.5592
22.207
21.0389
22.5083
20.6445
22.7119
20.4635
22.8184
20.4975
22.6754
20.8409
22.3335
21.1396
22.135
21.3475
21.9014
21.6169
21.5572
21.9749
21.1179
22.3164
20.6769
22.5386
20.3544
22.4614
20.1869
22.1608
20.2483
21.5878
20.2225
21.0792
20.1799
20.532
20.2123
19.9128
20.3714
19.2492
20.5622
18.6638
20.6955
18.2731
20.6482
18.1291
20.4066
18.2994
20.0105
18.4327
19.7092
18.5748
19.3751
18.7968
18.9807
19.0473
18.5688
19.2964
18.1439
19.5126
17.7396
19.6527
17.3518
19.6637
17.1197
19.3968
17.1663
18.7714
17.2067
18.128
17.1755
17.4156
17.0722
16.5926
16.8837
15.5459
16.4869
14.3605
15.6933
13.128
14.4078
11.7047
12.6651
9.91717
10.3204
7.60158
7.20033
4.56514
3.24278
0.681397
-1.61
-4.16255
-7.27027
-9.94512
-13.5817
-16.3453
-20.0884
-22.7835
-26.1119
-28.4942
-30.9614
-32.5773
-33.8812
-34.5943
-34.5869
-34.2275
-33.0575
-31.8002
-29.6556
-28.1361
-25.5964
-24.6372
-21.9624
-22.1059
-19.2311
-20.263
-16.998
-18.6239
-15.1682
-16.7855
-13.2848
-15.0689
-11.2505
-13.5508
-9.35821
-11.6292
-7.25699
-9.23699
-4.60816
-6.2663
-1.23817
-2.49121
3.1272
2.29889
8.93345
8.06998
16.7807
14.8332
27.1125
23.4178
39.9827
34.4251
56.2852
47.5058
75.4609
64.7548
95.3304
86.493
115.004
110.097
134.656
132.921
153.242
8.85138
22.8943
14.376
23.4669
18.5051
23.9989
21.2579
24.343
23.0002
24.3404
24.1279
24.0198
24.7793
23.5906
24.9816
23.3577
24.7413
23.4512
24.1498
23.5955
23.6613
23.7
23.2743
23.8352
22.9337
24.0653
22.5881
24.3733
22.2165
24.6688
21.8702
24.7696
21.6619
24.6843
21.572
24.1479
21.7425
23.3459
21.8412
22.5173
21.9222
21.7029
22.0399
20.9863
22.2993
20.384
22.5514
20.1496
22.6884
20.0556
22.7548
20.2203
22.5689
20.7041
22.1669
21.1739
21.8613
21.5739
21.5301
21.9828
21.1355
22.4008
20.7051
22.733
20.343
22.8258
20.1352
22.7315
20.0035
22.2845
20.1378
21.5723
20.2277
20.8789
20.3027
20.1746
20.4143
19.4586
20.5843
18.7878
20.7162
18.267
20.7337
17.9631
20.6878
17.8555
20.3708
18.1334
19.8904
18.4516
19.4746
18.7909
19.033
19.1725
18.5639
19.5314
18.1264
19.839
17.7325
20.0621
17.4212
20.1543
17.1795
20.0914
17.0959
19.7205
17.2747
19.0278
17.4867
18.3023
17.6372
17.5
17.6767
16.591
17.5321
15.6657
17.1138
14.676
16.3412
13.5908
15.1716
12.2307
13.5018
10.4758
11.1581
8.30271
8.0838
5.45411
4.13163
1.67736
-0.72832
-3.25519
-6.52183
-9.31751
-13.2618
-16.2598
-20.5672
-23.5844
-27.7335
-30.3825
-33.7427
-35.5542
-37.3424
-37.964
-37.881
-37.2757
-35.6137
-34.2929
-31.4495
-30.0853
-26.6246
-25.9696
-22.3652
-22.9646
-19.3979
-21.0292
-17.7337
-19.2865
-16.4834
-17.7878
-15.2372
-16.4545
-13.7185
-15.3923
-12.2356
-14.1021
-10.6228
-12.2859
-8.64526
-9.90357
-6.04262
-6.90541
-2.72254
-3.28862
1.7135
0.865906
7.83659
5.59743
15.8022
11.0925
25.4193
18.0911
37.5419
27.0992
50.513
40.3876
65.0142
57.8089
81.9234
78.4562
101.389
100.717
121.946
13.4007
26.8938
17.713
26.3735
20.8727
25.9754
22.9475
25.6047
24.2575
25.2192
24.9943
24.787
25.3517
24.3887
25.3358
24.1357
24.8768
24.2338
24.1804
24.3044
23.6333
24.2958
23.24
24.305
22.9309
24.4171
22.6723
24.6161
22.4238
24.7994
22.2362
24.8093
22.1556
24.6158
22.2439
23.9774
22.5108
23.1689
22.5752
22.4389
22.5602
21.6316
22.6288
20.9304
22.7544
20.5604
22.7819
20.4014
22.75
20.3917
22.6279
20.6002
22.3667
21.0758
21.9484
21.5279
21.6614
21.8708
21.3838
22.2015
21.0768
22.5243
20.7704
22.7501
20.5615
22.7722
20.4538
22.6216
20.4937
22.1228
20.7089
21.4309
20.8047
20.7914
20.8513
20.1285
20.8991
19.4767
20.9692
18.8867
21.0059
18.4925
20.876
18.2488
20.5645
18.2788
20.144
18.5933
19.6244
18.8858
19.2053
19.1648
18.7987
19.4609
18.3941
19.7245
18.0346
19.9211
17.7326
20.0186
17.5291
20.0005
17.3832
19.8229
17.4146
19.395
17.6803
18.7156
17.931
18.0506
18.1164
17.3545
18.1534
16.7173
17.9863
16.0367
17.5771
15.3363
16.8621
14.5338
15.8687
13.5103
14.4631
12.2129
12.4803
10.4801
9.79528
8.022
6.36255
4.51599
2.05662
-0.205047
-3.36682
-6.16388
-9.97734
-13.3079
-17.4758
-21.1675
-25.1854
-28.7835
-32.0238
-34.879
-36.9205
-38.6558
-39.077
-39.4845
-38.0644
-37.0008
-33.9121
-31.9702
-28.2656
-26.7268
-23.2046
-23.1208
-19.9392
-20.9921
-17.8967
-19.3002
-16.2408
-17.4361
-14.5018
-15.7609
-12.7357
-14.5708
-11.2838
-13.3029
-9.7633
-11.8005
-7.88377
-9.89341
-5.52089
-7.29175
-2.29175
-4.02355
2.30446
-0.331569
8.83823
4.13585
17.2615
10.2004
27.4257
18.4472
38.7984
30.3995
51.7891
45.0489
66.4243
61.8874
82.1358
79.7697
98.3073
97.5566
113.954
9.62035
22.9169
14.6972
22.7532
18.3817
23.0278
20.9266
23.2885
22.7031
23.393
23.7685
23.4675
24.3754
23.4676
24.5588
23.5174
24.2758
23.7423
23.6657
23.952
23.1378
24.0985
22.7221
24.2332
22.4206
24.4121
22.2137
24.6312
22.0414
24.8
21.9305
24.8439
21.8939
24.6851
22.0265
24.0736
22.3085
23.2266
22.3683
22.4163
22.3552
21.5597
22.3167
20.7621
22.3462
20.2184
22.444
20.1007
22.459
20.1103
22.4774
20.4193
22.2196
21.0132
21.797
21.5641
21.4836
22.0112
21.1845
22.4111
20.8737
22.7595
20.5814
22.9658
20.405
22.9715
20.3566
22.742
20.4375
22.2009
20.6543
21.4252
20.7761
20.7109
20.8029
19.9968
20.8327
19.3048
20.8727
18.6911
20.8641
18.2665
20.7349
18.0438
20.4649
18.1012
20.0408
18.4664
19.4964
18.8747
19.0478
19.2763
18.6124
19.6744
18.1876
20.0034
17.8354
20.2342
17.5694
20.3353
17.4179
20.2899
17.391
20.0873
17.4838
19.6407
17.7922
18.9295
18.1306
18.2326
18.3905
17.5159
18.5239
16.8467
18.3828
16.2698
17.9893
15.6765
17.3733
14.9331
16.4954
14.0199
15.1639
12.8381
13.2067
11.3081
10.6949
8.99211
7.51047
5.62263
3.37618
1.05913
-2.01175
-4.9028
-8.78319
-12.326
-16.8581
-20.8936
-25.7021
-29.7241
-34.1232
-37.3883
-40.2242
-41.9542
-42.6488
-42.5354
-40.9763
-39.3919
-36.0277
-33.5543
-29.0982
-27.2044
-22.7973
-22.7024
-19.123
-20.7298
-17.8717
-19.4362
-17.1438
-18.4832
-16.1965
-17.3037
-14.8978
-16.3433
-13.7425
-15.5728
-12.5536
-14.3671
-10.9835
-12.7777
-9.02292
-10.6775
-6.4075
-8.33904
-2.54492
-5.85266
2.54741
-2.78158
8.71838
1.26931
15.7058
7.38037
23.3984
15.9439
32.9098
27.1624
44.6044
41.0873
58.7254
57.3622
74.8504
74.9123
91.8631
14.9415
26.4324
18.3021
25.4072
20.7735
24.874
22.556
24.5061
23.8215
24.2123
24.5679
24.0856
24.9079
24.0469
24.8698
24.0877
24.4436
24.3327
23.7607
24.5228
23.1516
24.5918
22.6968
24.6181
22.4188
24.6988
22.2971
24.8057
22.2106
24.9443
22.1903
24.9655
22.306
24.6716
22.5761
23.9681
22.995
23.1033
23.0872
22.3574
23.0367
21.5278
22.9401
20.7393
22.9181
20.3917
22.7356
20.2612
22.6375
20.2533
22.4452
20.6108
22.1031
21.1866
21.6493
21.7471
21.3279
22.1788
21.0529
22.5424
20.8006
22.8374
20.6051
22.9735
20.5321
22.9733
20.5903
22.721
20.7908
22.1634
21.1146
21.4143
21.2843
20.701
21.3106
20.0113
21.3035
19.355
21.2766
18.8208
21.1619
18.492
20.9034
18.2675
20.4605
18.3927
19.9299
18.7783
19.3352
19.1631
18.8493
19.5341
18.4105
19.8842
18.0158
20.1545
17.7087
20.3133
17.5043
20.3392
17.428
20.2121
17.4591
19.9367
17.6509
19.4384
18.0545
18.7386
18.438
18.075
18.7469
17.4319
18.8267
16.9794
18.6829
16.6031
18.3214
16.1973
17.7982
15.686
17.0534
15.1054
15.9091
14.3851
14.2775
13.1697
12.242
11.171
9.61258
8.19751
5.98494
4.00167
1.03422
-1.75457
-5.53762
-9.2653
-13.7835
-18.3346
-23.2583
-28.1983
-32.8173
-37.2136
-40.5523
-43.6013
-45.0959
-46.3737
-45.5356
-44.6977
-41.0012
-38.3133
-32.8494
-29.9573
-24.8705
-23.6697
-20.0113
-20.9474
-18.1189
-19.6369
-16.6892
-17.7462
-15.2376
-16.0934
-14.0178
-15.0744
-12.8658
-14.5121
-12.0629
-13.7734
-10.9565
-12.9504
-9.41193
-11.7285
-7.03946
-10.1697
-3.61367
-8.10832
1.18848
-5.30983
7.05654
-0.717785
13.5
6.10203
21.333
14.9529
30.7565
25.8034
41.8632
38.4732
54.3213
52.5785
67.717
67.2807
81.4518
11.3805
23.2539
15.7855
22.5873
18.95
22.531
21.159
22.7064
22.6062
22.9242
23.5023
23.1929
24.0117
23.4315
24.2113
23.6881
23.9576
23.9857
23.3941
24.1736
22.8353
24.3211
22.2969
24.4719
22.0423
24.5245
21.9852
24.6624
21.9429
24.8461
21.9308
24.925
22.1001
24.7157
22.4321
24.0998
22.868
23.1633
23.0122
22.3955
22.8763
21.5417
22.6167
20.6888
22.3683
20.0736
22.2719
20.0008
22.2506
20.1003
22.2408
20.5059
21.9593
21.2157
21.5173
21.8506
21.2003
22.3338
20.9369
22.7191
20.6997
23.015
20.5112
23.1476
20.4645
23.1064
20.5723
22.7925
20.8094
22.2101
21.14
21.384
21.3119
20.6315
21.2838
19.9189
21.2232
19.2518
21.1429
18.6933
20.9996
18.3033
20.7394
18.1128
20.3102
18.2636
19.8006
18.6914
19.1981
19.1798
18.7132
19.6433
18.2797
20.064
17.8924
20.3742
17.6114
20.547
17.4468
20.5676
17.4182
20.4287
17.5136
20.1335
17.748
19.6338
18.1714
18.9051
18.6223
18.2222
18.9775
17.585
19.1367
17.1428
18.9875
16.8496
18.6995
16.5159
18.2686
16.1152
17.5706
15.7157
16.4565
15.1444
14.977
14.0327
13.2607
12.2213
10.9524
9.58629
7.68921
5.78134
3.11946
0.400341
-3.18549
-6.9339
-11.5274
-16.3019
-21.7468
-27.1652
-32.9065
-38.0585
-42.7216
-46.1277
-48.3169
-49.4355
-48.6329
-47.2818
-43.4117
-39.9501
-33.5779
-29.58
-23.201
-21.7342
-17.7416
-19.3008
-17.5108
-19.319
-18.0267
-19.2156
-17.1927
-17.8868
-15.7358
-16.8947
-15.0341
-16.3074
-14.3019
-15.5688
-13.142
-14.6349
-11.6581
-13.4671
-9.69435
-12.1325
-6.70707
-10.7771
-2.94553
-8.52578
1.14691
-5.13445
5.7415
-0.461031
11.1611
5.92773
17.9734
14.4447
26.7207
24.8981
37.7033
37.3969
50.7856
51.1422
65.2542
16.8406
26.2178
19.3736
24.7998
21.1939
24.0558
22.5225
23.6858
23.4932
23.5216
24.1471
23.5713
24.4454
23.7574
24.4401
24.0062
24.0828
24.4028
23.445
24.6152
22.8802
24.6912
22.3358
24.6658
22.0499
24.7203
21.9941
24.8129
22.0116
24.9962
22.1048
25.0461
22.3734
24.7023
22.8314
23.96
23.4763
23.0266
23.6299
22.3377
23.5357
21.5345
23.2711
20.7449
22.9568
20.2546
22.6396
20.0571
22.4712
20.0612
22.2408
20.5365
21.8369
21.2358
21.3573
21.9033
21.0352
22.4045
20.7928
22.7885
20.5914
23.0592
20.4706
23.1544
20.5023
23.1138
20.7208
22.8114
21.0686
22.2375
21.5211
21.4348
21.7834
20.6476
21.7311
19.9541
21.6305
19.3081
21.4976
18.8313
21.2708
18.4828
20.9227
18.2698
20.3785
18.4306
19.7444
18.8728
19.0681
19.3541
18.5295
19.815
18.0784
20.2184
17.7017
20.4953
17.4452
20.6226
17.3212
20.5932
17.3463
20.3985
17.5
20.0516
17.8116
19.501
18.3292
18.7613
18.8292
18.0913
19.2091
17.5128
19.2851
17.2235
19.1621
17.0151
18.915
16.8118
18.5437
16.5903
17.9522
16.4325
17.0076
16.1486
15.8142
15.2958
14.5112
13.8658
12.6445
11.6618
9.89158
8.30555
5.83086
3.30533
-0.137397
-3.92264
-8.57118
-13.7326
-19.5189
-25.7142
-32.018
-38.3166
-43.9575
-49.0174
-52.2835
-55.1425
-55.4641
-55.8703
-52.2534
-49.3819
-41.5561
-36.0321
-27.6104
-23.5899
-18.552
-19.1936
-17.0582
-19.1298
-16.1863
-17.8298
-15.6676
-16.015
-14.768
-14.923
-14.048
-14.8121
-13.7802
-14.9294
-13.5089
-15.0985
-12.8435
-14.8637
-11.5435
-14.2115
-9.32008
-13.0385
-6.47284
-11.245
-2.93597
-8.45283
1.33104
-4.37388
6.61327
1.2326
13.0184
8.39818
21.1147
17.0078
30.4173
27.7656
41.0934
40.2037
53.3144
13.566
23.9093
17.5723
22.6374
20.0753
22.3419
21.713
22.4655
22.7812
22.7012
23.3585
23.1091
23.7439
23.4663
23.9186
23.8699
23.6756
24.2901
23.1299
24.502
22.6479
24.5239
22.1706
24.4835
21.8474
24.4151
21.7858
24.5316
21.8215
24.7771
21.8841
24.9476
22.2543
24.7236
22.7876
24.1099
23.4099
23.2152
23.7356
22.3781
23.5154
21.6289
23.0155
20.7225
22.4527
19.9536
22.0997
19.8769
22.0229
20.0185
22.0209
20.5279
21.7091
21.381
21.2395
22.1
20.9275
22.61
20.7069
22.9796
20.5367
23.2278
20.4334
23.3126
20.4707
23.2162
20.7115
22.861
21.1367
22.235
21.6551
21.3804
21.9281
20.5984
21.7805
19.9168
21.5948
19.2715
21.3882
18.7411
21.141
18.3666
20.7727
18.2009
20.2191
18.3827
19.599
18.867
18.9127
19.4352
18.3811
19.9657
17.9489
20.4203
17.5994
20.7133
17.3858
20.8281
17.3106
20.7757
17.3799
20.5599
17.5806
20.1915
17.9313
19.6328
18.4724
18.8745
19.0253
18.1965
19.4325
17.6414
19.619
17.3083
19.5196
17.1757
19.3019
17.0623
18.9835
16.9906
18.4671
16.913
17.6355
16.797
16.5301
16.1235
15.4875
14.9719
13.9914
13.1656
11.7231
10.3362
8.26847
6.00365
2.99329
-0.533842
-4.88405
-9.97983
-15.9017
-22.4721
-29.6429
-36.742
-43.6573
-49.4831
-54.0279
-57.2715
-58.6332
-59.0482
-55.8117
-52.2907
-43.816
-36.7399
-25.6455
-20.4959
-13.6444
-15.4096
-14.7077
-19.4644
-19.746
-20.4962
-18.4886
-18.1686
-16.0318
-16.8561
-15.6501
-16.8263
-15.4932
-16.4551
-14.7682
-16.0052
-14.1409
-15.6261
-13.1182
-15.0987
-11.3984
-14.4143
-9.13198
-13.2098
-6.58142
-11.3246
-3.71106
-8.72071
-0.240763
-4.8528
4.35793
0.828033
10.1394
8.50329
17.6238
17.6823
27.7731
28.0275
40.1999
19.5058
25.6124
20.9992
24.3767
21.8289
23.6091
22.6289
23.2045
23.3077
23.1161
23.7769
23.2367
24.0564
23.5359
24.0798
23.9638
23.7657
24.5225
23.1783
24.7424
22.6541
24.7737
22.144
24.6928
21.8708
24.5737
21.7988
24.6772
21.791
24.9929
21.9396
25.0428
22.2986
24.6992
22.9655
23.9409
23.883
22.9829
24.1121
22.4115
24.0703
21.7146
23.7058
20.9145
23.0821
20.148
22.5064
19.7956
22.2354
19.8309
21.9561
20.41
21.4896
21.2976
21.0143
22.0551
20.7346
22.598
20.5432
23.0062
20.3792
23.2663
20.3034
23.3302
20.4279
23.2099
20.8068
22.8519
21.345
22.268
21.9701
21.4675
22.3177
20.6687
22.1369
19.9594
21.9064
19.3119
21.6844
18.8848
21.3579
18.5193
20.9465
18.2838
20.32
18.4289
19.563
18.9333
18.7695
19.5324
18.1734
20.0935
17.7241
20.5535
17.3833
20.8257
17.1866
20.9144
17.137
20.8385
17.2428
20.5883
17.4921
20.1725
17.9178
19.5509
18.5683
18.7299
19.1997
18.0443
19.6184
17.5341
19.7383
17.2697
19.6446
17.1555
19.4586
17.105
19.1744
17.0756
18.7937
17.2027
18.0243
17.325
17.0762
16.898
16.2996
16.0524
15.1887
14.6627
13.4477
12.3783
10.6312
8.6923
6.04491
2.79477
-1.32629
-6.40846
-12.5918
-19.7576
-27.9192
-36.3111
-45.0049
-52.5146
-58.3181
-63.2192
-65.5582
-68.4298
-66.505
-65.5532
-56.4973
-48.7272
-35.2627
-24.9052
-14.6865
-13.733
-12.003
-15.8907
-13.6478
-19.113
-17.4753
-16.645
-15.1708
-14.0114
-13.9759
-14.438
-14.6585
-15.7451
-15.1476
-16.5636
-15.3243
-16.9986
-14.8324
-16.7061
-13.5766
-16.1085
-11.9262
-15.4503
-9.98768
-14.1699
-7.41307
-12.1515
-4.22122
-9.17368
-0.413391
-5.11159
4.32669
0.150851
10.5761
6.57104
17.7889
15.1729
27.5709
17.4469
24.0933
20.094
22.8478
21.7043
22.2947
22.5182
22.4225
23.0033
22.6982
23.3825
23.0407
23.573
23.5466
23.5782
24.0518
23.3007
24.612
22.8855
24.8649
22.5314
24.7821
22.1016
24.4987
21.7556
24.2973
21.5312
24.4441
21.497
24.8134
21.6867
24.9904
22.261
24.6358
23.0954
23.9336
23.9943
23.1034
24.5207
22.3749
24.1849
21.7735
23.5009
20.9227
22.7156
19.9431
22.0527
19.6024
21.9631
19.8686
21.7916
20.598
21.3609
21.5696
20.8875
22.3691
20.5927
22.8932
20.4296
23.2587
20.324
23.4622
20.2801
23.4838
20.3729
23.3039
20.7631
22.8807
21.4336
22.1806
22.2578
21.3371
22.5839
20.7083
22.3262
20.0432
21.9702
19.3244
21.612
18.8134
21.3073
18.4473
20.9251
18.2805
20.2409
18.4949
19.4116
19.061
18.5503
19.7127
17.9531
20.307
17.5397
20.8116
17.2419
21.0792
17.1087
21.1179
17.123
20.9948
17.2874
20.701
17.5973
20.241
18.0773
19.5907
18.7746
18.7476
19.4399
18.0817
19.8691
17.613
19.9927
17.3927
19.9399
17.3074
19.8061
17.3249
19.5632
17.4398
19.1954
17.6652
18.5584
17.8559
17.7363
17.613
17.1337
17.0288
16.3494
15.9833
15.0535
14.1984
12.8577
11.2239
9.0933
6.25029
2.69506
-2.00185
-7.82547
-14.9654
-23.5397
-32.5146
-42.3592
-50.7932
-57.5393
-62.4627
-65.8879
-69.6672
-69.4963
-69.9233
-62.8044
-52.9194
-36.0016
-23.7291
-7.55975
-7.90789
-8.96897
-19.3966
-20.5765
-22.4124
-21.0432
-18.7416
-16.3554
-15.7508
-15.7672
-16.8425
-15.799
-16.6547
-15.2603
-16.5862
-15.7253
-17.2086
-15.6372
-17.3753
-14.6125
-17.0645
-13.1957
-16.6282
-12.0333
-15.8067
-10.7905
-15.0019
-8.89498
-13.9122
-6.28186
-11.0068
-3.62132
-6.24049
-0.417186
-0.146121
5.51336
5.97783
14.9175
22.2154
25.063
22.7738
24.028
22.591
23.5433
22.6571
23.1092
23.2193
22.8574
23.6164
23.1176
23.6699
23.5684
23.644
24.0169
23.4509
24.5132
22.9332
24.8956
22.5198
24.9853
22.1402
24.816
21.8341
24.6466
21.4847
24.8137
21.5172
24.9775
21.728
24.915
22.1257
24.5702
23.0034
23.7729
24.1935
22.8068
24.5696
22.5217
24.4923
22.1598
24.1521
21.2786
23.427
20.2558
22.3677
19.4958
21.9764
19.6713
21.5793
20.417
21.0124
21.4505
20.6366
22.2128
20.4453
22.7501
20.3169
23.2001
20.1626
23.483
20.117
23.4924
20.3243
23.2495
20.8938
22.7261
21.6946
22.0955
22.4986
21.352
22.872
20.8259
22.5241
20.0686
22.198
19.354
21.887
18.8886
21.5366
18.4727
21.114
18.3286
20.3334
18.4845
19.3814
19.0841
18.397
19.7824
17.7391
20.4199
17.3023
20.9346
17.0514
21.1578
16.9485
21.1845
16.9637
21.0723
17.1314
20.7668
17.4729
20.2638
18.0283
19.5338
18.8724
18.5679
19.6397
17.8889
20.0789
17.4554