/*--------------------------------*- C++ -*----------------------------------*\
| =========                 |                                                 |
| \\      /  F ield         | OpenFOAM: The Open Source CFD Toolbox           |
|  \\    /   O peration     | Version:  4.1                                   |
|   \\  /    A nd           | Web:      www.OpenFOAM.org                      |
|    \\/     M anipulation  |                                                 |
\*---------------------------------------------------------------------------*/
FoamFile
{
    version     2.0;
    format      ascii;
    class       volScalarField;
    location    "14.5";
    object      p;
}
// * * * * * * * * * * * * * * * * * * * * * * * * * * * * * * * * * * * * * //

dimensions      [0 2 -2 0 0 0 0];

internalField   nonuniform List<scalar> 
204246
(
17.0756
-8.81668
-8.21719
-6.92643
-6.66333
-6.21912
-6.82623
-6.89241
-6.97884
-7.02538
-7.04631
-6.98862
-7.63998
-7.03289
-7.70919
-6.44992
-8.38731
-9.2448
-7.96193
-9.01953
-7.80659
-8.73679
-8.77649
-8.81847
-8.81291
-8.7778
-8.6652
-9.36134
-8.79634
-9.39713
-8.83455
-9.669
-8.52735
-9.55865
-8.55704
-9.90637
-10.6346
-9.73008
-10.4294
-9.97757
-10.3652
-9.92622
-10.3229
-10.0254
-10.623
-10.0634
-10.9637
-9.83058
-10.688
-10.4395
-10.2505
-10.0109
-11.235
-11.97
-11.2979
-11.8693
-11.4577
-11.8768
-11.4442
-11.8449
-11.5921
-12.4907
-11.3187
-12.1618
-11.8046
-11.8381
-11.8312
-11.8133
-10.9393
-12.1312
-12.7819
-12.5573
-12.6424
-12.1185
-12.2673
-12.0188
-12.4019
-12.1526
-12.8314
-12.2567
-13.1076
-11.9327
-12.868
-12.8136
-12.8779
-12.0259
-13.3524
-14.2184
-14.0965
-13.89
-13.5492
-14.005
-13.7196
-14.3345
-13.7953
-14.7107
-13.5247
-14.5272
-14.5586
-14.4667
-14.1226
-14.579
-14.4036
-14.4731
-13.8258
-15.359
-15.9377
-15.448
-15.6153
-15.5819
-16.3324
-15.8436
-16.5959
-16.3908
-17.2201
-17.0861
-18.0028
-17.9565
-19.0418
-19.3098
-19.6813
-20.1123
-22.1629
-23.6039
-24.2876
-25.8233
-26.5926
-28.4825
-29.567
-31.929
-33.6973
-35.4781
-37.2634
-40.0213
-42.2299
-44.3861
-46.4147
-48.3429
-50.1428
-53.4759
-55.4742
-56.3321
-58.0839
-59.0114
-59.5678
-59.6716
-59.4335
-58.8876
-58.3153
-57.841
-57.4328
-55.9002
-55.2907
-53.5051
-52.4826
-50.4505
-50.2035
-49.6323
-47.5763
-46.4198
-44.2689
-43.0142
-40.7161
-39.2219
-36.6297
-34.673
-31.6087
-29.1395
-25.545
-22.3071
-17.9607
-13.6226
-8.743
-3.35893
2.61644
9.13822
16.4369
24.5945
33.487
43.6455
55.0788
68.134
82.8425
99.5307
118.189
139.048
162.09
187.928
217.341
256.362
315.326
408.588
533.559
7.57268
1.90389
-2.60035
-5.04094
-5.82267
-6.18716
-6.4506
-6.74719
-6.86187
-7.01106
-7.0376
-7.17491
-7.34174
-7.39708
-7.37393
-7.29877
-7.6902
-8.22917
-8.32005
-8.40023
-8.34081
-8.44046
-8.68417
-8.72051
-8.81206
-8.76048
-8.84656
-8.97425
-9.03741
-9.11697
-9.18647
-9.28155
-9.20049
-9.20055
-9.19371
-9.47262
-9.86096
-9.91591
-10.0384
-10.1313
-10.1472
-10.1391
-10.1513
-10.2065
-10.2849
-10.337
-10.4475
-10.4377
-10.5218
-10.5823
-10.3889
-10.4075
-10.7663
-11.2227
-11.3367
-11.4907
-11.6048
-11.6514
-11.6664
-11.6906
-11.7956
-11.9462
-11.9128
-11.9271
-11.9873
-11.9311
-11.9661
-11.8146
-11.6411
-11.8208
-12.1797
-12.3712
-12.4079
-12.3704
-12.2608
-12.2182
-12.2332
-12.337
-12.4652
-12.5381
-12.6331
-12.5965
-12.695
-12.8851
-12.8004
-12.7274
-13.0482
-13.5351
-13.8186
-13.8076
-13.8015
-13.8365
-13.937
-14.0374
-14.121
-14.2096
-14.1973
-14.3112
-14.5299
-14.4589
-14.5277
-14.5492
-14.6115
-14.5031
-14.5037
-14.8656
-15.2856
-15.428
-15.4775
-15.663
-15.8672
-16.0256
-16.2163
-16.4825
-16.766
-17.1225
-17.4857
-17.922
-18.4465
-19.0181
-19.3637
-19.9679
-20.999
-22.1269
-23.2631
-24.4627
-25.6939
-27.0496
-28.5554
-30.2653
-32.0777
-33.9558
-36.0001
-38.2173
-40.5109
-42.7782
-45.0329
-47.2674
-49.5859
-51.9209
-54.0796
-55.9362
-57.5203
-58.7943
-59.5888
-60.3209
-60.3786
-60.2333
-59.7793
-59.3305
-58.7743
-57.9112
-57.0207
-55.7516
-54.4292
-53.1
-52.2656
-51.218
-49.9928
-48.6591
-47.157
-45.6611
-44.0166
-42.357
-40.5002
-38.5466
-36.3036
-33.8738
-31.1077
-28.0451
-24.5639
-20.7018
-16.3894
-11.646
-6.39228
-0.598413
5.89915
13.0871
21.0118
29.8539
39.6739
50.7684
63.241
77.3821
93.2048
110.79
129.906
150.516
172.551
198.078
233.925
300.121
398.085
-5.43338
-2.04224
-2.88039
-4.10185
-5.13941
-5.84821
-6.2301
-6.55376
-6.72483
-6.92341
-7.01005
-7.17859
-7.27626
-7.43735
-7.44199
-7.57034
-7.69012
-7.94628
-8.14979
-8.22803
-8.34475
-8.3788
-8.55241
-8.61467
-8.72782
-8.7407
-8.83805
-8.87696
-9.00454
-9.03297
-9.17475
-9.19817
-9.27708
-9.25397
-9.37722
-9.47121
-9.65608
-9.80666
-9.87924
-10.0275
-10.0436
-10.1131
-10.1091
-10.1855
-10.1929
-10.2911
-10.2929
-10.4121
-10.4491
-10.5494
-10.5174
-10.6018
-10.7354
-10.9646
-11.1684
-11.2977
-11.4821
-11.5316
-11.6269
-11.6456
-11.7537
-11.7845
-11.8789
-11.8601
-11.9484
-11.9277
-11.9676
-11.8632
-11.8402
-11.83
-11.9631
-12.1089
-12.1573
-12.2139
-12.1656
-12.1795
-12.1663
-12.2522
-12.2922
-12.4145
-12.4403
-12.5554
-12.6046
-12.7524
-12.7605
-12.8502
-12.9886
-13.2412
-13.4641
-13.5641
-13.6638
-13.6939
-13.7969
-13.8535
-13.9775
-13.9837
-14.084
-14.1305
-14.2739
-14.2772
-14.3544
-14.3705
-14.4339
-14.4276
-14.5132
-14.6448
-14.8643
-15.0516
-15.1813
-15.3565
-15.503
-15.7221
-15.8899
-16.1577
-16.3817
-16.6914
-17.0293
-17.4393
-17.9306
-18.4785
-19.045
-19.7196
-20.5067
-21.4213
-22.4564
-23.5958
-24.8405
-26.1981
-27.6632
-29.2533
-30.9772
-32.8499
-34.8483
-36.9678
-39.1873
-41.4926
-43.8553
-46.2644
-48.6735
-51.021
-53.2166
-55.1212
-56.7139
-57.9618
-58.888
-59.4525
-59.6439
-59.4992
-59.1119
-58.5297
-57.701
-56.8002
-55.7206
-54.6118
-53.3788
-52.1546
-50.8106
-49.5187
-48.2405
-46.8629
-45.3806
-43.781
-42.074
-40.2147
-38.2374
-36.0615
-33.7325
-31.154
-28.3446
-25.227
-21.8027
-18.0002
-13.7925
-9.10396
-3.89557
1.90564
8.36882
15.4645
23.3643
32.1155
41.8711
52.702
64.862
78.4655
93.7779
110.758
129.38
148.96
169.464
191.302
220.345
263.779
321.433
-7.46184
-4.66004
-4.37809
-4.67991
-5.16567
-5.70056
-6.09686
-6.43174
-6.65439
-6.87228
-6.9934
-7.16159
-7.25822
-7.4118
-7.47426
-7.6319
-7.73994
-7.91373
-8.05672
-8.17508
-8.32492
-8.38978
-8.53833
-8.60835
-8.72524
-8.76858
-8.86605
-8.90492
-9.01208
-9.04997
-9.17007
-9.20082
-9.29189
-9.31329
-9.443
-9.53175
-9.65685
-9.75994
-9.85234
-10.0029
-10.0509
-10.139
-10.1602
-10.2322
-10.2428
-10.3185
-10.3245
-10.4158
-10.4432
-10.5472
-10.581
-10.695
-10.8055
-10.9586
-11.1019
-11.2484
-11.4503
-11.5435
-11.673
-11.7273
-11.8302
-11.8581
-11.9457
-11.9444
-12.0176
-12.0109
-12.0528
-12.003
-12.0048
-12.0059
-12.0824
-12.1666
-12.2008
-12.2546
-12.2486
-12.2825
-12.2882
-12.3615
-12.3883
-12.484
-12.5136
-12.6293
-12.6903
-12.8361
-12.8934
-13.0258
-13.1483
-13.3206
-13.4832
-13.6206
-13.7793
-13.8553
-13.981
-14.0316
-14.1486
-14.1759
-14.2819
-14.3219
-14.4365
-14.4588
-14.5769
-14.6131
-14.6999
-14.7231
-14.8274
-14.9103
-15.0792
-15.2307
-15.3864
-15.5662
-15.6909
-15.9035
-16.0546
-16.3228
-16.5331
-16.9188
-17.243
-17.6516
-18.0739
-18.5719
-19.1024
-19.7441
-20.4224
-21.2277
-22.1521
-23.2143
-24.3971
-25.6962
-27.1109
-28.6531
-30.3414
-32.1596
-34.12
-36.2075
-38.424
-40.7454
-43.1749
-45.6666
-48.1887
-50.6604
-53.0406
-55.2024
-57.0444
-58.5479
-59.7242
-60.6053
-61.1406
-61.3961
-61.3169
-60.9936
-60.5568
-59.7634
-58.816
-57.6656
-56.5114
-55.2934
-54.2027
-53.04
-51.8049
-50.5513
-49.2471
-47.9365
-46.5212
-45.0677
-43.4395
-41.6934
-39.7101
-37.5327
-35.064
-32.3328
-29.2664
-25.8821
-22.1063
-17.9368
-13.2776
-8.10495
-2.25814
4.22851
11.4437
19.4574
28.3484
38.2242
49.1801
61.3444
74.7606
89.4492
105.335
122.478
141.261
163.352
191.49
226.81
265.629
-8.14876
-5.82878
-5.37392
-5.31318
-5.4698
-5.7579
-6.04354
-6.31752
-6.53237
-6.72743
-6.87262
-7.02803
-7.14738
-7.2938
-7.38062
-7.5229
-7.62807
-7.79259
-7.93382
-8.04475
-8.17903
-8.25318
-8.37935
-8.45705
-8.56338
-8.62538
-8.71776
-8.78214
-8.88616
-8.93982
-9.04599
-9.09226
-9.18249
-9.21992
-9.31883
-9.40125
-9.53321
-9.64828
-9.73094
-9.84774
-9.90354
-9.98905
-10.0224
-10.0889
-10.1179
-10.1889
-10.2063
-10.2825
-10.308
-10.3849
-10.4283
-10.5205
-10.6268
-10.7869
-10.9415
-11.0767
-11.2399
-11.3521
-11.4842
-11.5688
-11.6731
-11.7318
-11.8209
-11.8449
-11.9104
-11.911
-11.9338
-11.8878
-11.8829
-11.8579
-11.8981
-11.9511
-11.9628
-12.0128
-12.0091
-12.0444
-12.0497
-12.1046
-12.1526
-12.2424
-12.2912
-12.3958
-12.462
-12.567
-12.638
-12.7422
-12.8651
-13.0441
-13.1951
-13.3171
-13.4382
-13.5168
-13.6195
-13.707
-13.8201
-13.8733
-13.9697
-14.0191
-14.1148
-14.1451
-14.2061
-14.2274
-14.2735
-14.2942
-14.3591
-14.4463
-14.5736
-14.6846
-14.7945
-14.915
-15.0637
-15.2417
-15.4143
-15.6228
-15.8325
-16.0313
-16.3243
-16.5334
-16.9315
-17.3762
-17.8936
-18.4637
-19.1187
-19.8608
-20.7118
-21.6899
-22.7958
-24.0123
-25.3479
-26.8167
-28.4244
-30.1767
-32.0811
-34.1394
-36.3429
-38.6857
-41.1545
-43.7114
-46.3156
-48.912
-51.4486
-53.8056
-55.9307
-57.7218
-59.1141
-60.0239
-60.488
-60.5244
-60.17
-59.6075
-58.8418
-57.9797
-56.9605
-55.8916
-54.6827
-53.4664
-52.1444
-50.8557
-49.591
-48.2767
-46.9163
-45.4827
-43.9891
-42.4068
-40.7487
-38.9636
-37.0633
-34.9682
-32.6815
-30.1366
-27.3239
-24.191
-20.7295
-16.8781
-12.6235
-7.89172
-2.63033
3.19529
9.70657
17.0054
25.194
34.3465
44.4845
55.5669
67.5212
80.1899
93.5523
107.691
123.404
142.202
165.753
194.091
222.282
-8.15169
-6.45849
-6.05105
-5.89477
-5.89135
-6.02827
-6.19529
-6.41357
-6.59618
-6.80114
-6.94329
-7.12158
-7.22627
-7.3761
-7.46979
-7.61535
-7.69614
-7.82457
-7.95072
-8.07359
-8.21886
-8.30473
-8.45126
-8.53331
-8.65511
-8.72043
-8.82534
-8.87385
-8.97314
-9.02313
-9.12752
-9.17504
-9.27165
-9.32253
-9.43832
-9.49921
-9.59027
-9.68496
-9.78278
-9.92106
-9.98991
-10.0886
-10.133
-10.2064
-10.2256
-10.2889
-10.304
-10.3716
-10.4012
-10.4958
-10.5524
-10.6594
-10.7279
-10.8365
-10.9717
-11.1186
-11.3177
-11.4395
-11.5993
-11.6947
-11.8138
-11.8716
-11.9588
-11.9883
-12.0548
-12.0654
-12.1143
-12.1068
-12.1149
-12.0934
-12.0948
-12.1185
-12.1385
-12.1831
-12.1975
-12.2372
-12.2539
-12.3084
-12.33
-12.4091
-12.452
-12.5571
-12.6303
-12.7828
-12.8779
-13.0253
-13.099
-13.2144
-13.3676
-13.5111
-13.6857
-13.7904
-13.9346
-13.996
-14.1117
-14.1633
-14.2721
-14.3168
-14.4158
-14.4615
-14.5817
-14.6361
-14.7364
-14.7815
-14.8701
-14.8941
-15.002
-15.1399
-15.2787
-15.425
-15.5365
-15.7017
-15.851
-16.0914
-16.3333
-16.6469
-16.9491
-17.3112
-17.6503
-18.0729
-18.5198
-19.0315
-19.5716
-20.2005
-20.934
-21.8032
-22.8095
-23.9455
-25.2055
-26.5943
-28.1163
-29.7775
-31.6021
-33.5969
-35.7754
-38.1267
-40.6362
-43.2473
-45.93
-48.636
-51.357
-53.972
-56.3692
-58.4124
-60.0332
-61.2941
-62.2506
-62.9063
-63.1874
-63.0587
-62.6199
-61.7344
-60.6387
-59.3817
-58.1013
-56.7965
-55.5385
-54.2795
-53.035
-51.8187
-50.5986
-49.3631
-48.0751
-46.7335
-45.2828
-43.727
-42.0028
-40.1104
-37.9903
-35.6407
-33.0002
-30.0678
-26.7893
-23.1643
-19.1421
-14.7141
-9.77683
-4.33447
1.74398
8.57235
16.2338
24.7826
34.2126
44.4928
55.5046
67.1549
79.4271
92.4038
106.622
123.273
143.023
165.799
187.305
-7.86857
-6.65638
-6.33669
-6.17885
-6.13286
-6.16995
-6.26246
-6.39215
-6.52937
-6.6531
-6.7903
-6.91354
-7.05984
-7.19479
-7.31498
-7.43812
-7.54511
-7.68065
-7.80508
-7.92222
-8.04121
-8.12613
-8.2295
-8.32671
-8.42551
-8.5103
-8.5971
-8.68099
-8.77638
-8.84421
-8.93523
-8.99985
-9.08931
-9.15158
-9.23246
-9.3163
-9.42793
-9.53431
-9.62923
-9.72899
-9.80872
-9.89292
-9.94746
-10.0105
-10.0509
-10.1096
-10.1273
-10.178
-10.1993
-10.2534
-10.3082
-10.3873
-10.5035
-10.6355
-10.759
-10.8996
-11.0419
-11.1906
-11.3378
-11.4721
-11.597
-11.7049
-11.7937
-11.8484
-11.9049
-11.9183
-11.9377
-11.916
-11.9144
-11.8893
-11.9003
-11.9011
-11.8818
-11.9011
-11.9004
-11.925
-11.9334
-11.9738
-12.0199
-12.0897
-12.1471
-12.2328
-12.304
-12.3857
-12.49
-12.598
-12.7431
-12.8903
-13.0279
-13.1581
-13.2782
-13.386
-13.4848
-13.5983
-13.7073
-13.7868
-13.8761
-13.9392
-14.0166
-14.0541
-14.0938
-14.1243
-14.1576
-14.1894
-14.2319
-14.3078
-14.3908
-14.4522
-14.5258
-14.5888
-14.7245
-14.8409
-14.9977
-15.1174
-15.2915
-15.3859
-15.5985
-15.8524
-16.1716
-16.5444
-16.9905
-17.4945
-18.0579
-18.6747
-19.3614
-20.1538
-21.0773
-22.1415
-23.3504
-24.695
-26.1682
-27.7737
-29.5307
-31.4735
-33.6245
-35.9896
-38.5366
-41.2196
-43.9946
-46.8286
-49.685
-52.4596
-55.0827
-57.4576
-59.5121
-61.11
-62.1055
-62.3853
-62.161
-61.6772
-60.9538
-60.0942
-59.092
-57.9642
-56.7175
-55.417
-54.0655
-52.7348
-51.4407
-50.1683
-48.9144
-47.6584
-46.3932
-45.094
-43.7491
-42.328
-40.814
-39.1626
-37.3522
-35.3345
-33.0968
-30.5832
-27.7707
-24.6194
-21.1045
-17.186
-12.8104
-7.96937
-2.56126
3.49918
10.2583
17.762
26.0119
35.0022
44.6803
55.0424
66.088
77.8961
90.8495
105.683
122.587
141.33
158.424
-8.04705
-6.86123
-6.64863
-6.52209
-6.44915
-6.45559
-6.49344
-6.59053
-6.68714
-6.81664
-6.92645
-7.05829
-7.17434
-7.31511
-7.43587
-7.57272
-7.65215
-7.75327
-7.87878
-8.00035
-8.13215
-8.22491
-8.37866
-8.46812
-8.57687
-8.66187
-8.76429
-8.82022
-8.9179
-8.97264
-9.06984
-9.11825
-9.21239
-9.27843
-9.40274
-9.44823
-9.51443
-9.60803
-9.7164
-9.86444
-9.9453
-10.0286
-10.0953
-10.1728
-10.1997
-10.2559
-10.2705
-10.3129
-10.3324
-10.4118
-10.4685
-10.549
-10.6032
-10.6895
-10.8267
-10.987
-11.1642
-11.3153
-11.4792
-11.6229
-11.7702
-11.8731
-11.9635
-12.0251
-12.0881
-12.113
-12.1527
-12.1567
-12.1655
-12.1412
-12.118
-12.1125
-12.1104
-12.1278
-12.1347
-12.163
-12.1788
-12.2168
-12.2336
-12.2965
-12.3397
-12.438
-12.5143
-12.675
-12.7872
-12.9214
-12.9918
-13.0959
-13.2493
-13.4043
-13.5648
-13.7002
-13.8335
-13.9182
-14.0463
-14.1118
-14.2306
-14.2821
-14.3822
-14.4347
-14.556
-14.6081
-14.7105
-14.7512
-14.8317
-14.8261
-14.9013
-15.0215
-15.1337
-15.2531
-15.3217
-15.4711
-15.6073
-15.8333
-16.017
-16.3042
-16.4868
-16.7528
-16.984
-17.2882
-17.6112
-18.0037
-18.4396
-18.9494
-19.5247
-20.1852
-20.9544
-21.8613
-22.9259
-24.1497
-25.5155
-27.0095
-28.6457
-30.4612
-32.5075
-34.8089
-37.3629
-40.1147
-43.0152
-45.9933
-49.0294
-52.0434
-55.001
-57.7961
-60.2558
-62.2296
-63.7199
-64.8332
-65.5182
-65.6252
-65.0976
-64.0018
-62.6264
-61.1316
-59.624
-58.1282
-56.7003
-55.3109
-53.9871
-52.7272
-51.5215
-50.347
-49.1816
-47.9969
-46.7571
-45.4416
-44.0158
-42.4619
-40.7482
-38.8522
-36.749
-34.4089
-31.7961
-28.8737
-25.6033
-21.9516
-17.8415
-13.2918
-8.23351
-2.616
3.59141
10.3932
17.7956
25.8021
34.4104
43.6439
53.5394
64.2339
76.0158
89.2482
103.962
119.833
133.881
-8.00509
-6.84854
-6.65184
-6.54452
-6.49233
-6.47343
-6.48777
-6.53194
-6.60288
-6.68667
-6.78879
-6.89313
-7.00779
-7.11909
-7.23856
-7.35319
-7.47144
-7.59617
-7.71622
-7.83124
-7.94011
-8.03066
-8.10299
-8.21321
-8.31082
-8.40811
-8.50084
-8.59917
-8.68842
-8.76727
-8.84863
-8.91993
-8.99868
-9.0643
-9.13387
-9.23805
-9.34142
-9.44396
-9.54342
-9.63253
-9.74019
-9.83712
-9.91186
-9.97051
-10.0254
-10.0754
-10.098
-10.1232
-10.1234
-10.1476
-10.1888
-10.2453
-10.3478
-10.4599
-10.5778
-10.7189
-10.8642
-11.0268
-11.2016
-11.3695
-11.5207
-11.6761
-11.8017
-11.8911
-11.9522
-11.9784
-11.9951
-11.9822
-11.9765
-11.9453
-11.9352
-11.9107
-11.8653
-11.8596
-11.8402
-11.8461
-11.848
-11.8724
-11.907
-11.9606
-12.0126
-12.0829
-12.1565
-12.2204
-12.337
-12.453
-12.611
-12.7636
-12.9047
-13.0396
-13.1635
-13.3004
-13.3846
-13.5297
-13.6411
-13.7391
-13.8238
-13.9032
-13.9735
-14.021
-14.0458
-14.0818
-14.103
-14.1399
-14.1664
-14.2382
-14.2949
-14.3212
-14.364
-14.387
-14.4949
-14.5686
-14.6687
-14.7151
-14.8507
-14.9991
-15.2058
-15.4403
-15.7134
-16.0128
-16.3584
-16.7533
-17.2105
-17.729
-18.3039
-18.9392
-19.6555
-20.4833
-21.4617
-22.6118
-23.9266
-25.3825
-26.9731
-28.7193
-30.6678
-32.8801
-35.3869
-38.163
-41.1438
-44.2522
-47.4478
-50.6452
-53.7945
-56.8047
-59.5887
-62.0415
-64.0296
-65.2728
-65.5697
-65.0462
-64.2522
-63.3558
-62.2179
-60.8425
-59.3205
-57.7611
-56.2171
-54.7405
-53.3484
-52.039
-50.8084
-49.6487
-48.5487
-47.4649
-46.3716
-45.235
-44.0382
-42.7549
-41.3573
-39.813
-38.0921
-36.1795
-34.0319
-31.6052
-28.8495
-25.7121
-22.1245
-18.0913
-13.5707
-8.52572
-2.94843
3.14342
9.7548
16.9036
24.5921
32.8327
41.7058
51.3782
62.053
73.8835
86.8679
100.62
112.548
-8.11887
-7.138
-6.94122
-6.8284
-6.74649
-6.72434
-6.71208
-6.74546
-6.78188
-6.86033
-6.92465
-7.02134
-7.11911
-7.25514
-7.37263
-7.50528
-7.57684
-7.67454
-7.79668
-7.92643
-8.05589
-8.15217
-8.29442
-8.37566
-8.49574
-8.57324
-8.68741
-8.74274
-8.85265
-8.90404
-9.00571
-9.04536
-9.13276
-9.19259
-9.32198
-9.35352
-9.41811
-9.52192
-9.62643
-9.77289
-9.86161
-9.97935
-10.0613
-10.1295
-10.171
-10.2234
-10.2392
-10.2708
-10.2687
-10.3106
-10.3467
-10.3995
-10.4284
-10.5127
-10.6733
-10.8125
-10.9822
-11.1445
-11.3236
-11.4922
-11.6678
-11.8112
-11.956
-12.0539
-12.1286
-12.1701
-12.2065
-12.2083
-12.2079
-12.1815
-12.1476
-12.1192
-12.0958
-12.0818
-12.0728
-12.0781
-12.0826
-12.1039
-12.1123
-12.1569
-12.1877
-12.2786
-12.3644
-12.5084
-12.6155
-12.7583
-12.8439
-12.9651
-13.1163
-13.2679
-13.4261
-13.5618
-13.7047
-13.8124
-13.9347
-14.0356
-14.1725
-14.2275
-14.3356
-14.3882
-14.5153
-14.5573
-14.6553
-14.6854
-14.758
-14.7318
-14.781
-14.8746
-14.957
-15.0632
-15.0931
-15.237
-15.3214
-15.4981
-15.5774
-15.7699
-15.8864
-16.069
-16.238
-16.4524
-16.677
-16.9474
-17.2718
-17.67
-18.1347
-18.668
-19.2708
-19.9635
-20.7775
-21.7529
-22.911
-24.2478
-25.7472
-27.4044
-29.2473
-31.3284
-33.7183
-36.4428
-39.4779
-42.7453
-46.1779
-49.6477
-53.0895
-56.4568
-59.6962
-62.6909
-65.2167
-67.1413
-68.4795
-69.1737
-68.7729
-67.3981
-65.6038
-63.6295
-61.6585
-59.8034
-58.0671
-56.4578
-54.9765
-53.6264
-52.3657
-51.2082
-50.1161
-49.0757
-48.0437
-46.9728
-45.8429
-44.6199
-43.2966
-41.8585
-40.2744
-38.5405
-36.6187
-34.4805
-32.0605
-29.3234
-26.1914
-22.6463
-18.655
-14.2019
-9.26771
-3.8657
1.99268
8.34862
15.1896
22.5269
30.4796
39.2178
48.8724
59.4984
71.0842
83.1955
93.598
-7.76508
-6.87495
-6.77466
-6.71113
-6.68368
-6.66273
-6.65513
-6.66778
-6.69817
-6.74404
-6.8031
-6.8715
-6.96513
-7.05817
-7.18455
-7.30137
-7.42401
-7.54406
-7.64249
-7.75037
-7.81122
-7.92235
-8.01097
-8.12624
-8.23012
-8.33822
-8.43031
-8.53404
-8.61813
-8.70326
-8.77955
-8.85823
-8.9331
-8.99543
-9.0458
-9.15704
-9.26302
-9.3514
-9.45845
-9.55894
-9.67614
-9.78553
-9.89545
-9.98229
-10.045
-10.0849
-10.0968
-10.1047
-10.0929
-10.095
-10.0948
-10.1147
-10.1922
-10.2546
-10.3174
-10.4707
-10.6474
-10.8391
-11.042
-11.2509
-11.4633
-11.6514
-11.7979
-11.9387
-12.0417
-12.078
-12.0931
-12.0876
-12.0795
-12.0337
-11.9969
-11.9501
-11.9015
-11.8653
-11.8236
-11.8054
-11.7875
-11.7914
-11.8113
-11.8422
-11.8849
-11.9399
-12.0013
-12.0333
-12.142
-12.271
-12.4299
-12.5991
-12.7701
-12.9299
-13.0804
-13.232
-13.3633
-13.5012
-13.5987
-13.7138
-13.7932
-13.8942
-13.9605
-14.0255
-14.0396
-14.0911
-14.099
-14.1422
-14.1544
-14.218
-14.2522
-14.2591
-14.2806
-14.2893
-14.3557
-14.4028
-14.4749
-14.5199
-14.6404
-14.7825
-14.963
-15.1617
-15.3868
-15.6258
-15.8835
-16.1627
-16.4792
-16.8454
-17.2725
-17.7629
-18.3163
-18.9422
-19.6592
-20.5017
-21.514
-22.7173
-24.1127
-25.6906
-27.4562
-29.4368
-31.6965
-34.3018
-37.2972
-40.6501
-44.2783
-48.0156
-51.7759
-55.4745
-59.035
-62.3716
-65.3789
-67.8692
-69.5502
-70.101
-69.7111
-68.7302
-67.0598
-64.922
-62.6392
-60.3964
-58.3889
-56.5956
-55.0306
-53.6418
-52.3883
-51.2622
-50.2403
-49.3189
-48.4554
-47.6146
-46.7351
-45.7725
-44.7081
-43.5211
-42.198
-40.7106
-39.0649
-37.225
-35.1405
-32.7697
-30.0548
-26.9772
-23.4906
-19.606
-15.3036
-10.5676
-5.41812
0.162475
6.19817
12.7068
19.8068
27.6709
36.3804
45.9621
56.3871
67.2207
76.4424
-7.63397
-7.11247
-6.97613
-6.90048
-6.84882
-6.83892
-6.82611
-6.83469
-6.84296
-6.89826
-6.9321
-6.99629
-7.06017
-7.17748
-7.27784
-7.40618
-7.50622
-7.6109
-7.73456
-7.86135
-7.99182
-8.08023
-8.18086
-8.26932
-8.3949
-8.49226
-8.5987
-8.66626
-8.78781
-8.83768
-8.94673
-8.97946
-9.06502
-9.11086
-9.21154
-9.24034
-9.31133
-9.41023
-9.5195
-9.6557
-9.76953
-9.89373
-9.99831
-10.091
-10.1666
-10.2205
-10.2373
-10.2482
-10.2278
-10.2288
-10.2405
-10.2641
-10.2678
-10.3272
-10.4467
-10.5705
-10.7199
-10.8951
-11.0904
-11.2992
-11.5265
-11.7416
-11.9438
-12.0775
-12.1856
-12.2583
-12.2933
-12.291
-12.276
-12.2527
-12.2095
-12.144
-12.091
-12.0524
-12.0244
-12.0057
-11.9956
-11.9964
-11.9899
-12.0099
-12.0318
-12.1151
-12.1955
-12.3253
-12.4156
-12.5445
-12.6459
-12.7806
-12.9369
-13.097
-13.2569
-13.4051
-13.5606
-13.6953
-13.8401
-13.9552
-14.0883
-14.183
-14.2942
-14.3617
-14.4586
-14.5056
-14.587
-14.6191
-14.6776
-14.6405
-14.6694
-14.7332
-14.7814
-14.8741
-14.8603
-14.9541
-14.9798
-15.1227
-15.1178
-15.2293
-15.2863
-15.4027
-15.5237
-15.6771
-15.8546
-16.0601
-16.2929
-16.5697
-16.899
-17.2922
-17.752
-18.2843
-18.8951
-19.6039
-20.4522
-21.4774
-22.7115
-24.1616
-25.8309
-27.7203
-29.8669
-32.3373
-35.2249
-38.5669
-42.3362
-46.3548
-50.49
-54.6098
-58.6187
-62.4594
-66.0571
-69.2418
-71.7245
-73.2542
-73.6828
-72.7976
-70.8337
-68.2156
-65.2822
-62.3611
-59.7655
-57.5846
-55.8223
-54.3427
-53.0627
-51.8917
-50.8233
-49.8653
-49.0229
-48.2741
-47.55
-46.7933
-45.9424
-44.9816
-43.9056
-42.6851
-41.3158
-39.7812
-38.0361
-36.0237
-33.7096
-31.0789
-28.081
-24.7268
-21.027
-16.9277
-12.451
-7.62548
-2.36233
3.37378
9.65299
16.6508
24.4633
33.1231
42.585
52.3984
60.7213
-7.20707
-6.68195
-6.6677
-6.66293
-6.6801
-6.70444
-6.72268
-6.72641
-6.73844
-6.76712
-6.79618
-6.84413
-6.92212
-7.01282
-7.12087
-7.22815
-7.34231
-7.47092
-7.57888
-7.67455
-7.74787
-7.8496
-7.92528
-8.02293
-8.10801
-8.22862
-8.35353
-8.45926
-8.54993
-8.64521
-8.71452
-8.79605
-8.85462
-8.92205
-8.9854
-9.07377
-9.15335
-9.23765
-9.33241
-9.45401
-9.58546
-9.72669
-9.86231
-9.98456
-10.0911
-10.1542
-10.1534
-10.1435
-10.1135
-10.0895
-10.0554
-10.029
-10.0518
-10.0801
-10.1229
-10.2346
-10.4016
-10.6009
-10.8168
-11.0474
-11.2989
-11.5502
-11.7797
-11.9758
-12.1262
-12.2189
-12.2413
-12.2285
-12.2215
-12.1707
-12.1193
-12.0548
-11.9731
-11.9014
-11.8425
-11.7965
-11.7621
-11.7408
-11.733
-11.7382
-11.7591
-11.7808
-11.8203
-11.8554
-11.9515
-12.0768
-12.2334
-12.4175
-12.614
-12.8022
-12.9755
-13.1399
-13.2903
-13.4352
-13.5539
-13.6848
-13.7802
-13.8925
-13.9565
-14.0497
-14.0735
-14.1393
-14.1398
-14.186
-14.1934
-14.2333
-14.2478
-14.2539
-14.2622
-14.2684
-14.3094
-14.3389
-14.3949
-14.4491
-14.5489
-14.6689
-14.8031
-14.9491
-15.109
-15.282
-15.4657
-15.6596
-15.8721
-16.1136
-16.3926
-16.7223
-17.1111
-17.565
-18.0887
-18.692
-19.3997
-20.2514
-21.3003
-22.5795
-24.1032
-25.8668
-27.8798
-30.1918
-32.9034
-36.1102
-39.8674
-44.0532
-48.5123
-53.0735
-57.5961
-61.9633
-66.0791
-69.852
-73.1006
-75.4941
-76.6055
-76.1402
-74.3396
-71.5492
-68.0828
-64.4009
-61.0394
-58.3137
-56.2738
-54.6948
-53.4108
-52.2708
-51.2166
-50.2647
-49.465
-48.8023
-48.2384
-47.6702
-47.0178
-46.2601
-45.4182
-44.4565
-43.3502
-42.1072
-40.6893
-39.0409
-37.1202
-34.9227
-32.4049
-29.5526
-26.3987
-22.9126
-19.0827
-14.9663
-10.468
-5.48355
-0.00686536
6.12414
13.062
20.8645
29.5106
38.5078
46.1109
-7.26837
-6.79472
-6.78666
-6.80535
-6.8204
-6.82894
-6.84022
-6.86009
-6.865
-6.88791
-6.91174
-6.9431
-6.97493
-7.06488
-7.1761
-7.29418
-7.39935
-7.52844
-7.6674
-7.79167
-7.90967
-8.00327
-8.09304
-8.18296
-8.29375
-8.39862
-8.51581
-8.61607
-8.73117
-8.78815
-8.89171
-8.92892
-8.99908
-9.02713
-9.10652
-9.13583
-9.18816
-9.25866
-9.36858
-9.49027
-9.61757
-9.76216
-9.90537
-10.0506
-10.1632
-10.2436
-10.2886
-10.2796
-10.2461
-10.2087
-10.1863
-10.1647
-10.1274
-10.1442
-10.2546
-10.3025
-10.402
-10.574
-10.7833
-11.0212
-11.2931
-11.5744
-11.8655
-12.1036
-12.2642
-12.3591
-12.416
-12.4148
-12.3788
-12.3471
-12.2956
-12.2123
-12.1284
-12.0524
-11.9946
-11.9549
-11.9214
-11.9019
-11.8837
-11.8834
-11.8827
-11.936
-12.0009
-12.0995
-12.1774
-12.2815
-12.3913
-12.5385
-12.7098
-12.8985
-13.084
-13.2566
-13.4251
-13.5777
-13.7371
-13.8715
-14.0163
-14.1249
-14.2438
-14.3267
-14.4199
-14.4663
-14.5258
-14.5536
-14.6047
-14.5753
-14.5799
-14.6
-14.6259
-14.6785
-14.6457
-14.6799
-14.6754
-14.7494
-14.7296
-14.7644
-14.7959
-14.8612
-14.9508
-15.0607
-15.1952
-15.3513
-15.5272
-15.7241
-15.9452
-16.2013
-16.5043
-16.863
-17.2856
-17.7797
-18.3544
-19.0412
-19.8901
-20.9529
-22.2707
-23.8553
-25.7155
-27.8718
-30.4022
-33.4227
-37.0759
-41.34
-46.1013
-51.1533
-56.2779
-61.2891
-66.0517
-70.4962
-74.5044
-77.7857
-79.8631
-80.3041
-79.0819
-76.2375
-72.1416
-67.4521
-62.9256
-59.2175
-56.5952
-54.7662
-53.438
-52.3783
-51.4166
-50.542
-49.8038
-49.1849
-48.7517
-48.367
-47.9156
-47.372
-46.7376
-46.0171
-45.1619
-44.1824
-43.0766
-41.7841
-40.2529
-38.4778
-36.4246
-34.0629
-31.4033
-28.4936
-25.2848
-21.814
-18.0531
-13.8425
-9.16289
-3.88493
2.17295
9.12564
17.0078
25.3202
32.3845
-6.9309
-6.40294
-6.37976
-6.4449
-6.54033
-6.6164
-6.67415
-6.71173
-6.73813
-6.76034
-6.7968
-6.83428
-6.87638
-6.94121
-7.03712
-7.15643
-7.25803
-7.36412
-7.48778
-7.59876
-7.67807
-7.76828
-7.83889
-7.90501
-7.98274
-8.11505
-8.23961
-8.34832
-8.47768
-8.59662
-8.69473
-8.77385
-8.81246
-8.8732
-8.93172
-9.00603
-9.06809
-9.13158
-9.21462
-9.32274
-9.45755
-9.61992
-9.78517
-9.95616
-10.1065
-10.216
-10.2638
-10.2427
-10.1917
-10.1405
-10.069
-10.0042
-9.96206
-9.92647
-9.90448
-10.0088
-10.1353
-10.3024
-10.518
-10.7643
-11.04
-11.3501
-11.665
-11.953
-12.1946
-12.3758
-12.4489
-12.4367
-12.4158
-12.344
-12.2673
-12.1903
-12.0925
-11.9901
-11.9078
-11.8311
-11.7669
-11.7205
-11.6894
-11.6676
-11.657
-11.6529
-11.662
-11.6687
-11.7526
-11.8653
-12.0038
-12.1792
-12.393
-12.6204
-12.8382
-13.0308
-13.2013
-13.3568
-13.4926
-13.6338
-13.7557
-13.8844
-13.9896
-14.0976
-14.1741
-14.2389
-14.242
-14.2786
-14.2686
-14.292
-14.2915
-14.29
-14.293
-14.2943
-14.3164
-14.3357
-14.3726
-14.4194
-14.495
-14.578
-14.6566
-14.7362
-14.8135
-14.9089
-15.0168
-15.1419
-15.2816
-15.4395
-15.618
-15.8203
-16.0554
-16.3311
-16.6605
-17.0512
-17.5155
-18.0705
-18.7522
-19.6099
-20.7019
-22.0725
-23.7562
-25.7605
-28.1297
-30.9491
-34.3972
-38.5647
-43.4598
-48.8971
-54.6043
-60.3337
-65.852
-71.018
-75.7399
-79.846
-83.0845
-85.0485
-84.9215
-82.0724
-77.3701
-71.5998
-65.5558
-60.3619
-56.7332
-54.5114
-53.1052
-52.1897
-51.4414
-50.7277
-50.0472
-49.4531
-49.0754
-48.8192
-48.6005
-48.3078
-47.8731
-47.3773
-46.758
-45.9991
-45.1739
-44.2073
-43.0549
-41.6898
-40.0782
-38.2141
-36.0364
-33.6468
-31.0217
-28.1338
-25.0349
-21.6121
-17.7581
-13.3494
-8.19324
-2.12699
4.95042
12.6518
19.3954
-6.73129
-6.41425
-6.46169
-6.55984
-6.62856
-6.69149
-6.75302
-6.80407
-6.82291
-6.84053
-6.86543
-6.88864
-6.92008
-6.9563
-7.04048
-7.17889
-7.30322
-7.43385
-7.58777
-7.71587
-7.84711
-7.93295
-8.01939
-8.10536
-8.19201
-8.28966
-8.41849
-8.53455
-8.65226
-8.73578
-8.83263
-8.88894
-8.94408
-8.95507
-9.00325
-9.02903
-9.07445
-9.12424
-9.20129
-9.29625
-9.41783
-9.57703
-9.75692
-9.94843
-10.1271
-10.2741
-10.3625
-10.3815
-10.3729
-10.2886
-10.1976
-10.1158
-10.0425
-9.98612
-9.98021
-9.98661
-10.0566
-10.1952
-10.4001
-10.6555
-10.9537
-11.2998
-11.6811
-12.0319
-12.3312
-12.5174
-12.5819
-12.5948
-12.5509
-12.4993
-12.425
-12.3206
-12.2111
-12.0988
-12.0043
-11.9264
-11.8771
-11.8296
-11.8002
-11.7863
-11.7685
-11.7782
-11.8053
-11.8788
-11.9305
-12.0013
-12.1047
-12.2475
-12.4282
-12.6513
-12.8884
-13.096
-13.2877
-13.461
-13.6268
-13.7729
-13.9272
-14.0526
-14.173
-14.2742
-14.3738
-14.4491
-14.516
-14.5383
-14.5601
-14.5349
-14.5228
-14.5119
-14.507
-14.511
-14.4826
-14.4861
-14.4549
-14.4645
-14.4587
-14.4843
-14.5302
-14.5901
-14.6549
-14.7318
-14.8178
-14.9173
-15.0296
-15.158
-15.3052
-15.4679
-15.6469
-15.8504
-16.0901
-16.3772
-16.7292
-17.1559
-17.6799
-18.3353
-19.1786
-20.2739
-21.6835
-23.437
-25.5639
-28.1184
-31.2682
-35.1621
-39.9236
-45.5158
-51.6896
-58.1564
-64.5976
-70.7048
-76.2984
-81.3317
-85.6644
-88.6974
-89.5502
-87.9884
-83.9466
-77.6838
-70.1664
-62.7393
-57.0971
-53.9519
-52.3659
-51.618
-51.216
-50.7678
-50.2188
-49.6153
-49.1985
-49.0409
-49.0579
-49.0368
-48.8424
-48.5416
-48.1272
-47.5496
-46.9556
-46.3018
-45.4685
-44.4927
-43.3123
-41.924
-40.272
-38.3536
-36.256
-33.905
-31.3775
-28.6781
-25.6552
-22.1799
-17.9925
-12.8812
-6.71969
0.32098
6.76571
-6.15308
-5.98598
-6.07938
-6.18888
-6.31832
-6.44024
-6.53419
-6.61426
-6.67665
-6.71096
-6.75672
-6.8012
-6.84286
-6.8879
-6.95039
-7.0397
-7.14924
-7.2607
-7.38233
-7.48505
-7.57501
-7.65026
-7.71652
-7.79262
-7.87153
-7.96416
-8.08347
-8.25039
-8.43687
-8.55611
-8.65609
-8.74335
-8.81027
-8.85029
-8.89308
-8.94764
-8.99851
-9.04643
-9.10823
-9.18636
-9.29654
-9.44973
-9.63115
-9.83982
-10.0516
-10.2485
-10.3716
-10.3175
-10.2682
-10.24
-10.1567
-10.0574
-9.94959
-9.86481
-9.81919
-9.84572
-9.8986
-9.99987
-10.1657
-10.383
-10.6522
-10.9871
-11.3783
-11.7811
-12.1763
-12.4936
-12.6871
-12.7292
-12.6727
-12.5889
-12.5006
-12.3906
-12.2571
-12.1261
-11.9928
-11.8922
-11.8079
-11.7457
-11.6746
-11.6417
-11.613
-11.5903
-11.5665
-11.552
-11.5745
-11.6355
-11.7461
-11.9005
-12.1046
-12.3627
-12.6507
-12.9036
-13.101
-13.2725
-13.4228
-13.5702
-13.711
-13.8643
-14.0166
-14.1429
-14.2429
-14.3238
-14.3737
-14.4002
-14.3966
-14.3854
-14.3687
-14.3504
-14.3348
-14.3275
-14.3317
-14.3415
-14.3488
-14.3613
-14.375
-14.3979
-14.4234
-14.4627
-14.5129
-14.5742
-14.6446
-14.7238
-14.8117
-14.9134
-15.0274
-15.1499
-15.281
-15.4229
-15.58
-15.7656
-16.0018
-16.2994
-16.6792
-17.1608
-17.7895
-18.623
-19.7466
-21.2209
-23.0979
-25.4209
-28.3183
-31.9403
-36.4879
-42.0643
-48.5323
-55.6344
-63.0299
-70.2341
-76.8771
-82.8845
-88.1647
-92.4993
-95.6753
-96.9238
-93.959
-86.7067
-76.8468
-66.3788
-57.6439
-52.3759
-49.8983
-49.3913
-50.0384
-50.6844
-50.5509
-49.8128
-49.1712
-49.099
-49.3258
-49.518
-49.5954
-49.4521
-49.2529
-48.8787
-48.4154
-48.02
-47.4678
-46.8388
-46.0774
-45.1171
-44.0077
-42.5845
-40.9673
-39.1345
-37.108
-34.9868
-32.6878
-30.1637
-27.1235
-23.1418
-18.1031
-11.949
-5.95621
-5.94788
-5.92242
-6.01321
-6.14527
-6.27793
-6.39893
-6.51803
-6.61188
-6.68613
-6.73242
-6.76763
-6.80341
-6.84029
-6.87626
-6.94618
-7.03159
-7.14947
-7.27812