/*--------------------------------*- C++ -*----------------------------------*\
| =========                 |                                                 |
| \\      /  F ield         | OpenFOAM: The Open Source CFD Toolbox           |
|  \\    /   O peration     | Version:  4.1                                   |
|   \\  /    A nd           | Web:      www.OpenFOAM.org                      |
|    \\/     M anipulation  |                                                 |
\*---------------------------------------------------------------------------*/
FoamFile
{
    version     2.0;
    format      ascii;
    class       volScalarField;
    location    "13";
    object      p;
}
// * * * * * * * * * * * * * * * * * * * * * * * * * * * * * * * * * * * * * //

dimensions      [0 2 -2 0 0 0 0];

internalField   nonuniform List<scalar> 
6750
(
-460.673
-201.633
-411.896
-398.57
-457.476
-459.806
-483.101
-482.314
-383.446
-299.319
-253.999
-218.477
-211.408
-136.673
-214.498
-459.556
-200.098
-410.712
-398.355
-457.865
-460.133
-484.18
-481.706
-387.9
-302.175
-255.771
-218.33
-213.054
-135.896
-214.867
-458.652
-198.875
-409.943
-398.262
-458.028
-460.24
-484.865
-480.295
-388.451
-302.177
-257.084
-218.099
-214.821
-136.096
-215.403
-457.516
-197.162
-408.836
-398.064
-458.189
-460.312
-485.743
-479.456
-390.404
-302.457
-257.24
-218.356
-216.396
-137.548
-216.002
-456.55
-195.259
-407.899
-397.988
-458.324
-460.489
-486.42
-478.534
-391.279
-302.44
-258.28
-220.202
-216.886
-139.819
-216.631
-455.745
-193.186
-406.964
-397.903
-458.454
-460.833
-486.703
-478.513
-391.925
-301.351
-255.521
-219.363
-218.658
-142.507
-217.353
-455.326
-191.268
-406.228
-397.895
-458.57
-460.48
-486.742
-478.393
-392.472
-301.337
-257.389
-222.211
-212.52
-146.125
-217.453
-455.3
-190.597
-405.957
-397.86
-458.6
-460.255
-486.882
-478.442
-392.205
-300.142
-253.81
-221.795
-210.694
-147.461
-217.601
-455.52
-191.63
-406.387
-397.93
-458.591
-460.532
-486.753
-478.386
-392.618
-301.221
-257.176
-223.836
-209.908
-146.864
-217.429
-456.094
-193.635
-407.207
-397.998
-458.506
-460.84
-486.618
-478.481
-392.489
-301.899
-257.672
-222.939
-216.445
-143.285
-217.47
-457.016
-195.786
-408.23
-398.144
-458.413
-460.547
-486.227
-478.607
-391.626
-302.65
-259.264
-223.66
-217.172
-140.554
-216.967
-458.071
-197.693
-409.229
-398.281
-458.32
-460.485
-485.615
-479.738
-390.945
-303.308
-258.736
-221.096
-216.72
-138.167
-216.429
-459.273
-199.401
-410.397
-398.545
-458.202
-460.487
-484.856
-480.639
-388.802
-302.841
-258.364
-220.149
-215.558
-136.608
-215.917
-460.219
-200.611
-411.204
-398.682
-458.074
-460.415
-484.252
-482.114
-388.278
-303.095
-257.175
-219.842
-213.791
-136.293
-215.42
-461.371
-202.123
-412.428
-398.952
-457.721
-460.13
-483.246
-482.7
-383.568
-299.988
-254.932
-219.223
-212.116
-136.921
-215.064
-680.143
-126.925
-378.957
-406.281
-463.571
-481.724
-516.514
-516.645
-350.214
-223.418
-179.796
-159.94
-182.473
-98.3817
-279.428
-677.284
-125.114
-378.403
-406.009
-464.321
-482.368
-518.041
-515.77
-355.287
-228.837
-181.205
-160.084
-182.773
-97.2275
-279.844
-675.176
-124.576
-378.446
-406.077
-464.808
-482.897
-519.177
-513.709
-357.074
-230.969
-182.381
-160.749
-182.977
-96.8829
-280.388
-672.275
-123.629
-378.096
-405.978
-465.308
-483.384
-520.617
-512.498
-360.531
-234.14
-184.625
-161.42
-182.953
-97.3252
-280.473
-669.675
-123.206
-377.919
-406.102
-465.78
-483.877
-521.543
-510.609
-362.666
-235.987
-187.601
-163.631
-181.708
-98.371
-280.499
-667.215
-122.861
-377.534
-406.167
-466.138
-484.358
-522.356
-508.976
-365.205
-239.912
-192.953
-165.22
-175.55
-99.7807
-280.261
-665.549
-122.754
-377.054
-406.322
-466.463
-484.833
-523.615
-507.431
-366.903
-244.045
-197.834
-167.501
-171.268
-101.465
-279.863
-665.271
-122.698
-376.756
-406.319
-466.538
-484.985
-524.142
-506.932
-367.304
-245.691
-196.973
-167.867
-170.793
-101.464
-280.026
-666.143
-122.625
-377.178
-406.318
-466.476
-484.823
-523.427
-507.655
-367.315
-244.927
-199.14
-169.261
-170.844
-101.894
-280.037
-668.057
-122.773
-377.684
-406.199
-466.164
-484.345
-522.167
-509.329
-365.984
-241.338
-197.527
-168.823
-174.645
-100.489
-280.69
-670.707
-123.203
-378.122
-406.187
-465.832
-483.922
-521.389
-510.974
-363.11
-236.239
-189.992
-166.546
-182.34
-98.9014
-281.25
-673.421
-123.683
-378.324
-406.115
-465.383
-483.472
-520.378
-512.865
-360.994
-234.739
-186.903
-163.092
-183.371
-97.7591
-281.258
-676.402
-124.691
-378.719
-406.281
-464.916
-483.029
-518.928
-514.047
-357.303
-231.405
-183.734
-161.96
-183.79
-97.2302
-281.285
-678.555
-125.271
-378.699
-406.251
-464.444
-482.519
-517.792
-516.074
-355.351
-229.217
-182.108
-161.142
-183.483
-97.5118
-280.749
-681.444
-127.121
-379.299
-406.589
-463.738
-481.92
-516.319
-516.896
-350.019
-223.71
-180.246
-160.83
-183.127
-98.5504
-280.339
-896.091
-96.0376
-315.822
-412.535
-440.517
-452.555
-447.939
-403.099
-282.25
-183.746
-155.247
-137.541
-174.438
-41.9752
-400.562
-894.025
-92.821
-316.186
-411.985
-441.366
-453.886
-450.922
-406.852
-287.673
-187.842
-155.101
-137.204
-173.138
-40.6624
-400.902
-892.799
-91.7685
-317.087
-411.812
-441.953
-454.49
-452.604
-408.084
-289.973
-189.455
-154.845
-137.534
-172.258
-40.2064
-401.598
-890.81
-89.9489
-317.383
-411.376
-442.542
-455.336
-454.971
-410.716
-294.084
-192.189
-156.11
-137.4
-172.365
-40.2536
-401.292
-889.12
-89.4933
-317.885
-411.278
-443.124
-455.91
-456.63
-412.337
-297.052
-193.959
-158.092
-138.514
-172.78
-40.7872
-401.383
-887.369
-89.3834
-317.827
-411.026
-443.464
-456.186
-457.877
-413.937
-300.629
-197.902
-164.753
-141.371
-166.975
-41.7159
-400.601
-885.907
-90.309
-317.675
-411.002
-443.794
-456.31
-458.582
-414.804
-302.974
-200.913
-168.145
-140.336
-163.364
-41.968
-399.771
-885.614
-90.641
-317.421
-410.893
-443.811
-456.26
-458.712
-415
-303.593
-201.913
-167.571
-139.144
-161.15
-41.1639
-399.831
-886.659
-89.7195
-317.753
-411.042
-443.807
-456.357
-458.564
-414.81
-303.088
-200.986
-168.454
-139.883
-162.458
-41.7637
-400.109
-888.224
-88.9769
-317.933
-411.111
-443.475
-456.235
-457.813
-413.902
-300.863
-197.982
-166.867
-141.83
-166.066
-41.7086
-401.46
-890.146
-89.2498
-317.975
-411.419
-443.141
-455.954
-456.492
-412.183
-296.999
-193.332
-158.608
-138.974
-173.281
-40.6851
-402.751
-891.908
-89.8643
-317.46
-411.568
-442.56
-455.359
-454.736
-410.488
-294.009
-191.832
-156.932
-137.685
-172.868
-40.1951
-402.662
-893.968
-91.8413
-317.166
-412.067
-441.999
-454.518
-452.313
-407.796
-289.857
-189.287
-155.286
-137.903
-172.812
-40.1461
-403.067
-895.23
-92.9966
-316.25
-412.271
-441.423
-453.904
-450.584
-406.511
-287.503
-187.736
-155.369
-137.566
-173.644
-40.6154
-402.349
-897.327
-96.3228
-315.914
-412.882
-440.622
-452.59
-447.567
-402.705
-282.05
-183.789
-155.561
-138.003
-174.88
-41.9237
-401.984
-1024.65
-172.988
-246.165
-401.708
-393.167
-395.618
-377.573
-320.953
-228.45
-152.534
-138.033
-121.057
-174.55
17.6159
-537.922
-1023.5
-170.189
-246.563
-401.966
-394.671
-398.225
-381.328
-324.962
-232.544
-155.52
-137.566
-120.108
-172.178
18.6052
-538.102
-1022.87
-169.148
-247.552
-402.368
-395.804
-399.735
-383.383
-326.679
-234.293
-156.461
-136.717
-119.733
-170.655
19.3834
-539.199
-1021.81
-167.108
-248.032
-402.577
-397.093
-401.792
-386.39
-329.657
-237.37
-158.148
-136.492
-118.651
-169.709
19.7664
-538.536
-1021.03
-166.166
-248.906
-403.066
-398.367
-403.487
-388.717
-331.745
-239.65
-159.206
-137.134
-118.688
-169.846
19.953
-538.317
-1020.25
-165.251
-249.251
-403.228
-399.299
-404.877
-390.792
-333.883
-242.539
-162.063
-142.194
-120.548
-165.175
19.7799
-536.21
-1019.56
-165.387
-249.721
-403.536
-400.092
-405.897
-392.229
-335.334
-244.675
-164.569
-145.59
-118.305
-159.908
20.5584
-534
-1019.53
-165.311
-249.718
-403.478
-400.189
-406.088
-392.572
-335.77
-245.331
-165.541
-145.103
-115.936
-156.724
22.0973
-533.461
-1020.26
-164.895
-249.688
-403.552
-400.053
-405.857
-392.169
-335.359
-244.855
-164.717
-145.76
-116.854
-159.224
21.5197
-534.215
-1020.97
-165.001
-249.285
-403.274
-399.239
-404.799
-390.691
-333.896
-242.886
-162.206
-144.053
-120.436
-163.903
20.2281
-537.304
-1021.9
-166.088
-248.909
-403.134
-398.298
-403.38
-388.559
-331.662
-239.793
-158.726
-137.553
-118.502
-170.65
20.5062
-540.316
-1022.74
-167.18
-248.04
-402.683
-397.025
-401.668
-386.192
-329.529
-237.473
-157.694
-136.74
-118.051
-170.961
20.1769
-540.769
-1023.87
-169.375
-247.568
-402.515
-395.755
-399.618
-383.172
-326.548
-234.431
-156.308
-136.956
-119.5
-171.599
19.6973
-541.493
-1024.55
-170.51
-246.571
-402.135
-394.627
-398.105
-381.101
-324.819
-232.675
-155.469
-137.872
-119.978
-173.032
18.8434
-540.362
-1025.73
-173.422
-246.207
-401.926
-393.162
-395.532
-377.363
-320.842
-228.637
-152.718
-138.5
-121.204
-175.281
17.7994
-540.19
-1148.59
-252.63
-224.799
-399.144
-360.739
-347.703
-325.487
-269.063
-214.155
-155.787
-154.62
-123.965
-201.435
63.5925
-723.371
-1147.89
-251.095
-224.654
-399.276
-361.543
-349.299
-327.672
-271.418
-216.462
-157.578
-153.027
-122.598
-198.24
64.8517
-723.731
-1147.57
-250.624
-225.036
-399.574
-362.191
-350.198
-328.74
-272.355
-217.251
-157.622
-151.481
-122.042
-195.912
66.0355
-725.94
-1146.94
-249.461
-225.002
-399.674
-362.912
-351.49
-330.508
-274.175
-218.922
-158.252
-150.529
-120.586
-194.48
66.5409
-724.882
-1146.55
-248.954
-225.349
-400.04
-363.726
-352.583
-331.851
-275.431
-220.083
-158.281
-150.459
-119.865
-193.507
66.8113
-723.976
-1146.13
-248.277
-225.356
-400.112
-364.287
-353.494
-333.119
-276.866
-221.855
-159.947
-153.784
-121.926
-190.899
66.259
-720.634
-1145.92
-248.054
-225.632
-400.372
-364.878
-354.264
-334.08
-277.944
-223.338
-161.821
-156.128
-120.444
-185.329
65.7206
-716.539
-1146.05
-247.746
-225.626
-400.323
-364.93
-354.411
-334.343
-278.352
-223.939
-162.735
-156.484
-117.189
-179.942
66.2989
-714.856
-1146.51
-247.754
-225.633
-400.416
-364.883
-354.297
-334.163
-278.093
-223.701
-162.187
-157.466
-118.142
-182.493
66.2891
-716.829
-1146.86
-248.044
-225.446
-400.217
-364.328
-353.58
-333.285
-277.092
-222.409
-160.295
-155.713
-122.012
-190.031
66.4514
-722.971
-1147.41
-248.856
-225.453
-400.191
-363.807
-352.704
-332.057
-275.65
-220.555
-158.043
-151.621
-119.515
-194.212
67.3145
-727.569
-1147.87
-249.475
-225.13
-399.879
-363.04
-351.646
-330.755
-274.42
-219.384
-157.939
-150.999
-119.6
-196.007
67.1428
-728.816
-1148.57
-250.766
-225.193
-399.836
-362.374
-350.404
-329.038
-272.673
-217.824
-157.677
-152.029
-121.49
-197.083
66.4294
-729.999
-1148.94
-251.316
-224.814
-399.569
-361.758
-349.531
-327.997
-271.773
-217.07
-157.726
-153.632
-122.172
-199.498
65.0548
-727.434
-1149.67
-252.955
-224.999
-399.495
-361.019
-348
-325.873
-269.513
-214.889
-156.234
-155.34
-123.789
-202.48
63.6581
-726.908
-1272.5
-305.391
-227.647
-412.609
-362.99
-343.116
-325.089
-271.295
-237.032
-175.439
-190.823
-139.616
-254.284
99.0901
-970.585
-1272.02
-304.54
-227.484
-412.704
-363.387
-344.034
-326.409
-272.906
-238.502
-176.83
-188.753
-137.992
-250.158
98.901
-974.561
-1271.83
-304.348
-227.69
-412.949
-363.758
-344.563
-327.013
-273.421
-238.723
-176.317
-186.63
-137.207
-247.998
99.4017
-978
-1271.39
-303.728
-227.601
-413.032
-364.12
-345.317
-328.097
-274.629
-239.706
-176.585
-185.268
-136.137
-246.763
98.4802
-975.077
-1271.17
-303.552
-227.782
-413.32
-364.599
-345.976
-328.928
-275.389
-240.243
-175.792
-184.772
-134.548
-245.186
97.656
-972.912
-1270.87
-303.226
-227.731
-413.366
-364.869
-346.493
-329.753
-276.407
-241.531
-176.846
-187.083
-136.006
-240.696
97.5489
-968.789
-1270.87
-303.092
-227.881
-413.561
-365.231
-346.973
-330.438
-277.27
-242.914
-178.622
-190.028
-134.681
-236.07
94.1227
-959.008
-1271.08
-302.804
-227.858
-413.527
-365.245
-347.07
-330.676
-277.703
-243.591
-179.888
-191.136
-130.875
-231.473
91.625
-952.918
-1271.42
-302.833
-227.916
-413.638
-365.295
-347.088
-330.658
-277.597
-243.584
-179.481
-192.351
-131.332
-232.851
95.7478
-959.945
-1271.66
-302.943
-227.838
-413.52
-365.014
-346.717
-330.153
-276.91
-242.604
-177.628
-190.722
-135.602
-239.752
99.3211
-972.64
-1272.06
-303.39
-227.931
-413.545
-364.824
-346.293
-329.445
-275.94
-241.25
-175.834
-187.344
-134.112
-246.22
98.3979
-977.649
-1272.38
-303.67
-227.776
-413.322
-364.419
-345.713
-328.71
-275.246
-240.706
-176.485
-186.74
-134.926
-249.473
98.326
-979.731
-1272.89
-304.409
-227.902
-413.309
-364.137
-345.045
-327.72
-274.159
-239.887
-176.726
-188.154
-136.653
-249.875
99.5783
-982.764
-1273.13
-304.681
-227.706
-413.102
-363.812
-344.562
-327.167
-273.701
-239.711
-177.282
-190.214
-137.459
-252.1
98.9616
-979.719
-1273.66
-305.635
-227.912
-413.071
-363.494
-343.732
-325.931
-272.238
-238.419
-176.377
-192.443
-139.353
-256.014
98.8835
-975.862
-1403.42
-350.447
-238.515
-434.104
-379.47
-356.49
-345.471
-291.502
-278.531
-204.871
-256.661
-152.536
-348.697
115.663
-1330.21
-1403.14
-349.961
-238.434
-434.219
-379.803
-357.208
-346.415
-292.74
-279.109
-205.696
-252.255
-153.398
-343.853
116.499
-1330.83
-1403.06
-349.878
-238.586
-434.433
-380.098
-357.6
-346.789
-293.015
-278.804
-204.633
-248.432
-152.735
-336.484
118.349
-1334.64
-1402.82
-349.518
-238.55
-434.545
-380.398
-358.192
-347.58
-293.941
-279.236
-204.562
-245.734
-152.855
-327.438
119.355
-1339.96
-1402.73
-349.443
-238.699
-434.805
-380.781
-358.703
-348.184
-294.49
-279.477
-203.504
-244.642
-151.167
-319.198
126.105
-1337.5
-1402.66
-349.208
-238.689
-434.89
-380.999
-359.125
-348.845
-295.37
-280.631
-204.352
-247.461
-152.762
-317.539
123.596
-1329.62
-1402.81
-349.091
-238.801
-435.078
-381.29
-359.53
-349.445
-296.215
-282.23
-206.834
-252.087
-153.059
-310.338
110.417
-1306.38
-1402.97
-348.892
-238.79
-435.076
-381.317
-359.653
-349.703
-296.707
-282.979
-208.652
-253.361
-150.832
-306.475
99.6484
-1287.34
-1403.2
-348.946
-238.864
-435.18
-381.395
-359.714
-349.755
-296.679
-283.192
-208.47
-255.966
-152.099
-306.827
106.73
-1314.26
-1403.38
-349.015
-238.805
-435.089
-381.214
-359.465
-349.407
-296.099
-282.172
-206.085
-252.898
-154.26
-317.818
124.246
-1351
-1403.65
-349.312
-238.874
-435.103
-381.102
-359.17
-348.904
-295.298
-280.962
-204.132
-248.914
-151.231
-318.279
132.863
-1360.73
-1403.85
-349.482
-238.764
-434.922
-380.813
-358.76
-348.427
-294.836
-280.681
-204.918
-248.283
-152.022
-327.642
124.8
-1358.53
-1404.18
-349.949
-238.846
-434.895
-380.612
-358.273
-347.752
-294.046
-280.371
-205.407
-250.709
-152.809
-336.963
121.957
-1350.31
-1404.33
-350.11
-238.711
-434.729
-380.376
-357.939
-347.446
-293.839
-280.741
-206.514
-254.594
-152.998
-345.443
119.843
-1342.46
-1404.67
-350.702
-238.842
-434.688
-380.136
-357.326
-346.609
-292.767
-280.31
-206.155
-259.13
-152.818
-349.149
118.185
-1339.53
-1538.86
-394.906
-255.156
-464.971
-407.108
-383
-382.867
-327.666
-343.484
-245.494
-369.76
-172.691
-535.89
141.731
-1796.8
-1538.76
-394.636
-255.121
-465.08
-407.377
-383.572
-383.521
-328.688
-342.81
-246.067
-358.218
-172.472
-499.897
134.727
-1809.7
-1538.8
-394.57
-255.226
-465.251
-407.597
-383.867
-383.735
-328.894
-341.944
-245.27
-350.664
-172.584
-463.527
148.633
-1849.48
-1538.81
-394.306
-255.216
-465.363
-407.845
-384.364
-384.347
-329.751
-341.866
-245.416
-344.996
-173.445
-455.126
164.134
-1892.59
-1538.9
-394.203
-255.327
-465.581
-408.151
-384.793
-384.828
-330.297
-342.028
-244.959
-343.881
-174.623
-464.838
142.876
-1903.93
-1538.96
-394.024
-255.334
-465.679
-408.349
-385.187
-385.432
-331.204
-343.23
-246.163
-346.877
-179.061
-486.384
103.582
-1852.3
-1539.08
-393.979
-255.427
-465.858
-408.606
-385.567
-385.996
-332.108
-345.159
-249.57
-355.894
-186.979
-470.272
70.1911
-1784.76
-1539.18
-393.919
-255.438
-465.892
-408.665
-385.726
-386.279
-332.641
-345.936
-251.361
-357.176
-182.905
-471.894
39.5668
-1713.34
-1539.32
-394.014
-255.513
-465.992
-408.761
-385.81
-386.358
-332.656
-346.251
-251.295
-360.532
-186.626
-496.904
40.7038
-1728.06
-1539.44
-394.093
-255.488
-465.947
-408.663
-385.651
-386.125
-332.15
-345.24
-248.449
-354.614
-180.593
-512.801
65.9505
-1831.57
-1539.61
-394.306
-255.543
-465.971
-408.608
-385.437
-385.738
-331.407
-343.981
-246.329
-349.205
-176.018
-485.37
113.055
-1918.92
-1539.74
-394.439
-255.481
-465.857
-408.426
-385.156
-385.45
-331.025
-343.933
-246.672
-349.485
-174.089
-463.403
159.351
-1902.42
-1539.92
-394.746
-255.543
-465.848
-408.302
-384.803
-384.995
-330.344
-344
-246.811
-353.615
-173.934
-465.032
145.707
-1850.44
-1540.01
-394.863
-255.463
-465.74
-408.157
-384.59
-384.887
-330.239
-345.003
-247.715
-361.835
-174.605
-501.117
128.775
-1812.17
-1540.19
-395.233
-255.556
-465.721
-408.001
-384.152
-384.374
-329.429
-345.735
-247.644
-372.763
-176.255
-530.353
137.063
-1802.14
-1680.85
-441.361
-276.787
-505.393
-446.18
-422.169
-436.054
-377.932
-431.684
-300.636
-538.745
-207.231
-880.008
73.9088
-2279.64
-1680.89
-441.208
-276.773
-505.491
-446.366
-422.582
-436.305
-378.571
-429.049
-300.564
-513.842
-212.508
-726.133
97.6487
-2371.75
-1680.99
-441.136
-276.835
-505.616
-446.503
-422.776
-436.283
-378.616
-427.121
-299.407
-497.985
-203.861
-636.468
134.428
-2465.55
-1681.05
-440.999
-276.845
-505.723
-446.682
-423.155
-436.632
-379.317
-426.451
-300.383
-493.111
-214.142
-699.361
11.6464
-2473.59
-1681.16
-440.962
-276.93
-505.898
-446.9
-423.479
-436.896
-379.767
-425.962
-300.183
-487.054
-209.403
-769.684
-70.5774
-2292.57
-1681.25
-440.896
-276.959
-506.004
-447.066
-423.811
-437.367
-380.621
-427.108
-302.222
-493.574
-210.163
-800.136
-67.2987
-2122.74
-1681.36
-440.921
-277.04
-506.165
-447.279
-424.128
-437.81
-381.46
-428.798
-306.128
-504.804
-227.142
-802.452
-66.3874
-2010.45
-1681.46
-440.948
-277.066
-506.23
-447.368
-424.297
-438.085
-381.969
-429.53
-307.639
-506.38
-223.209
-796.875
-77.479
-1928.48
-1681.57
-441.055
-277.136
-506.331
-447.477
-424.4
-438.187
-382.02
-429.729
-307.528
-507.534
-226.037
-811.698
-68.7178
-1945.89
-1681.67
-441.148
-277.146
-506.338
-447.465
-424.347
-438.122
-381.675
-429.133
-304.809
-502.908
-211.556
-802.855
-81.7327
-2065.49
-1681.8
-441.31
-277.202
-506.386
-447.479
-424.241
-437.916
-381.073
-427.962
-302.138
-491.891
-209.373
-778.501
-99.7347
-2265.31
-1681.89
-441.427
-277.186
-506.343
-447.418
-424.108
-437.895
-380.856
-428.742
-302.345
-498.516
-214.072
-718.666
-31.2737
-2477.97
-1682.01
-441.636
-277.244
-506.364
-447.392
-423.916
-437.742
-380.364
-429.303
-301.452
-500.539
-204.049
-640.96
117.207
-2482.01
-1682.07
-441.733
-277.213
-506.317
-447.35
-423.833
-437.896
-380.446
-431.366
-302.807
-516.259
-214.823
-726.056
93.8416
-2368.34
-1682.17
-441.966
-277.291
-506.329
-447.306
-423.597
-437.829
-380.058
-434.024
-303.365
-539.807
-212.271
-879.439
66.4755
-2285.95
-1830.96
-493.268
-303.028
-554.969
-496.068
-472.921
-502.208
-440.306
-532.291
-366.41
-714.973
-245.727
-1277.03
95.3587
-3072.19
-1831.06
-493.21
-303.044
-555.082
-496.219
-473.237
-502.152
-440.628
-527.947
-365.573
-673.914
-243.525
-912.592
137.23
-3229.96
-1831.19
-493.15
-303.085
-555.182
-496.299
-473.354
-501.949
-440.504
-525.045
-363.393
-648.614
-221.547
-780.578
172.924
-3293.71
-1831.32
-493.098
-303.115
-555.302
-496.451
-473.659
-502.112
-441.112
-524.042
-365.94
-648.412
-249.401
-900.377
-215.334
-3273.55
-1831.45
-493.101
-303.179
-555.453
-496.616
-473.904
-502.235
-441.483
-523.334
-366.376
-645.002
-250.711
-967.86
-267.658
-2867.01
-1831.58
-493.113
-303.22
-555.576
-496.781
-474.197
-502.608
-442.238
-524.113
-368.451
-648.42
-247.1
-979.154
-166.205
-2461.69
-1831.7
-493.173
-303.289
-555.725
-496.968
-474.466
-502.953
-442.921
-525.247
-371.504
-655.397
-261.526
-1023.93
-139.475
-2284.27
-1831.82
-493.244
-303.331
-555.824
-497.101
-474.669
-503.254
-443.417
-525.894
-372.839
-656.847
-266.422
-1026.85
-122.344
-2209.47
-1831.94
-493.35
-303.393
-555.934
-497.236
-474.811
-503.412
-443.542
-526.042
-372.594
-656.357
-262.923
-1023.15
-126.758
-2269.65
-1832.04
-493.457
-303.427
-555.992
-497.312
-474.881
-503.53
-443.457
-525.866
-370.644
-652.091
-248.784
-974.178
-158.22
-2433.88
-1832.14
-493.593
-303.483
-556.062
-497.393
-474.896
-503.553
-443.134
-525.468
-368.545
-647.764
-249.468
-965.66
-266.469
-2844.41
-1832.23
-493.711
-303.501
-556.083
-497.446
-474.921
-503.794
-443.15
-526.791
-368.378
-653.289
-248.305
-918.564
-247.316
-3277.67
-1832.3
-493.863
-303.556
-556.127
-497.503
-474.883
-503.967
-442.912
-528.073
-366.048
-652.301
-220.222
-784.292
159.644
-3338.75
-1832.35
-493.956
-303.56
-556.132
-497.555
-474.928
-504.389
-443.263
-531.37
-368.605
-678.437
-242.349
-915.457
145.542
-3263.28
-1832.41
-494.105
-303.627
-556.162
-497.597
-474.867
-504.77
-443.356
-536.182
-370.186
-720.385
-246.41
-1285.15
96.7935
-3111
-1985.66
-551.705
-333.026
-613.634
-558.017
-537.159
-584.655
-519.217
-648.043
-445.422
-875.785
-264.062
-1483.15
306.201
-4218.12
-1985.81
-551.718
-333.062
-613.756
-558.151
-537.394
-584.412
-519.267
-643.254
-444.006
-833.083
-255.678
-1066.14
378.174
-4424.25
-1985.99
-551.667
-333.081
-613.831
-558.182
-537.437
-584.11
-519.036
-640.338
-441.786
-808.501
-239.927
-945.804
428.336
-4354.93
-1986.17
-551.671
-333.125
-613.959
-558.315
-537.68
-584.166
-519.57
-639.424
-445.756
-808.773
-275.58
-1029.29
-90.4106
-4411.41
-1986.34
-551.699
-333.176
-614.085
-558.431
-537.845
-584.224
-519.934
-639.499
-448.463
-819.976
-303.299
-1270.35
-461.283
-3890.16
-1986.51
-551.76
-333.228
-614.222
-558.596
-538.106
-584.553
-520.631
-640.323
-451.529
-821.746
-315.37
-1221.88
-223.479
-3307.03
-1986.67
-551.842
-333.292
-614.362
-558.76
-538.321
-584.826
-521.133
-641.194
-453.616
-826.04
-316.929
-1247.17
-154.749
-2800.98
-1986.83
-551.952
-333.353
-614.495
-558.934
-538.557
-585.171
-521.643
-641.988
-455.048
-828.622
-324.067
-1267.11
-120.383
-2722.56
-1986.97
-552.074
-333.42
-614.619
-559.09
-538.727
-585.36
-521.806
-642.021
-454.421
-826.912
-315.846
-1250.87
-139.688
-2881.77
-1987.1
-552.215
-333.482
-614.73
-559.248
-538.912
-585.624
-521.967
-642.148
-453.208
-824.587
-313.378
-1229.7
-215.405
-3421.1
-1987.2
-552.357
-333.549
-614.828
-559.387
-539.028
-585.796
-521.837
-641.957
-450.508
-821.836
-299.919
-1261.96
-406.425
-3951.04
-1987.3
-552.504
-333.605
-614.913
-559.543
-539.2
-586.206
-521.996
-642.838
-448.488
-814.436
-274.276
-1043.91
-51.7415
-4437.99
-1987.36
-552.644
-333.673
-614.99
-559.677
-539.298
-586.616
-521.975
-644.468
-444.872
-814.562
-237.448
-952.833
450.991
-4406.17
-1987.41
-552.756
-333.711
-615.045
-559.813
-539.466
-587.218
-522.516
-648.037
-447.456
-841.25
-252.271
-1076.91
410.752
-4469.39
-1987.44
-552.876
-333.788
-615.105
-559.928
-539.562
-587.918
-523.019
-653.692
-449.733
-886.256
-261.172
-1508.86
324.997
-4239.37
-2145.42
-623.096
-367.679
-681.096
-630.697
-611.046
-677.691
-607.986
-775.42
-533.748
-1065.79
-290.933
-1843.24
539.322
-5592.5
-2145.61
-623.151
-367.729
-681.245
-630.867
-611.298
-677.474
-607.82
-770.48
-530.576
-1019.78
-282.962
-1391.43
683.248
-5880.94
-2145.82
-623.091
-367.731
-681.309
-630.878
-611.295
-677.157
-607.412
-767.639
-527.59
-994.06
-268.475
-1245.33
683.842
-5805.38
-2146.04
-623.124
-367.783
-681.461
-631.04
-611.54
-677.253
-607.728
-766.608
-529.609
-985.827
-277.389
-1208.95
554.939
-5834.15
-2146.23
-623.155
-367.819
-681.578
-631.145
-611.662
-677.351
-607.949
-767.166
-532.019
-996.978
-301.762
-1365.81
-281.794
-5855.29
-2146.45
-623.241
-367.879
-681.743
-631.356
-611.955
-677.83
-608.708
-769.458
-536.948
-1019.28
-346.996
-1630.54
-499.42
-5111.89
-2146.63
-623.33
-367.934
-681.889
-631.534
-612.162
-678.163
-609.13
-770.549
-539
-1021.78
-354.512
-1576.25
-199.233
-4132.88
-2146.81
-623.462
-368.009
-682.063
-631.776
-612.482
-678.642
-609.782
-771.71
-540.883
-1026.09
-357.521
-1586.9
-125.831
-3895.65
-2146.97
-623.589
-368.077
-682.21
-631.974
-612.708
-678.921
-609.993
-771.793
-539.641
-1024.33
-351.423
-1594.48
-221.74
-4453.45
-2147.12
-623.753
-368.162
-682.379
-632.227
-613.042
-679.318
-610.436
-771.733
-538.34
-1021.13
-340.937
-1635.78
-460.536
-5383.4
-2147.22
-623.893
-368.236
-682.507
-632.424
-613.27
-679.615
-610.538
-771.086
-534.353
-1002.77
-297.05
-1348.35
-119.758
-5969.23
-2147.33
-624.06
-368.323
-682.661
-632.688
-613.624
-680.221
-611.102
-772.008
-532.947
-995.693
-276.075
-1225.38
611.711
-5950.45
-2147.37
-624.188
-368.394
-682.77
-632.885
-613.865
-680.892
-611.653
-774.772
-531.992
-1007.18
-267.236
-1267.11
745.896
-5900.38
-2147.43
-624.319
-368.454
-682.878
-633.102
-614.177
-681.697
-612.589
-778.894
-535.672
-1037.29
-280.369
-1424.78
733.504
-5962.12
-2147.43
-624.412
-368.528
-682.963
-633.27
-614.406
-682.682
-613.73
-785.732
-540.845
-1087.65
-290.484
-1851.55
592.797
-5638.47
-2294.75
-705.224
-407.55
-756.581
-719.379
-701.721
-795.832
-717.893
-940.973
-644.279
-1304.79
-346.6
-2068.12
937.315
-7712.09
-2295
-705.332
-407.615
-756.764
-719.503
-701.943
-795.288
-717.174
-935.748
-639.112
-1272.9
-339.924
-1902.93
1071.28
-7955.33
-2295.27
-705.278
-407.6
-756.818
-719.437
-701.86
-794.766
-716.48
-932.907
-636.154
-1254.23
-332.256
-1836.46
1035.82
-7964.18
-2295.56
-705.356
-407.662
-756.998
-719.554
-702.047
-794.605
-716.123
-930.888
-634.016
-1236.9
-318.93
-1671.27
1149.12
-8027.67
-2295.82
-705.42
-407.689
-757.109
-719.586
-702.056
-794.526
-715.771
-931.27
-633.322
-1242.19
-307.416
-1664.34
638.448
-8098.15
-2296.1
-705.559
-407.764
-757.302
-719.789
-702.306
-794.944
-716.033
-933.88
-635.692
-1274.44
-340.885
-2095.44
-230.596
-7515.46
-2296.35
-705.696
-407.826
-757.455
-719.941
-702.445
-795.256
-716.069
-935.771
-636.462
-1288.16
-362.48
-2162.68
-33.9516
-6352.81
-2296.6
-705.89
-407.928
-757.674
-720.229
-702.813
-795.799
-716.647
-936.807
-636.994
-1285.54
-352.715
-2069.9
141.53
-6014.15
-2296.81
-706.072
-408.019
-757.852
-720.465
-703.086
-796.22
-716.96
-937.928
-635.896
-1293.46
-351.267
-2160.98
-27.6135
-7082.59
-2297.02
-706.303
-408.149
-758.09
-720.825
-703.601
-796.807
-717.943
-937.381
-635.482
-1273.93
-321
-1959.02
11.0211
-8098.83
-2297.16
-706.499
-408.261
-758.267
-721.119
-703.992
-797.403
-718.746
-937.555
-633.851
-1253.3
-287.618
-1631.89
963.252
-8364.8
-2297.31
-706.732
-408.404
-758.497
-721.538
-704.596
-798.419
-720.189
-939.711
-635.954
-1257.44
-302.241
-1699.97
1295.6
-8263.14
-2297.38
-706.903
-408.525
-758.659
-721.877
-705.048
-799.656
-721.77
-945.095
-639.592
-1287.89
-314.106
-1894.11
1192.56
-8117.71
-2297.45
-707.085
-408.632
-758.825
-722.228
-705.551
-800.87
-723.245
-950.113
-643.391
-1314.97
-320.38
-1993.19
1232.46
-8013.33
-2297.46
-707.211
-408.758
-758.959
-722.542
-705.974
-802.479
-725.301
-958.582
-650.686
-1359.81
-326.641
-2209.94
1112.81
-7631.7
-2443.03
-809.372
-455.018
-842.558
-819.609
-799.67
-921.39
-836.225
-1120.83
-781.374
-1619.32
-455.027
-3019.02
1342.55
-11061.1
-2443.28
-809.492
-455.062
-842.791
-819.718
-800.006
-920.706
-835.47
-1115.71
-774.259
-1603.89
-409.854
-3153.72
1243.28
-10481.1
-2443.54
-809.416
-455.007
-842.828
-819.536
-799.761
-919.81
-833.846
-1112.19
-765.627
-1589.53
-369.115
-3134.48
1150.02
-10599.2
-2443.83
-809.488
-455.04
-843.033
-819.595
-799.892
-919.388
-832.69
-1109.89
-760.219
-1579.62
-367.969
-2970.16
974.599
-10612.3
-2444.08
-809.527
-455.021
-843.124
-819.514
-799.671
-918.849
-830.763
-1107.5
-749.068
-1545.36
-298.319
-2376.63
1331.28
-11071.3
-2444.36
-809.653
-455.073
-843.339
-819.701
-799.842
-919.201
-830.185
-1110.93
-747.996
-1583.52
-346.186
-2560.79
633.06
-11271.4
-2444.6
-809.764
-455.106
-843.495
-819.827
-799.859
-919.448
-829.298
-1113.32
-744.329
-1611.58
-378.546
-3037.22
256.96
-9533.68
-2444.86
-809.948
-455.207
-843.763
-820.181
-800.311
-920.111
-829.85
-1114.55
-743.325
-1602.86
-349.126
-2842.15
652.737
-9298.98
-2445.06
-810.11
-455.293
-843.974
-820.484
-800.648
-920.781
-830.11
-1117.25
-740.828
-1625.47
-341.389
-3053.56
388.517
-10477.1
-2445.27
-810.338
-455.449
-844.294
-820.985
-801.462
-921.641
-832.248
-1116.26
-744.753
-1581.55
-315.641
-2350.33
874.862
-12103.7
-2445.41
-810.512
-455.576
-844.522
-821.404
-802.072
-922.707
-833.955
-1118.66
-746.067
-1583.7
-286.44
-2444.29
1458.91
-11444.5
-2445.55
-810.748
-455.762
-844.857
-822.021
-803.055
-924.384
-837.061
-1124.2
-756.176
-1626.32
-323.986
-3114.66
1061.2
-11178.8
-2445.61
-810.893
-455.891
-845.06
-822.5
-803.713
-926.256
-839.73
-1132.29
-764.274
-1663.46
-329.86
-3319.57
1241.42
-10797.6
-2445.68
-811.078
-456.035
-845.299
-823.016
-804.474
-928.064
-842.217
-1139.91
-772.669
-1704.51
-355.634
-3486.43
1269.11
-10522.1
-2445.66
-811.144
-456.171
-845.439
-823.43
-804.96
-930.242
-844.882
-1151.4
-784.271
-1754.01
-401.622
-3469.93
1289.49
-10693
-2525.98
-943.97
-518.088
-920.504
-950.296
-923.11
-1092.97
-972.17
-1368.99
-886.614
-2060.73
-333.981
-4657.38
1753.97
-14779.2
-2526.34
-944.238
-518.17
-920.977
-950.294
-924.164
-1091.19
-972.988
-1356.28
-878.796
-1990.67
-320.195
-4526.59
1192.85
-15262.5
-2526.72
-944.242
-518.084
-921.113
-949.993
-924.229
-1089.97
-972.554
-1353.21
-879.001
-1985.03
-360.504
-4558.24
1095.89
-16577.6
-2527.16
-944.456
-518.142
-921.509
-949.99
-924.788
-1089.1
-971.458
-1347.53
-864.519
-1931.19
-248.851
-3521.6
2104.52
-17136.6
-2527.56
-944.633
-518.116
-921.697
-949.846
-924.755
-1088.78
-969.968
-1349.99
-859.222
-1958.36
-250.677
-3577.81
2490.54
-17157
-2527.98
-944.916
-518.204
-922.029
-950.049
-925.063
-1089.24
-968.39
-1354.39
-843.865
-2020.26
-181.503
-4225.56
1939.07
-15770.2
-2528.37
-945.186
-518.265
-922.243
-950.176
-925.089
-1089.75
-966.938
-1359.04
-835.813
-2044.08
-144.637
-4178.93
1292.44
-14227.6
-2528.75
-945.527
-518.423
-922.58
-950.569
-925.626
-1090.38
-967.08
-1360.01
-829.86
-2056.62
-96.8813
-4250.08
2092.1
-14077.1
-2529.09
-945.847
-518.567
-922.816
-950.927
-925.918
-1091.5
-966.531
-1367.04
-822.494
-2093.19
-121.543
-4427.55
1694.43
-15253.7
-2529.4
-946.22
-518.801
-923.191
-951.484
-926.95
-1092.01
-969.798
-1360.7
-834.799
-2002.82
-183.078
-3829.85