/*--------------------------------*- C++ -*----------------------------------*\
| =========                 |                                                 |
| \\      /  F ield         | OpenFOAM: The Open Source CFD Toolbox           |
|  \\    /   O peration     | Version:  4.1                                   |
|   \\  /    A nd           | Web:      www.OpenFOAM.org                      |
|    \\/     M anipulation  |                                                 |
\*---------------------------------------------------------------------------*/
FoamFile
{
    version     2.0;
    format      ascii;
    class       surfaceScalarField;
    location    "13";
    object      phi;
}
// * * * * * * * * * * * * * * * * * * * * * * * * * * * * * * * * * * * * * //

dimensions      [0 3 -1 0 0 0 0];

internalField   nonuniform List<scalar> 
19125
(
304.922
-9.58781
1451.12
245.803
-8.1176
1496.78
186.904
-9.58983
1058.72
145.194
-1.14081
963.313
90.0379
4.82482
714.795
60.0991
-10.7553
598.714
-13.3159
76.7771
383.776
-296.086
148.331
-677.073
-479.966
271.104
-1242.48
-518.088
214.525
-1188.68
-354.982
47.0091
-735.8
-131.282
-34.2108
246.426
-99.6283
18.0077
1082.17
-116.699
-6.0292
1251.14
1.87243
2010.95
298.825
-11.1487
1462.63
240.181
-9.99344
1512.49
185.374
-10.8687
1086.44
145.399
-1.50165
987.15
92.3585
3.35684
725.935
62.3733
-14.9609
600.767
-38.2276
114.085
364.886
-321.531
167.066
-662.696
-485.624
300.765
-1243.58
-516.162
237.928
-1215.85
-360.477
61.3509
-780.291
-132.532
-40.6794
226.814
-97.5104
22.7131
1131.51
-119.008
1.27516
1300.45
3.17047
1982.87
294.72
-11.0545
1469.85
237.285
-12.606
1522.99
185.247
-12.311
1103.46
145.804
-2.29347
999.608
92.7144
1.55697
732.567
61.7748
-18.2523
606.485
-59.9067
140.342
331.613
-330.843
171.8
-667.541
-468.04
299.389
-1242.38
-489.097
236.482
-1229.49
-360.932
85.4657
-815.901
-140.416
-21.5353
177.645
-99.6679
19.6635
1097.02
-123.133
13.8093
1340.42
3.86625
1937.08
290.813
-9.55494
1474.51
235.238
-15.6816
1531.67
185.908
-12.6661
1119.86
146.15
-1.97648
1011.9
92.0128
0.897765
739.996
60.864
-20.765
614.781
-78.2366
152.649
309.844
-337.843
161.427
-662.583
-461.872
282.568
-1237.47
-483.255
231.818
-1230.86
-361.378
106.639
-807.964
-141.697
-16.9302
170.443
-103.008
18.687
1033.8
-123.471
23.3072
1346.67
4.28155
1957.42
288.161
-6.72522
1474.29
233.646
-17.9391
1542.59
186.566
-12.4071
1137.73
146.288
-1.36325
1024.11
91.2345
0.89951
747.046
57.2475
-19.836
622.025
-105.816
149.64
285.64
-351.93
133.664
-661.106
-460.855
249.552
-1232.26
-492.304
241.594
-1227.59
-390.617
144.749
-774.246
-162.51
-40.7604
149.938
-105.92
-0.565279
968.614
-124.61
30.7554
1335.97
3.80036
1967.55
287.185
-3.10297
1468.12
232.353
-16.0045
1555.38
186.923
-9.94804
1158.41
146.125
-0.551803
1037.4
90.5178
1.09738
753.636
55.8849
-16.9867
630.147
-142.346
114.2
261.535
-371.275
86.0466
-660.124
-448.422
186.954
-1221.75
-472.176
239.019
-1225.87
-475.827
242.156
-865.468
-243.148
26.0526
-358.843
-112.652
-73.6021
793.239
-126.894
33.2513
1334.22
1.41419
1979.02
289.644
-0.250881
1451.72
231.862
-5.6731
1565.15
186.494
-3.34147
1179.49
145.426
-0.0192594
1052.25
89.2008
0.863839
760.508
46.1686
-5.50116
639.123
-175.761
42.9771
220.857
-396.264
28.6754
-664.408
-417.771
70.8924
-1217.45
-347.596
116.666
-1246.19
-286.027
161.809
-988.364
-186.799
50.9479
-733.458
-132.334
-63.7841
584.574
-126.037
16.1035
1340.65
0.235191
1972.57
291.653
1.6132
1442.26
232.126
8.49864
1565.22
186.236
5.44957
1185.22
144.958
0.844299
1057.51
88.5359
0.467976
763.356
42.6244
9.07843
643.012
-192.879
-46.6773
201.551
-414.072
-29.8692
-666.994
-417.249
-62.7938
-1216.33
-290.718
-73.7639
-1254.02
-162.132
-25.9438
-1036.82
-131.418
58.2921
-849.449
-144.539
11.3605
498.685
-127.454
-10.0294
1357.07
-0.44029
1943.71
288.91
4.50062
1455.79
231.668
17.1717
1563.26
186.454
11.3024
1176.27
145.432
1.53818
1050.54
89.3452
0.159334
759.949
46.9559
19.7643
637.211
-173.217
-114.002
225.052
-391.999
-88.4415
-661.046
-407.384
-184.892
-1215.15
-312.714
-227.23
-1251.06
-198.028
-194.748
-1019.41
-138.256
48.3975
-841.778
-135.358
75.1313
558.075
-124.496
-31.5336
1337.38
-0.667266
1975.39
287.082
7.95014
1470.65
232.325
18.282
1553.03
186.767
13.4178
1155.33
146.091
2.40132
1035.79
90.6064
0.207132
752.949
56.0211
22.2932
628.007
-136.154
-145.386
266.102
-362.152
-137.533
-656.287
-426.899
-259.579
-1219.91
-429.284
-262.985
-1235.56
-413.235
-184.439
-908.539
-226.304
55.1183
-517.76
-113.7
25.4409
788.471
-125.754
-31.3009
1331.08
-2.57918
1982.81
288.378
10.5352
1476.19
233.725
15.6129
1540.49
186.363
13.486
1134.7
146.204
2.99825
1022.27
91.2293
0.072066
746.092
57.2453
23.0207
619.862
-100.122
-147.836
290.159
-345.263
-165.486
-659.078
-454.187
-292.429
-1230.98
-490.99
-246.088
-1227.14
-403.681
-144.146
-759.907
-177.96
-7.19993
145.599
-106.771
-9.30467
973.965
-124.96
-24.4679
1337.79
-3.44411
1969.24
291.251
11.8111
1475.64
235.435
12.3712
1529.75
185.743
12.986
1116.89
146.063
3.25361
1009.85
91.9402
-0.68996
738.754
60.8996
20.3496
612.39
-72.4657
-135.951
313.874
-330.444
-176.481
-661.167
-453.879
-309.927
-1236.71
-476.795
-248.485
-1232.59
-361.386
-117.801
-801.548
-147.43
-5.73869
184.91
-103.753
-16.8715
1039.74
-123.806
-15.0929
1349.05
-3.3435
1959.08
295.314
11.7049
1470.46
237.588
9.73534
1521.4
185.121
11.3997
1100.64
145.724
2.33048
997.4
92.6534
-2.6263
731.127
61.9384
16.8586
603.966
-55.2282
-110.175
334.066
-325.39
-171.748
-666.99
-461.931
-311.595
-1240.73
-480.575
-251.843
-1230.07
-356.623
-89.8639
-816.425
-142.695
21.3752
184.273
-100.341
-22.0924
1100.42
-123.514
-2.68501
1344.39
-2.91112
1938.45
299.531
9.95577
1462.84
240.595
7.89982
1511.07
185.311
9.98105
1083.64
145.354
1.80711
984.726
92.3761
-4.27443
724.27
62.8501
12.2591
598.096
-33.8638
-73.7615
365.754
-316.977
-152.651
-663.083
-481.383
-280.754
-1241.6
-510.639
-227.705
-1215.23
-357.94
-71.2962
-779.755
-133.695
19.017
233.348
-98.0031
-18.3041
1134.57
-119.326
4.7016
1305.58
-1.78574
1983.55
305.699
1451.12
246.306
1495.77
186.904
1056.25
145.191
960.83
90.1118
713.026
60.7763
595.978
-10.2948
382.71
-293.659
-678.505
-477.615
-1239.43
-513.386
-1185.28
-352.187
-734.433
-131.133
247.883
-99.7576
1085.74
-116.891
1257.86
2011.57
1041.56
-36.1349
1151.26
984.012
-42.3364
1566.32
828.065
-28.7714
1220.79
705.339
-11.7303
1087.86
591.367
14.0623
822.871
607.941
-2.80382
580.156
757.919
55.7806
205.747
612.843
69.7909
-549.857
283.116
186.607
-964.802
-66.4976
258.35
-902.161
-250.251
78.547
-576.337
-184.783
-34.3585
180.697
-207.315
23.4771
1096.61
-296.204
-21.9662
1344.58
5.64256
1999.92
1024.04
-42.9393
1165.97
958.726
-46.4617
1581.93
806.478
-29.7212
1239.65
683.915
-10.25
1108.23
571.944
15.6122
836.357
587.338
-6.00941
588.578
718.579
81.8955
207.531
577.856
86.2577
-538.44
272.528
211.709
-963.357
-53.4135
289.694
-921.257
-252.631
115.167
-617.692
-190.571
-16.614
147.014
-206.41
28.1455
1142.68
-303.045
-7.20259
1382.32
7.22986
1969.66
1013.92
-46.2264
1175.51
944.374
-46.6326
1592.71
794.626
-29.6243
1253.12
672.628
-9.3424
1120.7
561.765
14.377
844.666
578.022
-10.9037
595.123
696.301
91.1355
204.095
559.803
90.2572
-535.041
273.709
215.933
-960.506
-24.0351
285.675
-927.729
-253.78
170.991
-641.98
-205.806
15.3438
97.7193
-212.999
15.3549
1117.01
-314.866
20.3082
1414.78
4.6119
1921.86
1000.97
-44.6845
1185.15
929.332
-45.4398
1602.12
784.773
-30.0337
1264.83
663.77
-8.26642
1131.83
552.025
13.6936
852.425
565.674
-12.8892
603.118
670.562
88.7563
207.336
543.006
80.2146
-524.983
272.692
205.82
-957.043
-18.8547
280.896
-934.531
-267.954
253.99
-641.862
-225.608
17.5731
125.872
-215.903
-26.6016
1066.05
-313.159
42.0523
1422.18
2.81274
1941.11
990.019
-37.9217
1190.2
916.259
-40.3663
1611.28
775.485
-29.5457
1278.02
654.821
-7.50424
1144.01
543.154
11.8437
860.564
553.14
-10.8292
609.981
641.153
78.2436
208.142
518.818
59.3812
-517.937
268.02
177.82
-953.458
-29.1787
291.169
-940.66
-314.08
389.203
-624.556
-270.196
-15.4074
139.038
-215.983
-124.125
1011.93
-313.151
60.3089
1414.89
-0.274755
1951.52
979.349
-24.1976
1190.59
903.947
-28.6776
1619.1
766.408
-24.8578
1291.27
646.397
-6.38075
1156.29
535.696
8.3789
867.804
545.093
-6.05542
615.978
616.457
60.61
207.806
495.795
32.8355
-512.915
279.486
121.571
-949.186
46.4624
244.381
-946.053
-176.477
423.093
-676.417
-221.667
13.2019
-342.261
-226.729
-164.541
838.719
-310.52
63.0391
1415.28
-2.80835
1963.54
974.059
-5.20384
1181.64
898.228
-8.74884
1621.06
759.155
-8.98337
1302.7
638.51
-2.39911
1168.91
528.656
3.37648
875.365
540.516
-0.205683
621.416
593.321
23.7727
204.892
466.038
10.573
-514.861
276.718
42.3482
-948.902
128.23
97.9653
-951.283
59.5169
212.955
-709.511
-108.521
22.3985
-574.614
-258.708
-89.7973
660.02
-307.05
29.8236
1422.21
-0.646713
1956.49
975.09
12.8042
1175.61
899.783
13.6652
1618.12
758.277
13.4194
1304.32
636.618
4.53107
1172.24
526.712
-1.05262
877.693
540.293
5.99858
623.228
586.146
-24.6032
204.077
454.097
-8.3333
-516.037
266.812
-37.0694
-949.623
152.118
-88.0161
-953.343
154.635
-101.283
-725.099
-59.7619
18.6744
-631.326
-277.869
30.7054
596.292
-311.942
-14.8769
1435.84
1.92955
1925.88
975.484
29.2363
1184.44
899.175
32.4797
1620.76
760.149
27.7225
1301
639.247
8.56626
1167.41
529.483
-6.07249
874.735
540.819
11.2822
620.593
595.728
-60.1359
205.679
471.319
-32.0148
-512.955
286.357
-119.736
-947.519
142.662
-243.712
-951.67
124.889
-390.317
-712.604
-64.6232
-1.64217
-631.947
-265.529
159.96
629.728
-303.903
-56.8912
1417.77
5.89889
1960.35
981.198
41.3026
1191.78
905.724
43.1159
1617.88
767.774
31.7456
1289.26
647.532
9.89636
1154.7
536.803
-9.39403
867.001
545.501
15.7911
614.802
619.444
-76.2936
208.319
502.291
-59.3733
-511.774
293.172
-182.253
-948.278
65.4712
-304.594
-946.973
-120.389
-437.832
-675.162
-194.079
-11.8709
-433.837
-233.348
166.365
821.337
-308.037
-62.646
1411.53
4.07558
1968.73
992.036
47.0504
1190.66
918.368
47.361
1609.91
777.104
31.8325
1275.88
656.346
10.7241
1142.2
544.741
-11.1566
859.462
554.434
17.4487
608.513
644.993
-85.0051
208.315
523.785
-79.7052
-517.536
273.399
-210.188
-952.659
-34.4941
-282.058
-941.782
-334.905
-286.384
-610.942
-295.685
-74.3961
168.91
-218.941
48.477
1015.11
-314.738
-45.4856
1416.43
-0.798971
1953.71
1003.22
47.8606
1184.85
931.796
47.9596
1600.59
786.721
31.1439
1262.65
665.689
11.7138
1129.89
554.087
-11.8962
851.098
567.566
15.0178
601.343
675.29
-86.1675
207.314
548.676
-89.356
-524.901
278.391
-220.446
-956.161
-17.7982
-282.234
-936.22
-271.893
-194.851
-638.984
-239.796
-65.5206
143.942
-217.206
-9.22685
1074.86
-313.893
-23.3259
1423.58
-3.33788
1943.46
1016.35
44.0111
1174.71
947.127
47.3809
1591.21
796.869
31.0163
1251.03
674.87
12.4157
1118.7
564.226
-13.3127
843.19
580.579
9.52882
593.105
701.635
-76.6504
203.497
565.641
-85.1614
-535.188
279.291
-215.853
-958.967
-16.58
-288.614
-927.812
-251.284
-132.607
-643.961
-212.673
-15.3941
95.5449
-215.144
-27.34
1121
-315.92
3.96815
1417.88
-6.69341
1923.66
1026.57
36.7619
1164.81
961.706
42.9068
1580.41
809.005
29.8089
1237.55
686.501
13.5529
1106.1
574.841
-12.0797
834.7
590.599
5.58202
586.289
724.498
-51.0904
206.299
583.587
-68.4793
-538.851
277.453
-189.813
-961.508
-47.9902
-257.658
-920.741
-253.146
-88.931
-618.269
-193.925
8.20606
150.537
-208.16
-24.8274
1146.29
-303.813
18.8824
1386.33
-5.50887
1970.75
1044.11
1149.9
987.106
1565.02
830.837
1218.98
708.244
1085.81
594.757
821.177
611.966
577.652
763.956
203.845
617.782
-550.468
287.057
-962.267
-61.9026
-900.308
-248.629
-576.46
-184.799
176.615
-208.372
1100.5
-296.563
1349.72
2001.03
1513.53
-26.8707
632.24
1727.94
-71.8544
1370.78
1701.64
-62.0765
1256.41
1632.25
-49.7418
1163.96
1531.35
-20.5264
921.768
1492.54
-2.00146
612.419
1467.24
42.0403
209.083
1199.44
96.9622
-316.277
728.176
153.588
-541.761
242.986
190.968
-466.119
-103.1
79.4792
-244.279
-183.356
-43.5418
260.833
-291.185
-2.8083
1206.2
-451.221
-32.097
1510.08
8.56768
1940.46
1505.25
-32.1949
642.014
1704.05
-78.1442
1389.43
1671.24
-65.1829
1275.56
1593.4
-49.1102
1185.44
1485.03
-16.739
940.945
1441.3
1.02821
629.278
1417.7
51.5994
221.574
1170.71
112.116
-306.606
728.537
176.368
-543.965
271.055
211.022
-483.829
-91.2579
103.335
-279.232
-181.043
-16.4877
209.75
-292.033
5.44896
1245.42
-460.003
-14.9327
1533.13
8.95154
1909.23
1502.77
-37.2191
648.303
1692.9
-76.0403
1400.48
1654.83
-61.937
1287.94
1571.83
-44.4802
1199.07
1459.5
-12.7084
952.964
1413.59
2.19057
639.87
1389.01
52.6695
227.607
1153.32
114.291
-301.527
730.197
182.478
-543.49
296.398
209.247
-492.154
-89.5508
142.601
-295.294
-188.309
3.20023
176.796
-305.848
6.68911
1233.31
-479.927
17.5117
1556.41
1.14562
1857.24
1495.57
-38.4692
656.481
1676.6
-68.6682
1413.72
1635.97
-57.7557
1301.28
1550.3
-40.021
1213.04
1434.66
-9.77718
965.138
1386.48
1.86208
651.626
1362.92
46.8362
236.731
1140.45
105.936
-294.157
732.131
178.008
-544.254
301.74
207.505
-502.398
-115.674
221.347
-303.193
-234.214
19.013
228.603
-304.002
-56.7341
1199.27
-474.006
44.791
1564.91
-2.63305
1875.95
1489.39
-36.5873
662.241
1662.56
-54.3351
1423.78
1618.14
-48.6807
1313.36
1528.68
-33.1464
1226.6
1409.51
-7.11875
977.074
1358.28
0.806469
662.267
1333.7
35.5543
244.008
1122.89
86.4639
-287.652
731.882
159.299
-543.742
296.753
212.629
-510.654
-159.991
352.215
-298.678
-287.245
25.3249
259.986
-304.817
-182.328
1155.09
-473.477
66.1261
1562.21
-10.03
1888.08
1479.72
-27.4483
666.317
1645.15
-32.7808
1432.12
1597.5
-33.9453
1324.18
1505.03
-23.6001
1239.22
1383.21
-5.24724
987.748
1329.43
-0.582371
671.153
1302.74
20.7557
249.289
1103.32
55.487
-282.513
743.696
112.753
-543.016
359.772
170.033
-519.532
20.2507
335.441
-320.12
-163.466
-26.405
-106.81
-320.076
-189.175
1002.18
-462.425
61.1226
1562.64
-11.4391
1902.58
1467.61
-6.4512
665.699
1629.83
-8.31531
1434.38
1578.55
-10.6138
1330.65
1482.22
-7.66538
1249.3
1357.12
-1.49686
996.724
1299.81
0.361957
677.78
1267.38
6.86201
251.216
1071.8
17.7188
-281.511
738.789
39.9127
-543.05
420.659
64.1684
-527.288
239.623
152.336
-345.368
-54.9956
-15.3098
-291.088
-346.645
-98.6994
861.196
-458.835
26.4613
1569.06
-2.80687
1890.66
1463.98
17.1336
664.372
1627.19
14.3525
1432.24
1574.64
16.097
1330.17
1476.96
11.6582
1250.59
1350.66
4.26433
998.233
1292.01
3.42837
678.814
1256.41
-4.49606
251.03
1059.31
-19.2207
-281.991
731.244
-38.159
-543.485
436.605
-63.8035
-530.732
306.631
-83.6086
-359.179
-14.5954
6.47754
-331.885
-364.962
37.316
810.645
-468.507
-12.7907
1578.64
7.06174
1854.13
1471.86
32.3145
666.514
1634.19
38.9384
1433.86
1582.89
38.859
1329.53
1486.5
27.5781
1247.89
1361.47
8.29973
995.726
1304.15
4.11419
677.223
1272.32
-18.9277
251.944
1077.15
-56.8794
-280.122
745.396
-112.181
-541.741
429.029
-172.22
-526.885
290.291
-310.375
-347.098
-13.5468
6.96443
-328.592
-350.337
187.295
816.541
-453.436
-54.2239
1562.3
18.3335
1896.46
1482.17
39.1411
666.216
1648.59
59.458
1430.94
1601.34
52.8507
1322.51
1509.17
37.0239
1237.43
1387.65
10.4573
986.361
1333.82
2.6775
670.066
1307.65
-33.9382
249.508
1108.35
-87.8703
-281.48
751.222
-161.833
-541.501
371.559
-220.936
-518.593
82.1987
-375.437
-320.737
-134.147
-24.72
-185.802
-325.512
228.622
971.378
-458.247
-67.8187
1557.86
16.935
1910.99
1491.22
40.1352
661.653
1665.57
72.7575
1422.27
1621.78
61.1425
1311.38
1532.94
43.5828
1224.48
1414.33
13.2045
975.328
1363.12
1.65411
660.747
1338.76
-45.0359
243.769
1126.77
-106.452
-286.964
734.087
-179.874
-541.929
286.323
-206.153
-508.801
-187.417
-224.947
-287.689
-313.023
-17.3924
287.192
-308.15
84.0728
1154.79
-475.424
-47.5407
1563.43
5.58264
1892.17
1497.3
38.2886
655.498
1679.69
79.1444
1411.81
1639.77
64.665
1299.05
1554.87
47.6678
1210.71
1439.93
16.0563
963.185
1391.84
1.23892
649.856
1368.37
-50.5356
236.28
1144.48
-114.003
-293.457
733.961
-183.357
-542.154
295.056
-202.337
-501.128
-132.33
-138.622
-297.918
-252.839
-20.2885
267.357
-304.608
-1.23615
1211.94
-474.524
-19.8343
1565.79
0.385159
1879.73
1504.48
32.8331
647.049
1696.08
80.4009
1398.35
1658.81
67.3643
1285.6
1576.68
51.8939
1196.61
1465.18
19.9
950.845
1419.45
2.19919
637.881
1394.81
-49.327
226.925
1157.79
-111.444
-300.725
733.031
-176.715
-540.843
298.723
-206.085
-489.752
-93.2201
-97.8432
-292.791
-193.423
-2.05693
177.528
-307.931
-4.72431
1239
-480.59
12.1908
1558.51
-8.34708
1860.29
1506.9
27.2148
640.594
1707.24
73.3031
1387.17
1675.33
63.6913
1273.14
1598.47
51.9944
1182.86
1491.1
23.2816
938.682
1447.67
4.83929
627.088
1423.79
-39.8547
220.708
1175.21
-95.9816
-305.729
731.345
-153.455
-540.903
272.593
-187.279
-480.791
-95.6212
-72.0129
-275.878
-183.26
28.0074
208.124
-293.892
1.3714
1250.83
-460.529
29.5239
1535.63
-8.5876
1911.51
1515.15
630.732
1731.09
1368.56
1705.75
1254.11
1637.4
1161.45
1537.69
919.494
1499.28
610.078
1473.36
207.975
1203.81
-315.331
731.266
-538.186
244.769
-462.165
-103.973
-240.816
-182.066
253.108
-292.127
1211.51
-451.125
1513.76
1942.7
1537.89
-6.74754
370.5
1899.54
-59.4068
1024.88
2075.99
-69.5532
1090.42
2164.71
-70.2562
1083.65
2160.57
-52.6668
927.277
2097.91
-23.1773
667.655
1920.12
17.3184
367.002
1514.87
55.5049
59.7287
982.355
94.5299
-46.5804
489.15
144.479
-13.2301
85.4359
89.1681
149.331
-169.603
-55.7329
522.565
-396.879
-36.2644
1445.09
-592.959
-35.2528
1711.1
9.68702
1859.57
1536.85
-7.47713
372.875
1892.23
-64.4288
1039.08
2063.99
-73.9223
1108.17
2146.46
-72.0415
1104.76
2136.49
-50.2226
948.473
2072.94
-17.3147
686.962
1902.34
28.5682
380.922
1514.42
69.8648
66.9575
1002.69
111.663
-49.3666
532.248
156.608
-25.5185
121.443
99.5015
121.241
-158.634
-42.1978
476.295
-397.832
-28.1015
1476.45
-600.742
-21.2329
1722.02
11.7779
1828.9
1539.48
-10.148
374.486
1893.15
-63.7389
1046.13
2060.75
-70.5752
1117
2138.53
-66.7346
1115.99
2124.75
-43.4693
959.988
2060.56
-10.8713
697.616
1893.23
35.3106
388.197
1513.95
76.8219
70.7947
1012.98
119.666
-50.5213
557.303
152.898
-32.7675
134.283
119.023
108.206
-168.449
-30.992
468.325
-427.316
-16.1663
1480.24
-631.418
6.71353
1732.57
-2.73832
1772.05
1538.8
-10.8153
377.067
1888.67
-57.0638
1057.18
2053.03
-64.0633
1130.41
2127.74
-59.9013
1131.49
2111.57
-37.1894
975.033
2047.93
-6.86791
711.261
1885.47
36.5192
397.985
1516.3
75.9764
75.8536
1023.9
120.523
-52.7112
565.511
150.344
-41.4511
93.4928
186.78
101.07
-216.756
-1.4401
509.303
-422.756
-72.7849
1461.89
-623.962
29.2523
1743.58
-15.6027
1792.33
1539.47
-11.9646
379.289
1886.66
-45.1179
1064.65
2046.71
-50.8521
1140.11
2117.07
-47.4769
1143.82
2097.42
-28.1084
987.639
2033.22
-3.22318
722.819
1874.49
33.0332
406.226
1514.56
67.7963
80.4594
1032.62
112.582
-53.8543
565.706
156.711
-50.1081
46.5779
306.379
100.853
-264.539
40.8524
528.814
-420.291
-191.181
1429.24
-622.342
47.6709
1745.85
-32.5923
1804.87
1537.15
-10.6071
381.496
1879.61
-27.2498
1071.8
2035.11
-31.9855
1149.81
2101.19
-30.7105
1156.38
2078.28
-17.9048
1000.46
2013.48
-1.53211
734.262
1858.41
22.9168
414.475
1509.88
48.0122
85.8025
1049.71
83.5886
-53.8496
613.826
129.787
-56.7284
208.533
303.977
87.5757
-121.46
3.2632
260.775
-421.913
-207.482
1318.93
-600.121
37.4894
1751.03
-30.758
1819
1530.06
-1.32546
383.331
1868.28
-6.79504
1075.71
2019.88
-8.71802
1155.78
2081.66
-8.72137
1165.54
2054.9
-4.88937
1010.47
1988
0.220946
742.929
1833.76
8.11454
420.252
1493.72
17.0059
89.5382
1055.01
32.2392
-52.9896
665.22
52.274
-59.9828
397.502
145.68
80.648
14.2779
-6.40984
101.814
-434.047
-107.299
1209.34
-592.816
10.4075
1754.91
-9.13588
1798.81
1527.19
9.83543
384.004
1864.05
12.6984
1075.89
2014.76
14.4926
1156.25
2075.56
14.0583
1167.01
2047.8
8.7563
1012.35
1980.05
2.27372
744.516
1825.19
-7.21534
421.212
1486.88
-16.9986
90.3307
1053.62
-25.5092
-52.4804
681.137
-45.1063
-60.8641
455.357
-70.3143
82.5977
58.6539
6.09116
52.3192
-442.864
51.1682
1153.7
-605.597
-4.69643
1756.48
15.1343
1754.69
1533.95
13.202
383.113
1872.8
33.0279
1074.68
2024.64
37.8331
1154.36
2086.65
36.1478
1163.78
2060.04
22.2357
1008.86
1993.05
4.64201
741.847
1838.76
-21.112
420.126
1498.48
-47.0014
90.1698
1061.32
-78.492
-51.6032
673.963
-126.071
-58.5604
441.826
-276.531
91.2577
60.4659
3.91161
54.9511
-415.309
202.461
1141.03
-580.04
-29.0547
1751.39
42.8724
1809.47
1538.29
13.0607
381.346
1881.56
49.9775
1070.73
2037.76
55.9196
1148.23
2104.48
52.418
1154.44
2082.05
32.4268
998.607
2017.3
6.60714
732.851
1862.31
-30.8132
414.192
1513.83
-66.6067
86.6129
1056.78
-111.148
-51.7934
627.086
-161.018
-53.9547
269.999
-338.277
98.0971
-70.3174
-31.3029
189.732
-414.699
239.578
1278.64
-588.791
-46.7178
1749.61
46.2335
1834.59
1539.95
11.6306
378.976
1887.72
61.1416
1063.33
2048.52
68.2244
1138.29
2119.65
64.1245
1141.64
2100.64
41.1809
985.583
2036.53
10.2761
721.193
1877.68
-34.0289
405.836
1516.91
-74.1658
81.3631
1034.56
-119.522
-51.2044
560.652
-148.583
-47.3236
22.7133
-202.647
114.622
-283.54
23.5013
538.645
-419.396
106.001
1424.22
-621.497
-29.5836
1748.39
22.7119
1814.86
1539.21
10.7067
376.707
1889.64
66.9499
1055.56
2054.73
73.8897
1128.3
2130.22
70.2768
1129.07
2114.71
47.055
972.817
2051.13
14.1529
709.559
1888.39
-32.6718
397.666
1518.19
-74.4551
77.0266
1024.22
-118.082
-49.6249
558.261
-144.989
-38.762
60.7889
-113.447
110.355
-243.946
39.3779
556.216
-421.801
22.0109
1473.78
-624.276
-6.7858
1745.47
4.57329
1800.9
1539.89
7.82409
374.07
1894.08
66.8215
1044.3
2062.39
76.4896
1114.7
2140.94
74.9375
1113.4
2127.85
53.354
957.638
2063.69
20.358
695.836
1895.96
-25.9468
387.931
1515.93
-67.4269
72.2807
1013.88
-109.921
-46.9539
558.382
-150.317
-28.9273
127.877
-90.4095
114.679
-174.264
45.0144
474.037
-427.263
28.1533
1485.86
-630.421
19.5558
1735.33
-11.9804
1779.05
1537.21
6.96725
372.435
1893.06
60.9969
1037.15
2065.53
71.3751
1105.79
2148.78
72.4561
1102.09
2139.52
55.2251
946.07
2075.97
25.8331
685.162
1904.88
-14.8845
380.738
1516.16
-53.1202
68.6859
1003.44
-92.6914
-45.4082
532.78
-139.093
-21.3505
119.123
-80.0363
127.411
-159.072
56.5571
474.782
-397.384
34.9711
1482.33
-599.008
33.2075
1723.6
-10.1449
1834.48
1538.33
370.045
1900.38
1022.91
2077.45
1088.05
2166.88
1081.01
2163.4
924.903
2100.69
665.889
1922.34
366.847
1516.41
61.7175
983.432
-42.2045
490.474
-8.1732
86.0093
155.342
-167.842
518.382
-396.69
1451.33
-591.533
1713.35
1864.35
1503.58
-1.90195
342.539
1738.8
-31.089
797.895
1936.94
-48.1348
899.852
2083.03
-59.2349
944.926
2126.67
-57.7121
887.741
2051.32
-41.8791
741.296
1830.67
-16.5569
578.652
1465
11.4327
409.91
1006.13
45.4396
390.185
564.865
97.2004
402.952
124.289
44.53
596.096
-216.119
-73.5177
871.866
-519.057
-66.1165
1767.04
-715.912
-30.5536
1912.76
16.9685
1806.54
1502.06
-1.22958
342.669
1737.78
-32.7451
805.016
1937.65
-50.9245
911.1
2085.07
-61.6553
959.764
2129.62
-57.6593
903.873
2057.44
-38.8801
756.139
1842.51
-10.0685
589.366
1486
19.2881
415.615
1039.01
55.1862
387.872
618.905
98.5124
393.275
169.439
47.5395
567.699
-209.506
-62.5954
844.319
-536.486
-56.0308
1793.35
-731.331
-24.006
1910.31
21.9295
1771.91
1503.92
-2.36715
342.812
1742.38
-32.9913
807.913
1942.57
-49.2985
915.188
2089.73
-58.4861
965.66
2134.04
-52.5937
910.618
2063.01
-32.794
762.56
1850.63
-3.21675
593.721
1497.46
25.9385
417.319
1054.04
62.3578
385.727
641.751
92.0961
385.936
174.208
67.1509
556.139
-231.187
-50.9439
862.07
-583.887
-23.9566
1800.87
-768.663
-8.80612
1902.15
-9.56895
1724.76
1503.25
-1.93279
343.107
1742.85
-29.1415
813.732
1944.24
-44.4208
924.152
2092.51
-52.6972
977.434
2138.03
-46.2061
923.126
2069.72
-27.1175
773.894
1861.7
1.12082
601.668
1513.64
28.599
421.246
1073.38
65.9872
383.926
653.878
90.996
379.151
141.915
129.787
550.397
-265.161
-21.3297
886.766
-556.55
-53.8936
1783.21
-747.739
10.7588
1915.2
-38.5044
1756.68
1504.51
-2.31328
343.438
1746.42
-23.6159
817.218
1947.92
-35.1998
929.402
2095.77
-41.6601
984.932
2141.11
-35.5325
931.623
2074
-19.1234
781.935
1869.11
5.01894
607.221
1524.95
29.4429
423.774
1088.6
66.1151
382.366
652.413
105.687
371.389
92.5639
234.325
556.165
-307.422
-3.5916
911.063
-547.487
-151.671
1767.09
-744.969
29.8443
1924.25
-65.4257
1761.07
1504.16
-1.43805
343.848
1746.5
-15.1833
821.025
1947.57
-22.0658
935.609
2094.69
-26.3652
993.969
2139.75
-22.1105
941.975
2073.94
-10.8931
791.839
1872.97
5.81925
614.64
1535.93
23.8917
428.399
1112.33
53.1407
382.723
696.858
96.9546
367.479
219.954
256.085
542.72
-218.265
-40.3388
735.743
-550.644
-211.505
1711.15
-730.966
21.0537
1940.14
-64.4493
1756.12
1502.52
1.79061
344.679
1743.25
-3.89677
823.689
1942.92
-5.69336
939.745
2088.39
-6.82945
1000.53
2132.21
-5.43254
949.981
2066.38
-1.77637
799.634
1867.8
4.06078
620.592
1537.8
11.0091
432.429
1128.49
24.7181
384.737
755.514
43.246
366.706
407.646
149.062
535.541
-64.9225
-34.955
569.001
-549.362
-138.391
1620.67
-715.681
3.94186
1938.34
-26.7692
1723.88
1502.09
4.73971
345.083
1741.02
8.51408
824.549
1939.83
10.769
940.984
2084.76
12.6908
1002.56
2128.26
10.9271
952.495
2062.44
6.47344
802.092
1864.46
0.630247
622.614
1537.16
-5.5625
434.203
1134.01
-10.7973
386.191
778.436
-28.8992
366.855
515.955
-44.2158
538.357
55.2022
13.8155
464.302
-552.081
60.9746
1561.62
-720.631
4.42115
1924.55
27.6364
1672.57
1504.93
3.9896
344.476
1745.99
19.1756
822.953
1945.5
26.9875
938.642
2091.01
31.9181
999.041
2134.82
27.5605
948.42
2068.92
15.8722
798.35
1870.3
-0.710377
620.084
1540.54
-18.4216
432.79
1134.93
-43.0097
386.22
767.042
-88.1604
368.59
498.437
-232.314
547.961
52.4963
46.4976
468.213
-522.483
224.251
1552.73
-699.569
-8.44864
1941.35
81.0715
1732.93
1504.91
3.35756
343.954
1747.08
27.2447
820.494
1948.17
39.5588
934.571
2095.49
46.5266
992.511
2140.73
40.5068
940.416
2075.08
23.8274
790.547
1874.55
-0.293598
614.312
1538.35
-24.8443
429.229
1118.7
-60.421
385.272
712.46
-107.421
371.548
287.87
-264.203
554.578
-154.495
26.4415
652.155
-541.321
212.27
1677.45
-720.288
-28.0872
1948.22
85.252
1774.5
1504.72
2.6728
343.512
1746.37
32.3895
816.536
1947.84
48.1539
928.22
2095.81
56.8246
983.385
2141.3
50.5508
930.049
2074.24
31.3559
780.72
1869.65
3.07162
607.064
1525.55
-24.2919
424.904
1090.34
-61.8885
385.482
648.129
-87.6528
375.116
75.2693
-150.364
573.644
-318.941
49.1296
910.169
-541.304
93.3096
1765.55
-740.47
-12.7738
1932.25
51.3551
1779.14
1503.49
2.89776
343.219
1742.82
35.6802
812.948
1944.13
52.3424
922.804
2092.41
61.8894
975.723
2138.02
56.2873
921.476
2069.65
36.5421
772.746
1861.75
6.94743
601.693
1513.55
-21.7472
422.678
1072.9
-58.3863
387.535
644.902
-80.9775
382.561
100.893
-62.1821
566.188
-293.359
65.259
934.343
-546.379
30.1741
1789.94
-743.131
11.1547
1918.3
15.2514
1775.44
1504.23
1.58251
342.93
1742.36
34.8374
807.011
1942.41
53.3079
913.692
2089.53
64.3594
963.808
2133.88
60.6866
908.887
2062.75
42.0684
761.44
1850.46
13.2765
593.899
1497.56
-15.6483
419.081
1054.19
-51.6658
389.703
643.223
-89.432
390.495
168.458
-38.2413
565.507
-234.259
73.9982
868.019
-577.967
55.5264
1804.22
-765.072
26.5797
1907.01
-21.2362
1740.8
1502.38
2.15399
342.792
1737.72
32.5706
804.079
1937.41
49.8462
909.566
2084.75
61.2264
957.882
2129.33
60.0294
902.152
2057.04
44.4323
755.089
1842.19
19.1531
589.709
1485.99
-8.37654
417.623
1039.02
-42.3332
392.234
619.328
-89.2806
398.192
167.41
-35.9378
577.029
-207.788
78.7662
845.215
-531.571
63.6908
1797.95
-726.85
32.0334
1913.43
-16.4964
1783.93
1504.05
342.657
1738.88
796.918
1936.75
898.283
2082.66
943.034
2126.25
886.053
2050.73
740.347
1830.09
579.146
1464.98
412.192
1006.79
394.867
566.793
408.852
124.451
604.544
-213.986
871.661
-514.801
1771.7
-711.004
1914.9
1817.75
1559.26
-2.20297
356.719
1647.22
-14.6103
713.689
1748.01
-24.1784
802.493
1832.26
-33.2782
864.248
1850.95
-38.2952
871.696
1771.95
-33.7456
820.008
1571.43
-20.1032
774.566
1266.29
1.53142
705.591
861.638
29.2799
780.647
475.48
78.8071
773.345
20.7395
8.33684
1068.98
-321.732
-75.1141
1225.38
-688.326
-88.7921
2145.73
-851.856
-2.52877
2073.47
47.5924
1786
1557.01
-1.68476
357.037
1644.94
-14.4071
716.891
1748.58
-24.6653
807.945
1837.2
-34.0505
871.919
1860.3
-38.2219
880.698
1786.29
-32.2777
828.681
1591.14
-16.4415
780.854
1293.03
6.01456
709.243
897.733
35.7951
776.658
533.073
72.9417
763.801
72.4014
0.32904
1036.38
-314.47
-65.1264
1221.2
-719.184
-58.368
2167.64
-869.005
-7.73913
2065.35
23.809
1789.44
1557.72
-2.41409
357.212
1647.84
-14.5432
717.937
1753
-23.9122
809.282
1843.39
-32.6022
873.825
1868.3
-35.5551
883.035
1796.24
-28.6072
830.952
1603.1
-11.6643
782.089
1306.19
10.8761
709.361
912.006
42.1097
773.599
547.734
64.9563
758.194
54.0347
23.6713
1026.5
-347.207
-65.3253
1263.51
-733.171
-22.383
2150.85
-872.129
-7.21487
2040.58
-40.2604
1789.65
1556.18
-1.86098
357.588
1646.92
-12.1307
720.583
1754.43
-20.9954
813.729
1848.2
-29.1412
880.202
1876.66
-31.364
890.478
1808.42
-24.57
838.102
1619.19
-8.02235
787.255
1325.59
13.489
712.229
932.932
47.0626
771.633
557.76
65.4624
753.817
27.5184
83.5612
1020.75
-371.225
-78.9635
1299.15
-681.162
-67.8154
2138.58
-829.951
-0.299176
2057.08
-56.916
1808.13
1556.35
-1.66727
357.862
1649.26
-9.72884
721.91
1758.52
-16.5829
815.734
1854.28
-23.1571
883.194
1884.86
-24.4572
894.134
1818.83
-18.3319
841.73
1632.01
-3.63063
789.647
1339.71
16.3665
713.192
947.776
51.511
769.856
541.503
93.0592
750.065
-43.2766
188.361
1036.15
-441.213
-113.502
1343.54
-730.8
-164.538
2153.4
-867.968
-16.6406
2077.76
-91.4473
1780.89
1555.19
0.114478
358.25
1649.23
-6.30908
723.574
1760.12
-10.5211
818.66
1857.88
-14.7375
887.789
1890.77
-15.276
899.902
1827.42
-10.8691
847.729
1644.14
-0.200134
794.488
1356.81
15.646
716.452
975.037
45.9337
770.075
586.586
100.438
748.552
42.0451
253.359
1022.27
-410.658
-155.944
1230.89
-797.642
-216.172
2149.76
-919.064
-25.5891
2070.51
-132.541
1719.78
1554.78
2.38156
358.64
1648.93
-1.47029
724.7
1760.3
-2.55774
820.418
1858.7
-3.37748
890.768
1892.63
-3.1457
903.916
1830.63
-1.32094
852.092
1649.78
3.08364
798.153
1368.64
10.1115
719.103
1001.71
25.674
771.927
668.47
53.0059
747.382
257.196
179.699
1020.47
-239.972
-89.662
999.888
-739.923
-158.238
2062.68
-861.972
-3.72552
2038.53
-61.2873
1651.87
1555.11
3.60757
358.664
1648
4.84195
725.357
1758.77