/*--------------------------------*- C++ -*----------------------------------*\
| =========                 |                                                 |
| \\      /  F ield         | OpenFOAM: The Open Source CFD Toolbox           |
|  \\    /   O peration     | Version:  4.1                                   |
|   \\  /    A nd           | Web:      www.OpenFOAM.org                      |
|    \\/     M anipulation  |                                                 |
\*---------------------------------------------------------------------------*/
FoamFile
{
    version     2.0;
    format      ascii;
    class       volVectorField;
    location    "13";
    object      U;
}
// * * * * * * * * * * * * * * * * * * * * * * * * * * * * * * * * * * * * * //

dimensions      [0 1 -1 0 0 0 0];

internalField   nonuniform List<vector> 
6750
(
(10.2545 -0.0374946 16.4512)
(-0.0839267 -0.0290571 15.9787)
(4.05108 -0.036075 11.1058)
(1.01531 -0.00353338 10.3838)
(1.78047 0.0207377 7.46698)
(0.602464 -0.0503912 6.50021)
(0.44963 0.271566 4.11561)
(-1.08418 0.714574 -10.3897)
(-5.04269 1.24397 -15.5324)
(-5.66862 0.989709 -13.5802)
(-6.06242 0.192427 -6.69606)
(-1.80737 -0.133754 4.82242)
(-1.49618 0.0655542 12.5423)
(-0.186339 -0.0313631 13.7754)
(-3.59422 0.00561016 22.7313)
(10.1268 -0.065101 16.5626)
(-0.120135 -0.054777 16.1863)
(3.98827 -0.0627447 11.5029)
(1.01754 -0.00712861 10.6752)
(1.78964 0.0282661 7.58127)
(0.649208 -0.0762849 6.49016)
(0.412386 0.568776 3.69058)
(-1.57564 0.952321 -10.2355)
(-5.14118 1.75324 -15.6113)
(-5.66893 1.38526 -14.0136)
(-6.03477 0.309195 -7.29339)
(-1.92712 -0.251901 4.69298)
(-1.43343 0.128676 13.0986)
(-0.203688 -0.0280858 14.3781)
(-3.63557 0.0147781 22.4261)
(10.0417 -0.0621408 16.6327)
(-0.143306 -0.0607091 16.3119)
(3.96081 -0.0635652 11.7272)
(1.0278 -0.0110747 10.8166)
(1.79279 0.0113838 7.65269)
(0.655463 -0.0901608 6.55478)
(0.33926 0.72529 2.99325)
(-1.90317 0.942446 -10.3171)
(-5.06692 1.66656 -15.6395)
(-5.33352 1.31372 -14.3311)
(-5.78475 0.373408 -7.87677)
(-2.13254 -0.199447 4.32371)
(-1.45732 0.124961 12.6813)
(-0.221454 0.0434343 14.8661)
(-3.72191 0.020495 21.9204)
(9.95842 -0.0606835 16.6672)
(-0.157846 -0.0797807 16.4276)
(3.94282 -0.0721126 11.9577)
(1.04586 -0.0133039 10.9638)
(1.787 0.00582239 7.73848)
(0.648074 -0.113672 6.65483)
(0.265593 0.844919 2.4386)
(-2.15734 0.984169 -10.3067)
(-5.01206 1.68593 -15.6055)
(-5.22928 1.34322 -14.377)
(-5.76254 0.610692 -7.87436)
(-2.14685 -0.0284942 4.05471)
(-1.50625 0.0908332 11.9611)
(-0.237257 0.10969 14.9345)
(-3.70091 0.0228147 22.1585)
(9.90527 -0.0468892 16.6494)
(-0.165781 -0.0964325 16.5758)
(3.92756 -0.0711954 12.1945)
(1.06239 -0.00969941 11.0991)
(1.77922 0.00452784 7.81619)
(0.638299 -0.118537 6.7435)
(0.0979369 0.863549 1.80264)
(-2.49719 0.845308 -10.3392)
(-5.01769 1.49972 -15.5563)
(-5.18546 1.25987 -14.2847)
(-6.01869 0.53884 -7.51571)
(-2.55196 -0.222123 3.58505)
(-1.56806 0.133077 11.213)
(-0.243804 0.150488 14.8081)
(-3.70888 0.0254741 22.2774)
(9.88663 -0.0279064 16.5635)
(-0.161105 -0.104025 16.7676)
(3.90726 -0.0673293 12.4731)
(1.07649 -0.00518011 11.245)
(1.76761 0.00554708 7.88689)
(0.628649 -0.114506 6.84857)
(-0.120269 0.819455 0.99319)
(-2.90416 0.647431 -10.365)
(-5.05485 1.30963 -15.4093)
(-4.85884 1.47357 -14.3015)
(-5.88076 1.17412 -8.96881)
(-4.46386 -0.117157 -1.2832)
(-1.66104 -0.201036 9.42527)
(-0.273665 0.197617 14.7797)
(-3.71784 0.0149639 22.4116)
(9.94259 -0.00699017 16.3627)
(-0.135151 -0.071799 16.9432)
(3.88011 -0.0432427 12.7596)
(1.08096 -0.00162834 11.406)
(1.75103 0.00636007 7.95302)
(0.620054 -0.0682739 6.95588)
(-0.370453 0.482712 -0.0810031)
(-3.37278 0.324184 -10.4332)
(-5.15133 0.789188 -15.3372)
(-4.04905 1.19993 -14.8181)
(-3.91122 1.45788 -11.5981)
(-2.37645 0.279434 -7.25128)
(-2.25106 -0.53648 7.12341)
(-0.17035 0.161612 14.8583)
(-3.76744 0.00297516 22.337)
(9.99025 0.00357743 16.2478)
(-0.120009 0.00972525 16.969)
(3.87148 0.00683578 12.8431)
(1.08017 0.00217828 11.4667)
(1.74219 0.00382876 7.98123)
(0.617491 0.0102709 7.00379)
(-0.484661 -0.0141621 -0.623482)
(-3.61456 -0.00457902 -10.4854)
(-5.30929 0.0199324 -15.3173)
(-3.87221 0.139766 -15.039)
(-2.78118 0.481865 -12.6096)
(-0.796979 0.372741 -9.48638)
(-2.55919 -0.207792 6.10696)
(-0.12939 0.0211126 15.0616)
(-3.83671 -0.00153034 22.0158)
(9.92883 0.0149937 16.4089)
(-0.143659 0.0830805 16.9083)
(3.88281 0.0529275 12.7163)
(1.07897 0.00673705 11.3891)
(1.75266 0.00118309 7.94743)
(0.621495 0.0874234 6.93231)
(-0.356555 -0.501791 0.0278709)
(-3.32739 -0.32815 -10.3875)
(-5.10206 -0.735828 -15.3101)
(-3.85813 -0.990804 -14.9485)
(-3.30966 -0.871314 -12.3575)
(-1.06732 0.211893 -9.26952)
(-2.39317 0.392271 6.85026)
(-0.122956 -0.138845 14.8227)
(-3.76981 -0.00172781 22.3637)
(9.88598 0.0356336 16.5933)
(-0.165258 0.106877 16.7316)
(3.90882 0.0732897 12.4327)
(1.07312 0.0110671 11.2287)
(1.7695 0.00118456 7.87878)
(0.629357 0.129399 6.82144)
(-0.0903658 -0.787629 1.12896)
(-2.82075 -0.667074 -10.3021)
(-4.93673 -1.34608 -15.3851)
(-4.48364 -1.56275 -14.5416)
(-5.29891 -1.28173 -10.1966)
(-3.7969 0.397754 -4.11279)
(-1.75966 0.346429 9.43756)
(-0.235945 -0.198214 14.7431)
(-3.72075 -0.00810167 22.4481)
(9.91101 0.0529896 16.6728)
(-0.167695 0.0971738 16.5447)
(3.92912 0.0764448 12.1545)
(1.05823 0.0155062 11.0794)
(1.78077 0.0011501 7.8047)
(0.636179 0.130442 6.71708)
(0.119968 -0.840387 1.91233)
(-2.41116 -0.870898 -10.3054)
(-4.95428 -1.56897 -15.5396)
(-5.09521 -1.39755 -14.2581)
(-6.07336 -0.82609 -7.47339)
(-2.82481 0.147655 3.04293)
(-1.60467 -0.0272838 11.2652)
(-0.241892 -0.155985 14.8269)
(-3.71609 -0.019249 22.2952)
(9.96973 0.0656205 16.6826)
(-0.158577 0.078521 16.4004)
(3.94548 0.0762209 11.9179)
(1.04166 0.0190095 10.9406)
(1.78874 -0.000617851 7.72333)
(0.643319 0.125893 6.62717)
(0.285656 -0.820154 2.53655)
(-2.06233 -1.00715 -10.2786)
(-4.93887 -1.73302 -15.598)
(-5.12212 -1.37871 -14.3881)
(-5.72224 -0.772176 -7.80442)
(-2.21511 -0.156272 4.10988)
(-1.53398 -0.0743594 12.0104)
(-0.236502 -0.116877 14.9643)
(-3.70772 -0.0192278 22.1761)
(10.0567 0.0657221 16.6427)
(-0.143028 0.0593211 16.2895)
(3.96463 0.0669396 11.6883)
(1.0235 0.0160247 10.7905)
(1.79492 -0.00695651 7.63494)
(0.65052 0.101513 6.52639)
(0.357207 -0.703285 3.06132)
(-1.82563 -0.970476 -10.3022)
(-5.01916 -1.73411 -15.617)
(-5.24405 -1.40444 -14.3319)
(-5.68282 -0.563976 -7.87848)
(-2.15077 0.0788638 4.40641)
(-1.47442 -0.114401 12.7136)
(-0.223646 -0.0507756 14.9126)
(-3.72864 -0.0183409 21.9352)
(10.1444 0.0678367 16.5684)
(-0.11895 0.053261 16.1667)
(3.99345 0.0654744 11.4637)
(1.01354 0.0116946 10.6461)
(1.79224 -0.0244011 7.56093)
(0.645786 0.0866912 6.46047)
(0.432685 -0.54627 3.7308)
(-1.50423 -0.978018 -10.2344)
(-5.10709 -1.81087 -15.5802)
(-5.61003 -1.4577 -13.9849)
(-5.97195 -0.45048 -7.2687)
(-1.93512 0.150606 4.7675)
(-1.44495 -0.130239 13.1304)
(-0.205205 0.0194743 14.4389)
(-3.64257 -0.0139478 22.433)
(10.2734 0.0387893 16.4547)
(-0.0819388 0.0282402 15.9646)
(4.05734 0.037489 11.0695)
(1.0117 0.00604745 10.3524)
(1.78366 -0.0187581 7.44479)
(0.599789 0.0563504 6.46997)
(0.470394 -0.261183 4.11409)
(-1.03844 -0.736446 -10.4089)
(-5.03204 -1.29169 -15.4832)
(-5.63052 -1.06077 -13.5055)
(-5.99717 -0.313262 -6.65014)
(-1.8042 0.0761849 4.88279)
(-1.49783 -0.0670605 12.5799)
(-0.187026 0.0259706 13.8562)
(-3.59983 -0.00542394 22.7369)
(23.1874 -0.140221 15.7502)
(8.07232 -0.179961 17.9607)
(11.2876 -0.130986 12.7109)
(8.17664 -0.0577345 11.262)
(7.40319 0.0527795 8.45523)
(6.1798 -0.019866 6.57618)
(7.17644 0.175153 3.58716)
(9.33713 0.283836 -5.69848)
(5.31742 0.792863 -12.451)
(1.26663 1.14294 -12.7668)
(-2.92138 0.326237 -9.03959)
(-2.27913 -0.19049 1.59336)
(-3.02305 0.089662 11.9936)
(0.0319872 -0.10773 14.3936)
(-9.97803 0.0190661 22.5784)
(23.0889 -0.244766 15.9117)
(7.72481 -0.280636 18.1027)
(11.0659 -0.185237 12.9345)
(7.91753 -0.0697553 11.5069)
(7.1709 0.0963038 8.58807)
(5.98872 -0.0198292 6.62944)
(6.86774 0.429927 3.53999)
(8.7835 0.50046 -5.56207)
(5.0763 1.247 -12.4011)
(1.29373 1.68913 -12.9448)
(-2.64792 0.531413 -9.46898)
(-2.55259 -0.185406 1.3172)
(-2.94179 0.170027 12.5435)
(-0.0541597 -0.123013 14.9006)
(-10.0591 0.0425912 22.252)
(23.0198 -0.247567 16.014)
(7.52947 -0.250668 18.2077)
(10.94 -0.155318 13.0895)
(7.77895 -0.0492256 11.6438)
(7.05172 0.0820686 8.66326)
(5.88417 -0.0465942 6.69055)
(6.73005 0.502157 3.43942)
(8.47713 0.489504 -5.56631)
(4.9351 1.17346 -12.3523)
(1.46638 1.60932 -12.9553)
(-2.16191 0.780386 -9.73529)
(-2.95042 -0.0168366 0.663984)
(-3.0008 0.144625 12.195)
(-0.156724 0.0416398 15.3136)
(-10.2419 0.0350859 21.7281)
(22.9286 -0.266092 16.0965)
(7.30683 -0.269192 18.2807)
(10.8226 -0.174243 13.2242)
(7.67642 -0.0530251 11.7715)
(6.95052 0.079358 8.74207)
(5.77497 -0.0754248 6.77634)
(6.52421 0.512992 3.44636)
(8.15416 0.512415 -5.45794)
(4.84387 1.23448 -12.2844)
(1.54977 1.58375 -12.9641)
(-2.1444 1.13572 -9.61852)
(-3.29843 0.239085 0.731304)
(-3.0824 0.0169648 11.5148)
(-0.145762 0.185111 15.3908)
(-10.1798 0.0190128 21.9486)
(22.8611 -0.237695 16.12)
(7.12373 -0.244209 18.3711)
(10.7142 -0.165932 13.3865)
(7.57467 -0.0419626 11.9094)
(6.8493 0.0743145 8.82088)
(5.68166 -0.0686589 6.84821)
(6.29742 0.493048 3.43611)
(7.7627 0.399561 -5.39011)
(4.66792 1.09557 -12.2244)
(1.63984 1.60755 -12.9989)
(-2.49996 1.73854 -9.27998)
(-4.0655 -0.115498 0.678189)
(-3.16941 -0.353535 10.8231)
(-0.117301 0.28593 15.2836)
(-10.1776 0.0113342 22.0612)
(22.8128 -0.185142 16.0748)
(6.95637 -0.208979 18.4583)
(10.6044 -0.165605 13.5695)
(7.47643 -0.0413694 12.0604)
(6.75736 0.0601004 8.89615)
(5.60849 -0.0521214 6.92455)
(6.15152 0.402644 3.44485)
(7.39317 0.266981 -5.33796)
(4.50551 0.896166 -12.1465)
(2.06445 1.65113 -12.9823)
(-1.25942 2.60571 -10.0284)
(-2.33801 -0.0240534 -5.7864)
(-3.60603 -0.971892 8.76751)
(0.00271834 0.391649 15.2786)
(-10.1781 -0.0139535 22.187)
(22.816 -0.0836082 15.9093)
(6.90015 -0.11442 18.4968)
(10.5271 -0.112187 13.7557)
(7.38571 -0.0321526 12.2321)
(6.67185 0.0324107 8.98262)
(5.54042 -0.0192848 7.00778)
(6.05368 0.260902 3.47804)
(7.03225 0.113503 -5.36834)
(4.1926 0.468188 -12.132)
(2.31651 1.07394 -12.9475)
(0.3091 2.09636 -10.2055)
(1.25835 0.116822 -8.59618)
(-4.5353 -0.843435 6.45129)
(0.218187 0.30209 15.3509)
(-10.2796 -0.0134221 22.1177)
(22.8367 0.0235423 15.8105)
(6.93583 0.0157344 18.4716)
(10.5227 0.0145779 13.8011)
(7.36858 0.00634447 12.2896)
(6.64716 0.00671814 9.01787)
(5.52349 0.0170959 7.04291)
(6.03478 -0.00256251 3.51192)
(6.91732 0.00797378 -5.37781)
(4.04417 0.0163407 -12.1348)
(2.23601 0.0279714 -12.9165)
(0.956167 0.397163 -10.2773)
(2.6671 0.186544 -9.06149)
(-4.88489 -0.213299 5.58297)
(0.228701 0.0502142 15.5216)
(-10.4237 0.00186569 21.7905)
(22.8196 0.119913 15.9542)
(6.90925 0.139118 18.4903)
(10.54 0.132312 13.7267)
(7.39616 0.0437755 12.211)
(6.67709 -0.0196145 8.97541)
(5.55296 0.0506024 6.99039)
(6.05611 -0.261238 3.47259)
(7.07614 -0.105069 -5.34315)
(4.26962 -0.441918 -12.11)
(2.45295 -1.02095 -12.9345)
(0.501117 -1.61377 -10.1438)
(2.48157 -0.0237054 -9.09681)
(-4.74155 0.608785 6.13136)
(0.298411 -0.235718 15.3122)
(-10.2885 0.0245558 22.1539)
(22.8245 0.207276 16.1003)
(6.97814 0.226404 18.4433)
(10.6217 0.178513 13.5412)
(7.49076 0.0542282 12.041)
(6.76788 -0.046726 8.88863)
(5.62236 0.0803534 6.90435)
(6.15362 -0.402105 3.44303)
(7.45349 -0.266507 -5.32151)
(4.5907 -0.907099 -12.1321)
(2.29136 -1.70858 -12.9734)
(-1.0857 -2.79761 -9.8118)
(-1.32227 -0.00191187 -6.76238)
(-3.87355 1.17357 8.63646)
(0.0826588 -0.391306 15.2423)
(-10.1922 0.0374701 22.2354)
(22.8782 0.253503 16.1371)
(7.15028 0.257357 18.3567)
(10.7335 0.177444 13.3589)
(7.59257 0.055884 11.8884)
(6.86545 -0.0602816 8.81077)
(5.69994 0.0952083 6.82656)
(6.31458 -0.472993 3.43771)
(7.82687 -0.398674 -5.38304)
(4.71408 -1.12618 -12.2146)
(1.7237 -1.6727 -13.0221)
(-2.72485 -2.01464 -9.04502)
(-4.41019 -0.122328 1.07288)
(-3.25385 0.589414 10.8819)
(-0.132195 -0.308294 15.3045)
(-10.1969 0.00581554 22.0811)
(22.9503 0.277144 16.104)
(7.33838 0.277822 18.2668)
(10.8448 0.183268 13.1979)
(7.6985 0.0669024 11.7492)
(6.97182 -0.0646859 8.72924)
(5.79768 0.100514 6.75139)
(6.55305 -0.486705 3.44707)
(8.22485 -0.507668 -5.45652)
(4.90038 -1.25767 -12.2757)
(1.62818 -1.54961 -12.9955)
(-2.22367 -1.2565 -9.57756)
(-3.42126 -0.613822 0.91402)
(-3.13094 0.0151127 11.5966)
(-0.14537 -0.201844 15.4139)
(-10.1988 -0.0113627 21.9685)
(23.0445 0.254904 16.0149)
(7.5649 0.256849 18.1961)
(10.9649 0.163139 13.0657)
(7.80454 0.0617194 11.6209)
(7.07724 -0.0690607 8.6487)
(5.91109 0.0675708 6.66357)
(6.76973 -0.473641 3.4325)
(8.55022 -0.484009 -5.56961)
(4.99459 -1.19866 -12.3377)
(1.53583 -1.59927 -12.9691)
(-2.07837 -0.912394 -9.76687)
(-3.01617 -0.174415 0.702861)
(-3.03853 -0.119475 12.2368)
(-0.168026 -0.0587422 15.3559)
(-10.2606 -0.0294937 21.7439)
(23.1154 0.24961 15.9079)
(7.76297 0.28489 18.0922)
(11.0932 0.192274 12.9115)
(7.94684 0.082044 11.4822)
(7.2008 -0.0830418 8.5713)
(6.02086 0.0390058 6.60034)
(6.91789 -0.398893 3.52358)
(8.85954 -0.493729 -5.57119)
(5.13148 -1.26956 -12.3863)
(1.3494 -1.68833 -12.9584)
(-2.58858 -0.601507 -9.4921)
(-2.60596 0.00753909 1.40637)
(-2.97393 -0.180899 12.5791)
(-0.0606781 0.10314 14.9546)
(-10.0783 -0.0415414 22.2606)
(23.2146 0.142331 15.7435)
(8.11121 0.181946 17.9537)
(11.3168 0.135175 12.6922)
(8.20927 0.0652823 11.238)
(7.43696 -0.0443865 8.43775)
(6.21913 0.0311366 6.54575)
(7.23464 -0.154767 3.56368)
(9.408 -0.275356 -5.7103)
(5.36234 -0.80406 -12.4294)
(1.30746 -1.13486 -12.7646)
(-2.8588 -0.366003 -9.06731)
(-2.28116 0.0785837 1.58711)
(-3.04427 -0.093757 12.0348)
(0.0308006 0.0943638 14.4633)
(-9.99358 -0.0186643 22.5862)
(27.1 -0.10355 9.89072)
(17.1217 -0.311639 17.4014)
(19.3238 -0.295225 14.8341)
(19.0816 -0.24466 13.1774)
(17.76 -0.122263 10.1225)
(16.6869 -0.0399206 6.66124)
(16.7868 0.135516 1.67233)
(16.1095 0.378291 -5.91433)
(11.2089 0.629602 -9.082)
(5.43038 0.835204 -7.63792)
(-0.166522 0.365506 -4.21224)
(-1.38851 -0.256252 2.07182)
(-4.41907 -0.0183259 12.6192)
(0.474891 -0.159428 15.9267)
(-15.6491 0.0312471 22.302)
(27.1337 -0.180852 10.0547)
(16.848 -0.474188 17.6166)
(19.0499 -0.402165 15.0322)
(18.6867 -0.310336 13.3944)
(17.2732 -0.114185 10.2965)
(16.1375 0.00529162 6.79992)
(16.173 0.305774 1.77418)
(15.6076 0.670737 -5.78713)
(11.0644 1.03943 -9.09441)
(5.59338 1.25113 -7.88234)
(0.339534 0.528174 -4.68693)
(-1.52216 -0.198132 1.57848)
(-4.34927 0.00298721 13.1119)
(0.334519 -0.185864 16.268)
(-15.727 0.0651125 21.9466)
(27.1541 -0.191141 10.1608)
(16.7293 -0.417289 17.7576)
(18.9116 -0.336031 15.1781)
(18.4661 -0.245036 13.5411)
(17.0019 -0.0724961 10.4103)
(15.8395 0.0128031 6.89018)
(15.836 0.290826 1.80668)
(15.31 0.619311 -5.72899)
(10.9608 0.980089 -9.08095)
(5.72752 1.15697 -8.00665)
(0.797082 0.662517 -4.93589)
(-1.78141 -0.0348907 1.07932)
(-4.41945 0.0638607 12.881)
(0.0580862 0.0153623 16.5807)
(-15.9291 0.0277369 21.3929)
(27.1608 -0.221064 10.2881)
(16.5329 -0.429351 17.9019)
(18.7268 -0.35701 15.3062)
(18.2371 -0.252388 13.6676)
(16.7405 -0.070271 10.5089)
(15.5481 0.00905883 6.98722)
(15.5061 0.291146 1.8857)
(15.0606 0.650227 -5.62683)
(10.9098 1.05219 -9.07313)
(5.82873 1.17727 -8.13992)
(0.803584 0.923608 -5.02197)
(-2.55622 0.137442 1.67084)
(-4.48069 0.00383306 12.3963)
(0.142557 0.181511 16.6667)
(-15.8425 -0.00694969 21.6062)
(27.1681 -0.213889 10.3712)
(16.3759 -0.347508 18.0217)
(18.5572 -0.295945 15.4406)
(18.0129 -0.200033 13.8077)
(16.4743 -0.0407703 10.616)
(15.2546 0.0120285 7.07481)
(15.1541 0.238279 1.93661)
(14.7628 0.54943 -5.54413)
(10.8051 0.963196 -9.0537)
(5.9413 1.1862 -8.23804)
(0.548167 1.61864 -4.94005)
(-3.43786 0.0810647 2.07571)
(-4.59072 -0.700963 11.8441)
(0.179358 0.321799 16.6064)
(-15.8276 -0.0299756 21.7256)
(27.17 -0.19555 10.4174)
(16.1788 -0.260913 18.1126)
(18.3468 -0.249483 15.5559)
(17.7617 -0.170972 13.9359)
(16.1897 -0.0378463 10.706)
(14.9522 -0.0018056 7.13911)
(14.7963 0.160939 1.95572)
(14.4286 0.418332 -5.48911)
(10.6955 0.815696 -9.03316)
(6.32622 1.1767 -8.35843)
(1.52407 2.23075 -5.32652)
(-0.139241 -0.00908487 -2.20528)
(-5.27733 -1.27304 9.94848)
(0.493074 0.41478 16.6154)
(-15.8309 -0.0784488 21.8667)
(27.1478 -0.107826 10.3762)
(16.008 -0.114815 18.1183)
(18.156 -0.132284 15.6273)
(17.5254 -0.0959537 14.0505)
(15.9115 -0.0227396 10.7919)
(14.6474 -0.0047789 7.18925)
(14.4244 0.0722006 1.93317)
(14.0068 0.206519 -5.50101)
(10.412 0.448881 -9.03329)
(6.50751 0.725527 -8.48605)
(2.67145 1.53561 -5.8657)
(3.27357 -0.136895 -4.50933)
(-5.96085 -0.857409 8.19465)
(0.684239 0.270499 16.6983)
(-15.937 -0.0449694 21.7742)
(27.133 0.0362485 10.3384)
(15.9788 0.0184519 18.0776)
(18.1187 0.0160424 15.6191)
(17.4743 0.01138 14.0689)
(15.8445 0.00755202 10.8103)
(14.5711 0.0110549 7.19936)
(14.3219 0.00757887 1.9221)
(13.8624 -0.00476174 -5.51423)
(10.28 0.00476208 -9.03952)
(6.47032 -0.00332524 -8.546)
(3.07573 0.24732 -6.13865)
(4.31697 0.00924626 -5.27115)
(-6.15777 -0.222761 7.61784)
(0.578576 0.0442521 16.8328)
(-16.0883 0.009475 21.4109)
(27.1645 0.151438 10.3956)
(16.0574 0.149202 18.1188)
(18.2065 0.161641 15.6178)
(17.5738 0.118145 14.0373)
(15.9591 0.0386883 10.7851)
(14.6972 0.0250561 7.18593)
(14.4734 -0.0608911 1.94872)
(14.0693 -0.214219 -5.48015)
(10.4681 -0.438575 -9.02057)
(6.60024 -0.715255 -8.49526)
(2.76215 -1.23835 -5.97912)
(4.29585 0.0476204 -5.24531)
(-6.08778 0.62379 7.83889)
(0.810984 -0.202438 16.6383)
(-15.95 0.0746902 21.8243)
(27.1797 0.211105 10.4203)
(16.2148 0.292391 18.1002)
(18.3889 0.275435 15.5388)
(17.8067 0.193583 13.9189)
(16.238 0.0563735 10.6956)
(15.0028 0.0215166 7.13093)
(14.846 -0.151827 1.96499)
(14.4901 -0.426581 -5.47558)
(10.7437 -0.822658 -9.0226)
(6.45571 -1.21753 -8.37085)
(1.62694 -2.30751 -5.47552)
(0.9695 -0.145378 -3.18714)
(-5.51457 1.48875 9.69426)
(0.609565 -0.410068 16.5708)
(-15.8513 0.125177 21.9345)
(27.1783 0.226056 10.3662)
(16.4067 0.373743 18.0051)
(18.5944 0.317112 15.4199)
(18.0575 0.220947 13.7873)
(16.5262 0.0597473 10.6015)
(15.3099 0.00740495 7.06188)
(15.2093 -0.22912 1.93894)
(14.8217 -0.556036 -5.53789)
(10.83 -0.979804 -9.04134)
(5.97672 -1.22321 -8.23035)
(0.260167 -1.73485 -4.83084)
(-3.84244 0.0626489 2.44963)
(-4.65974 0.980338 11.8647)
(0.153854 -0.342631 16.6223)
(-15.8476 0.0581118 21.7546)
(27.1714 0.228215 10.2757)
(16.5653 0.449125 17.8809)
(18.7642 0.374005 15.2837)
(18.2845 0.271648 13.6456)
(16.7969 0.0900314 10.492)
(15.609 0.0113193 6.97071)
(15.5681 -0.279422 1.88325)
(15.1211 -0.64966 -5.62296)
(10.9373 -1.05869 -9.05828)
(5.85235 -1.13512 -8.13909)
(0.607014 -0.885449 -4.97118)
(-2.82831 -0.246292 1.9828)
(-4.50607 0.035517 12.5167)
(0.144531 -0.19282 16.6765)
(-15.8642 0.0154793 21.6393)
(27.1656 0.195837 10.1435)
(16.7633 0.432224 17.7347)
(18.9496 0.34958 15.1553)
(18.5163 0.261421 13.5182)
(17.062 0.0901603 10.3917)
(15.9056 0.00514002 6.87048)
(15.9042 -0.278842 1.79932)
(15.3719 -0.616733 -5.72586)
(10.9974 -0.983384 -9.05849)
(5.75972 -1.12159 -7.99027)
(0.807082 -0.640841 -4.93006)
(-1.86437 -0.0558879 1.03159)
(-4.45597 -0.0435022 12.9339)
(0.0528325 -0.029746 16.6095)
(-15.9517 -0.0202704 21.4176)
(27.1454 0.183508 10.0343)
(16.8825 0.484884 17.5924)
(19.088 0.413416 15.0087)
(18.739 0.325558 13.3702)
(17.3363 0.132381 10.276)
(16.2096 0.0133633 6.77668)
(16.2469 -0.292092 1.7624)
(15.6704 -0.665715 -5.78464)
(11.1013 -1.03974 -9.06649)
(5.62267 -1.22905 -7.85485)
(0.340879 -0.486789 -4.66389)
(-1.57947 0.0892967 1.56544)
(-4.38287 -0.0140501 13.1616)
(0.332279 0.169256 16.3056)
(-15.7518 -0.0651358 21.963)
(27.1125 0.104599 9.86849)
(17.1559 0.316754 17.3782)
(19.3611 0.301827 14.8127)
(19.1346 0.254352 13.1543)
(17.8241 0.134575 10.1017)
(16.7639 0.0528753 6.63485)
(16.8638 -0.12449 1.65559)
(16.1697 -0.371981 -5.91265)
(11.2459 -0.62773 -9.04643)
(5.46426 -0.81773 -7.59727)
(-0.160673 -0.327835 -4.18101)
(-1.37323 0.181101 1.97371)
(-4.44738 0.0141259 12.6691)
(0.486957 0.147274 15.9733)
(-15.6731 -0.0312701 22.3194)
(27.6508 -0.0225193 4.58638)
(19.1745 -0.258266 13.2201)
(21.6437 -0.330745 13.5491)
(24.568 -0.34682 13.0641)
(24.491 -0.282219 10.7087)
(24.0481 -0.159719 7.21927)
(23.0891 0.00746133 3.08736)
(20.1 0.174746 -1.20473)
(14.1754 0.354675 -2.98924)
(8.21787 0.619742 -2.68644)
(2.42483 0.435045 -0.991003)
(0.320323 -0.297412 3.93219)
(-5.93192 -0.157934 14.5944)
(0.330925 -0.176627 18.1039)
(-20.4241 0.0277147 21.4445)
(27.6684 -0.041858 4.6389)
(19.0978 -0.389541 13.424)
(21.5536 -0.450937 13.7823)
(24.4003 -0.443865 13.3263)
(24.244 -0.318051 10.9626)
(23.7539 -0.11842 7.45407)
(22.8196 0.155976 3.2621)
(19.9706 0.40729 -1.11014)
(14.2916 0.656539 -3.02289)
(8.55909 0.947538 -2.83831)
(3.09098 0.568273 -1.3099)
(0.478645 -0.293911 3.28112)
(-5.85833 -0.223698 14.982)
(0.185219 -0.212659 18.277)
(-20.4834 0.0851323 21.0995)
(27.6774 -0.0487009 4.67301)
(19.1152 -0.347569 13.5319)
(21.5542 -0.3852 13.9145)
(24.3353 -0.367888 13.4829)
(24.1261 -0.244599 11.116)
(23.6083 -0.0682925 7.59632)
(22.6837 0.181051 3.36199)
(19.9049 0.403034 -1.04974)
(14.3404 0.629365 -3.02531)
(8.73087 0.84605 -2.90612)
(3.51993 0.572245 -1.4442)
(0.328134 -0.212533 3.04278)
(-5.9296 -0.0946844 14.9367)
(-0.449771 -0.0253071 18.4874)
(-20.5876 0.0326055 20.4854)
(27.6888 -0.0606387 4.72713)
(19.0644 -0.360171 13.6863)
(21.4947 -0.405044 14.086)
(24.2297 -0.380862 13.6668)
(23.9858 -0.244982 11.2873)
(23.4531 -0.058084 7.7568)
(22.5518 0.207117 3.48408)
(19.8652 0.446872 -0.980397)
(14.4259 0.699766 -3.04746)
(8.88973 0.858209 -3.00308)
(3.56242 0.770742 -1.5303)
(-0.669316 -0.0903914 3.63704)
(-5.98061 -0.0836288 14.6625)
(-0.316602 0.0996297 18.5933)
(-20.5076 -0.0512333 20.6924)
(27.701 -0.0629532 4.77197)
(19.0492 -0.286577 13.7956)
(21.4562 -0.319428 14.2228)
(24.1331 -0.295377 13.8291)
(23.8403 -0.174641 11.4454)
(23.2821 -0.018663 7.90208)
(22.3895 0.206586 3.59306)
(19.7847 0.414497 -0.911452)
(14.461 0.667271 -3.05246)
(9.05663 0.859667 -3.09214)
(3.39446 1.39284 -1.52358)
(-1.57436 0.0884437 3.94803)
(-6.09565 -0.781416 14.2235)
(-0.196244 0.230552 18.5956)
(-20.5299 -0.137519 20.8451)
(27.7175 -0.0709299 4.81518)
(18.98 -0.216509 13.8947)
(21.3526 -0.249928 14.349)
(23.9778 -0.236753 13.9819)
(23.6367 -0.140573 11.592)
(23.0553 -0.0176823 8.03021)
(22.1683 0.163199 3.68725)
(19.6469 0.343388 -0.845923)
(14.4889 0.588182 -3.05157)
(9.41925 0.878784 -3.17128)
(4.06275 1.94687 -1.65324)
(1.84477 0.177759 0.160201)
(-6.71989 -1.33789 12.6832)
(0.40114 0.298172 18.6001)
(-20.5762 -0.219765 21.0318)
(27.7196 -0.0445041 4.84236)
(18.8604 -0.0957749 13.9421)
(21.2011 -0.112334 14.4219)
(23.7853 -0.110739 14.0925)
(23.3907 -0.0631512 11.706)
(22.7759 -0.00164129 8.12309)
(21.8713 0.0921557 3.74491)
(19.3919 0.194522 -0.808103)
(14.3804 0.34605 -3.04761)
(9.65417 0.567985 -3.22003)
(4.93124 1.44052 -1.71064)
(5.2098 0.00593636 -1.68644)
(-7.06884 -0.970402 11.2952)
(0.573688 0.125364 18.6679)
(-20.6152 -0.116599 20.8589)
(27.721 0.0303408 4.85046)
(18.812 0.0187575 13.9363)
(21.1465 0.0161333 14.4192)
(23.7241 0.0146618 14.1031)
(23.3161 0.0101749 11.7214)
(22.6916 0.00617999 8.13446)
(21.7763 0.00127764 3.74864)
(19.2948 -0.00197338 -0.804932)
(14.3263 0.0194348 -3.04839)
(9.67516 0.0167447 -3.23691)
(5.26272 0.26968 -1.72678)
(6.07636 0.0206168 -1.88404)
(-6.89383 -0.198967 10.7312)
(0.265739 0.00882334 18.754)
(-20.6641 0.0117287 20.4025)
(27.7336 0.0747509 4.84058)
(18.9089 0.128103 13.9297)
(21.2557 0.145443 14.4064)
(23.8395 0.141518 14.074)
(23.4482 0.0863856 11.6906)
(22.834 0.0173731 8.11452)
(21.9273 -0.0844664 3.74716)
(19.4484 -0.190702 -0.798261)
(14.4297 -0.309243 -3.03154)
(9.74774 -0.522319 -3.20498)
(5.02182 -1.11102 -1.62845)
(6.04975 0.0307048 -1.84275)
(-6.85183 0.738666 10.6362)
(0.872553 -0.069606 18.5805)
(-20.6471 0.164033 20.9402)
(27.7235 0.0755046 4.81048)
(18.9967 0.245527 13.8797)
(21.3799 0.281784 14.3289)
(24.0113 0.267059 13.959)
(23.6771 0.166051 11.5717)
(23.0996 0.0369654 8.01507)
(22.2103 -0.150782 3.68439)
(19.6932 -0.336136 -0.83718)
(14.5283 -0.570499 -3.02995)
(9.54908 -0.887623 -3.14418)
(4.19731 -2.03222 -1.54062)
(3.11018 -0.262755 -0.658203)
(-6.84233 1.53408 12.2524)
(0.722366 -0.271622 18.539)
(-20.641 0.305183 21.1559)
(27.7081 0.0692855 4.76441)
(19.0569 0.312448 13.7771)
(21.4722 0.345145 14.199)
(24.158 0.320757 13.8024)
(23.8737 0.197734 11.4212)
(23.3211 0.0374744 7.88212)
(22.4252 -0.193811 3.5866)
(19.8209 -0.407408 -0.90343)
(14.4737 -0.664468 -3.02572)
(9.10011 -0.885237 -3.06181)
(3.2146 -1.60062 -1.39399)
(-1.92704 0.141557 4.16742)
(-6.14878 1.09471 14.1907)
(-0.12457 -0.241145 18.6081)
(-20.583 0.201723 20.9102)
(27.6968 0.0640755 4.71811)
(19.0723 0.380282 13.6634)
(21.5089 0.426 14.0585)
(24.2535 0.402946 13.6371)
(24.0182 0.266841 11.2607)
(23.4912 0.0776922 7.73475)
(22.586 -0.1918 3.47742)
(19.8968 -0.433638 -0.969851)
(14.4332 -0.692065 -3.01647)
(8.90264 -0.817115 -2.97626)
(3.36178 -0.759995 -1.4543)
(-1.23353 0.133566 4.18281)
(-5.97443 0.149931 14.8202)
(-0.299115 -0.0945752 18.6034)
(-20.5438 0.0697954 20.7454)
(27.6866 0.0512788 4.66283)
(19.1236 0.363288 13.5062)
(21.5669 0.401462 13.8848)
(24.3585 0.385563 13.4512)
(24.158 0.262943 11.0874)
(23.6459 0.0854406 7.57243)
(22.717 -0.166827 3.35479)
(19.9332 -0.389991 -1.03638)
(14.3538 -0.620115 -2.9892)
(8.7464 -0.803349 -2.86868)
(3.51364 -0.52185 -1.3902)
(0.207001 0.242108 3.10147)
(-5.95094 0.101942 15.0078)
(-0.412966 0.0196121 18.5059)
(-20.6214 -0.0300342 20.531)
(27.6784 0.0433988 4.62821)
(19.1059 0.401088 13.3968)
(21.5647 0.463798 13.7515)
(24.4225 0.458962 13.2934)
(24.2752 0.335157 10.9329)
(23.791 0.135748 7.42909)
(22.8516 -0.140481 3.25493)
(19.9961 -0.392521 -1.09461)
(14.3032 -0.645398 -2.9827)
(8.57213 -0.915987 -2.79769)
(3.07562 -0.516233 -1.25665)
(0.469107 0.307177 3.25278)
(-5.88252 0.215309 15.0519)
(0.237067 0.199454 18.2963)
(-20.5205 -0.0892596 21.1355)
(27.662 0.0231776 4.57539)
(19.1836 0.263996 13.1928)
(21.6537 0.338061 13.5186)
(24.5888 0.356162 13.0316)
(24.5199 0.293579 10.679)
(24.0826 0.171927 7.19378)
(23.1178 0.00414262 3.07912)
(20.1208 -0.163176 -1.187)
(14.1875 -0.34591 -2.9444)
(8.23535 -0.594609 -2.63771)
(2.42585 -0.390122 -0.940076)
(0.360258 0.282132 3.85315)
(-5.95682 0.153182 14.6614)
(0.374064 0.166555 18.1404)
(-20.4574 -0.0289788 21.4774)
(29.542 -0.00528378 3.76399)
(18.0897 -0.136612 9.76095)
(19.2288 -0.228885 10.9429)
(23.4192 -0.291207 11.3364)
(23.9677 -0.298 10.2004)
(23.8037 -0.237584 7.88643)
(22.277 -0.131657 5.26449)
(19.0119 -0.00596664 2.64774)
(13.9327 0.151901 1.95686)
(9.06161 0.426812 2.29534)
(3.07534 0.259103 4.16241)
(0.723344 -0.382724 7.70019)
(-7.46953 -0.28584 17.8983)
(-0.235744 -0.151647 20.3792)
(-24.5807 0.0386546 20.4284)
(29.5272 -0.00844647 3.76567)
(18.059 -0.199526 9.87382)
(19.2379 -0.309525 11.1117)
(23.4368 -0.374992 11.5511)
(23.9916 -0.355455 10.4264)
(23.8462 -0.244446 8.0914)
(22.3721 -0.0729813 5.41083)
(19.1831 0.107626 2.72153)
(14.233 0.325056 1.93036)
(9.4901 0.624484 2.17268)
(3.89839 0.268346 3.85721)
(0.89398 -0.413945 7.29445)
(-7.45779 -0.431543 18.2157)
(-0.699615 -0.185017 20.4584)
(-24.4927 0.16062 20.092)
(29.5131 -0.0102358 3.76803)
(18.0995 -0.177964 9.92249)
(19.3019 -0.267727 11.1803)
(23.49 -0.320187 11.6482)
(24.0395 -0.292212 10.5341)
(23.8975 -0.187833 8.1924)
(22.4451 -0.0303144 5.47941)
(19.2929 0.125415 2.75107)
(14.3784 0.316818 1.90953)
(9.675 0.511228 2.08431)
(4.2625 0.275785 3.71739)
(0.585895 -0.314562 7.33649)
(-7.5927 -0.198417 18.3495)
(-1.67998 -0.0818609 20.4886)
(-24.4164 0.059099 19.4253)
(29.5007 -0.0124495 3.7729)
(18.0883 -0.186178 10.0138)
(19.3213 -0.283208 11.3131)
(23.5146 -0.335747 11.8145)
(24.0743 -0.299374 10.704)
(23.9528 -0.183894 8.34355)
(22.5403 -0.0121515 5.58344)
(19.4466 0.15623 2.79999)
(14.5862 0.372531 1.88562)
(9.89896 0.510819 1.99166)
(4.33341 0.484343 3.64714)
(-0.232372 -0.234644 7.67365)
(-7.53947 -0.073354 18.2131)
(-1.09279 -0.019352 20.6341)
(-24.4948 -0.148737 19.6701)
(29.4896 -0.0112531 3.77913)
(18.1182 -0.145913 10.0707)
(19.3701 -0.219832 11.3974)
(23.5534 -0.259482 11.9314)
(24.1073 -0.221921 10.8322)
(23.9902 -0.1211 8.46266)
(22.5995 0.0266461 5.66482)
(19.5549 0.170487 2.83808)
(14.7285 0.379215 1.86712)
(10.1056 0.538382 1.89002)
(4.10011 1.01355 3.65013)
(-1.11291 0.0237936 7.80765)
(-7.58294 -0.546088 17.9253)
(-0.893515 0.144202 20.6853)
(-24.5391 -0.298088 19.7993)
(29.4848 -0.0129267 3.78669)
(18.1133 -0.116553 10.1299)
(19.3716 -0.173368 11.4908)
(23.5451 -0.207093 12.0618)
(24.0899 -0.176587 10.9758)
(23.9766 -0.0938608 8.59554)
(22.611 0.0285256 5.76054)
(19.6304 0.157008 2.89575)
(14.8973 0.356689 1.86847)
(10.4714 0.633408 1.82525)
(4.73588 1.55488 3.52013)
(1.26163 -0.16454 5.42443)
(-8.09136 -1.16852 16.9605)
(-0.494993 0.187423 20.791)
(-24.5431 -0.42908 19.931)
(29.49 -0.00243407 3.80084)
(18.0786 -0.0569713 10.1704)
(19.3249 -0.0774209 11.5535)
(23.4848 -0.0916408 12.1582)
(24.0097 -0.0746059 11.0886)
(23.8871 -0.0309382 8.70054)
(22.5303 0.0348172 5.83639)
(19.596 0.109605 2.94459)
(14.9725 0.236058 1.88517)
(10.7582 0.444432 1.80151)
(5.75533 1.31255 3.44224)
(4.66463 -0.263246 3.71634)
(-8.28962 -1.18971 15.8714)
(-0.210865 0.044394 20.8082)
(-24.5597 -0.280026 19.6425)
(29.5023 0.0224413 3.80803)
(18.0566 0.0152822 10.1808)
(19.2921 0.0147509 11.5675)
(23.4476 0.0167747 12.1812)
(23.967 0.0154026 11.1163)
(23.8417 0.0126599 8.72592)
(22.4874 0.0122528 5.85545)
(19.5646 0.0142947 2.96045)
(14.9901 0.042387 1.89735)
(10.8649 0.0366173 1.79818)
(6.14009 0.3979 3.48415)
(6.86936 0.00455961 2.85786)
(-7.98708 -0.310991 15.1966)
(-0.511638 0.0100464 20.7593)
(-24.4956 -0.0149517 19.1007)
(29.5014 0.0277724 3.79811)
(18.1088 0.080301 10.1592)
(19.3567 0.105448 11.537)
(23.5134 0.124118 12.137)
(24.0394 0.105771 11.0675)
(23.9164 0.0585768 8.68416)
(22.5579 -0.00651745 5.83093)
(19.6251 -0.0773332 2.94922)
(15.0036 -0.165576 1.90106)
(10.8791 -0.360035 1.81972)
(5.86004 -0.936402 3.58479)
(6.77691 0.121429 2.86748)