/*--------------------------------*- C++ -*----------------------------------*\
| =========                 |                                                 |
| \\      /  F ield         | OpenFOAM: The Open Source CFD Toolbox           |
|  \\    /   O peration     | Version:  4.1                                   |
|   \\  /    A nd           | Web:      www.OpenFOAM.org                      |
|    \\/     M anipulation  |                                                 |
\*---------------------------------------------------------------------------*/
FoamFile
{
    version     2.0;
    format      ascii;
    class       volScalarField;
    location    "9";
    object      p;
}
// * * * * * * * * * * * * * * * * * * * * * * * * * * * * * * * * * * * * * //

dimensions      [0 2 -2 0 0 0 0];

internalField   nonuniform List<scalar> 
6750
(
-601.023
-151.327
-628.287
-706.501
-697.673
-587.722
-408.34
-259.204
-176.462
-122.021
-112.5
-98.6676
-116.001
-69.079
-137.466
-598.176
-149.527
-631.379
-706.719
-698.295
-589.912
-410.987
-261.007
-177.1
-123.547
-111.539
-97.8936
-112.285
-66.1175
-136.296
-596.266
-149.095
-632.815
-706.469
-698.413
-590.589
-411.933
-261.828
-177.595
-124.811
-110.314
-97.7491
-108.157
-64.3581
-134.828
-593.615
-148.677
-635.064
-706.624
-698.992
-592.289
-414.016
-263.453
-178.335
-125.924
-108.837
-98.0737
-103.642
-61.7679
-132.839
-591.312
-148.704
-636.448
-706.445
-699.1
-593.077
-415.144
-264.489
-178.927
-126.984
-108.718
-97.3678
-99.9525
-59.3568
-130.601
-588.991
-148.865
-637.878
-706.422
-699.322
-594.043
-416.487
-265.69
-179.61
-127.924
-108.794
-96.2075
-94.3565
-57.5729
-128.282
-587.118
-149.117
-638.663
-706.234
-699.212
-594.303
-417.078
-266.35
-180.062
-128.577
-108.744
-94.5252
-89.8005
-56.7849
-126.42
-586.39
-149.296
-638.89
-706.225
-699.252
-594.503
-417.398
-266.677
-180.268
-128.746
-108.588
-93.5495
-88.9255
-56.801
-126.012
-587.222
-149.079
-638.561
-706.263
-699.241
-594.283
-417.067
-266.428
-180.221
-128.643
-108.942
-94.4079
-89.5129
-56.7896
-126.605
-589.133
-148.822
-637.73
-706.469
-699.355
-593.994
-416.493
-265.868
-179.921
-128.079
-109.228
-96.1096
-93.776
-57.6498
-128.635
-591.494
-148.671
-636.26
-706.5
-699.127
-592.986
-415.149
-264.739
-179.34
-127.187
-109.305
-97.231
-99.8532
-59.5665
-131.171
-593.82
-148.665
-634.858
-706.685
-699.009
-592.167
-414.033
-263.768
-178.805
-126.109
-109.277
-97.9781
-104.054
-62.151
-133.595
-596.491
-149.123
-632.595
-706.528
-698.406
-590.414
-411.942
-262.195
-178.128
-125.067
-110.831
-97.6664
-108.706
-64.8986
-135.762
-598.414
-149.584
-631.151
-706.779
-698.279
-589.718
-411.007
-261.417
-177.656
-123.81
-112.052
-98.0291
-112.983
-66.8237
-137.348
-601.272
-151.439
-628.055
-706.551
-697.623
-587.464
-408.348
-259.673
-177.098
-122.397
-113.068
-99.0004
-116.802
-69.9685
-138.667
-811.796
-188.923
-427.029
-559.705
-519.661
-431.416
-323.928
-231.786
-181.882
-136.59
-127.343
-105.47
-136.801
-60.185
-200.267
-808.854
-184.112
-431.266
-563.178
-523.634
-435.366
-326.653
-233.22
-182.508
-137.612
-126.054
-104.234
-131.995
-58.7828
-198.031
-807.071
-182.571
-434.149
-564.435
-525.042
-436.812
-327.728
-233.972
-183.266
-138.611
-125.456
-103.683
-127.67
-56.9349
-196.542
-804.412
-179.784
-437.411
-566.779
-527.869
-439.739
-329.861
-235.25
-184.062
-139.352
-125.034
-103.474
-123.815
-55.0993
-192.989
-802.132
-178.508
-440.165
-568.296
-529.599
-441.466
-331.13
-236.089
-184.794
-140.321
-125.489
-102.923
-120.581
-53.3281
-189.138
-799.669
-177.439
-442.564
-569.801
-531.465
-443.379
-332.598
-237.092
-185.577
-141.246
-126.482
-101.282
-117.221
-51.4776
-185.38
-797.308
-177.616
-444.215
-570.713
-532.626
-444.501
-333.456
-237.739
-186.211
-142.033
-127.519
-99.0793
-114.576
-49.2763
-183.012
-796.145
-178.087
-444.671
-570.981
-533.03
-444.929
-333.841
-238.079
-186.52
-142.298
-127.829
-97.9305
-113.935
-48.3426
-182.619
-797.32
-177.81
-444.015
-570.587
-532.468
-444.353
-333.425
-237.864
-186.432
-142.231
-127.98
-99.0697
-114.759
-49.2114
-183.456
-799.683
-177.709
-442.235
-569.572
-531.196
-443.145
-332.592
-237.354
-185.996
-141.651
-127.382
-101.418
-117.502
-51.4756
-186.193
-802.153
-178.828
-439.73
-567.96
-529.214
-441.134
-331.12
-236.45
-185.346
-140.866
-126.365
-103.312
-121.22
-53.4532
-190.337
-804.434
-180.126
-436.894
-566.354
-527.394
-439.342
-329.871
-235.7
-184.714
-140.005
-125.8
-104.055
-124.714
-55.3419
-194.525
-807.093
-182.932
-433.564
-563.917
-524.457
-436.317
-327.72
-234.474
-184.019
-139.436
-126.473
-104.35
-128.798
-57.3208
-198.368
-808.875
-184.479
-430.633
-562.602
-522.991
-434.828
-326.655
-233.765
-183.32
-138.532
-127.22
-104.965
-133.22
-59.2491
-200.086
-811.814
-189.297
-426.346
-559.037
-518.894
-430.757
-323.894
-232.364
-182.812
-137.656
-128.649
-106.408
-138.078
-60.8887
-202.545
-851.66
-247.951
-238.056
-389.375
-362.026
-313.757
-268.387
-218.093
-188.536
-147.469
-145.515
-116.131
-175.242
-40.8453
-321.665
-850.817
-245.185
-239.051
-390.786
-363.393
-315.336
-269.556
-219.12
-189.29
-148.002
-143.517
-113.566
-167.489
-41.2628
-319.571
-850.345
-244.191
-240.248
-391.507
-363.982
-316.018
-270.038
-219.687
-190.143
-148.54
-142.534
-112.276
-163.788
-38.986
-317.738
-849.635
-242.139
-241.14
-392.485
-365.009
-317.238
-270.955
-220.467
-190.754
-148.786
-141.285
-110.75
-159.718
-36.6282
-313.314
-849.105
-240.959
-242.258
-393.357
-365.757
-318.041
-271.504
-220.924
-191.244
-149.411
-141.069
-109.396
-157.24
-34.8447
-307.983
-848.564
-239.645
-243.069
-394.108
-366.473
-318.855
-272.153
-221.462
-191.715
-150.223
-141.346
-107.897
-154.32
-32.3694
-302.104
-848.117
-238.945
-243.852
-394.794
-367.052
-319.392
-272.542
-221.8
-192.101
-151.144
-141.933
-106.323
-151.533
-30.0724
-297.197
-847.761
-238.831
-244.052
-394.962
-367.212
-319.563
-272.738
-222.015
-192.318
-151.483
-142.215
-105.377
-150.358
-29.4333
-296.018
-847.8
-239.293
-243.761
-394.68
-366.961
-319.298
-272.558
-221.925
-192.316
-151.349
-142.444
-106.443
-152.006
-30.0084
-298.028
-848.208
-240.049
-242.91
-393.916
-366.327
-318.727
-272.231
-221.724
-192.131
-150.625
-142.297
-108.222
-155.123
-32.3399
-303.505
-848.731
-241.344
-242.057
-393.097
-365.552
-317.867
-271.614
-221.288
-191.817
-150.012
-142.219
-109.961
-158.529
-34.9856
-309.859
-849.238
-242.495
-240.91
-392.17
-364.76
-317.041
-271.113
-220.925
-191.449
-149.574
-142.587
-111.581
-161.288
-36.9539
-315.551
-849.928
-244.515
-239.982
-391.128
-363.663
-315.763
-270.192
-220.188
-190.936
-149.523
-144.076
-113.313
-165.447
-39.4744
-320.339
-850.387
-245.482
-238.769
-390.372
-363.043
-315.061
-269.724
-219.649
-190.128
-149.164
-145.181
-114.665
-169.028
-41.7473
-322.438
-851.22
-248.201
-237.736
-388.896
-361.585
-313.382
-268.496
-218.615
-189.448
-148.816
-147.362
-117.519
-176.587
-41.4022
-325.152
-892.073
-292.855
-199.701
-350.107
-324.992
-287.516
-264.74
-229.761
-209.836
-168.887
-175.456
-126.355
-223.801
-42.7508
-480.259
-891.605
-291.463
-199.384
-350.293
-325.488
-288.55
-265.763
-231.201
-210.531
-170.304
-173.077
-122.698
-211.049
-37.6714
-483.918
-891.296
-290.85
-199.646
-350.589
-325.786
-288.983
-266.03
-231.835
-211.266
-171.207
-171.426
-121.347
-208.023
-34.7482
-480.394
-890.826
-289.791
-199.559
-350.76
-326.173
-289.729
-266.69
-232.732
-211.656
-171.66
-169.267
-119.616
-205.025
-31.7762
-474.429
-890.438
-289.158
-199.747
-351.043
-326.518
-290.21
-266.983
-233.176
-211.929
-172.452
-168.839
-119.317
-203.962
-29.4491
-467.746
-890.033
-288.515
-199.738
-351.158
-326.764
-290.667
-267.383
-233.659
-212.219
-173.38
-169.303
-119.363
-202.647
-24.9324
-460.326
-889.719
-288.183
-199.817
-351.3
-326.966
-290.941
-267.573
-233.898
-212.438
-174.484
-170.327
-119.252
-199.39
-25.1675
-453.587
-889.503
-288.091
-199.795
-351.285
-327.001
-291.021
-267.702
-234.063
-212.599
-174.929
-170.756
-118.851
-197.33
-25.6799
-452.288
-889.458
-288.351
-199.787
-351.218
-326.909
-290.877
-267.624
-234.015
-212.681
-174.717
-170.803
-119.818
-199.715
-25.1402
-454.884
-889.628
-288.756
-199.682
-351.008
-326.656
-290.58
-267.501
-233.903
-212.689
-173.848
-170.267
-120.233
-203.45
-25.4993
-462.108
-890.012
-289.366
-199.662
-350.823
-326.348
-290.088
-267.136
-233.517
-212.595
-173.156
-170.138
-120.257
-205.175
-30.2089
-469.972
-890.379
-289.944
-199.451
-350.487
-325.953
-289.595
-266.886
-233.165
-212.482
-172.586
-170.858
-120.687
-206.281
-32.5943
-477.017
-890.811
-290.956
-199.51
-350.251
-325.487
-288.796
-266.205
-232.305
-212.216
-172.325
-173.339
-122.632
-209.223
-35.4303
-483.392
-891.093
-291.539
-199.237
-349.922
-325.148
-288.348
-265.94
-231.701
-211.527
-171.632
-175.112
-124.126
-212.005
-38.2363
-487.081
-891.54
-292.871
-199.512
-349.664
-324.537
-287.198
-264.813
-230.224
-210.889
-170.365
-177.63
-128.015
-224.553
-43.465
-483.687
-929.985
-313.877
-183.661
-324.727
-300.735
-273.164
-263.963
-244.451
-239.376
-204.778
-217.702
-155.899
-245.719
-8.10637
-761.091
-929.763
-313.297
-183.61
-325.137
-301.518
-274.298
-265.545
-246.134
-238.671
-205.808
-214.629
-154.794
-234.16
12.0472
-766.309
-929.63
-313.031
-183.804
-325.475
-301.882
-274.669
-265.99
-246.707
-238.841
-207.519
-213.092
-154.397
-231.419
14.4843
-760.775
-929.406
-312.572
-183.84
-325.817
-302.423
-275.401
-266.858
-247.594
-238.453
-207.924
-210.397
-151.211
-233.682
8.13676
-747.134
-929.229
-312.297
-183.989
-326.155
-302.811
-275.812
-267.222
-248.013
-238.201
-208.622
-209.643
-149.551
-239.327
-0.795659
-732.718
-929.033
-312.01
-184.021
-326.379
-303.129
-276.238
-267.66
-248.485
-238.043
-208.927
-209.447
-147.568
-248.902
-8.28599
-711.705
-928.88
-311.865
-184.07
-326.541
-303.334
-276.479
-267.851
-248.753
-237.911
-209.453
-210
-148.181
-249.123
-8.54819
-707.028
-928.754
-311.808
-184.049
-326.538
-303.366
-276.563
-267.97
-248.93
-237.98
-209.758
-210.375
-148.609
-247.221
-6.61799
-708.103
-928.694
-311.892
-184.037
-326.44
-303.243
-276.428
-267.876
-248.832
-238.225
-209.776
-210.581
-148.891
-249.118
-8.01241
-708.589
-928.679
-312.042
-183.962
-326.198
-302.969
-276.168
-267.723
-248.685
-238.631
-209.58
-210.511
-148.928
-248.201
-7.39097
-715.09
-928.754
-312.307
-183.899
-325.893
-302.573
-275.706
-267.293
-248.318
-239.044
-209.548
-211.125
-151.477
-238.32
1.22966
-736.877
-928.86
-312.538
-183.731
-325.494
-302.128
-275.279
-266.941
-248.014
-239.514
-209.042
-212.201
-153.429
-232.519
10.5877
-751.503
-929.027
-312.935
-183.66
-325.074
-301.5
-274.484
-266.018
-247.204
-240.11
-208.712
-215.18
-156.794
-230.43
17.102
-764.747
-929.108
-313.168
-183.46
-324.695
-301.09
-274.093
-265.544
-246.722
-240.074
-207.19
-216.889
-157.375
-232.95
15.0623
-770.293
-929.284
-313.678
-183.466
-324.2
-300.178
-272.831
-263.8
-245.055
-241.098
-206.571
-220.147
-158.955
-243.926
-4.27774
-765.967
-968.263
-327.831
-179.903
-319.304
-295.744
-273.262
-270.423
-266.945
-281.371
-262.786
-277.32
-212.299
-262.921
123
-1138.17
-968.276
-327.698
-179.998
-319.813
-296.857
-274.689
-273.148
-268.155
-277.917
-260.103
-275.321
-212.346
-259.885
133.898
-1135.61
-968.294
-327.617
-180.127
-320.144
-297.363
-275.136
-273.976
-268.021
-276.36
-261.118
-276.066
-213.804
-257.847
133.316
-1133.8
-968.275
-327.505
-180.248
-320.554
-298.122
-275.985
-275.247
-268.308
-274.252
-260.236
-274.908
-213.581
-258.389
128.427
-1126.87
-968.265
-327.429
-180.376
-320.879
-298.631
-276.449
-275.821
-268.383
-272.907
-261.101
-275.66
-214.546
-259.429
117.58
-1121.33
-968.242
-327.332
-180.451
-321.137
-299.073
-276.941
-276.415
-268.748
-272.048
-261.714
-276.528
-214.409
-264.624
99.7829
-1105.4
-968.223
-327.254
-180.499
-321.301
-299.324
-277.21
-276.719
-269.058
-271.304
-262.636
-278.382
-215.647
-264.211
97.4155
-1102.33
-968.196
-327.172
-180.483
-321.331
-299.37
-277.304
-276.869
-269.275
-271.24
-263.344
-279.357
-215.633
-264.088
100.043
-1101.55
-968.169
-327.116
-180.432
-321.229
-299.181
-277.139
-276.704
-269.157
-271.786
-263.107
-278.892
-216.202
-264.576
97.6723
-1102.26
-968.137
-327.068
-180.328
-321.001
-298.823
-276.832
-276.407
-269
-272.929
-262.626
-277.515
-215.476
-265.002
101.535
-1106.8
-968.098
-327.055
-180.204
-320.662
-298.273
-276.287
-275.797
-268.798
-274.191
-262.316
-276.848
-215.936
-260.124
119.169
-1121.63
-968.039
-327.046
-180.048
-320.267
-297.68
-275.789
-275.2
-268.916
-275.964
-261.862
-276.391
-215.291
-259.27
129.283
-1127.09
-967.976
-327.08
-179.887
-319.761
-296.807
-274.857
-273.833
-268.803
-278.527
-263.285
-277.703
-215.828
-258.851
133.419
-1133.3
-967.865
-327.14
-179.758
-319.375
-296.234
-274.367
-272.924
-269.089
-280.475
-262.671
-277.02
-214.69
-260.762
133.922
-1135.17
-967.756
-327.205
-179.616
-318.769
-294.959
-272.767
-269.927
-267.919
-284.151
-266.076
-279.123
-215.307
-263.615
124.258
-1137.76
-1006.26
-335.049
-180.479
-316.845
-289.597
-271.783
-273.08
-294.72
-336.057
-337.14
-327.847
-288.71
-333.304
162.969
-1563.8
-1006.44
-335.184
-180.72
-317.569
-291.238
-273.732
-277.42
-292.318
-326.639
-334.223
-330.028
-288.75
-331.651
165.057
-1559.99
-1006.56
-335.237
-180.858
-317.996
-291.995
-274.313
-278.808
-289.541
-323.53
-333.963
-331.763
-289.737
-330.212
164.175
-1561.67
-1006.67
-335.368
-181.074
-318.578
-293.106
-275.328
-280.723
-287.986
-318.991
-332.51
-333.969
-289.314
-330.982
170.046
-1555.74
-1006.72
-335.475
-181.235
-318.99
-293.849
-275.824
-281.699
-286.547
-315.127
-332.103
-336.713
-289.832
-330.912
169.888
-1555.85
-1006.76
-335.551
-181.37
-319.34
-294.501
-276.364
-282.557
-286.026
-312.676
-332.279
-338.771
-290.716
-334.337
165.575
-1546.58
-1006.76
-335.562
-181.452
-319.537
-294.869
-276.653
-283.079
-285.769
-310.817
-332.454
-340.522
-292.855
-334.56
160.748
-1544.56
-1006.75
-335.491
-181.465
-319.588
-294.946
-276.752
-283.289
-285.762
-310.537
-332.404
-340.519
-293.869
-335.075
157.024
-1541.26
-1006.7
-335.352
-181.405
-319.461
-294.677
-276.576
-283.012
-286.009
-311.487
-332.397
-340.609
-293.363
-335.121
157.213
-1541.19
-1006.62
-335.163
-181.286
-319.188
-294.168
-276.242
-282.453
-286.491
-313.866
-332.361
-338.883
-291.588
-334.602
160.985
-1544.56
-1006.49
-334.946
-181.107
-318.744
-293.38
-275.644
-281.539
-287.315
-316.906
-332.645
-336.885
-291.134
-331.754
164.022
-1550.45
-1006.33
-334.737
-180.916
-318.25
-292.525
-275.096
-280.48
-289.121
-321.393
-333.457
-333.961
-291.037
-331.662
162.792
-1551.73
-1006.12
-334.519
-180.649
-317.56
-291.275
-273.97
-278.423
-291.075
-326.232
-335.317
-332.072
-292.322
-331.218
156.721
-1555.87
-1005.86
-334.445
-180.505
-317.068
-290.432
-273.314
-276.938
-294.392
-330.1
-335.901
-330.363
-291.798
-332.675
157.164
-1554.59
-1005.57
-334.23
-180.208
-316.228
-288.599
-271.127
-272.252
-297.231
-340.082
-338.734
-328.763
-292.594
-334.151
155.921
-1557.68
-1052.65
-340.93
-184.898
-321.041
-289.502
-271.656
-274.912
-314.696
-358.319
-372.095
-380.498
-381.375
-432.212
109.36
-2067.68
-1052.94
-341.253
-185.287
-322.096
-291.782
-275.016
-280.3
-310.828
-351.106
-369.344
-380.906
-380.879
-431.632
109.373
-2066.77
-1053.16
-341.409
-185.467
-322.711
-292.802
-276.143
-281.642
-303.662
-344.699
-367.955
-380.631
-380.995
-431.393
108.37
-2071.43
-1053.36
-341.714
-185.787
-323.548
-294.287
-277.772
-283.82
-300.416
-338.52
-366.392
-381.519
-380.096
-430.487
112.163
-2069.14
-1053.48
-341.961
-186.002
-324.134
-295.299
-278.641
-285.17
-297.006
-332.628
-364.114
-381.488
-379.034
-428.564
114.334
-2073.34
-1053.57
-342.17
-186.196
-324.638
-296.188
-279.461
-286.298
-294.827
-328.18
-362.308
-381.225
-380.097
-430.218
116.137
-2064.78
-1053.59
-342.265
-186.306
-324.916
-296.705
-279.919
-287.051
-293.187
-324.203
-360.381
-379.739
-380.23
-429.209
111.761
-2069.24
-1053.59
-342.218
-186.335
-324.997
-296.834
-280.067
-287.295
-292.59
-322.58
-359.571
-378.188
-381.352
-433.148
106.848
-2061.16
-1053.53
-342.023
-186.258
-324.829
-296.491
-279.832
-286.981
-293.781
-324.89
-360.486
-379.739
-381.042
-432.893
103.793
-2061.53
-1053.42
-341.732
-186.108
-324.457
-295.815
-279.312
-286.166
-295.855
-329.264
-362.417
-380.901
-380.63
-431.512
107.178
-2064.13
-1053.22
-341.363
-185.864
-323.843
-294.769
-278.399
-284.969
-298.555
-334.296
-364.56
-381.777
-381.678
-431.133
103.508
-2065.77
-1052.98
-340.997
-185.613
-323.156
-293.62
-277.41
-283.527
-302.431
-340.799
-367.006
-381.684
-382.974
-432.433
99.9475
-2065.18
-1052.65
-340.589
-185.233
-322.188
-291.967
-275.58
-281.279
-306.083
-347.432
-368.597
-381.262
-384.915
-433.338
97.2019
-2064.73
-1052.29
-340.403
-185.039
-321.488
-290.823
-274.257
-279.892
-313.622
-354.148
-370.429
-381.771
-385.187
-433.244
97.4425
-2061.76
-1051.86
-339.984
-184.582
-320.29
-288.281
-270.515
-273.912
-316.289
-361.636
-373.963
-382.034
-386.361
-433.518
98.39
-2061.04
-1106.97
-346.549
-190.865
-327.962
-288.486
-266.103
-263.559
-292.551
-350.117
-375.57
-419.17
-456.485
-567.603
50.0745
-2692.75
-1107.36
-347.02
-191.416
-329.451
-291.869
-271.202
-275.533
-293.1
-344.846
-372.812
-418.521
-458.629
-570.269
59.9371
-2687.19
-1107.67
-347.27
-191.698
-330.355
-293.65
-273.365
-279.451
-286.519
-337.62
-368.352
-414.972
-453.969
-561.603
63.5655
-2706.7
-1107.95
-347.716
-192.157
-331.537
-295.91
-275.929
-283.012
-282.832
-331.163
-365.4
-414.21
-456.504
-568.916
63.4852
-2680.32
-1108.13
-348.084
-192.472
-332.378
-297.501
-277.482
-285.447
-280.362
-324.86
-360.797
-410.602
-452.677
-556.2
57.0392
-2691.47
-1108.26
-348.401
-192.755
-333.095
-298.851
-278.871
-287.362
-279.282
-320.161
-356.7
-409.509
-456.697
-560.354
58.5838
-2675.91
-1108.3
-348.563
-192.916
-333.5
-299.647
-279.744
-288.559
-278.654
-315.325
-351.745
-405.49
-452.145
-555.2
54.5993
-2687.84
-1108.3
-348.531
-192.963
-333.624
-299.856
-280.037
-288.901
-278.22
-313.331
-349.823
-405.338
-454.266
-564.663
47.9372
-2672.08
-1108.23
-348.286
-192.863
-333.398
-299.408
-279.641
-288.567
-279.579
-316.31
-352.4
-406.848
-452.856
-565.79
42.965
-2676.37
-1108.09
-347.903
-192.658
-332.881
-298.427
-278.681
-287.295
-280.713
-321.797
-357.345
-411.032
-456.355
-559.353
51.495
-2682.24
-1107.84
-347.404
-192.318
-332.037
-296.891
-277.16
-285.264
-282.155
-327.139
-361.785
-413.382
-456.895
-563.571
44.8801
-2676.49
-1107.52
-346.901
-191.959
-331.076
-295.122
-275.428
-282.609
-284.848
-334.058
-366.551
-417.004
-459.925
-569.215
47.6064
-2676.14
-1107.09
-346.338
-191.43
-329.741
-292.649
-272.589
-278.665
-288.623
-340.58
-369.659
-418.764
-460.582
-564.599
48.9949
-2690.11
-1106.63
-346.049
-191.132
-328.734
-290.707
-270.149
-274.076
-294.673
-347.731
-374.282
-422.266
-465.091
-571.609
42.8109
-2674.42
-1106.1
-345.469
-190.506
-327.085
-287.074
-264.624
-261.581
-293.016
-351.368
-377.105
-423.485
-464.354
-568.378
36.2754
-2674.25
-1173.31
-356.243
-200.029
-341.805
-295.589
-267.651
-260.457
-269.757
-328.438
-378.735
-486.267
-509.13
-744.078
29.7759
-3421.7
-1173.73
-356.799
-200.681
-343.558
-299.365
-273.744
-272.208
-277.914
-329.014
-374.823
-483.098
-505.225
-746.63
34.2217
-3414.31
-1174.08
-357.117
-201.044
-344.69
-301.555
-277.014
-277.921
-276.261
-324.501
-369.347
-479.549
-503.077
-731.117
37.8606
-3453.09
-1174.42
-357.654
-201.611
-346.176
-304.389
-280.903
-284.338
-275.866
-321.698
-365.148
-478.52
-507.094
-724.447
41.239
-3437.02
-1174.63
-358.103
-202.018
-347.271
-306.486
-283.416
-288.86
-274.74
-318.853
-359.103
-474.947
-505.268
-706.062
46.2839
-3481.16
-1174.79
-358.496
-202.383
-348.21
-308.31
-285.567
-292.765
-273.767
-318.447
-354.504
-476.84
-510.387
-734.356
38.6141
-3436.08
-1174.84
-358.709
-202.598
-348.76
-309.428
-286.936
-294.895
-271.702
-316.762
-348.232
-473.777
-502.076
-712.275
36.7142
-3481.44
-1174.85
-358.692
-202.67
-348.938
-309.748
-287.385
-295.268
-270.801
-315.832
-346.513
-477.816
-504.194
-754.821
13.2229
-3419.7
-1174.77
-358.422
-202.556
-348.668
-309.235
-286.867
-295.093
-272.654
-318.042
-349.132
-477.704
-498.726
-753.915
9.75658
-3429.29
-1174.61
-357.984
-202.306
-348.016
-307.962
-285.419
-292.906
-275.249
-320.456
-355.688
-481.364
-504.232
-733.336
35.966
-3487.96
-1174.33
-357.405
-201.888
-346.96
-305.986
-283.137
-288.898
-276.552
-321.536
-361.542
-482.249
-509.118
-729.108
35.7432
-3458.56
-1173.97
-356.818
-201.444
-345.758
-303.739
-280.436
-284.027
-277.591
-324.764
-368.122
-485.26
-510.176
-733.688
26.729
-3451.81
-1173.49
-356.161
-200.812
-344.136
-300.745
-276.325
-277.465
-277.662
-327.676
-373.422
-488.59
-512.815
-742.721
28.2695
-3451.46
-1172.98
-355.804
-200.439
-342.92
-298.451
-272.908
-271.632
-278.606
-332.023
-379.09
-491.746
-515.423
-750.66
21.0764
-3424.96
-1172.41
-355.135
-199.717
-341.032
-294.504
-266.579
-259.916
-269.593
-331.051
-383.499
-496.129
-522.272
-750.822
16.8568
-3419.6
-1251.69
-373.413
-213.9
-366.597
-318.387
-288.293
-289.859
-278.284
-366.453
-420.124
-600.764
-524.373
-985.743
-2.54799
-4346.58
-1252.09
-373.97
-214.544
-368.283
-321.759
-293.724
-298.67
-286.849
-365.977
-417.51
-600.638
-551.473
-961.157
55.6804
-4401.98
-1252.42
-374.308
-214.919
-369.415
-323.824
-296.914
-303.751
-288.326
-362.223
-412.675
-593.779
-541.125
-878.169
90.121
-4535.29
-1252.75
-374.855
-215.502
-370.941
-326.645
-301.022
-310.228
-291.254
-360.496
-410.201
-601.613
-559.232
-940.616
78.4639
-4493.08
-1252.97
-375.314
-215.929
-372.096
-328.783
-303.802
-314.747
-292.513
-357.85
-403.631
-598.656
-548.003
-895.388
51.0228
-4518.68
-1253.12
-375.715
-216.32
-373.112
-330.744
-306.417
-319.517
-294.254
-358.452
-400.496
-607.258
-567.659
-942.491
29.1017
-4366.53
-1253.18
-375.929
-216.553
-373.731
-332.01
-308.246
-322.983
-292.928
-356.25
-393.597
-601.092
-548.525
-887.998
12.9334
-4461.07
-1253.18
-375.908
-216.636
-373.941
-332.426
-308.877
-323.963
-292.155
-356.208
-391.784
-615.268
-553.292
-960.007
-3.39129
-4380.83
-1253.1
-375.628
-216.518
-373.662
-331.894
-308.263
-323.389
-293.819
-358.095
-393.499
-610.891
-542.765
-935.079
-4.98174
-4398.38
-1252.93
-375.175
-216.254
-372.964
-330.534
-306.423
-320.035
-295.645
-361.41
-401.669
-615.869
-558.117
-947.172
30.4507
-4461.35
-1252.63
-374.577
-215.817
-371.852
-328.487
-303.768
-315.421
-294.322
-361.994
-406.302
-612.512
-552.207
-945.866
58.2263
-4507.69
-1252.27
-373.974
-215.358
-370.614
-326.258
-300.869
-310.727
-292.924
-365.4
-413.883
-613.609
-560.738
-939.431
66.2393
-4546.47
-1251.78
-373.299
-214.714
-368.976
-323.347
-296.66
-304.409
-290.008
-368.043
-418.191
-608.929
-553.448
-898.847
86.3955
-4523.7
-1251.28
-372.924
-214.337
-367.787
-321.247
-293.451
-299.489
-288.388
-372.186
-423.611
-614.862
-564.202
-961.831
44.7193
-4410.58
-1250.72
-372.248
-213.628
-365.997
-317.782
-287.983
-291.026
-279.936
-373.168
-427.284
-616.659
-543.305
-982.183
0.432026
-4340.74
-1340.91
-401.861
-233.13
-403.503
-358.672
-329.443
-352.81
-329.061
-457.629
-482.759
-759.93
-605.087
-1153.44
87.6429
-5614.04
-1341.23
-402.358
-233.685
-404.893
-361.24
-333.424
-358.005
-334.443
-455.812
-477.394
-746.731
-586.028
-1136.68
155.244
-5588.44
-1341.51
-402.674
-234.014
-405.852
-362.869
-335.903
-361.555
-335.525
-452.75
-471.969
-744.728
-553.406
-1061.2
29.9648
-5882.28
-1341.79
-403.168
-234.533
-407.186
-365.231
-339.36
-366.533
-338.324
-451.447
-467.393
-761.734
-502.522
-1506.53
-219.9
-5316.47
-1341.98
-403.583
-234.918
-408.217
-367.045
-341.796
-369.937
-339.63
-449.243
-462.224
-766.991
-537.969
-1200.04
-32.7027
-5624.69
-1342.11
-403.942
-235.279
-409.156
-368.818
-344.327
-374.322
-342.278
-451.7
-459.398
-779.818
-555.781
-1275.48
-39.8803
-5518.86
-1342.16
-404.126
-235.497
-409.74
-369.993
-346.166
-378.014
-342.317
-449.672
-452.793
-766.917
-536.321
-1113.13
0.383724
-5852.54
-1342.16
-404.096
-235.583
-409.956
-370.466
-346.89
-379.89
-342.41
-452.163
-450.225
-803.81
-505.426
-1447.94
-196.947
-5474.85
-1342.08
-403.834
-235.479
-409.715
-369.997
-346.324
-378.775
-343.257
-453.152
-451.298
-795.215
-524.658
-1207.47
-14.1314
-5751.32
-1341.91
-403.414
-235.245
-409.093
-368.825
-344.586
-375.446
-343.67
-456.029
-459.202
-789.673
-521.768
-1270.35
-88.771
-5802.6
-1341.63
-402.862
-234.851
-408.098
-367.067
-342.156
-371.644
-341.703
-456.135
-464.234
-797.028
-487.555
-1466.75
-128.73
-5370.26
-1341.29
-402.31
-234.448
-407.021
-365.242
-339.709
-368.316
-340.422
-459.134
-470.405
-784.085
-491.026
-1541.93
-225.593
-5436.11
-1340.84
-401.692
-233.878
-405.61
-362.871
-336.286
-363.803
-338.145
-462.283
-478.126
-772.884
-557.028
-1154.67
-20.1176
-5858.73
-1340.39
-401.348
-233.557
-404.622
-361.262
-333.868
-360.542
-337.211
-465.886
-484.004
-771.019
-594.239
-1156.44
108.182
-5596.49
-1339.9
-400.736
-232.944
-403.156
-358.663
-329.987
-355.878
-332.399
-468.813
-491.126
-786.053
-626.8
-1168.23
68.5013
-5622.02
-1435.39
-446.663
-261.426
-456.551
-425.083
-398.287
-456.918
-412.787
-599.563
-542.654
-943.976
-516.008
-1187.9
31.4118
-7233.9
-1435.6
-447.04
-261.825
-457.548
-426.775
-400.87
-459.574
-415.902
-600.594
-542.483
-961.669
-539.944
-1382.87
73.645
-7373.63
-1435.79
-447.293
-262.063
-458.252
-427.88
-402.59
-461.797
-416.739
-598.96
-539.407
-957.339
-534.115
-1286.55
-92.5255
-7772.72
-1435.97
-447.668
-262.443
-459.254
-429.582
-405.123
-465.35
-418.862
-602.481
-535.854
-1007.87
-474.068
-1886.58
-544.388
-6642.28
-1436.09
-447.972
-262.72
-460.039
-430.878
-406.982
-467.617
-419.846
-600.351
-535.504
-982.213
-563.361
-1366.7
-76.6913
-7458.13
-1436.17
-448.219
-262.987
-460.766
-432.254
-409.033
-471.544
-422.269
-607.308
-532.678
-1020.27
-568.37
-1603.73
-27.8009
-7005.66
-1436.19
-448.308
-263.139
-461.215
-433.123
-410.452
-474.427
-423.044
-604.424
-526.865
-980.732
-527.069
-1358.21
-249.807
-7645.22
-1436.17
-448.225
-263.197
-461.385
-433.566
-411.108
-476.891
-424.339
-612.714
-520.166
-1067.01
-504.501
-1951.43
-466.152
-6738.04
-1436.08
-447.966
-263.101
-461.186
-433.196
-410.682
-475.725
-424.116
-611.8
-522.349
-1047.92
-519.12
-1836.86
-361.723
-6909.48
-1435.91
-447.59
-262.911
-460.695
-432.369
-409.394
-473.445
-423.49
-614.184
-530.611
-1025.82
-473.649
-1670.89
-317.52
-7485.79
-1435.64
-447.109
-262.591
-459.9
-431.056
-407.512
-470.616
-422.02
-612.683
-536.441
-1025.83
-558.898
-1576.68
-73.4271
-6942.97
-1435.33
-446.64
-262.28
-459.066
-429.78
-405.691
-468.655
-421.121
-615.488
-538.316
-1042.93
-464.564
-1956.79
-693.597
-6723.36
-1434.92
-446.118
-261.827
-457.972
-428.09
-403.247
-465.856
-419.877
-615.12
-546.272
-1000.01
-544.185
-1385.47
-203.751
-7677.39
-1434.53
-445.835
-261.592
-457.234
-427.017
-401.597
-464.011
-419.277
-617.619
-550.692
-1003.14
-562.951
-1453.09
-79.3811
-7308.91
-1434.11
-445.321
-261.111
-456.144
-425.287
-399.12
-462.021
-416.92
-618.793
-553.246
-992.483
-553.992
-1267.21
-67.2221
-7193.45
-1531.41
-509.35
-296.399
-521.024
-506.994
-481.873
-586.452
-523.388
-814.235
-665.539
-1396.61
-786.982
-2361.06
-548.238
-9050.2
-1531.52
-509.605
-296.626
-521.634
-507.805
-483.114
-586.444
-522.772
-807.105
-657.967
-1368.4
-742.189
-2519.76
-532.131
-8707.96
-1531.62
-509.783
-296.75
-522.07
-508.284
-483.95
-586.459
-522.16
-797.509
-650.671
-1303.61
-709.251
-2204.96
-421.419
-9129.28
-1531.72
-510.032
-296.967
-522.706
-509.188
-485.314
-587.741
-521.804
-796.67
-640.094
-1322.22
-697.153
-2193.59
-407.723
-8741.53
-1531.78
-510.221
-297.112
-523.208
-509.809
-486.337
-587.867
-521.166
-786.056
-633.005
-1235.63
-621.219
-1720.37
-268.154
-9881.04
-1531.82
-510.351
-297.265
-523.681
-510.65
-487.602
-590.637
-522.67
-795.346
-627.156
-1321.94
-657.448
-2262.69
-310.125
-8688.65
-1531.81
-510.358
-297.334
-523.964
-511.076
-488.398
-591.559
-523.269
-785.753
-617.247
-1213.98
-558.822
-1755.12
-741.917
-9954.43
-1531.77
-510.244
-297.357
-524.065
-511.428
-488.857
-594.117
-525.003
-800.549
-613.875
-1345.34
-631.606
-2499.25
-877.097
-8228.88
-1531.66
-510.008
-297.268
-523.903
-511.15
-488.55
-593.121
-524.055
-795.356
-615.668
-1299.8
-626.798
-2322.84
-843.671
-8541.65
-1531.49
-509.693
-297.136
-523.554
-510.754
-487.807
-592.868
-523.174
-803.213
-625.912
-1323.06
-642.879
-2160.48
-819.633
-9912.5
-1531.23
-509.302
-296.905
-522.984
-509.97
-486.642
-591.424
-522.295
-799.59
-633.408
-1236.46
-623.142
-1833.12
-37.3143
-9546.5
-1530.95
-508.934
-296.705
-522.412
-509.372
-485.639
-591.849
-522.879
-812.327
-641.578
-1350.87
-707.29
-2253.89
-622.015
-8888.03
-1530.59
-508.521
-296.391
-521.658
-508.482
-484.341
-591.648
-524.034
-818.654
-654.979
-1350.02
-730.962
-2259.21
-438.143
-9164.03
-1530.25
-508.308
-296.255
-521.175
-508.036
-483.551
-592.16
-524.795
-829.991
-663.775
-1419.82
-768.425
-2555.89
-588.801
-8781.08
-1529.9
-507.9
-295.923
-520.449
-507.177
-482.385
-593.11
-526.244
-842.011
-673.932
-1466.44
-815.641
-2456.9
-571.074
-9033.12
-1596.28
-609.881
-353.068
-596.956
-636.023
-608.41
-791.045
-676.385
-1128.22
-735.313
-1886.24
-645.816
-3644.64
186.819
-11045.5
-1596.3
-609.962
-353.014
-597.205
-635.736
-608.759
-787.609
-675.899
-1105.22
-739.279
-1753.98
-634.345
-3186.29
60.3157
-11178.8
-1596.32
-610.003
-352.933
-597.401
-635.41
-609.123
-785.273
-676.869
-1092.39
-746.677
-1735.81
-670.005
-3522.47
-1226.91
-12075
-1596.34
-610.039
-352.861
-597.667
-635.238
-609.657
-783.608
-677.392
-1081.11
-752.961
-1627.99
-693.948
-2580.91
-354.878
-13065.7
-1596.33
-610.019
-352.759
-597.878
-634.92
-610.055
-781.423
-677.197
-1069.91
-754.54
-1618.61
-753.674
-2446.98
363.424
-12964.3
-1596.3
-609.948
-352.682
-598.042
-634.971
-610.546
-782.605
-678.441
-1080.77
-751.794
-1717.98
-688.485
-3391.18
-312.999
-10602.6
-1596.23
-609.813
-352.57
-598.102
-634.741
-610.789
-781.276
-678.486
-1065.03
-741.128
-1584.45
-650.571
-2409.51
-591.018
-12690.9
-1596.11
-609.613
-352.481
-598.026
-634.858
-610.811
-783.819
-679.125
-1085.95
-739.419
-1755.55
-653.972
-3397.87
-684.898
-10155.1
-1595.93
-609.347
-352.342
-597.807
-634.567
-610.496
-782.807
-677.798
-1073.87
-735.262
-1649.69
-600.063
-2911.47
-640.553
-10560.4
-1595.71
-609.048
-352.237
-597.472
-634.582