/*--------------------------------*- C++ -*----------------------------------*\
| =========                 |                                                 |
| \\      /  F ield         | OpenFOAM: The Open Source CFD Toolbox           |
|  \\    /   O peration     | Version:  4.1                                   |
|   \\  /    A nd           | Web:      www.OpenFOAM.org                      |
|    \\/     M anipulation  |                                                 |
\*---------------------------------------------------------------------------*/
FoamFile
{
    version     2.0;
    format      ascii;
    class       surfaceScalarField;
    location    "9";
    object      phi;
}
// * * * * * * * * * * * * * * * * * * * * * * * * * * * * * * * * * * * * * //

dimensions      [0 3 -1 0 0 0 0];

internalField   nonuniform List<scalar> 
19125
(
734.025
-32.6097
568.646
881.589
-12.4743
1369.53
988.298
31.0167
853.09
1070.11
29.6607
243.348
1141.47
51.0451
-503.456
1090.27
84.5151
-1180.38
913.617
89.2747
-1481.67
674.084
79.4313
-1397.23
442.238
76.523
-1097.19
235.704
102.444
-696.175
46.6529
3.98554
-170.864
13.649
-8.26651
511.563
-19.0577
-48.0058
1296.13
-39.0108
-30.2385
1035.19
-6.63563
2148.77
713.742
-35.5952
590.773
859.895
-9.43548
1411.32
968.807
32.0947
876.746
1044.98
30.2047
257.369
1117.08
54.2018
-489.552
1077.53
89.8974
-1166.04
916.917
95.331
-1474.21
686.154
87.3254
-1393.61
451.957
89.3595
-1088.84
255.371
118.327
-711.846
65.0846
2.10371
-222.008
10.4453
13.2954
403.764
-16.7993
-68.0064
1333.26
-37.3588
-30.6577
1109.83
-11.5144
2129.08
707.159
-37.5944
600.817
853.677
-5.99682
1424.41
960.808
31.965
885.461
1034.52
28.9191
263.174
1107.57
52.6011
-484.292
1073.78
87.7773
-1160.35
921.519
93.8506
-1471.31
698.512
86.6814
-1392.28
474.131
89.8883
-1086.78
302.115
114.224
-739.731
104.254
21.4812
-282.47
17.5004
43.7124
206.084
-16.454
-77.7967
1281.51
-37.0722
-31.8949
1180.55
-15.3032
2088.87
697.136
-36.5923
615.624
845.743
-3.71671
1442.9
952.248
28.251
895.197
1023.9
24.4304
269.755
1099.31
45.34
-476.865
1072.13
78.4474
-1153.15
928.149
85.6162
-1468.54
711.217
80.014
-1393.16
489.033
85.6934
-1087.97
315.712
109.296
-754.493
96.6269
64.3133
-294.869
23.8494
-6.12701
65.1125
-15.9879
-83.9529
1231.18
-30.8953
-32.1476
1177.7
-16.8033
2115.84
690.27
-33.8048
626.353
839.913
-2.1946
1455.53
944.34
23.5586
903.062
1013.09
18.7984
275.357
1089.44
34.5256
-470.896
1068.1
62.562
-1146.81
932.64
70.068
-1464.98
723.191
66.3979
-1393.16
505.04
75.4176
-1089.01
332.069
99.9783
-762.757
129.399
89.9407
-309.81
24.2338
-55.3112
-28.432
-14.4389
-93.03
1170.55
-24.2986
-25.9288
1146.97
-16.1018
2133.76
681.104
-25.9254
638.308
831.823
-1.11681
1472.71
935.906
15.6495
912.542
1001.94
11.3377
280.852
1078.44
20.6017
-465.354
1062.72
40.089
-1140.62
936.355
46.5419
-1461.26
735.311
45.1446
-1393.45
525.238
55.1329
-1090.38
362.91
75.5732
-772.082
196.739
82.4373
-345.689
48.6103
-58.8832
-108.592
-12.3867
-79.8707
1037.89
-18.4868
-15.2776
1129.3
-11.7066
2151.34
672.064
-9.57041
646.062
823.361
-0.297148
1489.69
927.462
4.79431
922.517
990.142
3.35343
285.945
1064.38
6.02371
-461.502
1052.66
11.9407
-1135.65
935.76
14.0917
-1457.05
745.046
14.4297
-1392.21
547.789
20.0243
-1089.59
403.689
28.9797
-779.326
277.837
39.2482
-393.642
96.6295
-16.3065
-187.947
-11.8894
-30.7871
831.458
-16.366
-4.45915
1144.55
-3.55348
2140.29
669.124
10.7357
646.941
820.739
0.000678622
1495.29
924.471
-6.32634
926.032
985.919
-4.17543
287.562
1059.15
-7.99536
-460.912
1048.2
-17.3812
-1135.19
933.845
-20.7771
-1456.66
746.107
-18.9844
-1392.23
553.655
-20.7316
-1088.95
416.187
-25.9003
-780.096
306.996
-19.3918
-410.486
117.276
41.0949
-211.711
-14.7277
27.9155
706.722
-17.9594
4.93265
1168.57
4.70997
2112.66
673.112
26.5288
644.308
824.19
0.989359
1488.27
928.114
-16.6266
921.891
991.15
-11.9598
285.511
1065.83
-22.6135
-462.37
1053.69
-44.9861
-1137.09
935.653
-52.1669
-1458.32
744.412
-49.0575
-1393.11
548.167
-56.2649
-1090.84
404.556
-72.6575
-779.874
283.783
-68.5547
-393.295
102.4
81.8608
-189.504
-11.3161
80.5207
814.371
-15.9635
16.5773
1142.37
12.8607
2141.16
682.148
34.1799
636.19
832.695
2.2364
1471.13
936.869
-24.1653
911.701
1003.46
-19.3021
280.077
1080.38
-36.5147
-466.643
1064.35
-67.0135
-1142.32
937.265
-75.0535
-1462.6
736.299
-70.1913
-1394.62
527.803
-77.3943
-1092.52
366.78
-98.1775
-773.465
205.659
-82.6891
-344.917
54.7963
78.168
-113.323
-11.489
98.3133
1027.18
-18.1092
27.7337
1130.6
17.4347
2151.71
691.384
36.8599
624
840.892
3.89279
1453.67
945.603
-28.5961
901.948
1015.08
-24.8435
274.225
1091.81
-47.2121
-472.627
1070.19
-82.466
-1148.87
934.153
-90.1248
-1466.51
725.005
-83.8642
-1394.61
508.483
-88.4509
-1091.74
337.136
-108.796
-764.616
135.341
-59.7955
-308.064
26.278
29.2281
-31.7178
-13.7232
89.6375
1168.88
-24.2827
34.1469
1151.01
18.1958
2133.79
698.311
37.8065
613.171
846.819
6.28054
1440.83
953.756
-32.1347
893.827
1026.27
-29.2733
268.294
1102.07
-54.3108
-478.952
1074.6
-91.3163
-1155.48
929.987
-97.8326
-1470.24
713.291
-90.4587
-1394.86
492.342
-92.8817
-1091.17
319.413
-113.794
-756.006
93.1288
-11.9801
-290.267
23.6686
-29.0133
68.062
-15.5649
81.4059
1233.96
-31.2754
34.0361
1182.96
16.5456
2115.49
708.42
35.7531
598.329
854.879
9.7792
1422.08
962.552
-32.1396
883.79
1037.24
-30.4876
261.349
1110.67
-55.6649
-486.787
1076.57
-92.906
-1163.03
923.704
-98.8255
-1473.24
700.898
-90.911
-1394.37
477.219
-92.046
-1090.33
304.863
-117.675
-740.04
103.006
7.36306
-275.741
18.3589
-3.79913
214.917
-16.0454
70.4266
1284.18
-37.7405
33.23
1187.2
12.3976
2088.1
715.056
32.718
588.273
861.188
12.8382
1408.79
970.727
-30.9839
874.846
1047.97
-29.8917
255.289
1120.48
-52.2287
-492.291
1080.59
-86.9287
-1168.93
919.21
-92.119
-1476.28
688.353
-82.3782
-1396.09
454.32
-78.4394
-1092.52
256.272
-101.41
-710.06
63.7788
2.38859
-212.675
11.1207
13.4693
417.937
-16.434
49.3467
1335.22
-38.3064
32.5967
1119.58
7.23625
2127.25
735.411
566.279
883.057
1366.78
990.477
850.87
1073.45
240.884
1145.2
-506.71
1093.62
-1183.78
916.332
-1484.24
677.245
-1400.62
446.426
-1101.72
239.144
-694.823
47.2792
-162.667
14.3915
525.41
-18.5686
1297.17
-40.1016
1047.87
2146.91
1504.76
-31.9685
197.778
1969.18
-67.0569
923.555
2205.24
-5.14491
608.897
2311.11
37.6069
121.788
2231.96
63.393
-444.005
1929.26
65.9925
-896.586
1463.82
51.1997
-1030.67
988.826
59.3043
-935.647
617.894
97.6899
-743.198
348.479
103.109
-442.231
116.664
-27.2846
86.1262
53.1013
-35.7144
584.094
-51.3104
-138.728
1455.18
-109.509
-59.4328
1118.64
-25.9738
2247.26
1494.67
-35.1634
206.282
1948.55
-65.4721
955.859
2186.37
-2.52732
636.301
2295.48
41.5986
144.267
2226.79
68.3446
-425.81
1940.91
71.0559
-885.232
1490.54
55.4101
-1028.05
1015.52
64.1794
-923.469
637.905
108.693
-722.233
378.382
110.753
-459.97
144.368
-13.7404
-1.54344
55.9503
-0.824975
457.288
-32.8291
-179.745
1463.06
-97.8588
-78.9927
1194.42
-35.5607
2238.05
1493.71
-39.7155
211.491
1946.33
-60.8082
967.134
2182.06
1.98283
645.217
2291.22
43.3851
152.23
2226.04
68.313
-419.078
1946.83
70.6023
-880.689
1503.22
55.5618
-1027.85
1032.16
60.7443
-917.781
668.736
100.732
-715.392
431.602
104.756
-496.602
207.59
13.4775
-85.6803
85.8354
40.3322
286.676
-34.4563
-183.41
1405.46
-103.143
-76.8939
1247.13
-54.9256
2202.57
1488.72
-40.5812
219.276
1940.4
-53.8442
984.262
2176.98
2.63837
657.959
2288.02
39.6959
162.406
2227.73
62.8982
-411.163
1956.25
65.1563
-876.227
1519.83
51.5806
-1028.13
1048.22
54.5989
-915.405
681.23
90.5497
-710.797
436.579
104.188
-509.276
212.163
52.2123
-109.191
89.0281
31.1949
197.377
-30.8034
-189.232
1356.83
-86.2917
-78.4221
1234.72
-64.1174
2230.14
1486.45
-41.2742
225.755
1937.49
-45.1648
995.816
2172.74
3.49671
666.946
2283.95
33.5286
170.314
2227.27
53.1435
-404.459
1962.23
55.2574
-871.872
1532.9
43.3413
-1027.41
1063.25
45.1155
-914.035
692.857
78.4099
-706.478
443.874
101.301
-510.888
219.768
91.1436
-124.64
101.124
-16.2624
137.663
-20.7468
-192.744
1295.93
-62.688
-83.4652
1193.96
-56.2715
2250.31
1481.15
-36.5239
232.682
1929.45
-31.0054
1010.25
2164.36
2.60568
678.526
2276.39
22.4771
179.87
2224.46
36.3813
-396.661
1967.65
38.118
-866.673
1546.75
29.305
-1026.33
1081.21
30.7022
-913.494
713.092
57.998
-701.854
472.473
81.7948
-511.958
285.451
93.4647
-160.991
144.57
-33.7721
49.794
-8.24824
-153.23
1151.19
-44.0784
-77.7135
1159.38
-33.5512
2268.49
1470.43
-15.8639
238.012
1915.88
-10.2366
1023.47
2150.5
0.526763
689.976
2262.87
6.73037
189.326
2215.56
11.0794
-388.895
1967.69
11.1634
-860.825
1556.47
7.77246
-1024.3
1098.8
8.53826
-912.37
741.451
19.9912
-694.236
523.241
31.8945
-511.217
387.189
45.5348
-209.664
218.075
-1.74495
-50.8628
1.61794
-53.9817
948.665
-38.865
-34.0768
1141.4
-7.45405
2259.72
1463.48
15.7218
239.578
1908.95
11.5206
1028.06
2143.8
-2.17094
693.876
2256.31
-10.4475
192.236
2210.54
-17.1574
-386.909
1965.54
-19.4192
-859.61
1557.33
-16.4218
-1024.25
1102.68
-16.5481
-912.499
751.007
-26.3734
-690.917
543.943
-32.5056
-508.634
429.279
-23.3928
-226.896
253.664
40.9732
-78.8183
2.56012
64.2717
839.572
-43.1315
32.752
1147.44
13.6614
2234.99
1470.57
36.3433
236.942
1916.32
31.6528
1022.39
2150.96
-3.98084
689.057
2263.33
-25.6861
188.383
2215.47
-41.6116
-390.056
1966.16
-45.0683
-862.127
1553.43
-36.6812
-1025.34
1095.74
-38.0116
-913.957
740.389
-64.4224
-697.44
523.103
-81.7938
-513.302
394.523
-78.0502
-210.061
224.793
69.923
-48.7284
5.0281
164.649
933.758
-37.9831
79.1175
1139.01
39.6999
2261.42
1481.3
41.144
231.291
1929.79
45.4998
1008.79
2164.78
-4.62422
677.351
2276.81
-36.2771
178.638
2224.33
-57.6725
-398.1
1966.39
-61.3016
-868.144
1544.55
-49.9722
-1027.47
1079.83
-52.2011
-915.709
714.45
-85.2914
-706.271
475.174
-101.331
-514.654
297.829
-85.1151
-160.51
150.674
53.6611
50.0885
-5.97289
208.357
1140.11
-43.502
87.04
1160.2
62.3907
2269.73
1486.62
40.4601
224.225
1937.75
54.0731
993.956
2173.1
-3.49711
665.472
2284.28
-41.9909
168.762
2227
-66.81
-406.216
1960.92
-70.5327
-873.553
1530.87
-57.7116
-1028.72
1062.63
-61.7762
-916.807
695.38
-98.0026
-711.779
448.307
-104.672
-514.203
224.156
-46.9123
-122.12
103.204
1.3751
141.514
-20.0455
204.928
1295.56
-63.0924
82.9657
1198.13
69.7304
2251.1
1488.88
39.6026
217.692
1940.61
61.0225
982.151
2177.29
-2.60352
656.246
2288.29
-45.2706
160.576
2227.36
-71.64
-413.192
1954.76
-75.3011
-878.114
1517.59
-61.1569
-1029.62
1047.71
-67.9927
-918.772
683.769
-108.293
-716.936
440.556
-105.146
-512.322
207.893
-1.32491
-103.197
88.5883
-17.8208
206.558
-31.0006
195.539
1362.94
-87.5627
81.8748
1240.61
59.7384
2230.34
1493.88
35.0518
209.882
1946.53
65.6857
964.771
2182.35
2.13977
643.226
2291.41
-43.052
150.068
2225.48
-71.0577
-421.442
1945.06
-75.0932
-882.818
1500.85
-60.6301
-1029.56
1031.73
-71.3788
-921.868
670.649
-115.693
-721.852
433.853
-110.474
-497.917
206.021
26.7458
-75.9831
84.3664
17.4889
301.259
-34.7982
187.424
1411.46
-105.005
84.401
1254.88
39.5365
2202.16
1494.83
31.8684
204.66
1948.74
67.2608
953.31
2186.66
4.94311
634.122
2295.66
-38.6607
141.894
2226.18
-65.4917
-428.379
1938.93
-69.2833
-887.49
1487.67
-55.7036
-1029.94
1014.26
-65.61
-928.456
638.06
-103.469
-728.544
378.102
-102.616
-457.962
142.777
37.0311
12.3602
54.1699
47.3566
476.675
-33.7833
142.706
1467.89
-101.195
65.2709
1206.12
28.7549
2235.81
1504.94
196.224
1969.39
920.828
2205.51
606.442
2311.15
119.062
2231.04
-447.011
1926.7
-899.235
1460.41
-1033.29
987.844
-942.362
619.232
-750.306
349.419
-439.01
115.984
100.785
52.1121
603.023
-52.1994
1458.09
-114.094
1136.66
2244.13
1449
-3.12439
77.3062
1908.82
-49.8367
477.497
2162.93
-36.5743
357.579
2213.08
-17.4882
68.9548
2020.27
-7.76206
-255.21
1612.64
3.48344
-494.611
1143.66
16.8161
-568.556
779.046
74.2382
-583.919
537.549
139.95
-520.666
348.259
142.488
-266.719
197.637
-69.7425
267.772
107.803
-119.066
704.116
1.60494
-230.047
1630.64
-108.675
-36.9186
1268.58
-44.2851
2442.6
1449.03
-2.83188
77.8461
1911.11
-50.2229
494.165
2170.72
-35.7504
375.868
2228.58
-15.6307
84.5438
2043.86
-5.48864
-243.361
1644.69
5.69534
-488.278
1177.73
18.5981
-562.862
803.083
76.3832
-550.971
562.81
149.054
-491.065
391.334
145.913
-291.922
235.866
-51.2651
135.443
121.916
-96.3813
548.55
16.8938
-255.146
1593.18
-129.192
-113.97
1417.55
-55.7063
2410.53
1451.62
-4.13954
78.6938
1916.69
-48.6357
500.478
2176.98
-32.2049
381.372
2236.48
-12.1021
89.2033
2053.87
-2.44986
-239.502
1657.32
7.86688
-486.311
1191.28
18.9967
-562.215
817.202
67.4072
-534.729
601.057
132.658
-482.852
459.672
132.337
-341.644
313.744
-18.9508
27.9293
161.25
-60.5383
403.326
28.0935
-244.349
1527.82
-123.97
-143.191
1428.42
-78.8668
2391.86
1452.64
-3.98914
79.8856
1921.09
-43.903
511.072
2184.27
-28.9242
391.505
2247.5
-10.2548
97.3265
2068.89
-1.53353
-233.468
1676.35
7.2008
-483.026
1210.4
16.7764
-559.967
828.304
56.9105
-522.811
610.112
113.709
-473.658
466.449
125.998
-359.275
318.324
30.4889
-10.51
170.652
-45.2799
329.787
34.1935
-242.747
1491.69
-103.586
-150.744
1380.05
-97.2679
2426.88
1454.91
-4.54834
81.1071
1926.42
-37.7044
518.107
2190.61
-23.9358
397.77
2255.7
-7.4951
102.458
2079.41
-0.107574
-229.596
1689.5
6.20858
-480.967
1225.09
12.2742
-558.496
838.557
44.1234
-514.719
614.461
94.0386
-462.714
469.071
119.044
-358.546
329.54
76.6945
-31.3178
190.64
-32.1305
263.411
48.9495
-236.61
1431.49
-79.5867
-162.027
1333.78
-96.7086
2445.72
1456.59
-4.83287
82.3334
1929.83
-27.0128
526.322
2195.33
-16.9066
405.996
2263.25
-5.06001
109.517
2090.71
0.0374196
-224.265
1704.67
3.39614
-477.828
1241.78
5.88495
-557.042
852.115
28.0476
-507.758
626.208
67.3884
-449.298
492.135
96.2544
-355.098
385.641
84.412
-62.2172
260.931
-15.0376
157.408
81.3717
-179.922
1274.06
-52.6461
-136.725
1268.09
-72.1009
2462.35
1457
-3.92835
83.6235
1929.91
-9.64637
533.197
2195.8
-6.18213
413.361
2266.31
-2.40656
116.163
2097.77
-1.13874
-219.182
1716.06
-0.976176
-474.742
1255.28
-0.999428
-556.64
866.144
6.38059
-501.572
647.474
22.0137
-430.193
544.858
36.5044
-348.853
481.313
42.2253
-103.935
354.734
8.37375
52.3024
129.569
-57.7394
1051.65
-16.9653
-53.7995
1205.01
-21.5274
2464.7
1455.53
-0.268951
84.4234
1928.08
10.0496
535.812
2194.14
5.49118
416.136
2265.68
-0.326903
118.621
2098.67
-3.63623
-217.407
1718.39
-6.52293
-473.782
1258.14
-7.97667
-557.023
869.713
-17.4351
-500.254
655.744
-32.86
-422.077
569.077
-41.9778
-343.487
524.568
-21.5619
-118.603
395.781
33.1003
25.2391
150.066
88.1189
939.428
-8.57295
53.1075
1199.17
34.5952
2446.3
1455.49
3.00444
83.6458
1928.71
26.604
532.602
2194.79
15.7373
412.737
2264.97
2.28753
115.583
2095.58
-4.45102
-219.844
1712.57
-10.0532
-475.588
1251.2
-14.0841
-557.862
863.213
-38.4129
-504.997
646.735
-77.642
-436.182
544.337
-100.201
-352.684
485.102
-67.8064
-104.584
358.711
54.1554
56.6049
135.072
208.081
1037.43
-17.1681
141.213
1203.15
83.236
2467.45
1455.47
3.85523
82.1323
1928.52
36.9547
525.389
2194.03
22.4978
405.078
2261.48
4.82134
108.652
2088.15
-3.98593
-225.231
1701.27
-12.3259
-478.99
1238.47
-20.0328
-558.733
850.871
-54.1951
-512.327
627.703
-104.276
-456.471
493.255
-121.697
-358.713
392.106
-65.7167
-61.4548
265.118
68.1355
163.092
86.8664
265.604
1260.84
-51.8825
171.627
1268.53
106.319
2465.92
1454.14
3.55592
80.8208
1925.18
43.0447
516.831
2189.13
27.478
396.54
2253.6
7.81407
101.294
2076.51
-2.25215
-230.86
1685.94
-12.9275
-482.377
1222.02
-24.2366
-560.599
838.413
-67.1025
-520.297
617.605
-124.441
-470.808
471.986
-128.007
-362.277
332.844
-20.29
-28.4088
189.54
77.268
275.682
51.0025
268.707
1430.99
-79.7785
161.78
1338.76
105.876
2447.92
1451.87
3.82665
79.5668
1919.69
47.8114
509.565
2182.5
30.8657
390.049
2245.03
9.93096
95.9272
2065.54
-0.970068
-234.986
1672.32
-13.1186
-484.698
1207.16
-26.1821
-562.519
828.701
-77.874
-529.546
613.527
-143.585
-482.619
468.673
-133.464
-362.012
316.504
32.144
-3.46472
163.634
86.2942
350.401
33.2969
262.787
1499.19
-105.127
152.175
1388.64
86.8546
2427.19
1450.8
2.6426
78.3344
1915.1
49.5085
498.781
2174.91
34.5921
379.686
2233.6
13.7967
87.5166
2049.99
2.52307
-241.334
1652.78
-10.5057
-488.22
1188.03
-25.7726
-565.215
817.915
-87.005
-542.628
603.593
-159.661
-491.457
459.398
-145.628
-341.56
309.114
66.5679
39.8734
152.682
115.91
428.073
25.5017
265.712
1535.72
-127.129
120.234
1439.45
63.61
2389.82
1448.2
3.03262
77.4453
1909.42
49.2782
492.323
2168.45
35.6509
374.034
2225.45
16.0079
82.6806
2039.7
5.28594
-245.396
1639.7
-7.69329
-490.299
1173.78
-23.3856
-566.408
802.715
-83.9699
-560.427
562.562
-149.539
-498.515
388.746
-142.379
-287.399
231.027
83.5659
153.078
113.188
133.957
576.466
12.9556
234.604
1599.23
-134.221
42.4975
1431.03
51.6785
2405.63
1448.19
76.8859
1907.05
475.5
2160.44
355.537
2209.51
66.8189
2015.4
-257.624
1606.54
-497.024
1138.69
-573.579
778.189
-595.884
536.49
-527.877
344.92
-259.241
192.504
288.964
99.7761
730.459
-5.23164
1634.37
-117.92
1289.94
2435.41
1392.73
-1.59575
102.721
1597.06
-22.7882
280.758
1731.87
-28.1032
227.837
1722.11
-24.401
81.0558
1558.82
-13.9916
-92.6235
1293.51
8.9631
-234.751
1042.26
36.9884
-327.458
869.698
120.617
-429.588
725.28
162.002
-392.796
515.083
176.103
-72.1575
336.904
-59.0268
467.497
138.734
-198.637
945.667
145.239
-372.127
1682.78
-134.858
-120.162
1591.53
-3.33305
2711.46
1390.9
-1.51398
102.788
1599.07
-23.5872
286.798
1739.29
-28.1514
235.692
1735.31
-23.8139
87.9445
1575.78
-12.598
-85.23
1314.36
10.5464
-228.443
1062.06
38.0421
-311.619
889.062
121.37
-378.725
762.256
169.816
-372.074
606.732
173.056
-133.353
426.72
-40.5613
296.987
182.094
-185.653
780.19
57.9232
-316.422
1661.64
-278.284
-167.295
1800.89
-65.6588
2589.23
1391.46
-2.43469
102.993
1602.72
-23.8438
289.479
1744.64
-26.9092
238.212
1742.01
-21.933
89.9448
1583.2
-10.792
-82.4994
1322.65
11.439
-226.646
1069.35
35.1669
-306.041
902.665
106.18
-352.859
809.564
153.838
-373.775
700.886
152.803
-212.714
527.648
-7.61051
168.214
226.618
-137.942
656.643
86.4132
-248.842
1600.44
-259.594
-196.623
1803.75
-116.872
2571.76
1390.63
-2.46053
103.149
1605.29
-21.4285
293.998
1750.57
-24.3275
243.649
1751.26
-20.1063
94.8033
1594.63
-10.435
-77.1958
1335.73
9.46029
-222.145
1079.62
29.6814
-298.374
907.951
88.6344
-333.598
823.19
132.218
-367.28
726.696
136.597
-246.577
558.569
39.3653
110.639
235.474
-77.0374
591.976
138.546
-229.353
1569.12
-176.435
-214.398
1712.81
-137.102
2648.3
1390.82
-2.67602
103.352
1608.74
-18.2177
296.968
1756.02
-20.6
246.766
1758.36
-17.3568
97.3718
1602.46
-9.79823
-74.3348
1344.41
6.05842
-219.518
1087.87
20.7182
-292.999
912.759
68.0878
-319.06
828.16
108.405
-354.305
740.161
118.858
-252.81
594.931
76.6414
76.6345
279.203
-11.9738
514.074
179.852
-210.868
1512.35
-128.345
-217.41
1644.99
-142.502
2692.97
1390.64
-2.44147
103.518
1611.58
-12.9091
300.077
1761.25
-14.8462
250.571
1765.82
-13.1742
100.763
1611.29
-8.62534
-70.9097
1354.26
1.44853
-216.19
1096.66
9.84778
-288.574
919.242
42.9787
-305.229
838.065
76.7645
-336.482
764.589
91.1413
-253.907
661.848
77.135
40.0279
387.195
23.4299
396.655
258.006
-164.737
1357.12
-67.6458
-138.453
1514.79
-114.177
2732.79
1390.97
-2.14976
103.691
1614.38
-5.30765
302.185
1765.76
-6.10519
253.24
1771.85
-6.14183
103.042
1618.23
-5.26795
-68.9225
1361.84
-2.77239
-214.133
1102.81
-0.820554
-286.948
925.762
9.92844
-291.472
857.99
23.9682
-309.627
818.714
32.8349
-251.272
762.002
34.1335
-4.22346
529.68
24.5567
283.497
351.64
-51.6267
1116.58
-34.0316
-41.274
1493.5
-35.4229
2721.81
1390.84
-1.36869
103.906
1614.94
3.40752
303.006
1766.87
3.75548
254.34
1773.32
1.92655
104.098
1619.97
-1.2517
-68.0753
1363.73
-6.87208
-213.437
1103.93
-10.7603
-287.287
927.158
-25.9886
-287.568
866.718
-39.8416
-297.829
845.472
-42.3065
-247.102
805.558
-25.0881
-19.469
597.772
13.4694
244.111
382.835
93.4216
1009.32
-50.6988
50.5932
1540.83
56.0454
2679.08
1390.29
0.0590347
104.036
1613.43
10.8799
301.981
1764.54
12.4337
252.95
1770.03
9.17827
102.845
1615.88
2.43372
-69.3844
1359.04
-10.4827
-215.142
1100.42
-20.9648
-289.031
924.419
-58.0928
-296.897
857.151
-91.4845
-317.273
816.647
-98.8884
-255.601
759.675
-68.0521
-4.65006
532.168
11.1942
286.386
356.072
203.097
1103.85
-38.6142
155.943
1492.48
129.1
2724.04
1389.55
1.68966
103.94
1609.92
16.203
299.689
1759.34
18.1037
249.996
1763.42
13.4963
100.247
1608.65
3.80532
-71.8368
1351.54
-14.6215
-217.739
1094.81
-31.4607
-291.511
919.106
-82.6531
-312.062
838.536
-122.504
-344.884
763.313
-125.31
-257.071
661.232
-69.1132
41.6845
387.402
42.8019
405.314
262.083
245.059
1344.2
-72.2601
234.451
1524.37
155.633
2732.81
1389.97
2.03597
103.671
1607.01
19.5992
296.398
1753.92
21.8146
245.914
1755.78
16.392
96.5407
1599.72
4.67447
-75.6771
1341.69
-17.506
-221.464
1086.39
-40.0596
-296.694
913.687
-103.118
-327.135
829.842
-146.2
-363.269
739.459
-142.145
-255.061
591.373
-30.5984
81.1605
270.562
107.332
531.961
176.123
256.174
1514.32
-135.255
226.59
1658
149.918
2688.5
1390.07
2.05626
103.377
1603.74
22.2368
293.259
1748.39
24.6063
242.609
1748.39
18.5649
93.7516
1591.5
5.46585
-78.8885
1332.64
-18.8734
-224.474
1078.28
-45.3453
-302.876
909.468
-120.663
-343.194
824.475
-167.235
-376.594
723.317
-156.952
-246.051
548.094
19.8888
121.267
219.383
166.368
620.073
127.445
267.443
1579.86
-187.455
203.111
1727.02
128.019
2639.68
1390.83
1.22987
103.163
1601
22.2572
288.582
1742.14
26.179
236.972
1738.65
20.9337
88.6367
1579.49
7.84779
-84.552
1319.13
-17.4744
-229.267
1068.2
-48.2696
-311.355
904.161
-135.518
-363.74
809.156
-182.379
-381.31
693.485
-175.988
-206.856
512.402
55.7082
185.135
208.251
208.39
690.2
70.8961
328.003
1612.51
-274.173
172.038
1815.6
73.5533
2559.58
1390.23
1.44185
102.864
1597.27
21.7709
285.762
1736.64
26.5192
234.328
1731.73
22.0436
86.4808
1571.76
9.95995
-87.5376
1310.36
-15.1173
-231.263
1060.12
-46.3269
-318.111
888.957
-133.559
-391.223
758.457
-173.858
-376.541
595.462
-180.13
-120.264
409.716
74.517
320.011
164.181
214.481
815.91
41.4238
379.674
1670.31
-294.202
125.178
1813.52
8.65956
2573.36
1392.03
102.711
1595.16
279.555
1728.98
226.287
1718.07
79.3628
1553.94
-95.3462
1288.21
-238.207
1038.91
-336.327
867.905
-444.336
718.859
-395.289
501.763
-56.2144
320.701
494.33
119.646
979.393
126.267
1687.22
-152.875
1613.24
2692.08
1424.75
-1.06342
113.971
1488.63
-8.66107
220.044
1522.76
-9.95554
195.32
1486.4
-4.75132
116.232
1384.53
9.70053
3.82803
1234.22
29.3297
-93.551
1096.41
67.6061
-206.62
988.753
168.024
-343.559
870.372
153.481
-279.681
672.683
128.792
120.322
449.779
-107.901
710.061
69.8347
-216.514
1353.64
-80.1717
-459.258
1862.34
-582.932
-243.875
2140.95
52.6424
2671.04
1423.33
-0.955356
114.394
1487.64
-9.01012
222.84
1524.08
-9.84132
199.14
1490.92
-4.00017
120.354
1393.61
11.3827
10.3969
1250.85
30.6796
-87.0349
1117.28
68.3518
-178.796
1021.02
167.962
-282.408
927.28
161.944
-286.798
794.105
133.502
-4.88919
569.617
-82.1168
495.689
134.241
-221.093
1220.14
-243.556
-328.542
1908.73
-764.06
-189.886
2267.41
-65.2426
2495.35
1423.36
-1.40632
114.727
1488.89
-9.43861
224.373
1526.39
-9.80132
200.674
1494.03
-3.47163
121.771
1398.09
11.4481
13.3761
1257.36
30.2982
-85.5367
1124.78
60.4883
-165.591
1045.46
147.306
-252.888
992.167
152.843
-311.381
897.211
122.048
-106.306
680.166
-49.0076
352.148
195.079
-204.109
1124.74
-254.364
-164.979
1886.32
-785.742
-124.703
2269.95
-188.026
2450.82
1422.44
-1.41293
115.099
1488.75
-8.44645
226.694
1527.84
-8.9555
203.716
1497.56
-3.3986
125.006
1404.05
9.48159
18.2793
1266.73
26.853
-81.3824
1132.05
50.099
-153.308
1053.22
123.23
-230.695
1016.7
134.471
-312.384
940.539
105.123
-153.494
735.252
-7.94181
274.858
215.232
-147.768
1055.65
-129.694
-84.53
1833.6
-645.157
-102.751
2206.32
-243.231
2573.69
1422.14
-1.5696
115.416
1489.63
-7.25002
228.274
1529.82
-7.89778
205.522
1500.68
-3.65099
126.758
1408.16
6.3676
21.2995
1273.38
20.4603
-78.3468
1138.78
36.0072
-144.307
1058.5
95.9411
-211.489
1028.24
111.314
-300.893
968.275
84.6126
-172.337
796.674
22.6291
217.663
266.175
-68.0582
964.862
-23.5899
-47.0803
1764.67
-528.449
-104.408
2151.5
-251.46
2671.98
1421.54
-1.47931
115.754
1489.83
-5.23373
229.776
1531.1
-6.07247
207.466
1503.31
-3.88701
128.799
1412.09
2.24141
24.4335
1279.85
11.2947
-74.786
1145.57
19.3356
-137.623
1065.71
62.2849
-191.716
1043.9
79.4232
-282.784
998.688
61.6999
-185.787
881.514
26.7702
153.059
378.052
7.48009
824.578
162.476
-82.3076
1607.92
-342.573
-100.617
2016.04
-134.664
2770.05
1421.25
-1.35249
116.036
1490.37
-2.77151
230.604
1532.46
-3.40416
208.484
1505.3
-3.45051
129.755
1414.85
-2.33501
26.1044
1284.51
-0.150178
-72.3426
1150.1
1.11893
-134.325
1074.97
15.2112
-169.267
1073.89
24.4854
-253.611
1058.87
21.2867
-195.84
988.739
12.3211
80.3509
582.294
27.7087
669.713
217.499
-36.5714
1435.63
-400.36
-45.5709
2056.31
-20.5099
2717.51
1420.95
-1.01675
116.28
1490.34
-0.0482806
230.892
1532.71
-0.309614
208.868
1505.69
-2.52678
130.197
1415.58
-6.90571
26.6069
1285.93
-12.2527
-71.6889
1151.05
-16.7179
-134.576
1078.03
-37.6107
-161.728
1088.44
-43.4333
-240.317
1089.62
-30.5915
-196.413
1034.71
-7.76233
55.5224
677.359
9.06659
620.108
178.85
73.9072
1397.35
-503.183
51.8128
2125.48
48.734
2626.12
1420.97
-0.624282
116.42
1490.03
2.43878
230.431
1532.03
2.45017
208.191
1504.57
-1.7833
129.562
1413.92
-10.9538
25.312
1283.12
-22.8557
-73.7434
1148.68
-34.0818
-137.228
1073.24
-82.834
-176.237
1070.87
-97.0683
-261.266
1054.27
-69.9979
-199.603
983.263
-22.0568
80.6523
578.337
28.6628
671.715
216.295
109.832
1429.97
-406.579
110.476
2056.69
160.1
2713.47
1420.95
-0.0307751
116.428
1489.09
4.57186
229.423
1530.29
4.3815
206.862
1502.15
-1.70729
128.308
1410.8
-14.5529
23.1107
1278.13
-31.1964
-76.7327
1144.19
-50.0674
-141.581
1064.66
-115.382
-199.993
1041.37
-127.92
-290.747
994.335
-92.3038
-187.728
873.276
-16.4427
157.127
368.493
101.873
836.886
143.37
70.8802
1608.27
-366.556
111.426
2033.35
268.192
2753.77
1421.33
0.351975
116.199
1488.66
5.92249
227.72
1528.72
5.59306
204.643
1499.2
-1.61856
125.976
1406.52
-17.1173
19.5592
1271.31
-36.7312
-80.7144
1137.54
-63.7189
-149.28
1058.3
-142.271
-221.009
1026.31
-150.138
-309.061
963.237
-111.871
-172.426
782.862
17.2518
227.839
246.748
178.818
991.13
-51.214
104.534
1778.63
-557.562
108.682
2167.09
253.281
2646.38
1421.61
0.632182
115.861
1487.69
7.13072
225.966
1526.55
6.7039
202.644
1495.79
-1.11571
124.001
1402.07
-18.4527
16.1739
1264.3
-39.2954
-84.1388
1131.05
-73.9247
-159.423
1053.15
-165.628
-241.942
1012.97
-166.31
-320.245
930.695
-126.576
-149.069
712.415
62.263
294.536
185.639
233.087
1092.58
-162.755
180.159
1852.63
-672.769
127.176
2218.54
193.395
2544.94
1422.55
0.304695
115.417
1487.79
6.98443
223.486
1524.89
7.15472
199.422
1491.86
0.00373094
120.543
1395.55
-17.6362
10.9451
1254.5
-38.9241
-88.5901
1123.9
-81.6921
-172.988
1044.51
-184.868
-265.113
985.162
-172.518
-315.756
882.421
-135.141
-95.5523
651.231
98.2627
380.322
160.29
247.623
1166.6
-287.414
336.386
1903.99
-807.606
188.464
2274.5
70.2564
2420.9
1422.42
0.603934
114.963
1486.31
7.02714
221.829
1522.25
7.77028
197.773
1488.28
1.47832
118.98
1390.41
-15.0066
7.69441
1247.18
-36.5672
-90.3878
1115.08
-79.5751
-188.133
1017.64
-183.262
-295.39
916.343
-162.519
-285.245
774.434
-129.519
16.0189
537.83
124.368
530.508
101.734
238.182
1261.45
-276.508
461.238
1923.7
-786.524
239.044
2272.95
-46.0631
2460.73
1423.71
114.419
1486.93
218.876
1520.42
193.752
1482.98
114.606
1380.02
0.666954
1228.75
-97.86
1092.09
-219.068
982.665
-357.481
857.644
-273.925
650.93
148.004
418.064
748.538
40.8531
1390.21
-118.202
1875.52
-614.428
2155.61
2629.23
1451.55
0.457539
122.819
1468.67
-0.899854
203.38
1464.19
0.420091
199.222
1415.82
5.97359
161.473
1325.36
25.1047
85.259
1203.48
42.2502
15.4916
1091.99
113.043
-122.163
1012.85
218.247
-283.959
938.527
126.374
-188.4
713.775
-22.5979
373.748
245.904
-176.08
1184.23
-349.269
-227.491
1962.57
-812.278
-352.917
2335.3
-1225.65
-154.164
2570.04
42.7726
2221.95
1451.59
0.496209
123.172
1469.37
-0.976547
205.136
1466.36
0.886209
201.686
1421.13
7.05279
164.507
1337.76
27.4961
91.3775
1226.64
43.652
22.6833
1127.96
113.002
-80.0838
1071
216.725
-223.926
1023.06
128.259
-240.748
862.49
-1.96595
135.052
363.019
-132.968
952.049
-338.77
-205.041
1899.48
-918.863
-252.71
2388.61
-1264.16
-118.431
2576.97
-35.0093
2107.36
1451.85
0.176138
123.454
1470.46
-1.4295
206.217
1468.45
0.729473
202.841
1424.31
7.16391
165.797
1343.7
26.8227
94.6539
1234.97
42.5989
24.2547
1141.65
96.8658
-56.1363
1111.53
194.115
-200.16
1090.48
126.137
-288.214
959.45
10.4635
12.2927
447.604
-98.7452
829.77
-331.791
-160.856
1859.96
-990.965
-97.1607
2389.95
-1298.78
-82.2819
2541.61
-142.615
2054.55
1451.72
0.0647679
123.713
1470.81
-1.57004
207.74
1469.98
0.392322
204.878
1427.81
6.1067
168.234
1350.81
22.915
99.185
1245.92
37.9683
28.1407
1150.22
77.5958
-38.337
1124.88
164.841
-176.087
1125.2
113.549
-300.114
1029.01
15.7346
-62.577
542.95
-58.0299
720.201
-252.273
-99.7373
1789.76
-865.78
0.98883
2348.96
-1242.52
-49.2202
2549.99
-208.225
2153.79
1451.73
-0.0333465
123.862
1471.38
-1.76826
208.83
1471.48
-0.396826
206.206
1430.58
4.02177
169.749
1355.53
16.9152
102.344
1254.51
29.1378
31.5064
1158.04
55.5481
-25.7896
1131.53
130.998
-151.139
1145.13
93.6582
-294.61
1080.37
14.8767
-106.713
635.899
-17.0828
621.182
-168.72
-34.4379
1704.18
-746.14
38.3316
2304.74
-1179.41
-22.4268
2557.98
-229.863
2247.47
1451.73
-0.0738131
124.004
1471.7
-1.79134
209.834
1472.54
-1.32593
207.555
1432.84
1.18746
171.326
1359.8
9.04281
105.348
1262.62
16.4858
35.0461
1166.66
30.9111
-17.0281
1142.21
87.7779
-124.043
1169.68
66.7874
-283.389
1130.9
13.7478
-145.879
759.039
5.44693
502.388
-34.7586
11.9316
1572.01
-558.723
-32.2181
2202.44
-1029.34
-47.5281
2511.76
-110.205
2348.18
1451.78
-0.154439
124.089
1472.01
-1.77548
210.357
1473.27
-2.35534
208.26
1434.22
-2.05025
172.039
1362.77
-0.629296
107.221
1268.6
0.801518
37.5175
1173.77
3.56446
-12.1581
1160.29
23.42
-91.4273
1214.84
20.6205
-261.999
1207.5
4.69679
-179.444
900.546
4.76975
387.976
119.069
20.6975
1442.42
-600.079
-28.6208
2151.19
-1084.46
-31.1052