/*--------------------------------*- C++ -*----------------------------------*\
| =========                 |                                                 |
| \\      /  F ield         | OpenFOAM: The Open Source CFD Toolbox           |
|  \\    /   O peration     | Version:  4.1                                   |
|   \\  /    A nd           | Web:      www.OpenFOAM.org                      |
|    \\/     M anipulation  |                                                 |
\*---------------------------------------------------------------------------*/
FoamFile
{
    version     2.0;
    format      ascii;
    class       volVectorField;
    location    "9";
    object      U;
}
// * * * * * * * * * * * * * * * * * * * * * * * * * * * * * * * * * * * * * //

dimensions      [0 1 -1 0 0 0 0];

internalField   nonuniform List<vector> 
6750
(
(17.8996 -0.129741 6.94284)
(5.8864 -0.0570895 17.0926)
(11.486 0.129959 10.4609)
(11.3079 0.140447 3.14496)
(12.7049 0.237428 -5.45272)
(13.1834 0.385567 -14.072)
(11.6104 0.406315 -18.6449)
(9.05519 0.358201 -18.2911)
(6.02976 0.343692 -14.7514)
(4.04747 0.454024 -9.80728)
(0.959901 0.0834135 -4.01483)
(0.34125 -0.0477131 5.40942)
(-0.384422 -0.170628 14.0298)
(0.467768 -0.124424 11.2658)
(-2.20437 -0.0199562 23.8539)
(17.576 -0.210987 7.32613)
(5.54951 -0.072306 17.6133)
(11.3401 0.197701 10.6499)
(11.039 0.188119 3.19156)
(12.3895 0.32821 -5.37812)
(12.9524 0.54508 -13.9325)
(11.5633 0.576295 -18.5353)
(9.18066 0.520006 -18.2623)
(6.18313 0.512018 -14.7216)
(4.09019 0.680684 -9.9698)
(1.41269 -0.0186221 -4.46882)
(0.28629 -0.0252662 4.21945)
(-0.409589 -0.353601 14.5151)
(0.505602 -0.190528 12.2282)
(-2.18542 -0.05213 23.5994)
(17.4317 -0.200502 7.48556)
(5.45837 -0.0382239 17.7669)
(11.2915 0.174557 10.7184)
(10.9207 0.158707 3.21302)
(12.2625 0.289515 -5.36184)
(12.8656 0.480359 -13.8874)
(11.5659 0.510365 -18.4929)
(9.28093 0.472165 -18.2558)
(6.36479 0.496085 -14.7255)
(4.37838 0.651775 -10.2366)
(2.24646 0.0441188 -5.02113)
(0.405289 0.180669 1.76995)
(-0.472694 -0.412114 13.973)
(0.540493 -0.165583 13.0147)
(-2.194 -0.0781809 23.1516)
(17.2192 -0.215041 7.71748)
(5.32814 -0.0276271 17.9811)
(11.2433 0.1776 10.7833)
(10.7948 0.160961 3.2341)
(12.1388 0.294726 -5.31459)
(12.802 0.49629 -13.8128)
(11.5939 0.534783 -18.445)
(9.40246 0.495197 -18.2659)
(6.53449 0.512587 -14.7673)
(4.52256 0.634809 -10.4296)
(2.46997 0.232668 -5.13659)
(0.303094 0.215389 -0.429373)
(-0.556279 -0.457994 13.385)
(0.619005 -0.187656 13.0601)
(-2.11863 -0.093182 23.4294)
(17.0664 -0.198834 7.87855)
(5.24491 -0.015091 18.1242)
(11.1976 0.144393 10.8407)
(10.6751 0.117936 3.25528)
(12.0052 0.220363 -5.28091)
(12.7151 0.392372 -13.7517)
(11.5928 0.434198 -18.3925)
(9.50474 0.408998 -18.2608)
(6.70543 0.45322 -14.8019)
(4.69903 0.594133 -10.5695)
(2.67068 0.464999 -5.32445)
(0.605598 -0.225801 -1.88784)
(-0.610323 -0.50178 12.6871)
(0.706357 -0.171479 12.8456)
(-2.05132 -0.0954091 23.5974)
(16.8941 -0.178295 8.06016)
(5.12787 -0.00963421 18.322)
(11.1377 0.117604 10.9091)
(10.5557 0.0910744 3.26786)
(11.8634 0.164347 -5.2574)
(12.6105 0.306375 -13.696)
(11.5795 0.349046 -18.3395)
(9.60172 0.333951 -18.2559)
(6.88385 0.393041 -14.8385)
(4.96478 0.529134 -10.7252)
(3.09644 0.540534 -5.69955)
(1.46662 -0.392742 -2.83905)
(-0.671263 -0.528348 11.2067)
(0.795244 -0.117984 12.7383)
(-1.99095 -0.0841123 23.7872)
(16.765 -0.108806 8.17345)
(5.01496 -0.00341032 18.5162)
(11.0683 0.0588868 10.99)
(10.4409 0.0393409 3.28138)
(11.7038 0.0716731 -5.2556)
(12.4567 0.148375 -13.6643)
(11.5109 0.176941 -18.2883)
(9.65752 0.174957 -18.233)
(7.04835 0.227098 -14.8514)
(5.30063 0.31938 -10.8509)
(3.67189 0.388374 -6.19181)
(2.66172 -0.232146 -3.61443)
(-0.722608 -0.349146 8.77882)
(0.843908 -0.0552296 12.9263)
(-1.97153 -0.0446064 23.6875)
(16.734 0.00386622 8.18138)
(4.9843 -0.000956989 18.5775)
(11.0436 -0.00491434 11.0229)
(10.3999 -0.00267582 3.29025)
(11.6472 -0.00565051 -5.25808)
(12.3971 -0.0161536 -13.6663)
(11.4724 -0.0204044 -18.284)
(9.65378 -0.0140029 -18.2308)
(7.0768 -0.00181902 -14.8534)
(5.40321 0.00871637 -10.8773)
(3.84683 0.0625665 -6.36533)
(3.14887 0.0755576 -3.81743)
(-0.765375 -0.011676 7.23972)
(0.832181 0.00032199 13.1925)
(-1.99129 0.0033206 23.3898)
(16.7839 0.113736 8.14881)
(5.02839 0.00209715 18.5001)
(11.0735 -0.0660408 10.9872)
(10.4493 -0.0433588 3.28265)
(11.7193 -0.082791 -5.25969)
(12.4738 -0.177342 -13.678)
(11.5161 -0.211175 -18.3029)
(9.64959 -0.19803 -18.2415)
(7.04165 -0.231427 -14.8586)
(5.31784 -0.301855 -10.8527)
(3.67027 -0.28916 -6.19394)
(2.79368 0.362856 -3.6567)
(-0.71893 0.34089 8.57153)
(0.85361 0.06031 12.9089)
(-1.97281 0.0509422 23.6923)
(16.9157 0.180537 8.03094)
(5.14148 0.00945296 18.3047)
(11.1436 -0.121678 10.9046)
(10.57 -0.0940598 3.26612)
(11.8851 -0.175744 -5.26602)
(12.6324 -0.332498 -13.7126)
(11.5932 -0.378312 -18.3548)
(9.6079 -0.355158 -18.2664)
(6.8991 -0.401731 -14.854)
(5.01044 -0.51437 -10.7376)
(3.12983 -0.485017 -5.70401)
(1.62337 0.518962 -2.92878)
(-0.668906 0.548312 11.082)
(0.808865 0.127563 12.7525)
(-1.99589 0.0909639 23.7879)
(17.0906 0.200668 7.84581)
(5.2598 0.0157191 18.1038)
(11.2045 -0.147077 10.8337)
(10.6946 -0.120569 3.25054)
(12.0325 -0.231294 -5.29395)
(12.7414 -0.416206 -13.7722)
(11.6124 -0.460861 -18.4102)
(9.51833 -0.430346 -18.2738)
(6.73163 -0.466738 -14.8227)
(4.75444 -0.588885 -10.5854)
(2.7165 -0.44427 -5.32258)
(0.675891 0.366469 -1.97137)
(-0.604095 0.536716 12.6598)
(0.714363 0.182113 12.8851)
(-2.06011 0.10331 23.596)
(17.2448 0.216302 7.68333)
(5.34415 0.0289996 17.9585)
(11.2513 -0.178886 10.774)
(10.8186 -0.163059 3.22637)
(12.1706 -0.304965 -5.33112)
(12.8327 -0.517829 -13.8363)
(11.6175 -0.558982 -18.4647)
(9.41904 -0.51717 -18.2809)
(6.56348 -0.529673 -14.7915)
(4.57225 -0.632855 -10.441)
(2.49367 -0.192017 -5.10358)
(0.248976 -0.103201 -0.427636)
(-0.547997 0.484533 13.4008)
(0.620961 0.199203 13.1115)
(-2.13155 0.101011 23.4248)
(17.4583 0.201563 7.45082)
(5.47602 0.0399456 17.7413)
(11.3007 -0.175177 10.7062)
(10.9485 -0.160503 3.20208)
(12.2984 -0.298289 -5.38225)
(12.9 -0.498346 -13.9145)
(11.5929 -0.530785 -18.5154)
(9.30173 -0.49268 -18.2743)
(6.39675 -0.513004 -14.7535)
(4.42034 -0.650341 -10.2387)
(2.25457 0.0163895 -4.98271)
(0.396012 -0.121477 1.84496)
(-0.46244 0.428476 13.986)
(0.539852 0.178328 13.0821)
(-2.21111 0.0841729 23.1421)
(17.6031 0.211752 7.29118)
(5.56836 0.0745647 17.5854)
(11.3502 -0.197617 10.6354)
(11.0698 -0.189654 3.17833)
(12.4287 -0.336217 -5.40074)
(12.9902 -0.561339 -13.9616)
(11.5927 -0.595346 -18.5594)
(9.20135 -0.539648 -18.2835)
(6.21127 -0.524562 -14.7518)
(4.12025 -0.673002 -9.95845)
(1.39122 0.0683812 -4.41117)
(0.289057 0.0659805 4.35608)
(-0.399904 0.364232 14.5227)
(0.503239 0.206701 12.3202)
(-2.20639 0.0563549 23.5812)
(17.9261 0.13007 6.90961)
(5.90737 0.0586388 17.0616)
(11.4976 -0.129654 10.4429)
(11.3428 -0.141351 3.12848)
(12.7482 -0.242309 -5.48034)
(13.2246 -0.395935 -14.1068)
(11.6425 -0.419164 -18.6738)
(9.08225 -0.372184 -18.3191)
(6.07333 -0.3537 -14.7894)
(4.10207 -0.452293 -9.8076)
(0.973371 -0.0651347 -3.97863)
(0.348649 0.0637791 5.53835)
(-0.375251 0.174764 14.0319)
(0.467056 0.133896 11.381)
(-2.2292 0.0219459 23.8356)
(25.672 -0.121659 4.45716)
(18.8534 -0.295278 13.7058)
(23.2539 -0.0547043 9.20859)
(26.1462 0.141872 2.82662)
(26.2024 0.264297 -5.13532)
(24.0886 0.281154 -11.9892)
(19.3959 0.218791 -14.4228)
(13.6215 0.265812 -13.0325)
(8.53149 0.458626 -9.94649)
(5.54738 0.504045 -5.94249)
(1.88181 -0.0546559 0.0341666)
(1.45929 -0.174472 6.10314)
(-1.23872 -0.514392 15.1609)
(1.74795 -0.208123 11.9955)
(-6.92023 -0.105279 24.5676)
(25.6761 -0.205915 4.60602)
(18.5461 -0.422312 14.1424)
(23.0692 -0.0294878 9.53875)
(25.9312 0.250749 3.07848)
(26.0613 0.418149 -4.8944)
(24.114 0.434258 -11.804)
(19.6361 0.33765 -14.363)
(13.9851 0.389961 -12.9774)
(8.77147 0.636991 -9.78817)
(5.74201 0.644084 -6.13175)
(2.41793 -0.189664 -0.651542)
(1.5576 -0.187943 4.85913)
(-1.28417 -1.00166 15.5054)
(2.06126 -0.447746 12.7117)
(-6.86224 -0.170234 24.3842)
(25.6601 -0.20514 4.68743)
(18.4933 -0.334486 14.2886)
(23.0533 0.00920048 9.65446)
(25.8692 0.235026 3.17776)
(26.0205 0.369565 -4.79723)
(24.137 0.381694 -11.7243)
(19.7466 0.297533 -14.3417)
(14.1601 0.33843 -12.9543)
(8.97089 0.585048 -9.73901)
(6.21508 0.59907 -6.48801)
(3.22095 0.0188368 -1.45947)
(2.22875 0.174161 2.83276)
(-1.36731 -1.01967 14.8867)
(2.01432 -0.43672 13.5159)
(-6.86894 -0.245624 23.9259)
(25.6229 -0.231748 4.8096)
(18.371 -0.337099 14.5014)
(23.017 0.00899548 9.79794)
(25.8112 0.242834 3.28902)
(26.0006 0.38693 -4.68789)
(24.1943 0.401212 -11.6434)
(19.903 0.318891 -14.3301)
(14.3782 0.339673 -12.9638)
(9.11517 0.547454 -9.72509)
(6.34199 0.584114 -6.62488)
(3.23826 0.149566 -1.64672)
(2.38997 0.256014 1.73535)
(-1.54208 -1.04225 14.3382)
(2.25232 -0.427321 13.3977)
(-6.67786 -0.36211 24.2582)
(25.593 -0.228827 4.90512)
(18.3093 -0.274456 14.6482)
(22.9966 0.0213959 9.90766)
(25.7523 0.208155 3.38389)
(25.9641 0.326489 -4.58979)
(24.2213 0.337488 -11.5644)
(20.0122 0.26592 -14.3041)
(14.5642 0.27766 -12.9695)
(9.26842 0.472088 -9.71611)
(6.44376 0.585059 -6.67111)
(3.30905 0.42749 -1.79863)
(2.64137 0.0610519 1.12426)
(-1.6684 -1.09295 13.6735)
(2.61832 -0.456255 12.9145)
(-6.49987 -0.356806 24.4971)
(25.5644 -0.233066 5.00777)
(18.1876 -0.228989 14.841)
(22.921 0.0161459 10.0442)
(25.6502 0.165954 3.48629)
(25.8917 0.267284 -4.48958)
(24.2303 0.279944 -11.4811)
(20.1259 0.217987 -14.2733)
(14.7622 0.227036 -12.9801)
(9.47493 0.408604 -9.71183)
(6.68835 0.553552 -6.7243)
(3.69746 0.585858 -2.23609)
(3.63322 -0.216397 0.35565)
(-1.59449 -1.06755 12.154)
(2.86308 -0.485862 12.619)
(-6.31823 -0.268539 24.7036)
(25.524 -0.169192 5.07732)
(18.0125 -0.124161 15.0277)
(22.7783 0.0111053 10.182)
(25.4859 0.0866476 3.58301)
(25.7502 0.141669 -4.40068)
(24.1729 0.149185 -11.3983)
(20.1853 0.112207 -14.2287)
(14.922 0.118523 -12.9751)
(9.71086 0.242614 -9.68336)
(7.08905 0.362905 -6.76191)
(4.42417 0.452972 -2.82838)
(5.05071 -0.108714 -0.619257)
(-1.27494 -0.640657 9.91586)
(2.86134 -0.371591 12.7833)
(-6.22547 -0.105202 24.5519)
(25.4925 -0.000370469 5.08991)
(17.9257 0.00423305 15.0907)
(22.7053 -0.00476868 10.227)
(25.4088 -0.0110161 3.60972)
(25.6805 -0.0180787 -4.38267)
(24.1311 -0.0249461 -11.3847)
(20.18 -0.0262353 -14.2239)
(14.9473 -0.0237909 -12.9781)
(9.77314 -0.0182122 -9.66857)
(7.24332 -0.00217143 -6.7544)
(4.72534 0.0693266 -3.03947)
(5.63952 0.117227 -0.946403)
(-1.07104 0.0295686 8.63492)
(2.76263 -0.00626815 13.0664)
(-6.25191 0.0172244 24.2275)
(25.5226 0.16817 5.06057)
(18.0212 0.129614 15.0113)
(22.782 -0.0197351 10.1713)
(25.4918 -0.106317 3.57267)
(25.7548 -0.173658 -4.41663)
(24.1661 -0.191892 -11.4178)
(20.1573 -0.156775 -14.2433)
(14.8811 -0.160967 -12.9873)
(9.68284 -0.278152 -9.70466)
(7.09513 -0.365165 -6.77372)
(4.40585 -0.342493 -2.8246)
(5.18944 0.317536 -0.614329)
(-1.21263 0.696483 9.73386)
(2.88298 0.370639 12.7521)
(-6.23198 0.140155 24.5662)
(25.5637 0.232133 4.9871)
(18.1964 0.231234 14.8218)
(22.9228 -0.0232142 10.031)
(25.6563 -0.182561 3.47222)
(25.8955 -0.294404 -4.50994)
(24.2235 -0.315759 -11.5032)
(20.1036 -0.256772 -14.2885)
(14.7343 -0.267097 -12.9967)
(9.47167 -0.44563 -9.74518)
(6.72521 -0.55193 -6.7453)
(3.70707 -0.531035 -2.22301)
(3.82626 0.42 0.336066)
(-1.56268 1.14411 12.0326)
(2.88664 0.501778 12.6343)
(-6.33534 0.303406 24.7105)
(25.5928 0.228178 4.88253)
(18.3184 0.275944 14.6255)
(22.997 -0.0270118 9.89118)
(25.7579 -0.222355 3.3657)
(25.9665 -0.350181 -4.61513)
(24.2131 -0.369477 -11.5902)
(19.9903 -0.301513 -14.3212)
(14.5394 -0.317155 -12.99)
(9.27925 -0.512245 -9.7577)
(6.49183 -0.586577 -6.69973)
(3.34994 -0.408114 -1.76434)
(2.6966 0.149399 1.12739)
(-1.66347 1.18884 13.6602)
(2.62993 0.479969 12.9666)
(-6.52783 0.390342 24.498)
(25.6227 0.23105 4.78612)
(18.38 0.338288 14.476)
(23.0163 -0.0131096 9.77857)
(25.8165 -0.254595 3.26717)
(26.0023 -0.407469 -4.71732)
(24.1846 -0.429978 -11.6725)
(19.8782 -0.352524 -14.3491)
(14.3514 -0.381063 -12.9882)
(9.13065 -0.590838 -9.77396)
(6.38467 -0.586937 -6.65112)
(3.28002 -0.0973872 -1.57879)
(2.32115 -0.104331 1.76605)
(-1.54669 1.12342 14.3843)
(2.25313 0.455066 13.4662)
(-6.71687 0.391743 24.2532)
(25.6596 0.204553 4.66374)
(18.5028 0.335647 14.2603)
(23.0521 -0.0120298 9.63166)
(25.8742 -0.244271 3.15169)
(26.0207 -0.386133 -4.83152)
(24.1246 -0.405439 -11.7573)
(19.7183 -0.326571 -14.3631)
(14.134 -0.378442 -12.9841)
(8.98771 -0.627 -9.79244)
(6.24262 -0.60209 -6.49746)
(3.23591 0.0535835 -1.35386)
(2.19162 -0.0668152 2.9394)
(-1.37031 1.07381 14.9318)
(2.01173 0.464085 13.6002)
(-6.91977 0.270082 23.9162)
(25.6754 0.205243 4.58232)
(18.5559 0.423622 14.112)
(23.0677 0.0278495 9.5135)
(25.9365 -0.258228 3.04952)
(26.0613 -0.432638 -4.93177)
(24.1009 -0.456468 -11.8393)
(19.6039 -0.367642 -14.3859)
(13.9518 -0.430914 -13.0133)
(8.77715 -0.673044 -9.84265)
(5.74191 -0.636646 -6.10869)
(2.40414 0.265652 -0.515296)
(1.52801 0.271212 5.0339)
(-1.28313 1.03476 15.5394)
(2.03803 0.483411 12.8414)
(-6.92414 0.190785 24.3591)
(25.6707 0.121207 4.43478)
(18.8635 0.296183 13.6733)
(23.2522 0.0543133 9.17978)
(26.1509 -0.145578 2.79284)
(26.1999 -0.272593 -5.17906)
(24.0708 -0.29518 -12.0303)
(19.3549 -0.239141 -14.452)
(13.5845 -0.295987 -13.082)
(8.54684 -0.488806 -10.0122)
(5.56371 -0.507985 -5.91723)
(1.88141 0.0857605 0.162575)
(1.43901 0.216271 6.2803)
(-1.23298 0.526026 15.1789)
(1.71342 0.234047 12.1667)
(-6.99295 0.114882 24.5426)
(24.7208 -0.00730006 0.653441)
(19.6262 -0.218229 6.98623)
(22.1005 -0.184802 4.85426)
(25.6205 -0.105237 0.357468)
(24.6406 -0.0588806 -4.57619)
(20.8798 -0.00381655 -8.0189)
(15.3856 0.0630521 -8.67185)
(10.4386 0.352412 -7.96404)
(6.96824 0.687011 -6.7164)
(5.42219 0.731018 -3.9182)
(1.82416 -0.266928 2.01273)
(3.5911 -0.536521 7.0102)
(-2.50871 -0.96161 17.5486)
(5.4101 0.0196847 13.3451)
(-12.3715 -0.194159 25.9337)
(24.7154 -0.0170818 0.674895)
(19.6031 -0.317133 7.26447)
(22.1682 -0.230892 5.15165)
(25.7469 -0.103871 0.623604)
(24.859 -0.0401147 -4.39015)
(21.1901 0.0298127 -7.93834)
(15.7994 0.114869 -8.66664)
(10.7924 0.472194 -7.73973)
(7.1507 0.881938 -6.39992)
(5.80802 0.863149 -4.11569)
(2.3922 -0.444508 0.757318)
(3.94651 -0.747611 5.40619)
(-2.52756 -1.54112 17.3834)
(5.38801 -0.463406 14.2812)
(-12.4722 -0.290761 25.9209)
(24.7105 -0.0200035 0.698295)
(19.6431 -0.263255 7.36792)
(22.2452 -0.174018 5.24406)
(25.8223 -0.0665407 0.707303)
(24.958 -0.0151546 -4.32953)
(21.3144 0.0417252 -7.91198)
(15.9604 0.10097 -8.68132)
(10.9359 0.391993 -7.63313)
(7.32172 0.791728 -6.29605)
(6.47059 0.773443 -4.58623)
(3.33672 -0.168188 -0.323531)
(4.81737 -0.362148 3.59714)
(-2.61128 -1.3594 16.7029)
(5.61115 -0.794395 14.6571)
(-12.4741 -0.351461 25.5766)
(24.7027 -0.0227775 0.733589)
(19.6532 -0.273229 7.53469)
(22.322 -0.185582 5.39666)
(25.9222 -0.0717694 0.833427)
(25.1031 -0.0163568 -4.24875)
(21.5054 0.0417104 -7.88446)
(16.1995 0.107871 -8.69453)
(11.1266 0.362348 -7.5671)
(7.37935 0.701552 -6.20531)
(6.60788 0.722519 -4.73141)
(3.36947 -0.0116702 -0.639809)
(4.98581 -0.311001 2.70592)
(-2.67067 -1.37469 16.1644)
(5.80763 -0.811595 14.5024)
(-12.1519 -0.525635 25.8624)
(24.6993 -0.0236409 0.768452)
(19.6875 -0.226064 7.64643)
(22.3974 -0.14263 5.49677)
(26.001 -0.0437385 0.921151)
(25.2073 0.000352827 -4.18886)
(21.6374 0.0414438 -7.86128)
(16.3653 0.0835237 -8.702)
(11.2918 0.280803 -7.52872)
(7.44421 0.57861 -6.11501)
(6.63507 0.692188 -4.71774)
(3.42941 0.336983 -0.831233)
(5.26117 -0.206805 2.01303)
(-2.60888 -1.37135 15.4591)
(6.10853 -0.895457 14.0729)
(-11.8852 -0.565766 26.0786)
(24.7026 -0.0264771 0.805112)
(19.7019 -0.193995 7.7785)
(22.4482 -0.125258 5.62723)
(26.0652 -0.0403199 1.03859)
(25.31 -0.00220034 -4.10537)
(21.787 0.0268374 -7.82204)
(16.5573 0.0523608 -8.70495)
(11.4751 0.213447 -7.50301)
(7.56665 0.478718 -6.012)
(6.76923 0.645765 -4.68741)
(3.85497 0.518588 -1.21583)
(6.16923 -0.154718 0.816519)
(-2.08299 -1.28556 13.7315)
(6.40241 -0.920543 13.59)
(-11.5883 -0.513471 26.284)
(24.7137 -0.0278081 0.841977)
(19.6906 -0.110087 7.89402)
(22.4502 -0.067811 5.75132)
(26.0794 -0.0192142 1.15694)
(25.3631 0.00103071 -4.01447)
(21.8924 0.0108615 -7.77007)
(16.7087 0.0141741 -8.70224)
(11.628 0.102648 -7.48072)
(7.72973 0.278645 -5.86554)
(7.07888 0.429038 -4.63276)
(4.75642 0.417766 -1.72331)
(7.38508 0.00773371 -0.474733)
(-1.27789 -0.725083 11.4177)
(6.88862 -0.601065 13.0334)
(-11.3892 -0.283181 26.2457)
(24.7129 -0.0136054 0.860541)
(19.6671 0.00142784 7.93788)
(22.4285 -0.00127083 5.79609)
(26.0649 -0.00748603 1.1971)
(25.3644 -0.0138209 -3.98614)
(21.9122 -0.0222466 -7.75562)
(16.742 -0.026501 -8.70555)
(11.6597 -0.0322008 -7.48005)
(7.77844 -0.0314554 -5.80412)
(7.21763 -0.017025 -4.58089)
(5.15847 0.0623129 -1.89947)
(7.87054 0.119973 -0.780044)
(-0.825459 0.0902191 10.2434)
(7.0167 -0.00695835 12.8872)
(-11.4028 0.0383316 26.0181)
(24.7018 0.0102489 0.837626)
(19.6798 0.110103 7.88512)
(22.4371 0.0626794 5.74119)
(26.0675 0.00360827 1.14621)
(25.3458 -0.026941 -4.02569)
(21.8606 -0.0504509 -7.78064)
(16.6616 -0.0619126 -8.71132)
(11.5828 -0.162552 -7.50463)
(7.70952 -0.337909 -5.9166)
(7.0834 -0.456447 -4.66764)
(4.72762 -0.310824 -1.7315)
(7.44326 0.220448 -0.430619)
(-1.17253 0.884929 11.2624)
(6.90301 0.608131 13.0107)
(-11.4058 0.352006 26.2695)
(24.6928 0.0211104 0.79728)
(19.692 0.190589 7.76429)
(22.4321 0.117257 5.61356)
(26.0492 0.0245798 1.02485)
(25.2871 -0.0217808 -4.11904)
(21.7529 -0.0625309 -7.83418)
(16.5143 -0.0973189 -8.7162)
(11.4431 -0.270502 -7.53671)
(7.57106 -0.535058 -6.07814)
(6.80095 -0.662597 -4.72605)
(3.8289 -0.442402 -1.21177)
(6.27814 0.367562 0.844956)
(-2.01434 1.44547 13.6026)
(6.45105 0.964526 13.5956)
(-11.6181 0.570779 26.3041)
(24.6917 0.020955 0.759553)
(19.6799 0.2214 7.62724)
(22.3803 0.134355 5.47928)
(25.9819 0.0293984 0.903918)
(25.18 -0.022344 -4.20502)
(21.6001 -0.0744102 -7.87473)
(16.3217 -0.125623 -8.71521)
(11.2657 -0.336903 -7.57102)
(7.46779 -0.63735 -6.19279)
(6.68427 -0.705292 -4.76276)
(3.42291 -0.285435 -0.806348)
(5.30621 0.398918 2.10365)
(-2.61903 1.53495 15.4616)
(6.15606 0.958565 14.116)
(-11.9364 0.616383 26.0943)
(24.6957 0.0206407 0.724523)
(19.6445 0.268241 7.51263)
(22.3022 0.177487 5.37635)
(25.8993 0.0584937 0.813252)
(25.0713 -0.00447988 -4.26698)
(21.4628 -0.0734963 -7.89949)
(16.1505 -0.150096 -8.71015)
(11.1019 -0.421204 -7.61898)
(7.41399 -0.763393 -6.29457)
(6.6516 -0.731683 -4.77264)
(3.35677 0.0787901 -0.57701)
(4.93391 0.475968 2.88701)
(-2.73459 1.50285 16.2513)
(5.84455 0.872259 14.5662)
(-12.2262 0.572363 25.8711)
(24.7037 0.0186134 0.688885)
(19.6329 0.258995 7.34322)
(22.2225 0.167173 5.22072)
(25.7954 0.055618 0.683573)
(24.9209 -0.00215081 -4.35063)
(21.2653 -0.0686422 -7.92875)
(15.9064 -0.139204 -8.69959)
(10.916 -0.450637 -7.69581)
(7.35883 -0.85304 -6.38765)
(6.49261 -0.777175 -4.60452)
(3.30008 0.24369 -0.217343)
(4.72988 0.486519 3.82259)
(-2.69165 1.43875 16.7897)
(5.63013 0.833573 14.7455)
(-12.5712 0.39405 25.5762)
(24.7089 0.0163191 0.665237)
(19.5922 0.313228 7.23789)
(22.144 0.224491 5.12636)
(25.7173 0.0937781 0.597759)
(24.8191 0.0235072 -4.41301)
(21.1377 -0.057645 -7.95583)
(15.7384 -0.157886 -8.68765)
(10.764 -0.533164 -7.81653)
(7.17243 -0.939215 -6.48682)
(5.78312 -0.855922 -4.09127)
(2.35954 0.544289 0.926468)
(3.84927 0.847916 5.67055)
(-2.61225 1.58157 17.4561)
(5.38045 0.4971 14.4128)
(-12.5858 0.339259 25.8945)
(24.7146 0.00708178 0.643921)
(19.6147 0.216163 6.95767)
(22.0747 0.181127 4.82602)
(25.5872 0.0992629 0.32816)
(24.5943 0.0484469 -4.60283)
(20.8174 -0.0147765 -8.03934)
(15.3092 -0.0932026 -8.70316)
(10.4022 -0.400707 -8.06607)
(6.98739 -0.738521 -6.80969)
(5.38043 -0.73924 -3.86919)
(1.792 0.320251 2.20902)
(3.48969 0.597861 7.25979)
(-2.57625 0.974497 17.5955)
(5.31904 0.00730132 13.5785)
(-12.5009 0.223869 25.8839)
(25.9945 -0.00375762 1.06973)
(17.7848 -0.0953268 3.71011)
(17.1788 -0.131752 2.8731)
(20.3132 -0.122743 0.863527)
(19.0397 -0.0790313 -1.44292)
(16.1345 0.027379 -3.30761)
(12.8709 0.158976 -4.26623)
(10.6906 0.587134 -5.2526)
(8.73271 0.824131 -5.02535)
(7.96221 0.919963 -2.05895)
(2.91803 -0.246763 3.96637)
(5.85148 -0.911675 8.93959)
(-4.36714 -1.84282 19.0223)
(10.9314 -0.473937 14.9509)
(-19.6058 0.0612268 29.2212)
(25.9709 -0.00849039 1.06737)
(17.7617 -0.145458 3.80692)
(17.2445 -0.178361 2.99125)
(20.4322 -0.152267 0.955263)
(19.2117 -0.0832249 -1.36248)
(16.3409 0.0615275 -3.24632)
(13.1376 0.243417 -4.14299)
(10.8679 0.75199 -4.74094)
(8.99097 0.992665 -4.68256)
(8.51656 1.03551 -2.44602)
(4.43489 -0.371756 2.22616)
(6.36937 -1.26013 7.06876)
(-3.87992 -2.20218 18.3711)
(8.1352 -0.829118 17.3948)
(-19.7559 -0.147319 28.4886)
(25.957 -0.011363 1.06806)
(17.7794 -0.128448 3.84583)
(17.3048 -0.144627 3.02494)
(20.5004 -0.117316 0.979317)
(19.2918 -0.056401 -1.33617)
(16.4254 0.0637735 -3.22815)
(13.2427 0.193723 -4.11215)
(10.9238 0.622352 -4.48333)
(9.2433 0.914221 -4.60246)
(9.28217 0.911297 -3.09935)
(5.82879 -0.105937 0.915978)
(7.29798 -0.859326 5.62003)
(-3.88731 -1.4184 17.5756)
(8.76695 -1.06626 17.2752)
(-19.8724 -0.570816 28.4112)
(25.9386 -0.0137693 1.06698)
(17.7747 -0.13352 3.91543)
(17.3623 -0.153901 3.10216)
(20.5869 -0.127668 1.04014)
(19.4101 -0.0658505 -1.28082)
(16.5618 0.0607288 -3.18209)
(13.404 0.195979 -4.04809)
(10.9902 0.565986 -4.28396)
(9.29964 0.817983 -4.48914)
(9.5103 0.815118 -3.35768)
(6.21333 0.0583997 0.371061)
(7.66812 -0.669431 4.84935)
(-4.14366 -1.36609 17.3094)
(10.2721 -1.13893 16.373)
(-19.4843 -0.736235 28.8972)
(25.9237 -0.0147214 1.06686)
(17.7888 -0.110534 3.96034)
(17.4215 -0.12296 3.14554)
(20.6583 -0.100527 1.07173)
(19.4966 -0.0519316 -1.25322)
(16.6502 0.0474248 -3.15905)
(13.5138 0.141668 -4.00704)
(11.0646 0.435344 -4.14191)
(9.33558 0.670508 -4.33534)
(9.57542 0.718702 -3.35982)
(6.49325 0.366037 0.0933896)
(8.26005 -0.211492 4.02176)
(-3.85235 -1.22821 16.6756)
(10.9715 -1.29101 15.8035)
(-19.0899 -0.806143 29.0894)
(25.9089 -0.0143538 1.06573)
(17.7959 -0.0921084 4.00939)
(17.4734 -0.106906 3.20194)
(20.7302 -0.0933302 1.11708)
(19.5897 -0.0578513 -1.21623)
(16.754 0.0195795 -3.12753)
(13.6328 0.0889119 -3.97096)
(11.1424 0.328102 -4.01213)
(9.40551 0.548034 -4.13856)
(9.72024 0.618084 -3.31771)
(6.93397 0.487471 -0.218511)
(9.35938 0.06979 2.79364)
(-2.63345 -1.1542 14.886)
(11.7155 -1.10021 14.8619)
(-18.602 -0.791308 29.229)
(25.8988 -0.0130096 1.06564)
(17.8106 -0.05358 4.04466)
(17.5182 -0.0613884 3.2455)
(20.79 -0.0562098 1.15225)
(19.6641 -0.0400934 -1.19199)
(16.8349 -0.00338787 -3.10988)
(13.7233 0.0229974 -3.96414)
(11.191 0.156927 -3.8957)
(9.504 0.315612 -3.85707)
(10.064 0.398398 -3.23628)
(7.83456 0.362521 -0.652296)
(10.6668 0.193939 1.70367)
(-0.790122 -0.675014 12.2058)
(12.1408 -0.490433 13.9711)
(-18.3803 -0.469547 29.3314)
(25.8949 -0.01048 1.06774)
(17.8131 -0.00539493 4.05821)
(17.5272 -0.00654033 3.2635)
(20.805 -0.0121519 1.16836)
(19.6836 -0.0189014 -1.18019)
(16.8553 -0.0280322 -3.10283)
(13.746 -0.0334036 -3.96953)
(11.1941 -0.0464505 -3.86695)
(9.53244 -0.0461613 -3.73678)
(10.2319 -0.0288385 -3.16957)
(8.27442 0.0252757 -0.808059)
(11.1715 0.108111 1.40133)
(0.224761 0.123494 10.8579)
(11.8437 0.0155683 13.9657)
(-18.4713 0.0648834 29.1522)
(25.8947 -0.00450938 1.06898)
(17.8048 0.0422044 4.04108)
(17.504 0.0480364 3.24125)
(20.7729 0.0331166 1.1492)
(19.6419 0.00452823 -1.19528)
(16.8049 -0.0488216 -3.11807)
(13.6902 -0.0864198 -3.98255)
(11.1696 -0.244702 -3.94856)
(9.49617 -0.402047 -3.94045)
(10.0524 -0.447098 -3.28748)
(7.7945 -0.310792 -0.658595)
(10.6534 0.0126597 1.75379)
(-0.69711 0.899622 12.0432)
(12.1142 0.569155 13.9502)
(-18.4278 0.567624 29.3676)
(25.9023 0.00503271 1.06815)
(17.7837 0.0805945 4.00309)
(17.4506 0.0930634 3.19444)
(20.7053 0.0713473 1.11046)
(19.5622 0.0235718 -1.22377)
(16.7229 -0.069423 -3.14122)
(13.6021 -0.15102 -3.99774)
(11.1312 -0.410746 -4.08082)
(9.41416 -0.627347 -4.23344)
(9.72349 -0.656512 -3.36013)
(6.8919 -0.439414 -0.205597)
(9.36685 0.113836 2.88864)
(-2.59569 1.35935 14.7148)
(11.7294 1.20997 14.8566)
(-18.6842 0.864821 29.2917)
(25.9185 0.0117254 1.06783)
(17.7764 0.0999879 3.95125)
(17.3969 0.108749 3.13486)
(20.6312 0.0791526 1.06186)
(19.4674 0.0189075 -1.26513)
(16.6188 -0.0937274 -3.17698)
(13.4833 -0.200174 -4.04114)
(11.0615 -0.516427 -4.22457)
(9.3599 -0.749857 -4.43923)
(9.59086 -0.752905 -3.39824)
(6.4465 -0.327672 0.133994)
(8.20399 0.379612 4.20537)
(-3.94666 1.40513 16.658)
(10.9529 1.37528 15.859)
(-19.2038 0.880144 29.1269)
(25.9346 0.0118106 1.06704)
(17.7656 0.123674 3.90409)
(17.3383 0.139754 3.08927)
(20.5574 0.107022 1.02791)
(19.3766 0.0337304 -1.2966)
(16.5255 -0.105447 -3.20437)
(13.3698 -0.254834 -4.08994)
(10.994 -0.648223 -4.38288)
(9.33018 -0.895909 -4.60104)
(9.51139 -0.843517 -3.37753)
(6.12024 0.00288384 0.467944)
(7.5093 0.842002 5.13297)
(-4.3129 1.49243 17.3882)
(10.1725 1.19101 16.489)
(-19.6206 0.806944 28.899)
(25.9527 0.00930048 1.06753)
(17.7689 0.120244 3.83277)
(17.2784 0.133003 3.00984)
(20.4664 0.10035 0.964129)
(19.2521 0.0290525 -1.35633)
(16.3822 -0.102163 -3.25405)
(13.2061 -0.248793 -4.16144)
(10.9344 -0.702725 -4.59743)
(9.26635 -0.987404 -4.70391)
(9.25484 -0.929059 -3.07904)
(5.68214 0.178573 1.0794)
(7.08138 1.00578 5.9529)
(-4.06022 1.50058 17.6639)
(8.58276 1.08864 17.4242)
(-20.0181 0.624083 28.3676)
(25.9663 0.00728041 1.0661)
(17.7504 0.138372 3.79244)
(17.2171 0.167467 2.97485)
(20.3961 0.136313 0.938238)
(19.1695 0.0562875 -1.38546)
(16.2932 -0.102085 -3.2741)
(13.0947 -0.304386 -4.2019)
(10.8672 -0.831105 -4.87581)
(8.98983 -1.06004 -4.76251)
(8.43853 -1.05169 -2.36834)
(4.25348 0.472396 2.45926)
(6.14875 1.37061 7.43392)
(-4.04403 2.25175 18.432)
(7.92041 0.861625 17.5553)
(-19.91 0.18425 28.4075)
(25.9899 0.00337972 1.06782)
(17.7724 0.0915486 3.69393)
(17.1496 0.125301 2.85488)
(20.2733 0.112959 0.843799)
(18.9907 0.0619818 -1.47037)
(16.0738 -0.0545494 -3.3413)
(12.8117 -0.201595 -4.34767)
(10.6734 -0.653092 -5.41807)
(8.71052 -0.890765 -5.0924)
(7.84471 -0.949818 -1.9371)
(2.73206 0.31948 4.25212)
(5.65501 0.977212 9.28758)
(-4.58479 1.87956 19.0548)
(10.6991 0.495422 15.1808)
(-19.7871 -0.0403574 29.1165)
(26.9937 -0.00348528 1.25149)
(17.7178 -0.0354565 2.66214)
(14.9293 -0.0473198 2.2247)
(17.5824 -0.0299993 0.990749)
(16.5399 0.0310045 -0.603165)
(14.71 0.123579 -1.95622)
(12.938 0.298206 -3.08435)
(11.8345 0.836233 -4.3963)
(10.2385 0.828023 -3.79428)
(9.76074 0.708252 0.483554)
(4.6998 -0.528167 6.55484)
(6.43187 -1.06927 12.3568)
(-6.45222 -2.48523 18.8968)
(8.25572 -1.21805 20.7163)
(-28.4523 0.399202 31.7077)
(26.9887 -0.00573608 1.25586)
(17.6901 -0.0548112 2.70121)
(14.9324 -0.0622947 2.27819)
(17.6161 -0.0273493 1.04847)
(16.6052 0.0677571 -0.521085)
(14.8501 0.190101 -1.87639)
(13.1688 0.439663 -2.85053)
(12.0716 1.03173 -3.7641)
(10.7431 0.910421 -3.67138)
(10.4988 0.731903 -0.518416)
(6.7305 -0.638021 4.47046)
(7.05208 -1.3523 10.4756)
(-5.54519 -2.55853 19.0796)
(3.40559 -1.33172 23.0912)
(-27.6999 0.125475 29.6869)
(26.9841 -0.00651724 1.25962)
(17.6917 -0.050471 2.72176)
(14.9563 -0.0515412 2.29851)
(17.6486 -0.0169724 1.06756)
(16.6414 0.0657223 -0.487072)
(14.9145 0.164898 -1.85413)
(13.251 0.343211 -2.7562)
(12.1558 0.869285 -3.4418)
(11.2233 0.899027 -3.79401)
(11.4015 0.748574 -1.66812)
(8.21625 -0.315245 2.88982)
(8.04516 -1.16272 9.13625)
(-5.2179 -1.1575 18.5026)
(2.9083 -0.846317 23.2711)
(-27.6297 -0.846763 29.3847)
(26.9791 -0.00804623 1.26398)
(17.6757 -0.0526621 2.75391)
(14.9657 -0.0565675 2.34011)
(17.6774 -0.02202 1.11219)
(16.6898 0.0603738 -0.425757)
(14.9997 0.170124 -1.79985)
(13.3761 0.329395 -2.64834)
(12.1905 0.780872 -3.2095)
(11.3765 0.825468 -3.76314)
(11.7617 0.641394 -2.17833)
(8.85616 -0.199627 2.15182)
(8.70135 -1.09364 8.47341)
(-5.58128 -0.706271 18.0268)
(6.36504 -0.584723 22.0509)
(-27.8635 -1.23645 30.6627)
(26.9743 -0.00837465 1.26818)
(17.6731 -0.0438284 2.77582)
(14.9855 -0.0459477 2.36428)
(17.7069 -0.0170894 1.13585)
(16.7295 0.0471672 -0.390185)
(15.0529 0.13493 -1.76401)
(13.4734 0.239489 -2.56884)
(12.2427 0.6098 -3.02554)
(11.4511 0.686804 -3.626)
(11.9278 0.535452 -2.31367)
(9.31975 0.0926227 1.68735)
(9.71102 -0.583102 7.58168)
(-5.62701 -0.24002 17.3226)
(9.02583 -0.59162 21.0134)
(-27.8722 -1.52 31.523)
(26.9701 -0.00869209 1.27253)
(17.664 -0.0364864 2.79693)
(14.9957 -0.0418551 2.39073)
(17.7288 -0.0234692 1.16387)
(16.7644 0.024184 -0.351657)
(15.1056 0.0935688 -1.72098)
(13.5654 0.16279 -2.50549)
(12.3015 0.467124 -2.84421)
(11.559 0.564627 -3.42132)
(12.1629 0.422979 -2.37202)
(9.76648 0.162557 1.20085)
(11.3075 -0.153922 6.2186)
(-4.92727 -0.385059 15.5273)
(12.7819 -0.607147 18.9547)
(-27.5829 -1.22299 32.3448)
(26.9665 -0.00806035 1.27627)
(17.6617 -0.0228035 2.80924)
(15.0081 -0.0271372 2.40517)
(17.7486 -0.0210813 1.17788)
(16.7884 0.000532922 -0.332301)
(15.144 0.0337026 -1.69242)
(13.632 0.0563633 -2.4756)
(12.3363 0.234571 -2.651)
(11.7352 0.330088 -3.09872)
(12.6536 0.266612 -2.38722)
(10.6483 0.126138 0.657522)
(12.8271 0.211281 4.7697)
(-1.90486 -0.484563 12.7596)
(10.972 -0.492282 19.3915)
(-27.1107 -0.332957 31.989)
(26.9646 -0.00680389 1.27928)
(17.659 -0.00797836 2.81406)
(15.0093 -0.0105472 2.41124)
(17.753 -0.0171686 1.18486)
(16.793 -0.0266431 -0.325661)
(15.1559 -0.0359434 -1.68414)
(13.6527 -0.0450905 -2.47794)
(12.337 -0.0651991 -2.59197)
(11.8046 -0.0549339 -2.95367)
(12.91 -0.027564 -2.35725)
(11.0952 0.0128525 0.473436)
(13.3773 0.102797 4.17684)
(-0.315933 0.118457 11.6906)
(8.46441 0.0102072 20.4885)
(-26.9216 0.0779965 31.195)
(26.9646 -0.00480447 1.28085)
(17.6595 0.00679026 2.80811)
(15.0026 0.00645347 2.40291)
(17.7418 -0.0117286 1.17675)
(16.7793 -0.0511182 -0.339811)
(15.1314 -0.101168 -1.70744)
(13.6142 -0.141711 -2.50423)
(12.3216 -0.355895 -2.72011)
(11.7111 -0.433829 -3.18736)
(12.6101 -0.315951 -2.43345)
(10.5837 -0.101746 0.65266)
(12.7663 -0.00425274 4.78553)
(-1.91115 0.662746 12.6409)