/*--------------------------------*- C++ -*----------------------------------*\
| =========                 |                                                 |
| \\      /  F ield         | OpenFOAM: The Open Source CFD Toolbox           |
|  \\    /   O peration     | Version:  4.1                                   |
|   \\  /    A nd           | Web:      www.OpenFOAM.org                      |
|    \\/     M anipulation  |                                                 |
\*---------------------------------------------------------------------------*/
FoamFile
{
    version     2.0;
    format      ascii;
    class       volScalarField;
    location    "19";
    object      p;
}
// * * * * * * * * * * * * * * * * * * * * * * * * * * * * * * * * * * * * * //

dimensions      [0 2 -2 0 0 0 0];

internalField   nonuniform List<scalar> 
6750
(
-152.79
-96.3332
-171.37
-173.026
-205.344
-218.448
-232.452
-248.035
-255.735
-233.19
-198.117
-166.532
-204.746
-116.209
-266.457
-152.398
-95.2222
-171.008
-173.448
-206.738
-219.664
-236.272
-248.087
-255.164
-230.079
-198.501
-165.863
-204.024
-115.469
-266.771
-152.056
-94.3232
-170.843
-173.913
-207.902
-220.664
-239.601
-250.144
-256.22
-225.763
-197.606
-163.762
-203.586
-115.089
-267.136
-151.595
-93.1362
-170.596
-174.457
-209.406
-221.473
-244.57
-249.139
-256.054
-220.076
-199.435
-166.043
-204.659
-114.925
-267.502
-151.155
-91.9495
-170.402
-175.033
-210.582
-222.591
-248.062
-249.08
-249.855
-211.34
-199.387
-173.7
-205.128
-115.323
-267.817
-150.742
-90.7801
-170.183
-175.543
-211.457
-223.771
-248.714
-248.77
-243.454
-206.834
-196.073
-176.63
-204.592
-115.254
-268.024
-150.463
-89.8681
-169.986
-175.887
-211.932
-224.897
-247.954
-250.109
-249.444
-207.66
-196.924
-172.09
-203.907
-114.661
-268.082
-150.371
-89.6271
-169.916
-176.026
-212.041
-225.75
-248.11
-250.663
-248.82
-207.882
-192.66
-168.109
-201.561
-114.083
-268.048
-150.489
-90.111
-170.053
-175.927
-211.893
-225.383
-247.769
-250.591
-249.894
-207.422
-194.777
-170.49
-203.186
-114.306
-268.012
-150.806
-91.1495
-170.297
-175.574
-211.434
-223.97
-247.261
-249.318
-247.658
-203.832
-193.502
-178.425
-204.43
-114.986
-267.928
-151.246
-92.4075
-170.561
-175.104
-210.62
-222.773
-247.259
-248.729
-249.383
-208.449
-196.887
-173.586
-204.848
-114.719
-267.648
-151.712
-93.6401
-170.788
-174.538
-209.539
-221.459
-245.027
-248.668
-254.942
-216.93
-198.988
-166.572
-204.81
-114.22
-267.278
-152.189
-94.8454
-171.058
-173.993
-208.068
-220.532
-240.118
-249.615
-256.274
-223.594
-196.903
-163.112
-203.762
-114.194
-266.832
-152.542
-95.7524
-171.234
-173.533
-206.883
-219.577
-236.726
-247.965
-254.491
-228.234
-197.78
-164.917
-204.016
-114.495
-266.382
-152.938
-96.8536
-171.595
-173.095
-205.443
-218.252
-232.72
-247.339
-254.923
-232.07
-197.383
-165.643
-204.725
-115.174
-265.987
-205.309
-72.0266
-170.276
-167.794
-198.926
-211.033
-221.269
-239.694
-243.502
-232.711
-232.323
-195.034
-228.423
-95.6111
-378.847
-204.783
-70.912
-169.718
-167.833
-199.761
-211.344
-223.219
-237.617
-245.608
-233.744
-230.964
-195.714
-227.284
-94.8733
-380.049
-204.361
-70.2154
-169.495
-167.976
-200.226
-211.441
-224.161
-236.287
-250.07
-232.476
-231.307
-196.09
-226.74
-94.1106
-381.632
-203.765
-69.179
-169.071
-168.133
-200.826
-211.561
-223.857
-235.308
-253.623
-229.643
-231.913
-196.689
-227.177
-94.0095
-381.946
-203.203
-68.2498
-168.748
-168.406
-201.248
-212.027
-223.324
-234.457
-245.632
-223.688
-230.032
-196.559
-227.117
-94.0935
-382.428
-202.66
-67.3268
-168.381
-168.639
-201.856
-212.484
-225.389
-231.84
-236.002
-217.143
-225.683
-198.147
-226.361
-93.973
-382.741
-202.291
-66.6358
-168.058
-168.809
-202.329
-212.797
-227.16
-232.667
-238.558
-220.265
-227.824
-197.268
-225.731
-93.6756
-382.889
-202.146
-66.4662
-167.936
-168.859
-202.486
-212.837
-227.794
-232.271
-238.332
-220.741
-224.956
-198.486
-223.915
-93.2041
-383.399
-202.266
-66.8403
-168.153
-168.842
-202.429
-212.827
-227.713
-232.119
-238.508
-220.529
-227.121
-197.678
-225.406
-93.6592
-382.642
-202.673
-67.6356
-168.519
-168.691
-202.089
-212.517
-226.646
-231.151
-236.46
-216.547
-224.607
-197.588
-226.276
-93.9957
-382.305
-203.24
-68.6326
-168.915
-168.503
-201.484
-212.199
-224.657
-232.664
-241.489
-221.437
-229.134
-196.389
-227.16
-93.9528
-381.936
-203.832
-69.5986
-169.249
-168.237
-201
-211.647
-224.434
-233.905
-250.985
-228.717
-232.255
-196.893
-227.649
-93.8521
-381.401
-204.444
-70.6462
-169.674
-168.059
-200.343
-211.404
-224.313
-235.546
-250.37
-231.699
-232.271
-196.38
-227.4
-93.943
-381.019
-204.879
-71.3482
-169.897
-167.9
-199.848
-211.222
-223.466
-236.499
-244.744
-232.814
-232.14
-196.174
-227.962
-94.6996
-379.4
-205.407
-72.4498
-170.44
-167.826
-198.923
-210.769
-221.102
-238.381
-242.233
-231.712
-233.557
-195.605
-229.138
-95.415
-378.147
-284.347
-26.5444
-166.936
-160.477
-188.711
-198.957
-207.188
-219.913
-228.585
-246.846
-259.386
-224.946
-239.772
-17.7273
-590.147
-283.666
-25.6569
-166.142
-159.969
-188.553
-198.55
-206.259
-220.521
-232.446
-247.608
-257.585
-224.613
-237.867
-17.938
-592.133
-283.197
-25.3752
-165.882
-159.849
-188.428
-198.405
-205.186
-223.666
-239.003
-248.03
-255.702
-223.229
-235.98
-17.64
-594.871
-282.473
-24.7398
-165.228
-159.584
-188.252
-198.071
-202.974
-225.81
-247.82
-248.636
-252.165
-221.097
-235.747
-18.4886
-594.855
-281.819
-24.3631
-164.77
-159.57
-188.356
-198.07
-202.439
-224.11
-243.225
-247.096
-250.216
-219.244
-235.364
-19.302
-595.588
-281.146
-23.9527
-164.195
-159.568
-188.774
-198.606
-205.918
-221.52
-237.216
-244.026
-247.921
-219.251
-234.586
-19.7225
-595.991
-280.687
-23.7161
-163.711
-159.645
-189.191
-199.07
-208.671
-222.374
-236.197
-245.987
-250.461
-219.779
-234.13
-19.884
-596.34
-280.439
-23.7097
-163.51
-159.64
-189.371
-198.954
-208.877
-220.197
-236.571
-248.195
-250.115
-221.902
-232.419
-19.4703
-597.465
-280.518
-23.8994
-163.846
-159.705
-189.38
-199.144
-208.981
-220.413
-236.236
-247.59
-251.368
-220.955
-234.183
-19.849
-596.095
-281
-24.2082
-164.373
-159.706
-189.145
-199.141
-208.114
-220.234
-235.469
-245.489
-249.613
-219.341
-234.995
-19.729
-595.469
-281.675
-24.6614
-164.966
-159.757
-188.747
-198.814
-205.061
-221.669
-238.997
-247.083
-250.726
-219.482
-235.805
-19.2562
-594.941
-282.36
-25.058
-165.41
-159.752
-188.543
-198.487
-204.336
-223.616
-245.406
-249.456
-252.919
-221.253
-236.513
-18.5626
-594.01
-283.09
-25.6909
-166.035
-159.964
-188.559
-198.493
-205.562
-222.107
-239.706
-248.715
-256.463
-223.558
-236.836
-17.8907
-593.834
-283.569
-25.9735
-166.274
-160.037
-188.597
-198.393
-206.405
-219.008
-232.128
-248.07
-258.779
-225.463
-238.86
-18.4159
-590.941
-284.242
-26.8428
-167.024
-160.458
-188.6
-198.493
-206.798
-217.609
-227.418
-247.602
-260.951
-226.209
-240.91
-18.338
-588.814
-352.508
9.32969
-157.985
-154.727
-178.385
-186.679
-195.974
-204.915
-223.881
-245.145
-264.427
-252.038
-243.418
45.0258
-786.253
-351.788
9.9458
-157.15
-153.469
-177.243
-184.921
-193.884
-209.607
-228.294
-246.179
-264.274
-252.727
-242
40.4458
-790.553
-351.362
9.94522
-156.928
-152.971
-176.899
-183.571
-194.343
-219.3
-236.066
-246.796
-265.186
-252.896
-239.128
36.9991
-795.831
-350.633
10.1437
-156.209
-152.051
-176.232
-181.509
-193
-224.758
-244.665
-251.444
-264.215
-252.025
-237.669
32.825
-797.812
-350.026
9.89202
-155.707
-151.778
-175.954
-181.116
-190.52
-216.618
-240.131
-254.859
-261.953
-251.7
-236.068
29.0959
-799.859
-349.349
9.59974
-155.006
-151.739
-175.8
-182.849
-190.899
-213.537
-234.948
-254.032
-259.9
-251.976
-234.836
25.9824
-801.376
-348.898
9.13785
-154.401
-151.955
-175.809
-183.67
-191.619
-213.931
-235.812
-252.559
-260.895
-252.996
-233.98
24.2088
-801.762
-348.519
8.78875
-154.131
-152.018
-175.797
-184.3
-191.49
-210.917
-236.662
-252.578
-262.033
-254.239
-232.852
23.0636
-803.288
-348.469
8.82663
-154.554
-152.149
-175.969
-184.529
-191.438
-210.86
-235.815
-252.527
-261.718
-253.438
-234.238
24.7585
-801.769
-348.914
9.24706
-155.162
-152.167
-175.94
-184.153
-190.445
-210.776
-233.514
-253.734
-260.694
-252.079
-235.302
26.5962
-801.09
-349.561
9.54623
-155.898
-152.281
-176.129
-183.543
-189.873
-212.018
-235.965
-254.825
-261.915
-251.647
-236.533
29.459
-799.671
-350.193
9.81103
-156.362
-152.458
-176.281
-183.228
-191.381
-218.264
-242.091
-252.847
-264.255
-251.902
-238.204
32.9934
-797.401
-350.914
9.64898
-157.048
-153.19
-176.892
-184.219
-193.469
-216.73
-236.966
-248.619
-265.473
-252.78
-239.719
36.7366
-795.552
-351.345
9.66284
-157.236
-153.587
-177.125
-185.085
-193.268
-208.036
-228.644
-247.886
-264.731
-252.969
-242.678
39.9342
-790.07
-352.044
9.0826
-158.017
-154.674
-178.139
-186.259
-195.163
-202.57
-223.936
-247.736
-265.237
-252.588
-244.22
44.2623
-785.663
-426.224
14.4759
-148.045
-154.235
-169.823
-175.613
-188.122
-188.647
-204.475
-243.911
-270.575
-295.112
-284.381
27.0578
-987.574
-425.474
15.4908
-147.206
-152.113
-167.739
-171.904
-188.944
-195.434
-207.188
-245.901
-270.384
-293.608
-276.205
18.4091
-995.679
-425.065
15.6958
-146.958
-151.148
-166.671
-169.351
-194.103
-206.852
-211.268
-250.092
-271.071
-292.959
-265.708
13.5275
-1005.1
-424.324
15.996
-146.175
-149.391
-164.381
-163.714
-194.337
-210.921
-219.963
-255.234
-271.344
-293.03
-258.689
5.48553
-1009.75
-423.758
15.5106
-145.641
-148.676
-162.956
-161.647
-184.806
-197.146
-224.419
-256.781
-270.684
-293.13
-252.415
-1.70202
-1012.89
-423.088
14.7779
-145.045
-148.414
-162.989
-163.834
-178.729
-187.936
-224.815
-257.44
-270.439
-293.438
-247.821
-7.66222
-1015.48
-422.646
13.7194
-144.553
-148.84
-163.204
-167.476
-177.424
-185.428
-224.296
-257.58
-270.429
-294.276
-245.446
-11.7807
-1015.28
-422.153
12.9909
-144.336
-148.896
-163.163
-167.422
-175.06
-185.335
-222.006
-257.519
-270.407
-294.143
-243.528
-13.1055
-1017.07
-421.949
13.1491
-144.754
-149.076
-163.506
-168.019
-176.172
-185.182
-220.915
-256.175
-270.068
-293.986
-245.126
-11.0701
-1015.51
-422.32
14.1745
-145.299
-148.963
-163.889
-167.587
-176.712
-184.596
-221.893
-256.144
-270.32
-293.451
-247.817
-7.30321
-1014.91
-422.947
14.9974
-145.926
-149.159
-163.949
-164.784
-181.15
-189.203
-222.712
-255.866
-270.669
-292.907
-251.876
-1.71127
-1012.84
-423.518
15.5629
-146.357
-149.577
-164.648
-164.461
-189.179
-201.721
-220.031
-255.163
-271.685
-293.043
-258.137
4.60028
-1009.25
-424.228
15.356
-147.038
-151.089
-166.458
-168.356
-191.057
-204.662
-213.515
-251.197
-271.879
-292.798
-264.55
11.5828
-1005.05
-424.625
15.1948
-147.213
-151.944
-167.273
-171.124
-186.362
-194.88
-209.737
-247.242
-271.488
-293.545
-274.861
15.4284
-995.579
-425.337
14.2561
-147.957
-153.887
-169.016
-174.51
-184.349
-186.31
-207.763
-245.698
-271.819
-295.032
-283.12
22.9465
-987.657
-517.665
-7.80025
-142.514
-163.191
-166.987
-176.02
-178.775
-184.676
-210.916
-254.119
-306.321
-340.649
-414.61
39.9595
-1182.77
-516.747
-5.97907
-141.391
-160.318
-163.097
-172.39
-183.606
-188.244
-211.128
-254.538
-302.449
-340.958
-399.127
21.8012
-1202.27
-516.212
-5.32628
-140.866
-158.86
-159.739
-172.558
-192.936
-193.399
-212.477
-257.681
-300.877
-343.319
-375.125
12.9405
-1233.71
-515.272
-4.35145
-139.718
-155.994
-153.746
-166.933
-193.876
-196.013
-217.099
-260.906
-297.228
-341.496
-347.351
-6.07887
-1246.49
-514.55
-4.45702
-139.034
-154.2
-149.824
-158.987
-182.676
-189.402
-220.791
-262.54
-295.536
-342.519
-324.459
-23.4905
-1252.66
-513.708
-4.94358
-138.677
-153.835
-151.452
-156.587
-172.63
-182.617
-221.669
-262.383
-292.341
-340.787
-308.203
-38.054
-1258.94
-513.144
-6.02711
-138.7
-154.177
-155.186
-156.862
-169.274
-179.913
-220.477
-262.252
-291.575
-341.973
-300.06
-46.3214
-1257.89
-512.424
-6.91119
-138.689
-154.096
-156.023
-155.809
-167.145
-178.392
-218.82
-261.742
-290.541
-341.128
-294.891
-48.7156
-1263.29
-512.132
-6.96437
-139.054
-154.519
-156.571
-157.072
-168.266
-178.225
-218.414
-261.601
-291.72
-342.8
-299.604
-46.0492
-1258.16
-512.636
-5.93855
-139.243
-154.676
-156.1
-157.1
-170.037
-179.418
-220.467
-261.711
-292.7
-341.75
-307.192
-39.4109
-1257.69
-513.432
-5.25242
-139.475
-154.936
-152.982
-158.665
-176.961
-184.111
-220.473
-261.988
-295.929
-343.151
-321.913
-26.5134
-1253.3
-514.125
-4.97723
-139.88
-155.893
-154.456
-162.919
-189.861
-192.679
-218.347
-261.142
-298.244
-342.702
-343.632
-10.0798
-1246.55
-515.006
-5.78825
-140.827
-158.562
-159.248
-171.125
-192.742
-193.302
-214.661
-258.486
-301.784
-343.697
-371.008
6.44078
-1236.8
-515.509
-6.35595
-141.263
-159.898
-162.493
-171.395
-184.199
-188.26
-214.505
-255.517
-303.722
-342.128
-395.835
15.6118
-1204.08
-516.376
-8.05734
-142.292
-162.655
-166.23
-174.832
-176.835
-182.876
-214.764
-254.883
-307.181
-340.663
-409.918
33.179
-1184.44
-629.502
-38.2135
-146.283
-184.055
-175.061
-185.806
-190.205
-196.794
-246.509
-292.113
-400.092
-377.308
-775.933
33.5887
-1412.88
-628.401
-35.9665
-144.833
-180.839
-170.358
-184.81
-193.989
-198.492
-244.399
-289.628
-384.456
-365.22
-673.479
8.76326
-1447.09
-627.734
-35.043
-144.026
-178.797
-165.651
-188.518
-201.343
-200.651
-245.33
-291.663
-373.844
-366.804
-545.608
11.9636
-1506.83
-626.529
-33.4309
-142.403
-174.354
-156.824
-184.919
-201.703
-204
-247.764
-292.897
-360.672
-375.33
-473.365
-17.6916
-1531.04
-625.543
-32.9222
-141.369
-170.343
-151.185
-173.569
-190.375
-203.191
-249.129
-293.728
-351.779
-381.669
-431.076
-40.5095
-1536.3
-624.373
-32.7149
-140.775
-168.679
-150.819
-166.137
-181.395
-199.878
-249.172
-293.713
-344.546
-382.68
-399.162
-55.8981
-1551.32
-623.547
-33.4197
-140.984
-169.708
-155.36
-163.835
-177.158
-197.435
-248.784
-293.941
-341.549
-387.953
-389.184
-68.8044
-1539.15
-622.449
-34.2902
-141.175
-169.847
-157.648
-162.299
-176.389
-194.741
-248.14
-293.714
-339.52
-386.312
-377.652
-70.5384
-1552.8
-622.139
-34.7018
-141.454
-170.356
-158.127
-163.463
-176.824
-195.007
-247.959
-293.873
-342.475
-390.346
-386.484
-66.9906
-1541.73
-622.991
-34.0106
-141.229
-170.071
-154.745
-164.677
-178.842
-197.715
-248.941
-293.635
-345.292
-386.836
-398.134
-59.5661
-1543.4
-624.116
-33.8685
-141.493
-170.4
-152.496
-169.596
-185.054
-200.873
-249.355
-293.999
-352.793
-384.185
-423.668
-45.4554
-1535.49
-625.051
-34.1681
-142.169
-173.32
-155.245
-179.788
-196.738
-204.236
-249.005
-293.377
-361.681
-379.43
-464.858
-27.9616
-1525.31
-626.185
-35.5891
-143.639
-177.943
-163.36
-188.729
-202.398
-201.939
-247.156
-292.321
-374.28
-368.823
-524.714
-4.34887
-1506.14
-626.818
-36.4239
-144.446
-180.174
-168.96
-184.696
-195.762
-198.967
-246.372
-290.273
-384.596
-366.785
-649.38
-11.2804
-1447.39
-627.865
-38.54
-145.885
-183.462
-174.164
-184.541
-188.742
-195.848
-247.826
-292.052
-399.47
-377.445
-750.539
7.16109
-1414.58
-761.831
-69.2118
-160.245
-218.675
-199.378
-204.322
-224.319
-229.213
-312.085
-348.029
-578.2
-319.502
-1595.6
51.0622
-1427.46
-760.606
-66.9203
-158.671
-215.32
-194.412
-202.952
-224.405
-229.582
-307.38
-345.381
-549.372
-324.99
-1581.77
-45.1546
-1469.24
-759.871
-65.9276
-157.807
-213.227
-189.944
-205.963
-228.653
-232.364
-307.012
-348.693
-523.52
-380.805
-1300.63
47.4259
-1736.14
-758.485
-64.0696
-156.044
-208.816
-180.52
-204.046
-226.831
-238.837
-305.631
-346.952
-473.001
-386.669
-879.453
97.5002
-1866.45
-757.323
-63.2149
-154.801
-204.551
-172.248
-197.286
-215.645
-239.774
-304.842
-348
-451.502
-419.07
-648.91
57.1569
-1891.8
-755.921
-62.4579
-153.778
-201.241
-168.402
-189.987
-205.958
-237.457
-303.078
-345.717
-427.713
-420.82
-553.814
3.01286
-1917.39
-754.894
-62.7193
-153.676
-201.315
-170.202
-187.169
-201.464
-236.427
-302.428
-346.996
-421.341
-430.018
-525.575
-33.119
-1900.48
-753.535
-63.4112
-153.863
-201.445
-173.013
-185.672
-201.482
-234.684
-301.88
-345.776
-414.188
-428.833
-491.029
-29.5794
-1920.91
-753.115
-64.17
-154.192
-202.031
-173.408
-186.015
-201.399
-235.311
-302.726
-348.087
-422.887
-438.034
-516.974
-22.2916
-1899.29
-754.15
-63.948
-154.045
-202.185
-170.46
-188.187
-203.644
-237.086
-303.801
-347.417
-429.915
-429.912
-546.495
-2.43845
-1904.72
-755.583
-64.2634
-154.706
-204.058
-172.028
-193.049
-210.442
-239.447
-306.311
-349.789
-452.968
-425.443
-623.346
50.1742
-1892.41
-756.681
-64.9361
-155.665
-207.844
-177.878
-200.132
-223.291
-242.192
-307.576
-349.04
-474.529
-396.544
-828.517
95.2236
-1868.17
-757.997
-66.6134
-157.366
-212.589
-188.095
-206.616
-231.212
-237.577
-309.181
-350.903
-523.928
-387.604
-1240.58
32.853
-1773.36
-758.699
-67.5314
-158.278
-214.999
-193.794
-204.551
-227.265
-233.257
-308.751
-347.612
-550.722
-334.175
-1581.48
-63.5884
-1479.22
-759.87
-69.6962
-159.884
-218.528
-199.528
-205.293
-225.225
-232.303
-312.98
-349.286
-580.729
-322.625
-1597.26
39.9449
-1429.46
-916.416
-103.99
-180.625
-266.876
-244.236
-251.683
-275.896
-276.163
-396.433
-373.051
-728.897
-280.558
-1467.54
55.2087
-1883.88
-915.117
-101.772
-179.114
-263.483
-239.203
-247.262
-271.991
-275.832
-387.363
-371.754
-718.549
-293.443
-1538.54
-131.432
-1942.46
-914.335
-100.792
-178.358
-261.414
-235.749
-245.309
-273.84
-279.915
-384.681
-384.745
-672.221
-329.241
-1567.37
-79.357
-2190.35
-912.843
-98.9353
-176.745
-257.454
-228.737
-238.216
-274.773
-285.739
-378.323
-386.372
-581.681
-355.426
-1131.84
47.1352
-2338.84
-911.596
-97.9968
-175.597
-253.968
-221.621
-229.151
-268.259
-287.957
-375.932
-393.108
-550.331
-425.588
-830.286
57.0476
-2329.09
-910.119
-97.015
-174.416
-250.641
-215.739
-222.658
-257.462
-284.962
-371.375
-390.635
-513.409
-421.927
-658.53
6.51491
-2425.27
-909.008
-96.9483
-174.063
-249.624
-214.917
-221.185
-252.1
-284.099
-370.5
-395.171
-506.858
-428.773
-734.556
-57.6687
-2325.47
-907.721
-97.2946
-174.049
-249.377
-216.441
-221.827
-251.517
-282.087
-369.668
-391.954
-494.157
-443.16
-613.902
-8.16881
-2425.99
-907.006
-98.3617
-174.506
-250.093
-217.171
-221.366
-251.391
-282.924
-372.889
-397.636
-509.624
-467.819
-658.351
5.98767
-2343.2
-907.766
-98.7081
-174.679
-251.053
-216.922
-222.048
-254.693
-284.366
-374.54
-395.143
-517.214
-449.345
-680.528
9.82648
-2360.27
-909.442
-99.2273
-175.489
-253.642
-221.152
-226.302
-263.451
-287.272
-380.042
-397.297
-552.269
-440.809
-766.421
73.7661
-2326.81
-910.601
-100.001
-176.455
-256.966
-227.495
-234.42
-273.58
-289.874
-383.405
-390.558
-584.433
-380.455
-1086.35
59.7986
-2311.87
-912.008
-101.699
-178.017
-261.116
-235.401
-244.74
-278.362
-286.622
-389.831
-388.957
-673.402
-339.603
-1529.81
-106.712
-2196.83
-912.747
-102.602
-178.813
-263.428
-239.543
-248.642
-276.13
-281.365
-390.987
-376.591
-721.518
-307.456
-1539.76
-160.853
-1905.88
-913.982
-104.677
-180.343
-266.991
-245.224
-253.896
-280.321
-281.245
-400.302
-377.161
-733.769
-290.4
-1441.62
32.5562
-1846.99
-1091.51
-150.354
-206.124
-328.031
-307.38
-325.586
-370.221
-346.542
-497.07
-411.784
-870.716
-398.477
-1544.82
205.725
-2251.43
-1090.28
-148.23
-204.709
-324.855
-302.499
-319.931
-361.758
-340.743
-483.829
-414.124
-859.668
-407.229
-1619.26
-12.4588
-2336.79
-1089.52
-147.273
-204.079
-322.964
-299.603
-316.519
-358.023
-341.203
-480.931
-423.21
-841.885
-399.114
-1771.05
-70.4533
-2565.93
-1088.08
-145.484
-202.64
-319.46
-294.039
-308.821
-349.92
-339.889
-467.403
-427.448
-706.026
-390.245
-1423.88
62.6763
-2841.88
-1086.88
-144.558
-201.678
-316.642
-289.11
-300.307
-338.297
-340.328
-464.355
-438.01
-660.849
-452.621
-1065.9
87.5047
-2801.05
-1085.45
-143.553
-200.539
-313.739
-284.15
-292.283
-326.443
-335.768
-456.279
-435.308
-615.716
-431.213
-829.405
-4.80972
-2981.7
-1084.35
-143.358
-200.09
-312.44
-282.392
-289.843
-322.91
-334.15
-454.999
-442.259
-608.058
-385.002
-1044.04
-196.924
-2686.94
-1083.2
-143.461
-199.877
-311.972
-282.493
-291.178
-323.517
-332.802
-452.758
-440.679
-596.455
-450.041
-782.364
-29.8817
-2994.49
-1082.38
-144.464
-200.283
-312.699
-283.464
-291.587
-323.72
-333.821
-457.695
-445.191
-604.697
-492.889
-839.19
47.6536
-2874.3
-1082.56
-145.279
-200.721
-313.943
-284.849
-292.975
-326.296
-335.243
-461.993
-443.87
-625.884
-487.308
-854.633
54.6329
-2892.55
-1084.02
-146.127
-201.646
-316.534
-289.144
-299.138
-335.528
-339.667
-471.16
-442.988
-661.243
-482.273
-955.679
150.669
-2849.14
-1085.29
-146.796
-202.469
-319.296
-294.045
-307.576
-349.337
-342.322
-476.688
-431.926
-714.285
-426.575
-1388.8
72.4608
-2836.95
-1086.64
-148.382
-203.833
-322.871
-300.09
-316.81
-361.199
-345.688
-489.813
-425.325
-849.366
-411.894
-1725.07
-114.005
-2572.47
-1087.34
-149.264
-204.486
-324.92
-303.402
-321.392
-366.391
-346.563
-491.916
-416.402
-859.518
-429.988
-1595.72
-48.3102
-2302.19
-1088.47
-151.219
-205.885
-328.19
-308.72
-327.866
-376.161
-353.412
-506.17
-415.909
-871.457
-421.178
-1516.74
158.3
-2205.59
-1278.9
-213.597
-236.799
-402.061
-385.726
-414.667
-489.57
-463.533
-652.83
-489.418
-1014.95
-436.304
-1797.77
245.573
-2671.15
-1277.85
-211.63
-235.487
-399.224
-381.232
-409.089
-480.159
-454.455
-631.659
-485.391
-981.91
-431.929
-1819.02
20.3507
-2794.11
-1277.17
-210.706
-234.967
-397.625
-378.766
-405.977
-474.954
-449.979
-621.586
-482.167
-972.31
-410.143
-2098.07
-183.994
-2972.66
-1275.92
-209.024
-233.69
-394.634
-374.021
-399.518
-463.764
-438.517
-587.786
-477.039
-816.014
-417.773
-1793.46
-34.2075
-3447.61
-1274.86
-208.114
-232.904
-392.424
-370.384
-393.882
-453.597
-429.658
-569.351
-486.144
-776.019
-459.758
-1337.01
92.0451
-3391.1
-1273.59
-207.148
-231.89
-389.999
-366.455
-387.796
-442.363
-418.347
-550.247
-487.215
-749.286
-437.799
-1064.88
-78.0767
-3638.61
-1272.56
-206.909
-231.438
-388.799
-364.753
-385.288
-438.831
-416.419
-544.502
-493.6
-755.988
-365.207
-1292.51
-323.375
-3213.7
-1271.57
-206.891
-231.131
-388.23
-364.274
-385.314
-439.553
-418.426
-543.12
-491.792
-739.471
-443.376
-1086.86
-70.7318
-3697.48
-1270.94
-207.617
-231.419
-388.867
-365.31
-386.418
-441.102
-419.459
-546.775
-489.611
-728.96
-492.176
-1078.01
79.6539
-3652.18
-1270.53
-208.59
-231.852
-390.001
-367.004
-388.584
-444.574
-421.504
-557.767
-496.85
-772.569
-526.639
-1106.25
145.2
-3513.31
-1271.08
-209.893
-232.785
-392.263
-370.738
-393.947
-454.283
-430.142
-575.903
-495.847
-807.595
-505.421
-1254.68
198.491
-3511.6
-1272.14
-210.688
-233.534
-394.466
-374.502
-399.729
-465.521
-440.133
-595.296
-488.333
-845.456
-477.199
-1738.61
1.3266
-3444.39
-1273.37
-212.05
-234.724
-397.426
-379.462
-406.727
-478.205
-453.075
-631.582
-488.984
-1002.66
-433.104
-2048.2
-221.37
-2938.25
-1274.03
-212.806
-235.26
-399.112
-382.206
-410.45
-484.556
-459.61
-642.028
-493.234
-989.799
-456.79
-1772.2
4.78069
-2724.63
-1274.97
-214.509
-236.497
-401.923
-386.901
-416.462
-494.934
-470.193
-665.09
-501.887
-1024.84
-452.745
-1775.86
174.217
-2572.19
-1473.75
-298.292
-273.351
-488.935
-478.142
-513.363
-617.324
-589.841
-819.202
-609.313
-1223.79
-461.506
-2147.07
331.559
-3202.73
-1472.89
-296.552
-272.152
-486.462
-474.112
-508.101
-608.029
-578.856
-794.028
-589.72
-1165.51
-440.461
-2153.36
43.6423
-3395.67
-1472.29
-295.686
-271.714
-485.137
-472.026
-505.359
-602.95
-572.63
-779.972
-571.283
-1140.01
-405.598
-2460.36
-301.59
-3639.16
-1471.24
-294.165
-270.589
-482.616
-467.978
-499.866
-592.691
-559.766
-743.708
-540.976
-962.766
-423.561
-2128.86
-46.8028
-4210.01
-1470.32
-293.285
-269.945
-480.88
-465.209
-495.855
-585.272
-550.907
-724.294
-542.088
-906.151
-422.14
-1561.97
145.554
-4239.66
-1469.22
-292.373
-269.072
-478.888
-462.067
-491.29
-576.881
-540.751
-704.307
-540.842
-913.286
-439.108
-1383.91
-151.818
-4536.96
-1468.29
-292.096
-268.665
-477.883
-460.656
-489.261
-573.72
-538.645
-701.073
-541.271
-932.856
-393.581
-1507.89
-349.79
-3899.68
-1467.41
-292.031
-268.333
-477.288
-460.019
-488.63
-573.211
-540.04
-702.963
-543.439
-912.672
-418.442
-1567.09
-277.468
-4153.52
-1466.82
-292.572
-268.513
-477.779
-460.99
-489.83
-575.383
-541.455
-704.749
-538.499
-895.744
-458.008
-1378.33
-82.0878
-4625.92
-1466.41
-293.302
-268.826
-478.665
-462.504
-491.899
-579.252
-544.892
-715.792
-554.624
-941.059
-513.101
-1452.55
224.955
-4305.59
-1466.42
-294.523
-269.595
-480.456
-465.62
-496.24
-587.876
-554.165
-739.425
-562.301
-999.013
-515.244
-1564.28
253.197
-4355.85
-1466.63
-295.584
-270.236
-482.14
-468.527
-500.406
-595.965
-563.279
-756.647
-558.557
-1001.08
-498.4
-2031.23
27.8602
-4258.45
-1467.34
-296.957
-271.261
-484.514
-472.634
-506.026
-607.177
-576.806
-796.524
-583.402
-1199.7
-447.353
-2419.99
-249.06
-3609.71
-1467.85
-297.678
-271.753
-485.875
-474.908
-509.089
-612.902
-583.993
-809.454
-601.236
-1193.61
-470.479
-2087.92
80.6042
-3354.66
-1468.56
-299.042
-272.833
-488.197
-478.951
-514.452
-622.818
-595.81
-836.407
-623.987
-1253.55
-476.677
-2132.69
308.514
-3115.41
-1659.51
-403.396
-317.568
-586.456
-589.822
-627.611
-768.992
-729.151
-1022.55
-732.769
-1492.43
-453.289
-2537.31
814.635
-4214.65
-1658.79
-401.892
-316.469
-584.331
-586.221
-622.849
-760.259
-718.304
-998.175
-707.75
-1435.84
-435.963
-2694.08
310.399
-4376.36
-1658.25
-401.093
-316.077
-583.232
-584.425
-620.575
-755.685
-712.913
-984.366
-691.522
-1393.54
-430.566
-2767.69
-5.11152
-4809.81
-1657.36
-399.75
-315.072
-581.109
-580.921
-615.946
-746.709
-701.859
-952.731
-655.259
-1212.69
-423.923
-2371.42
351.202
-5122.92
-1656.52
-398.907
-314.509
-579.709
-578.703
-613.033
-741.199
-695.717
-938.654
-650.365
-1176.17
-399.318
-1841.01
230.523
-5594.75
-1655.54
-398.047
-313.738
-578.053
-576.106
-609.548
-734.844
-688.438
-925.418
-649.648
-1219.03
-457.765
-1964.51
-291.369
-5673.75
-1654.67
-397.697
-313.359
-577.192
-574.956
-608.038
-732.536
-686.739
-924.096
-654.734
-1231.4
-454.05
-1930.57
-244.441
-4817.81
-1653.83
-397.554
-313.018
-576.58
-574.261
-607.231
-731.619
-686.929
-925.221
-661.97
-1233.64
-469.216
-2000.77
-292.771
-4954.53
-1653.21
-397.901
-313.091
-576.842
-575.06
-608.28
-734.135
-689.091
-930.017
-656.567
-1203.56
-496.349
-1857.37
-12.1062
-5778.37
-1652.7
-398.427
-313.253
-577.415
-576.249
-609.894
-737.589
-692.395
-938.005
-662.708
-1234.22
-525.153
-1978.28
424.604
-5472.17
-1652.5
-399.338
-313.794
-578.719
-578.75
-613.273
-745.23
-700.907
-964.137
-682.046
-1331.89
-548.087
-2072.65
512.107
-5332.71
-1652.39
-400.184
-314.272
-579.932
-580.989
-616.288
-751.498
-707.616
-976.731
-680.102
-1294.88
-515.806
-2427.87
320.087
-5208.56
-1652.58
-401.305
-315.063
-581.704
-584.328
-620.752
-761.379
-719.259
-1014.83
-715.53
-1513.99
-495.601
-2970.68
2.05038
-4398.2
-1652.62
-402.056
-315.5
-582.744
-586.193
-623.194
-766.477
-725.274
-1027.77
-730.783
-1515.72
-490.614
-2634.79
334.049
-4147.52
-1652.92
-403.125
-316.375
-584.517
-589.546
-627.692
-775.573
-736.291
-1054.61
-755.953
-1582.56
-486.476
-2642.39
736.706
-3776.67
-1836.57
-534.403
-371.473
-695.884
-716.651
-750.808
-934.436
-878.424
-1266.08
-899.322
-1903.96
-534.756
-3273.69
1243.91
-6101.84
-1835.93
-533.034
-370.418
-694.014
-713.304
-746.491
-925.995
-868.416
-1242.73
-876.063
-1852.32
-510.506
-3500.27
759.068
-6400.91
-1835.41
-532.263
-370.025
-693.051
-711.594
-744.494
-921.438
-863.885
-1228.49
-865.864
-1800.17
-507.563
-3271.91
714.384
-7176.64
-1834.57
-531.016
-369.065
-691.185
-708.343
-740.398
-912.887
-854.413
-1200.66
-839.714
-1670.67
-496.566
-2856.55
838.015
-7515.74
-1833.75
-530.171
-368.51
-689.955
-706.305
-737.971
-907.82
-849.651
-1187.33
-832.862
-1636.23
-501.907
-2577.91
565.019
-7744.49
-1832.8
-529.315
-367.77
-688.475
-703.903
-734.949
-901.893
-843.345
-1173.22
-824.706
-1640.45
-533.249
-2690.81
17.9029
-7435.27
-1831.92
-528.869
-367.37
-687.638
-702.774
-733.569
-899.691
-841.285
-1170.66
-826.773
-1643.72
-544.568
-2686.89
166.219
-6288.16
-1831.05
-528.616
-366.999
-686.953
-701.919
-732.495
-897.992
-839.631
-1167.49
-827.796
-1643.4
-557.34
-2732.03
125.962
-6404.83
-1830.32
-528.766
-366.964
-686.944
-702.393
-733.085
-900.173
-841.281
-1175.22
-827.974
-1653.65
-560.249
-2708.01
165.927
-7308.08
-1829.7
-529.097
-367.014
-687.174
-703.187
-734.012
-902.606
-842.635
-1179.8
-823.092
-1651.46
-561.432
-2704.27
511.294
-7456.24
-1829.28
-529.751
-367.364
-687.998
-705.144
-736.445
-909.249
-848.877
-1205.68
-841.097
-1758.97
-564.752
-2929.49
552.3
-6773.56
-1828.95
-530.414
-367.687
-688.826
-706.884
-738.503
-914.374
-852.596
-1218.17
-838.656
-1754.63
-526.505
-2960.88
637.321
-7424.42
-1828.86
-531.245
-368.249
-690.087
-709.577
-741.883
-923.145
-861.082
-1251.57
-863.032
-1911.35
-530.912
-3617.17
374.276
-6540.41
-1828.7
-531.88
-368.628
-690.87
-711.128
-743.73
-927.707
-865.031
-1263.89
-869.873
-1923.47
-528.524
-3447.28
570.973
-6124.85
-1828.77
-532.625
-369.305
-692.155
-713.877
-747.296
-936.105
-873.986
-1290.3
-889.544
-1989.83
-521.324
-3393.57
1161.32
-5656.49
-1946.32
-712.703
-447.595
-802.783
-882.955
-901.141
-1158.89
-1034.73
-1592.53
-988.486
-2403.99
-386.921
-4202.09
2202.99
-7701.49
-1945.75
-711.472
-446.468
-801.129
-879.641
-897.609
-1150.43
-1028.32
-1571.02
-982.901
-2385.94
-414.367
-4526.46
1882.02
-7871.74
-1945.24
-710.728
-446.007
-800.327
-877.88
-896.274
-1145.89
-1026.93
-1558.45
-985.847
-2359.9
-436.005
-4601.12
1746.77
-8378.57
-1944.44
-709.565
-444.971
-798.687
-874.605
-893.115
-1137.41
-1021.83
-1532.94
-982.607
-2268
-506.078
-4343.14
1114.68
-9447.62
-1943.62
-708.692
-444.31
-797.588
-872.441
-891.369
-1132.38
-1019.99
-1520.82
-984.687
-2228.72
-573.3
-4174.86
764.288
-9361.53
-1942.68
-707.793
-443.466
-796.212
-869.882
-888.976
-1126.43
-1016.42
-1506.47
-981.029
-2200.77
-620.548
-4195.43
265.098
-9685.58
-1941.75
-707.182
-442.913
-795.308
-868.45
-887.769
-1124.42
-1015.45
-1508.78
-983.283
-2238.77
-593.823
-4097.6
638.592
-8783.98
-1940.82
-706.718
-442.382
-794.477
-867.186
-886.686
-1122.4
-1014.51
-1506.47
-987.055
-2238.95
-619.449
-4134.22
668.454
-8775.25
-1939.98
-706.546
-442.125
-794.123
-867.059
-886.793
-1124.33
-1015.91
-1518.46
-990.946
-2276.37
-605.82
-4151.2
760.228
-9811.75
-1939.21
-706.535
-441.958
-793.956
-867.245
-887.162
-1126.41
-1017.27
-1525.76
-997.078
-2284.18