/*--------------------------------*- C++ -*----------------------------------*\
| =========                 |                                                 |
| \\      /  F ield         | OpenFOAM: The Open Source CFD Toolbox           |
|  \\    /   O peration     | Version:  4.1                                   |
|   \\  /    A nd           | Web:      www.OpenFOAM.org                      |
|    \\/     M anipulation  |                                                 |
\*---------------------------------------------------------------------------*/
FoamFile
{
    version     2.0;
    format      ascii;
    class       surfaceScalarField;
    location    "19";
    object      phi;
}
// * * * * * * * * * * * * * * * * * * * * * * * * * * * * * * * * * * * * * //

dimensions      [0 3 -1 0 0 0 0];

internalField   nonuniform List<scalar> 
19125
(
120.299
-3.03058
1605.2
108.805
-9.64162
1379.4
90.4515
-3.83662
1075.61
101.575
5.04098
959.154
110.213
18.813
824.39
126.738
20.9223
621.753
158.189
88.5596
597.265
184.488
0.171068
397.552
318.037
-45.3669
-14.1033
353.488
80.4223
-506.938
117.162
257.59
-250.456
6.64682
15.1766
753.131
-46.8941
-2.41682
1017.26
-99.9929
-6.67906
1409.68
1.18165
1900.64
119.397
-3.86523
1602.48
107.805
-11.8026
1388.17
90.7808
-3.74311
1104.86
102.63
6.94458
988.69
114.905
23.5451
832.544
136.743
22.8048
618.358
164.379
136.017
536.864
206.157
23.6698
330.325
339.671
-54.5021
15.2531
398.681
72.0132
-411.991
157.163
324.634
-258.285
13.9372
46.1127
692.503
-44.2704
5.32614
1040.21
-100.882
-5.14587
1408.18
2.07032
1876.45
118.693
-4.36161
1600.54
107.374
-13.0996
1398.84
91.6159
-3.64941
1127.42
104.103
7.80907
1005.16
121.149
24.2666
830.535
146.272
22.9281
618.548
199.896
149.397
481.844
371.325
-37.4152
214.824
553.056
-167.904
-185.506
531.871
93.0887
-516.366
210.57
448.453
-297.666
17.0318
119.782
711.259
-42.6042
14.9526
1041.23
-104.03
-0.592426
1403.99
2.94479
1831.54
118.065
-4.40975
1593.97
107.473
-13.6505
1407.05
93.1085
-3.41633
1148.32
106.002
8.09319
1020.06
128.842
20.5162
825.893
151.591
29.5736
608.613
262.167
108.919
473.318
488.779
-110.431
4.06
554.905
-255.625
-610.323
421.84
81.599
-699.818
128.459
416.378
-226.679
-5.07226
148.915
861.799
-48.4939
8.73251
1041.63
-105.144
2.57221
1423.13
2.71183
1842.22
117.726
-3.90694
1583.1
107.442
-12.7653
1418.66
94.1446
-3.13052
1171.76
107.735
7.1464
1035.45
132.767
15.0194
823.156
162.132
32.0997
599.003
299.692
53.9237
445.112
408.414
-78.0888
-247.715
257.638
-188.395
-830.322
80.6413
32.8526
-554.289
-42.6612
149.019
73.3747
-18.5115
54.5703
910.267
-56.6952
-3.41272
1032.13
-105.719
-1.07183
1427.92
1.50732
1847.54
117.818
-2.71189
1565.97
107.231
-9.32758
1430.01
94.7474
-2.44388
1196.73
108.997
4.92637
1052.44
134.318
8.32358
824.854
167.87
29.8776
597.412
291.054
9.28113
399.912
371.742
12.6276
-180.071
123.447
6.45706
-730.145
-83.5292
36.5178
-299.265
-85.5051
-10.8195
460.588
-17.6945
-81.1589
832.126
-60.6252
-12.324
1028.45
-106.186
-6.39318
1438.69
0.033429
1846.61
118.64
-0.934112
1541.86
106.988
-2.61498
1435.29
94.7577
-0.784073
1217.62
109.387
1.90413
1070.28
132.992
1.85199
832.605
174.496
18.3384
603.757
252.636
-9.87699
336.623
420.942
5.67842
-14.4862
440.727
34.7401
-574.61
322.727
13.7417
-513.769
89.17
-84.5599
-61.489
-4.18383
-83.7268
709.229
-54.524
-14.6844
1032.66
-106.282
-5.60647
1441.06
-0.617387
1832.84
119.146
1.07203
1531.49
107.146
5.02041
1433.28
94.8369
1.41086
1221.09
110.066
-1.5611
1075.39
131.31
-2.70111
835.73
189.057
-9.71476
611.563
246.902
-8.49317
274.784
400.242
-19.4183
-19.2742
546.01
-24.0587
-443.223
572.531
-69.2925
-545.942
277.574
-38.9129
-251.522
27.2677
45.0867
606.888
-48.281
8.64599
1040.09
-106.948
1.14226
1434.51
-0.265217
1803.24
118.46
2.88686
1547.64
107.049
10.9119
1433.98
94.7681
2.95003
1213.92
109.883
-4.84938
1067.54
131.987
-7.82
833.466
183.729
-32.5099
605.001
244.216
-11.2061
295.138
402.034
-38.0335
-4.26443
491.391
-30.9947
-492.672
430.255
-100.224
-523.657
160.93
-40.5883
-126.693
4.98157
93.8758
684.296
-52.466
13.9891
1040.13
-105.333
3.91877
1443.44
-0.843588
1837.67
117.83
4.05311
1570.79
107.256
13.7229
1427.67
94.7129
3.52532
1192.2
109.105
-7.01509
1049.52
133.488
-14.1307
826.661
165.37
-35.754
596.848
258.669
-37.5214
384.134
393.975
6.80558
-34.6502
265.175
111.703
-649.306
-2.47743
-28.1198
-401.438
-97.4248
-139.541
333.712
-19.2519
-50.9476
824.245
-60.7536
4.46399
1034.69
-105.25
-1.62458
1439.55
-2.36727
1853.76
117.857
4.5174
1587.34
107.436
14.1699
1416.39
94.1002
3.68247
1166.87
108.005
-8.13449
1032.28
132.719
-19.7665
822.405
160.355
-33.8829
596.958
291.662
-89.8924
440.716
395.909
72.9445
-179.249
237.53
213.767
-804.758
69.8311
-81.6124
-524.031
-39.3455
-416.077
90.3131
-18.0628
-143.931
908.943
-56.8623
-6.62816
1042.59
-105.002
-4.66243
1433.42
-3.5528
1852.35
118.278
4.42172
1597.53
107.464
13.3092
1404.81
93.0631
3.79529
1142.97
106.273
-8.02161
1016.38
129.566
-24.0269
822.839
151.193
-27.1297
603.53
271.529
-139.93
477.763
474.805
42.0782
-55.9027
497.238
162.604
-715.415
376.702
-128.917
-713.261
110.846
-497.337
-191.078
-8.26922
-126.34
892.983
-49.4948
-14.6343
1054.74
-104.663
-1.35417
1431.13
-3.84344
1846.61
118.952
3.88707
1603.55
107.352
11.8311
1396.79
91.5845
3.75903
1121.9
104.294
-7.18625
1001.1
122.658
-24.3827
825.919
145.261
-24.3088
614.36
209.36
-140.571
481.444
406.785
-22.977
164.654
583.207
49.6135
-303.008
536.972
-105.57
-578.015
205.145
-382.986
-292.107
13.5384
-56.0998
752.211
-43.407
-7.27227
1056.08
-103.529
3.71632
1413.04
-2.95463
1835.85
119.683
3.0218
1605.07
107.781
9.56363
1386.27
90.6975
3.76324
1099.2
102.821
-5.29829
984.127
115.863
-20.0131
827.559
137.61
-22.0175
614.387
167.42
-97.6268
526.271
230.987
-7.3112
300.301
373.898
38.8498
-25.3561
424.895
-106.315
-423.629
167.013
-304.33
-255.182
14.3659
-19.9674
707.826
-44.7671
1.12753
1055.95
-100.327
5.81187
1417.56
-1.83375
1880.07
120.587
1607.46
108.751
1377.84
90.2754
1070.18
101.649
954.392
110.478
819.163
127.298
617.386
156.774
585.497
184.672
379.122
322.594
-31.3852
365.241
-506.038
124.02
-247.564
7.17315
763.961
-47.5468
1033.86
-99.4193
1419.63
1904.34
356.571
-8.71233
1511.71
324.332
-26.6453
1421.07
273.722
-17.3677
1131.41
283.752
2.61162
947.365
304.075
31.3707
792.499
350.195
17.3444
571.923
444.729
128.411
456.501
575.973
-39.3237
283.551
726.624
97.6269
-200.773
577.949
305.446
-412.95
157.056
273.729
130.141
-76.1033
73.9713
960.939
-224.078
-18.9411
1170.19
-394.208
-19.8294
1586.35
13.4502
1887.38
353.457
-11.1109
1510.42
321.135
-32.1216
1425.97
273.327
-18.6793
1153.98
284.026
5.86277
974.74
311.176
36.3347
800.427
362.142
16.5241
568.209
464.972
161.948
400.494
631.508
-106.959
231.42
788.995
98.3308
-142.941
668.82
397.063
-383.436
226.735
396.767
60.7602
-63.0054
135.887
920.326
-224.368
-4.26482
1186.9
-400.41
-18.8588
1583.25
16.5904
1865.09
351.244
-12.6349
1509.4
319.011
-34.9692
1433.92
273.649
-19.1184
1173.23
284.648
8.32525
991.7
319.539
32.4566
799.519
369.364
24.8321
560.411
504.301
131.94
376.91
748.063
-257.545
121.645
862.854
37.3314
-239.301
671.407
483.337
-411.196
217.106
478.697
74.7014
-67.9659
190.294
941.921
-233.739
13.8136
1188.93
-418.944
-5.62582
1575.96
9.34415
1819.7
349.031
-12.8771
1503.87
318.159
-35.7552
1438.72
275.722
-18.6116
1190.25
287.479
10.2839
1006.34
324.635
27.0717
794.119
377.75
39.3885
540.938
532.905
104.127
345.972
740.456
-298.072
-162.968
693.821
2.80431
-529.164
415.225
451.13
-389.018
55.5984
311.999
299.642
-103.07
178.727
1032.03
-238.446
2.1279
1188.69
-413.078
0.261086
1591.87
6.45094
1831.71
347.76
-11.4849
1493.5
317.266
-32.6991
1446.1
276.58
-16.7726
1210.61
290.329
9.26324
1022.72
322.173
26.5986
791.782
394.324
32.5979
533.639
526.859
137.938
278.761
528.022
-154.296
-392.658
349.298
-31.9377
-616.859
118.355
251.624
-123.845
-99.0356
39.3183
563.439
-114.491
68.0647
1036.38
-245.639
-18.5665
1183.97
-410.654
-5.71892
1598.91
4.59956
1838.47
347.731
-8.0492
1476.31
316.59
-23.3934
1451.85
277.116
-12.5389
1231.97
291.793
6.02856
1040.99
326.959
20.7357
795.548
399.104
18.7672
539.093
538.066
133.596
265.287
495.164
50.016
-341.487
264.007
1.07243
-532.001
47.6684
125.936
42.7539
-115.062
25.9428
636.688
-103.972
-84.1048
973.202
-248.755
-30.8497
1185.51
-409.621
-14.1676
1608
3.3193
1838.69
349.94
-3.0701
1451.69
316.928
-6.61354
1451.53
276.768
-3.93348
1249.17
291.144
2.15566
1059.77
330.829
7.53312
806.119
395.295
7.75551
550.298
542.778
58.6912
264.038
678.514
78.5702
-178.781
615.159
11.502
-521.688
460.639
0.908059
-234.226
129.383
-29.0258
324.728
-80.6821
-73.6028
908.789
-242.863
-26.9706
1190.96
-412.748
-11.1812
1607.96
1.62554
1824.58
351.389
2.67736
1440.67
317.869
12.2307
1447.96
276.888
6.72143
1251.42
291.755
-1.82072
1064.5
329.129
-4.22977
810.115
399.429
-10.3535
559.368
524.743
-19.3301
227.484
735.576
-28.3572
-123.186
819.07
-47.2394
-467.979
693.044
-68.0144
-350.998
302.628
-39.4678
149.329
-39.3662
18.2961
856.98
-242.445
18.6783
1197.52
-422.988
4.74103
1599.13
-6.09323
1795.04
349.482
8.16252
1456.73
316.818
27.1817
1451.69
276.973
14.3396
1246.15
291.672
-5.91531
1056.94
330.899
-16.9309
806.937
396.991
-25.7598
554.309
525.753
-96.316
243.355
704.815
-77.449
-134.24
714.947
-55.9461
-494.101
555.466
-147.358
-284.838
188.288
-57.838
258.848
-69.7176
59.0943
901.5
-238.435
31.9646
1195.56
-408.961
8.83038
1609.87
-7.23778
1831.07
347.851
11.7025
1480.32
316.648
34.9896
1451.07
277.451
17.6887
1228.05
291.521
-8.88099
1038.42
331.566
-27.3768
797.058
391.187
-33.0604
544.523
534.757
-142.39
286.632
588.312
60.2367
-225.896
409.843
6.86582
-533.653
159.211
-233.362
-64.8083
-65.5765
-43.6701
544.325
-100.037
-54.7157
972.512
-244.294
21.8034
1189.1
-404.826
0.0736952
1608.84
-7.4855
1847.67
348.192
13.0816
1496.84
317.395
36.9629
1445.21
276.679
18.902
1206.37
290.699
-10.455
1019.83
325.4
-30.3844
790.708
392.011
-42.1882
539.47
517.471
-129.624
302.484
511.576
235.649
-348.77
335.365
-9.43174
-612.254
130.307
-438.515
-113.826
-88.2607
-295.422
560.626
-112.958
-159.284
1038.21
-242.516
2.81144
1191.14
-406.702
-4.67875
1602.35
-8.92693
1845.26
349.658
12.7489
1506.53
318.342
35.3926
1437.7
275.622
19.0504
1185.55
287.96
-9.26887
1002.85
325.201
-34.8432
790.053
379.121
-33.7573
541.175
517.593
-146.494
356.157
677.575
258.432
-238.671
610.321
-55.4971
-602.099
357.549
-530.448
-368.557
26.4484
-501.774
346.37
-108.579
-184.49
1053.21
-236.896
-11.716
1197.58
-409.587
2.18073
1596.96
-11.6367
1837.91
351.954
11.1405
1511.52
319.165
32.0881
1432.88
273.46
18.3321
1168.32
284.685
-6.94073
987.547
320.962
-39.3508
794.145
368.167
-23.5077
556.899
498.799
-176.298
380.608
743.279
127.127
51.4725
839.162
-119.209
-335.185
632.928
-468.036
-434.196
188.303
-453.546
104.285
-76.5589
-140.897
973.476
-232.408
1.75877
1198.46
-414.942
15.9316
1581.82
-18.4452
1826.1
354.214
8.66386
1512.12
321.275
26.3583
1424.94
273.003
16.8503
1148.96
283.817
-3.56088
969.931
312.483
-34.9975
794.533
360.623
-21.1577
563.889
462.215
-147.02
395.393
643.69
45.1015
200.842
803.353
-132.391
-171.845
673.252
-375.094
-386.473
221.838
-325.442
68.1216
-67.0903
-79.4946
935.348
-223.358
16.5298
1197.45
-396.704
17.759
1589.08
-14.7617
1870.59
357.285
1513.13
324.374
1420.16
273.107
1126.55
283.257
942.149
303.645
786.186
348.584
566.626
438.971
444.884
575.067
263.813
732.919
-219.995
584.09
-411.167
156.379
134.976
-79.7586
972.505
-223.483
1181.5
-390.585
1592.59
1892.86
582.685
-13.2206
1291.58
533.316
-37.4888
1481.15
458.826
-37.9837
1215.57
434.619
-17.4446
974.933
446.002
2.6759
781.283
480.202
-8.04381
539.341
580.585
-11.6339
379.072
724.253
-74.1558
178.349
701.843
211.735
-230.128
314.892
282.679
-85.596
-165.747
123.751
598.985
-464.357
20.3949
1253.61
-740.099
-53.445
1462.63
-901.581
-5.30899
1748.26
29.5445
1534.64
576.367
-16.7591
1294
526.518
-44.3056
1482.64
455.476
-42.5117
1229.56
431.127
-14.6599
996.304
447.089
-1.72278
788.862
484.754
-2.14518
524.642
614.777
-78.1445
336.978
807.543
-235.396
199.891
804.643
232.671
-160.98
419.976
386.476
-102.57
-111.542
169.46
546.567
-461.144
46.9252
1243.4
-746.827
-48.0639
1467.2
-909.478
-5.58613
1746.18
33.6827
1520.33
572.587
-19.2823
1295.02
521.845
-47.1215
1487.48
452.776
-43.9605
1243.75
429.297
-10.9679
1011.49
444.506
-7.91647
790.502
493.532
3.09569
506.14
672.495
-148.881
268.68
884.657
-394.264
68.3479
819.646
277.683
-219.304
386.607
471.129
-62.8128
-133.71
168.174
596.301
-476.792
77.1053
1254.82
-778.276
-15.8208
1458.17
-935.147
0.836569
1726.41
12.7472
1484.41
568.157
-19.9145
1292.05
518.465
-47.2241
1488.51
452.136
-42.7337
1255.35
431.348
-7.38586
1023.55
432.325
0.257439
784.966
494.636
7.5958
474.123
650.369
-84.2324
125.586
715.685
-347.764
-274.788
523.442
315.421
-374.662
126.929
398.138
80.4814
-234.881
53.4591
776.163
-481.641
78.013
1277.88
-758.48
-12.6274
1462.34
-918.14
3.35908
1749.01
7.79416
1499.15
565.861
-18.1027
1282.79
516.11
-42.0622
1490.69
450.535
-37.5062
1270.96
431.849
-5.75244
1039.77
421.888
19.235
782.764
494.198
5.81787
463.102
540.268
109.582
38.8711
375.777
-184.448
-391.486
180.727
179.985
-286.378
-73.4075
226.826
301.595
-302.862
-45.9443
892.294
-483.863
28.0618
1267.33
-752.282
-25.0681
1464.83
-912.467
-1.54694
1764
7.93085
1506.68
565.511
-13.1385
1265.67
515.303
-29.4092
1489.41
449.862
-27.0865
1286.99
431.402
-5.03976
1058.74
432.262
26.6258
787.295
506.165
-8.64315
479.646
585.576
188.608
106.846
393.126
15.9503
-349.44
233.773
12.0256
-204.695
35.8393
139.112
328.394
-267.964
40.6751
853.868
-473.903
-36.9847
1244.19
-748.424
-35.1182
1470.08
-909.238
-7.56616
1774.84
9.95112
1508.48
568.891
-5.97289
1240.22
517.797
-8.54404
1481.76
449.358
-8.40637
1298.93
428.211
-2.30216
1078.18
447.794
14.9041
798.255
507.531
-14.3745
496.288
660.28
104.718
195.173
681.128
58.1313
-241.815
529.009
-31.2992
-326.249
264.206
25.9003
143.783
-135.629
35.8777
729.356
-465.5
-30.3666
1232.04
-754.94
-26.9734
1472.25
-916.632
-8.36381
1770.45
6.76701
1494.8
570.909
2.96952
1227.99
520.133
14.4395
1475.75
449.904
13.6723
1299.57
427.257
2.51964
1082.32
452.256
-3.40741
803.424
491.607
2.81136
502.826
637.307
-13.5284
200.026
787.181
-36.1016
-178.832
694.358
-58.8778
-347.582
383.27
-70.2521
56.2372
-58.4213
-20.4633
647.356
-456.004
-0.0837517
1224.28
-776.171
21.6981
1469.01
-934.624
-2.26727
1751.48
-13.7006
1469.14
567.985
12.0158
1243.79
517.221
33.4427
1483.46
450.09
29.9823
1296.97
428.254
5.59969
1075.69
452.595
-20.5482
799.735
496.237
12.6847
500.789
641.014
-121.381
206.425
729.866
-59.7335
-199.465
591.229
-76.871
-337.476
291.716
-161.397
105.813
-117.222
-50.9434
698.261
-457.389
8.12024
1233.46
-748.687
35.0992
1473.46
-913.025
-1.85544
1773.8
-16.8043
1501.98
565.567
17.681
1268.33
515.359
44.4295
1490.29
451.056
38.1936
1284.14
431.489
6.28304
1057.3
445.518
-25.0163
787.494
506.685
2.65065
493.385
630.379
-146.013
187.563
533.408
96.3387
-285.003
337.435
-155.812
-258.745
96.1358
-241.008
256.093
-233.558
4.54759
818.522
-469.562
-29.469
1246.1
-740.239
23.4362
1471.44
-904.432
-7.66542
1778.84
-13.733
1517.89
566.342
19.7319
1284.81
516.449
48.3337
1491.21
451.123
42.0488
1267.84
432.969
6.49124
1037.78
429.702
-11.811
780.766
501.394
-12.5886
483.013
554.183
-22.7691
126.445
391.801
277.134
-367.189
205.044
-299.068
-282.246
-35.2768
-398.736
284.217
-290.069
-59.5489
879.51
-479.52
-70.9961
1269.18
-744.342
11.7895
1467.61
-907.735
-10.5107
1768.59
-13.6069
1515.21
568.834
19.1071
1293.54
518.911
47.2962
1488.66
452.087
42.7404
1251.68
432.474
8.51935
1020.44
432.287
-1.28727
779.71
496.186
-17.5424
482.223
612.087
69.2477
148.231
627.238
350.001
-326.695
445.814
-324.59
-395.159
82.484
-506.708
102.739
-251.528
-175.647
796.473
-480
-74.6613
1285.35
-750.626
14.1654
1465.83
-913.262
-5.48195
1754.57
-18.4208
1507.09
573.268
16.5495
1296.09
522.183
43.9368
1487.33
452.373
41.0888
1239.79
429.576
11.6834
1007.18
443.252
-5.16738
784.344
492.628
-14.125
504.098
657.231
36.6803
248.564
850.805
239.938
-32.0465
771.121
-294.568
-285.527
341.109
-452.192
-58.7058
-153.811
-193.783
617.334
-474.581
-46.661
1266.24
-768.61
45.2141
1461.43
-928.606
2.8275
1733.51
-38.3228
1493.36
577.051
12.9617
1294.75
526.748
36.8621
1482.32
454.848
36.527
1225.42
430.395
14.8698
991.195
446.571
-8.86213
782.046
481.823
-4.19884
518.702
611.972
-15.0838
316.999
811.425
74.2632
167.055
801.898
-288.011
-168.88
410.303
-345.937
-101.14
-118.367
-144.799
547.8
-457.866
-20.8644
1249.05
-737.368
51.5012
1470.66
-902.372
3.48163
1753.42
-32.6158
1528.83
583.194
1292.16
533.268
1480.72
457.673
1211.49
433.035
969.257
443.67
774.033
474.304
531.711
568.727
365.711
712.906
168.886
689.477
-230.59
304.427
-82.0827
-171.413
597.364
-461.851
1257.71
-730.722
1466.74
-894.335
1756.52
1543.42
765.044
-15.5098
1000.91
735.535
-40.8793
1520.69
625.326
-57.1869
1338.64
542.494
-54.0146
1069.76
522.19
-51.515
815.335
523.534
-88.1042
564.937
604.929
-262.319
407.873
676.005
-112.499
112.349
342.218
199.89
12.2945
-305.72
146.829
507.073
-847.995
22.101
1138.89
-1161.42
-11.26
1569.44
-1370.79
-13.3273
1676.61
-1236.77
66.7196
1585.49
50.9106
1061.22
755.822
-19.3915
1008.64
722.385
-47.2127
1522.42
616.21
-64.859
1343.4
533.517
-55.9641
1080.95
510.374
-58.0926
818.581
517.82
-115.552
544.641
640.44
-432.543
384.58
764.473
-209.282
172.638
447.238
327.764
28.3785
-244.588
249.304
486.778
-833.77
26.0069
1131.84
-1165.58
-4.66668
1568.61
-1374.67
-12.5298
1675.5
-1242.42
78.1694
1602.48
59.3761
1064.82
751.026
-22.5071
1012.4
714.209
-48.6082
1525.7
609.623
-67.4225
1350.9
526.956
-52.4059
1090.6
501.466
-57.5836
815.481
500.495
-122.672
514.228
626.541
-511.764
221.853
739.4
-264.616
10.8196
361.667
472.446
13.744
-330.322
320.949
557.527
-873.614
7.9327
1157.67
-1197.84
16.7063
1557.67
-1400.68
-1.56535
1650.04
-1253.55
60.158
1597.29
30.8921
1065.69
744.086
-23.3102
1013.76
705.905
-46.8049
1524.89
604.919
-66.1799
1355.1
522.962
-42.9952
1096.09
492.945
-44.1878
801.585
468.267
-55.2216
431.347
463.817
-379.636
-2.09653
393.797
-260.708
-208.681
12.8838
443.652
35.0421
-493.78
224.15
683.941
-882.965
-27.218
1200.5
-1173.09
29.8187
1554.89
-1369.35
-0.726015
1657.76
-1243.52
48.0482
1635.29
20.3239
1077.58
740.365
-21.5071
1007.29
701.36
-39.458
1522.36
600.912
-58.2223
1363.45
519.65
-29.7179
1107.75
486.656
-24.4354
796.003
475.194
48.1349
371.203
284.543
-86.8519
-63.2673
-8.28223
-205.17
-154.204
-246.814
202.93
192.87
-571.127
87.1625
762.892
-897.856
-27.4168
1219.22
-1166.33
15.2621
1550.36
-1355.63
-8.11384
1661.52
-1242.85
37.5242
1661.75
17.0719
1080.74
738.49
-16.3915
992.724
700.411
-26.0035
1514.03
598.995
-41.911
1372.1
521.417
-17.8238
1124.43
482.941
-7.09895
808.433
539.273
62.0324
409.412
465.516
92.5704
1.17514
138.871
-98.6353
-129.335
-128.536
15.368
250.267
-488.808
27.2143
748.609
-882.998
19.0943
1201.55
-1159.79
-11.5129
1547.75
-1348
-15.5511
1665.73
-1243.77
26.3876
1681.75
14.2408
1082.73
741.047
-9.59979
969.479
706.101
-7.45588
1498.16
598.602
-13.0429
1377.57
521.369
-5.2831
1142.87
483.418
3.26631
825.838
541.813
28.3736
471.548
630.35
79.9992
119.202
497.32
-41.0384
-166.388
120.206
-52.0101
118.236
-399.387
-2.7864
693.371
-858
23.1197
1183.94
-1167.8
-13.5421
1543.87
-1356.26
-11.438
1656.6
-1245.7
9.91828
1676.36
10.6486
1072.49
741.575
0.693486
957.595
709.431
11.3836
1489.06
599.912
19.9271
1376.12
520.667
10.2887
1145.99
495.052
1.40392
830.898
525.254
19.4201
481.574
638.775
5.4404
161.058
612.229
-30.7987
-162.531
207.667
-66.4164
71.3794
-375.743
-26.784
663.64
-864.085
-11.3613
1170.18
-1190.47
0.675745
1536.44
-1381.22
6.4586
1641.87
-1255
-25.3317
1660.51
-14.2719
1063.82
738.76
12.5857
970.986
704.097
28.3983
1501.11
599.329
44.8147
1376.85
522.249
22.4235
1140.64
495.437
0.221703
827.726
530.766
1.93799
482.937
634.629
-59.5824
167.578
561.601
18.9863
-176.228
152.227
-74.534
80.0081
-394.293
-45.0356
670.579
-852.577
-31.7625
1176.94
-1162.62
-2.5061
1546.69
-1352.99
10.2068
1660.08
-1246.72
-39.7234
1681.92
-19.9793
1077.37
738.004
19.8883
993.514
700.041
40.4729
1516.18
599.762
58.2414
1370.99
526.394
29.6603
1123.43
484.433
14.2167
815.458
540.181
-23.5014
463.072
574.528
-3.3712
96.9981
316.636
150.061
-158.192
-45.0533
-161.155
189.558
-464.797
-89.5548
720.352
-871.074
-2.79311
1195.83
-1153.84
-23.3047
1549.67
-1342.49
2.15372
1668.15
-1243.79
-47.1344
1687.55
-22.1669
1087.48
740.586
22.4348
1007.82
701.568
46.8243
1523.88
601.548
64.3407
1361.77
525.318
38.2882
1105.38
485.953
33.7006
800.645
524.944
7.2541
413.261
404.083
235.345
8.58266
81.5109
258.377
-152.939
-190.137
-365.332
193.572
-538.273
-200.106
742.901
-887.322
12.9002
1212.86
-1158.42
-34.7461
1551.72
-1349.14
-3.77663
1664.27
-1242.51
-55.1493
1669.98
-26.2951
1086.55
744.481
21.8657
1014.06
706.209
47.9071
1525.85
604.727
64.9687
1352.53
526.436
45.8149
1091.2
493.035
48.5625
798.248
499.21
57.1238
426.176
460.058
422.709
0.0166234
322.369
285.304
-215.934
-25.3257
-458.248
45.4506
-500.615
-307.39
685.31
-878.713
-13.333
1200.8
-1164.41
-20.6845
1556.99
-1361.95
-1.19602
1660.78
-1242.56
-64.6546
1644.68
-36.3158
1082.16
751.324
18.8386
1012.55
714.228
46.1329
1526.2
608.867
62.3548
1347.76
527.758
49.5816
1084.52
502.106
50.7707
807.785
502.601
66.5977
494.126
606.157
410.612
157.101
688.214
245.203
-74.0075
318.912
-364.862
-9.61536
-344.048
-264.382
561.241
-866.874
-32.4814
1159.31
-1185.64
4.09104
1560.23
-1391.38
10.6344
1655.34
-1252.49
-81.7422
1611.71
-65.3189
1072.22
756.078
14.9849
1008.61
722.191
39.7134
1522.63
615.04
54.911
1340.02
532.666
48.8563
1074.29
510.011
45.5764
809.892
509.287
57.3682
528.649
632.12
270.787
333.985
761.116
141.715
141.54
450.046
-252.213
29.5339
-236.262
-157.336
478.114
-823.675
-25.6019
1128.33
-1152.99
11.8819
1570.57
-1364.6
12.3123
1680.59
-1240.37
-69.2885
1616.74
-55.1161
1070.13
765.025
1000.89
734.843
1520.72
623.464
1335.2
540.192
1062.9
519.571
806.599
515.063
551.496
598.343
390.568
664.981
121.167
333.54
25.9127
-301.677
498.06
-839.492
1133.46
-1148.86
1570.27
-1360.23
1682.45
-1234.86
1601.78
1066.4
877.316
-15.3243
744.704
915.001
-43.2186
1493.48
780.858
-69.8508
1487.5
606.317
-95.5179
1265.48
510.752
-119.508
939.298
487.958
-263.707
674.029
501.724
-308.241
484.83
246.534
131.927
277.437
-405.741
197.016
581.042
-1034.01
44.0017
1103.51
-1436.14
-26.3195
1545.85
-1614.18
-32.0166
1757.66
-1653.13
11.5944
1724.59
-1285.77
150.16
1164.38
77.5795
803.968
869.138
-18.9049
754.528
896.152
-47.7887
1499.97
761.935
-79.8034
1487.58
585.591
-103.888
1265.66
491.778
-140.146
933.03
490.93
-382.221
664.001
552.11
-474.626
489.782
312.757
245.982
297.934
-374.963
353.176
559.938
-1049.75
109.553
1096.01
-1450.21
-18.9173
1524.9
-1616.6
-25.6058
1728.59
-1644.32
6.54854
1708.26
-1294.85
167.299
1235.87
90.8968
828.722
865.601
-22.4691
759.387
885.278
-46.0015
1504.24
749.151
-82.8025
1490.03
569.361
-100.915
1267.41
479.922
-150.055
914.827
434.393
-425.279
602.814
476.838
-602.321
307.101
177.255
336.111
220.27
-538.161
477.18
605.154
-1130.34
139.199
1120.06
-1488.71
-1.77143
1498.88
-1634.1
2.99965
1674.47
-1637.01
11.833
1647.67
-1300.75
140.177
1288.15
54.1623
875.966
858.19
-23.4529
764.185
871.196
-39.6528
1505.54
735.626
-80.302
1488.17
553.616
-85.2308
1262.42
458.704
-123.107
869.548
274.627
-259.147
449.289
122.431
-590.199
137.973
-185.749
212.257
223.351
-751.71
401.536
676.644
-1161.76
89.8519
1143.34
-1470.51
7.86445
1499.61
-1613.93
17.1545
1684.16
-1615.44
15.7804
1655.33
-1301.31
115.987
1345.35
32.2438
884.2
853.2
-22.1697
761.97
863.075
-28.623
1501.45
725.764
-68.1058
1488.57
545.977
-59.7032
1262.01
450.752
-65.4466
833.566
186.804
27.3561
348.644
-232.858
-405.657
171.848
-513.425
-6.64969
345.265
-855.406
205.671
730.713
-1190.29
36.315
1151.31
-1476.38
14.1712
1499
-1611.42
14.3993
1688.16
-1606.59
14.0993
1658.37
-1305.98
90.4159
1386.71
19.7372
881.671
848.388
-17.9857
753.798
859.4
-15.3839
1489.79
722.617
-47.183
1487.96
552.2
-34.0175
1269.16
471.963
-30.6109
853.832
352.038
167.846
388.844
-87.17
-142.019
176.739
-485.729
-126.049
388.618
-824.485
44.0605
750.631
-1192.06
6.67851
1145.82
-1479.63
9.74184
1493.55
-1609
5.48211
1686.04
-1598.49
10.6622
1658.65
-1308.63
59.8313
1422.48
5.62035
888.027
846.975
-13.1594
738.677
864.899
-4.11827
1468.97
724.459
-13.9442
1484.77
560.71
-9.06358
1281.67
464.241
-9.10687
900.801
502.249
106.265
495.118
280.62
3.30552
195.502
-227.812
-86.341
302.332
-759.156
-40.2246
733.862
-1195.03
-7.10323
1143.03
-1492.08
0.323175
1490.4
-1618.19
-7.40237
1682.87
-1597.2
-6.12208
1652.4
-1303.15
15.4197
1426.72
7.86076
874.926
844.127
-3.17176
730.114
866.792
3.82119
1458.46
726.051
22.4092
1480.51
562.38
17.9256
1282.67
457.615
16.3208
910.234
493.511
20.5237
531.414
398.864
27.3218
231.683
-91.1659
-17.9859
259.137
-734.094
-45.6157
719.695
-1202.53
-10.5978
1135.57
-1501.66
-4.24019
1473.86
-1621.34
-8.51938
1657.24
-1594.48
-17.9503
1626.84
-1303
-41.2154
1425.67
-7.38613
884.604
842.966
10.6958
737.708
860.718
14.251
1472.93
723.693
50.458
1485.83
562.402
39.6242
1280.23
460.476
38.043
907.927
500.29
-69.7836
533.427
401.862
63.8124
229.509
-79.741
42.2035
245.179
-709.427
-47.0534
711.128
-1170.95
-15.6618
1137.16
-1475.12
-13.9993
1490.88
-1608.47
-11.7806
1683.3
-1593.96
-20.8022
1648.42
-1307.16
-74.0789
1428
-11.8829
878.841
847.004
19.4067
752.479
857.947
26.8522
1492.64
723.815
66.8167
1488.77
561.51
56.615
1268.74
472.205
58.6261
884.177
476.401
-80.3634
469.45
166.913
277.562
192.729
-328.953
50.2853
329.584
-776.44
-147.062
737.051
-1179.2
-33.7544
1141.2
-1473.59
-21.0793
1497.3
-1606.94
-20.7277
1691.96
-1598.21
-22.0612
1660.68
-1311.5
-98.3586
1425.12
-24.2115
884.534
853.223
22.016
760.954
862.875
37.5565
1503.52
726.971
76.3233
1488.16
555.145
75.646
1258.17
471.957
96.798
845.659
308.922
108.967
386.96
-113.935
533.975
175.021
-467.707
-102.104
353.217
-811.98
-334.411
725.192
-1174.08
-72.0558
1143.3
-1468.73
-14.2844
1500.71
-1607.55
-22.7887
1692.6
-1604.98
-20.8447
1660.49
-1309.74
-119.184
1395.56
-39.9671
882.35
858.434
21.4663
763.302
871.022
43.7549
1507.07
734.945
78.348
1486.59
556.332
90.6034
1254.85
469.593
125.733
856.047
283.986
307.417
413.326
72.9296
596.394
148.645
-223.782
-271.265
249.929
-745.926
-443.271
676.448
-1149.24
-121.123
1137.69
-1460.3
-4.14814
1501.73
-1607.44
-9.03605
1690.37
-1612.08
-14.1326
1658.72
-1304.47
-136.999
1354.88
-59.5671
879.63
865.662
18.1212
758.628
884.687
45.5922
1505.34
747.182
75.8237
1487.79
567.021
95.5597
1259.72
478.8
124.27
897.465
389.227
340.156
550.954
405.078
503.695
233.942
138.267
-289.152
210.682
-551.439
-367.388
604.201
-1119.31
-106.184
1114.17
-1476.72
13.814
1498.75
-1625.67
22.2451
1677.9
-1631.74
-4.34928
1651.62
-1304.58
-160.168
1307.72
-96.051
874.654
869.116
14.6495
753.743
895.312
41.2883
1500.74
759.308
66.6442
1485.2
581.678
89.2982
1258.18
485.722
109.232
920.881
465.997
253.552
634.974
519.568
341.48
442.623
303.991
-226.875
294.833
-366.335
-221.106
553.57
-1036.53
-42.1766
1084.29
-1439.75
22.9673
1522.4
-1608.55
31.7815
1729.83
-1638.42
-7.08938
1713.21
-1298.55
-143.545
1260.25
-80.6043
825.59
876.987
744.053
913.588
1494.1
777.427
1485.21
601.067
1258.61
501.501
930.541
474.237
661.119
475.547
483.648
228.826
301.634
-399.744
573.192
-1022.58
1087.17
-1425.65
1540.55
-1604.91
1758.64
-1647.24
1734.41
-1291.38
1195.28
799.81
926.388
-13.8472
612.457
1041.23
-49.4251
1391.42
955.315
-78.3041
1590.31
714.197
-125.824
1534.65
483.91
-201.675
1223.52
382.314
-375.07
888.648
207.159
-124.07
654.25
-297.485
243.188
705.926
-909.435
90.2923
1155.24
-1346.92
3.68067
1530.67
-1619.14
-30.1983
1835.7
-1689.41
18.2947
1835.34
-1767.18
104.205
1802.24
-1276.2
386.288
530.511
199.012
674.662
921.361
-17.0764
619.265
1022.45
-53.1157
1402.58
927.766
-90.069
1594.03
678.795
-142.766
1531.57
464.477
-267.596
1213.27
416.303
-553.478
890.581
284.128
-173.021
670.907
-253.581
388.143
690.687
-922.909
182.275
1137.28
-1353.35
27.8328
1502.3
-1598.32
-44.0126
1783.67
-1660.08
-6.51425
1815.16
-1744.07
86.0428
1810.42
-1313.06
476.789
714.358
274.745
693.925
920.378
-21.6089
622.697
1012.37
-49.0727
1408.2
907.623
-91.9867
1596.7
649.701
-147.18
1529.75
417.673
-310.821
1190.08
339.927
-668.083
795.163
148.054
-197.825
523.774
-423.055
485.64
693.88
-1047.11
253.226
1158.26
-1414.97
38.4966
1477.25
-1633.54
-44.4301
1717.87
-1678.18
-39.4038
1751.99
-1722.14
22.5666
1755.11
-1361.83
424.38
980.25
151.347
870.008
914.486
-23.4499
627.512
995.233
-37.9478
1413.67
879.952
-84.6382
1596.1
605.341
-130.618
1520.47
293.985
-249.669
1119.75
39.5249
-556.03
591.692
-255.026
-219.353
454.049
-690.453
382.351
762.066
-1145.05
213.61
1170.85
-1449.58
24.8694
1461.5
-1654.49
-23.2217
1683.3
-1677.7
-31.5012
1699.47
-1659.35
0.855038
1658.69
-1318.65
329.521
1099.52
58.6938
940.508
909.511
-23.562
628.517
983.336
-22.3429
1412.03
857.863
-64.3037
1593.71
567.174
-89.3726
1511.46
191.199
-75.5545
1035.42
-247.191
-260.428
491.428
-585.422
-283.072
573.796
-847.012
153.287
835.917
-1187.23
119.135
1165.4
-1470.73
7.79845
1451.88
-1652.89
-9.724
1667.66
-1658.35
-19.2141
1681.34
-1601.46
0.481155
1601.85
-1288.73
236.674
1166.82
34.1312
937.895
902.824
-20.8228
627.037
974.754
-7.96367
1403.48
849.392
-38.3521
1587.37
573.206
-49.3574
1505.33
295.028
33.8209
1022.63
-102.715
3.55775
522.598
-560.197
-258.036
609.181
-871.319
-20.1824
873.208
-1205.6
43.124
1160.92
-1492.41
-4.26899
1444.69
-1648.89
-9.05763
1649.36
-1639.52
-9.48823
1666.94
-1568.56
0.224076
1587.95
-1291.77
142.63
1239.74
13.247
947.952
897.999
-17.3836
621.785
975.423
-2.24485
1385.83
854.412
-9.16012
1576.59
593.521
-12.8602
1506.06
409.582
32.3025
1086.26
208.598
84.0421
615.613
-302.902
-111.522
560.483
-817.255
-68.4515
864.951
-1200.28
-6.80261
1166.82
-1488.29
-13.1087
1439.87
-1630.99
-14.4044
1638.45
-1611.75
-8.49941
1662.64
-1536.66
-0.707285
1578.24
-1281.52
55.6268
1258.58
24.2618
925.13
891.385
-5.57947
617.688
972.597
-2.89587
1377.9
854.938
18.3851
1570.62
596.515
24.7419