/*--------------------------------*- C++ -*----------------------------------*\
| =========                 |                                                 |
| \\      /  F ield         | OpenFOAM: The Open Source CFD Toolbox           |
|  \\    /   O peration     | Version:  4.1                                   |
|   \\  /    A nd           | Web:      www.OpenFOAM.org                      |
|    \\/     M anipulation  |                                                 |
\*---------------------------------------------------------------------------*/
FoamFile
{
    version     2.0;
    format      ascii;
    class       volVectorField;
    location    "19";
    object      U;
}
// * * * * * * * * * * * * * * * * * * * * * * * * * * * * * * * * * * * * * //

dimensions      [0 1 -1 0 0 0 0];

internalField   nonuniform List<vector> 
6750
(
(3.25373 -0.0112826 18.3377)
(0.432994 -0.0363531 15.289)
(1.51074 -0.0160989 11.8759)
(0.829963 0.0176208 10.9261)
(1.29267 0.0688609 9.44251)
(1.25938 0.081599 7.24151)
(1.59686 0.29286 7.50041)
(1.91233 -0.0353569 4.7905)
(1.88279 -0.289469 1.22194)
(5.59181 0.534698 -5.54875)
(2.4663 1.36163 -5.08902)
(0.45532 0.0765516 7.36119)
(-1.02008 -0.0165706 10.9152)
(0.91334 -0.0284673 15.1894)
(-4.8307 0.00415517 20.9424)
(3.23888 -0.0211535 18.3032)
(0.429477 -0.0662315 15.4084)
(1.49678 -0.0239213 12.2357)
(0.843272 0.0366846 11.2606)
(1.30179 0.131256 9.53309)
(1.37182 0.140998 7.18622)
(1.67002 0.668531 6.82755)
(2.02292 0.0621341 4.38087)
(2.25642 -0.161487 1.45719)
(5.72163 0.393627 -4.03905)
(3.29777 1.51326 -4.64454)
(0.577208 0.086256 6.66839)
(-0.992334 -0.00411979 11.208)
(0.936061 -0.0417605 15.1752)
(-4.89361 0.00829645 20.6627)
(3.22558 -0.0229805 18.2781)
(0.427881 -0.0687463 15.5419)
(1.49215 -0.0197544 12.5036)
(0.861514 0.0416541 11.4406)
(1.31511 0.137653 9.51655)
(1.51269 0.115654 7.20173)
(1.71591 0.882568 6.10368)
(2.79116 0.129512 3.56044)
(5.28434 -0.506789 -1.36966)
(7.47864 0.417394 -5.77412)
(4.45149 2.18838 -5.38276)
(0.638541 0.485853 6.79441)
(-0.975416 0.0721494 11.2238)
(0.963645 -0.0167812 15.1066)
(-5.0255 0.014858 20.1546)
(3.21583 -0.0255729 18.2012)
(0.427618 -0.0773567 15.6516)
(1.49637 -0.0205858 12.7555)
(0.886655 0.0459081 11.6054)
(1.32757 0.13064 9.47597)
(1.70107 0.146869 7.13346)
(1.58053 0.772123 6.01894)
(4.42654 -0.489392 1.64259)
(6.34333 -1.42347 -7.12069)
(6.41717 0.616659 -9.45492)
(2.93172 2.80571 -6.0166)
(0.29318 0.863813 8.63103)
(-1.06518 0.0830349 11.2304)
(0.916156 0.0116581 15.3609)
(-4.99322 0.0181252 20.2823)
(3.21445 -0.0240214 18.0776)
(0.426954 -0.0761286 15.8031)
(1.49859 -0.0182917 13.0318)
(0.90262 0.0445704 11.772)
(1.34977 0.10025 9.44759)
(1.78104 0.183967 7.05052)
(1.69331 0.437931 5.81796)
(5.17119 -0.769102 -1.33859)
(3.83476 -1.39796 -10.3003)
(2.32943 0.390334 -8.68995)
(-0.859387 1.81772 -3.20063)
(0.262392 0.738825 9.53058)
(-1.25688 0.012507 11.1148)
(0.901264 0.012645 15.4238)
(-4.98619 0.0122012 20.3405)
(3.22605 -0.0195374 17.8851)
(0.425854 -0.0664427 15.9568)
(1.49716 -0.0166834 13.3258)
(0.911791 0.0352661 11.9556)
(1.37096 0.0679946 9.45534)
(1.79141 0.176346 7.02296)
(1.79989 0.181677 5.2576)
(4.82218 -0.0607113 -0.308325)
(3.41894 -0.574445 -8.85832)
(-0.161288 0.0373637 -5.53772)
(-2.08073 -0.000248081 3.60027)
(0.410324 -0.147758 8.67973)
(-1.3583 -0.0453256 11.0558)
(0.897401 -0.0249101 15.5651)
(-4.98918 0.00464507 20.3296)
(3.25759 -0.0107585 17.6155)
(0.425461 -0.0367187 16.0417)
(1.49296 -0.0102859 13.5744)
(0.911043 0.0199483 12.1513)
(1.38501 0.0258914 9.52587)
(1.73382 0.157702 7.07558)
(2.0184 -0.0507377 4.31781)
(3.77173 0.136146 1.45686)
(5.46402 0.41542 -5.99202)
(4.91543 0.243828 -7.28336)
(1.95952 -0.325002 -3.71684)
(0.498876 -0.704398 7.01396)
(-1.22916 -0.102885 11.0935)
(0.91725 -0.0447046 15.5916)
(-5.02175 -0.00407957 20.1724)
(3.27372 0.000334974 17.501)
(0.426475 0.00753564 16.0258)
(1.49498 0.00185109 13.6187)
(0.909185 0.00128414 12.2106)
(1.40599 -0.00436325 9.55641)
(1.66561 0.0404082 7.15732)
(2.40916 -0.0810139 3.60909)
(3.24129 -0.0719881 0.999706)
(5.54131 0.088242 -4.08065)
(7.15793 -0.0883687 -6.7084)
(5.5205 -0.382423 -5.38707)
(1.08709 -0.177731 5.61368)
(-1.13981 -0.0262284 11.1836)
(0.964306 -0.0148918 15.5073)
(-5.10458 -0.00251512 19.8333)
(3.24901 0.0116761 17.6826)
(0.426402 0.0482039 16.0203)
(1.49388 0.0135153 13.5309)
(0.910553 -0.0189604 12.1229)
(1.39878 -0.0263928 9.53441)
(1.68991 -0.148427 7.07618)
(2.27117 -0.00964522 3.82945)
(3.32473 -0.159509 1.3086)
(5.47168 -0.430247 -4.69244)
(6.04122 -0.720927 -6.8528)
(3.35357 -0.230656 -4.12318)
(0.655794 0.671349 6.61951)
(-1.18711 0.0957101 11.1851)
(0.920077 0.0262389 15.6289)
(-5.00031 -0.000651818 20.221)
(3.22151 0.0204978 17.9418)
(0.427431 0.0731125 15.9234)
(1.49665 0.0192144 13.273)
(0.912071 -0.0348572 11.925)
(1.37387 -0.0618741 9.47039)
(1.76035 -0.206358 6.98545)
(1.79571 -0.106548 4.95757)
(4.10655 -0.226924 1.43813)
(4.53729 0.172114 -7.21607)
(1.98445 -0.227106 -6.60487)
(-2.38518 -0.00360215 2.02052)
(0.413542 0.237724 8.5965)
(-1.36409 0.0591566 11.1348)
(0.891807 0.0116601 15.585)
(-4.95848 -0.00935631 20.405)
(3.21229 0.0247294 18.1284)
(0.428843 0.0801999 15.7708)
(1.49729 0.0201423 12.9748)
(0.903562 -0.0439625 11.738)
(1.35498 -0.0965095 9.43465)
(1.76931 -0.198913 7.0005)
(1.67413 -0.344131 5.73508)
(4.99707 0.306739 -0.292473)
(3.70818 1.07338 -9.72586)
(2.06108 -0.174392 -8.28888)
(-0.837377 -1.74477 -2.92784)
(0.282244 -0.730167 9.49909)
(-1.25549 -0.00690065 11.2378)
(0.891608 -0.0267544 15.5036)
(-4.9566 -0.016947 20.3917)
(3.21569 0.0260421 18.2446)
(0.429639 0.0791867 15.6201)
(1.49478 0.0217051 12.6935)
(0.888355 -0.0468958 11.5656)
(1.33018 -0.126715 9.44102)
(1.71871 -0.178074 7.06511)
(1.54443 -0.668582 6.07172)
(4.68312 0.510964 1.15591)
(5.76723 1.25526 -8.38995)
(5.72076 -0.814885 -9.8571)
(2.57854 -2.94772 -5.84891)
(0.247701 -0.848746 9.00972)
(-1.07475 -0.0710838 11.3825)
(0.89844 -0.0225976 15.4707)
(-4.96107 -0.023024 20.3307)
(3.22667 0.023207 18.3155)
(0.429966 0.0693412 15.5134)
(1.4901 0.0202587 12.4398)
(0.864339 -0.0429914 11.397)
(1.3139 -0.138818 9.46707)
(1.55376 -0.131164 7.15692)
(1.64002 -0.869457 6.05744)
(3.0961 -0.0989109 3.23615)
(5.79751 0.573203 -2.73694)
(7.63361 -0.640151 -6.72033)
(4.38945 -2.56602 -5.54414)
(0.569681 -0.554358 7.23489)
(-0.971803 -0.0794248 11.3961)
(0.941767 0.00674311 15.2309)
(-4.98924 -0.0200085 20.2031)
(3.24084 0.0211587 18.3359)
(0.431521 0.0659233 15.3821)
(1.49464 0.0235775 12.1703)
(0.845123 -0.0382355 11.2121)
(1.30189 -0.139387 9.48131)
(1.39805 -0.145359 7.1449)
(1.65457 -0.733401 6.68057)
(2.11022 -0.10002 4.19105)
(2.7165 0.0819944 1.08399)
(6.06475 -0.537168 -4.16972)
(3.51882 -1.79335 -4.66555)
(0.582012 -0.131843 6.79618)
(-0.984241 -0.00808651 11.3831)
(0.916201 0.0353104 15.301)
(-4.85831 -0.013083 20.7052)
(3.25606 0.0111919 18.3665)
(0.434823 0.0358941 15.2672)
(1.50808 0.0156706 11.8132)
(0.830299 -0.0187506 10.876)
(1.29151 -0.0737044 9.38991)
(1.27125 -0.0871184 7.19858)
(1.58827 -0.327278 7.38028)
(1.89807 0.0132381 4.64641)
(1.89522 0.284721 1.14159)
(5.694 -0.694724 -5.49814)
(2.61641 -1.60907 -5.08625)
(0.463288 -0.08873 7.44481)
(-1.0153 0.0133282 11.098)
(0.892771 0.0253796 15.3214)
(-4.79373 -0.0064701 20.9867)
(9.09989 -0.032814 17.7736)
(1.73635 -0.105306 15.7214)
(4.2038 -0.0737689 12.3174)
(2.61088 0.00525025 10.6589)
(3.48112 0.12126 9.1046)
(3.45691 0.0811687 6.74415)
(4.48617 0.485859 5.96045)
(5.36602 -0.155624 4.1077)
(7.59904 0.374868 -1.41089)
(8.8978 1.41842 -5.79652)
(3.84688 1.29548 -0.778556)
(0.352202 0.281781 9.48104)
(-3.37682 -0.090739 11.8358)
(0.706451 -0.0800471 16.3626)
(-14.0729 0.0452145 21.9272)
(9.05886 -0.0607845 17.7472)
(1.70532 -0.182904 15.8005)
(4.1735 -0.113393 12.6164)
(2.61984 0.0246182 10.9892)
(3.47366 0.216843 9.19664)
(3.64731 0.106002 6.72827)
(4.51605 0.921417 5.27648)
(5.88894 -0.243528 3.06154)
(8.22388 0.732608 -1.03674)
(9.71536 1.99256 -5.21197)
(5.08656 1.82664 -1.4084)
(0.655499 0.538665 8.78148)
(-3.35169 -0.103561 12.0617)
(0.657992 -0.138055 16.3471)
(-14.2047 0.101447 21.6613)
(9.02652 -0.0662122 17.7283)
(1.68388 -0.184155 15.907)
(4.15602 -0.101744 12.8562)
(2.63541 0.0402988 11.1807)
(3.47099 0.197433 9.17063)
(3.8506 0.0827935 6.72544)
(4.445 0.895575 4.7757)
(6.9246 -0.964206 1.37104)
(9.71671 0.337408 -2.78671)
(9.94496 2.48366 -5.84351)
(4.90058 2.61504 -1.54172)
(0.580143 0.997298 9.05087)
(-3.34814 0.0592758 12.0626)
(0.444097 -0.0693806 16.3252)
(-14.4784 0.07557 21.1563)
(8.99831 -0.0745219 17.6577)
(1.66671 -0.205916 15.9827)
(4.15929 -0.110713 13.0747)
(2.66966 0.054255 11.352)
(3.4972 0.163234 9.11028)
(3.94625 0.200736 6.57494)
(4.53278 0.598348 4.71049)
(7.51932 -1.93237 -1.39961)
(8.89296 -0.0145562 -6.61713)
(7.03972 2.94681 -6.28917)
(1.91383 2.72121 0.644446)
(-0.00961949 1.1334 10.626)
(-3.51864 0.0798103 12.067)
(0.498413 0.00267745 16.5046)
(-14.398 0.0377587 21.2687)
(8.99084 -0.0704995 17.5374)
(1.65493 -0.197063 16.0933)
(4.15719 -0.100033 13.3267)
(2.68043 0.0597586 11.5327)
(3.55373 0.144982 9.0824)
(3.82903 0.237257 6.44596)
(5.03219 0.609261 4.32853)
(6.83904 -1.44297 -4.07982)
(4.85552 0.135015 -8.35595)
(3.40312 2.15191 -3.7739)
(-1.37801 0.769208 4.39295)
(-0.0495025 0.902321 10.8811)
(-3.72296 -0.0583893 11.9714)
(0.531885 -0.00270707 16.5549)
(-14.372 0.0326985 21.3308)
(9.01184 -0.0576297 17.3441)
(1.65287 -0.169107 16.1946)
(4.14751 -0.0879186 13.5941)
(2.69283 0.0441428 11.7319)
(3.57464 0.150296 9.11403)
(3.93066 0.127577 6.44594)
(4.98234 0.903281 3.87801)
(7.16564 -0.227483 -3.50058)
(3.84252 -0.322069 -7.47687)
(2.61141 0.925683 -1.07844)
(-2.24104 -0.142054 6.47037)
(0.361763 -0.192225 9.96642)
(-3.86146 -0.142088 11.949)
(0.564146 -0.0616693 16.6589)
(-14.3718 0.0189929 21.3202)
(9.07673 -0.0325866 17.0712)
(1.67126 -0.0918653 16.2284)
(4.13382 -0.0517832 13.8158)
(2.69182 0.0230958 11.9383)
(3.56141 0.0809608 9.21752)
(4.04435 0.0814184 6.54606)
(4.75214 0.589265 3.39139)
(7.53892 0.713989 -1.54531)
(7.59243 0.141784 -6.82851)
(6.57532 0.211141 -4.25358)
(3.12341 0.168923 1.82278)
(0.679545 -0.690991 8.82299)
(-3.71209 -0.218416 12.0063)
(0.548337 -0.0977661 16.686)
(-14.4439 0.0214976 21.1677)
(9.10993 -0.00166054 16.9529)
(1.68681 0.0176519 16.1994)
(4.13636 0.00872679 13.85)
(2.69066 0.00161731 11.9947)
(3.57528 0.00494054 9.25718)
(3.99878 0.00855873 6.64768)
(4.86159 0.0759271 2.71847)
(7.05772 0.193201 -1.17223)
(9.36008 0.0253268 -5.78118)
(9.32218 -0.171872 -5.55571)
(5.88084 -0.258492 -0.563267)
(1.5669 -0.195791 7.85083)
(-3.62018 -0.0362934 12.0798)
(0.456369 -0.0205071 16.6223)
(-14.6213 -0.0126784 20.8404)
(9.05842 0.0319043 17.1341)
(1.67015 0.118989 16.2206)
(4.13541 0.0651994 13.7761)
(2.6959 -0.0227577 11.9053)
(3.56722 -0.053356 9.22755)
(4.04483 -0.128529 6.57883)
(4.76575 -0.297494 2.94771)
(7.1757 -0.53066 -1.15391)
(8.54014 -0.586325 -6.27548)
(7.83174 -0.630091 -4.91015)
(4.13675 -0.390681 0.85737)
(0.885938 0.439515 8.63405)
(-3.66747 0.203746 12.0816)
(0.604919 0.0666231 16.6991)
(-14.4072 -0.0460628 21.2282)
(9.00198 0.0590197 17.3957)
(1.65752 0.185127 16.1757)
(4.14612 0.0950638 13.5451)
(2.7039 -0.0428223 11.6972)
(3.554 -0.136879 9.13811)
(4.06625 -0.156876 6.47649)
(4.63709 -0.783951 3.8036)
(7.47846 -0.285637 -1.97487)
(5.60468 0.0623524 -7.27233)
(4.04794 -0.812846 -2.36289)
(-1.11463 0.00222119 4.99121)
(0.387933 0.195352 9.89816)
(-3.81391 0.162203 12.0124)
(0.622622 0.030811 16.6557)
(-14.3125 -0.0381355 21.4065)
(8.98611 0.0716852 17.5818)
(1.66213 0.206751 16.0747)
(4.15451 0.103095 13.2736)
(2.68731 -0.0574785 11.4957)
(3.55302 -0.166572 9.07766)
(3.91139 -0.218034 6.45432)
(4.86091 -0.782513 4.29951)
(6.83094 0.926379 -3.52586)
(4.50669 -0.0155672 -8.3164)
(3.42809 -1.94568 -3.48616)
(-1.14244 -0.682953 4.47043)
(-0.0372724 -0.770124 10.8837)
(-3.69941 0.0789114 12.0841)
(0.574657 -0.027344 16.5961)
(-14.3134 -0.0468717 21.3888)
(8.99789 0.0754747 17.6942)
(1.67511 0.209893 15.9639)
(4.15605 0.110971 13.0165)
(2.67257 -0.0584112 11.3091)
(3.50301 -0.178327 9.07694)
(3.95818 -0.248872 6.53047)
(4.53103 -0.697419 4.76192)
(7.19604 1.73478 -2.23724)
(7.81386 -0.230307 -7.69686)
(6.22796 -3.06271 -6.19987)
(1.4025 -2.65383 1.259)
(-0.131975 -1.0505 10.954)
(-3.51695 -0.0500938 12.2102)
(0.525549 -0.0233389 16.5725)
(-14.3329 -0.0516807 21.3195)
(9.02861 0.0666163 17.7584)
(1.69256 0.185076 15.8896)
(4.15137 0.100748 12.7959)
(2.63797 -0.0464923 11.1331)
(3.46682 -0.209074 9.11681)
(3.89045 -0.134416 6.67614)
(4.36809 -0.958605 4.81837)
(6.89849 1.15378 0.571187)
(9.62636 -0.352318 -4.06762)
(9.50692 -2.88898 -6.28827)
(4.45149 -2.93792 -1.26947)
(0.390633 -1.00923 9.52928)
(-3.34704 -0.065271 12.2229)
(0.471198 0.0513622 16.4016)
(-14.4048 -0.0872221 21.2046)
(9.06276 0.0606482 17.7725)
(1.71401 0.181507 15.7842)
(4.1682 0.110336 12.5547)
(2.62043 -0.0308651 10.9352)
(3.46553 -0.240221 9.13667)
(3.69038 -0.134547 6.68066)
(4.42306 -1.03287 5.18738)
(5.94149 0.298163 2.58898)
(8.44418 -0.902002 -1.56545)
(9.81704 -2.38235 -5.34683)
(5.06954 -2.14028 -1.32819)
(0.566934 -0.584664 8.98824)
(-3.35069 0.0834011 12.2382)
(0.67739 0.123052 16.4301)
(-14.1307 -0.111032 21.6997)
(9.10436 0.0324591 17.795)
(1.74388 0.103695 15.708)
(4.19719 0.0712438 12.2579)
(2.60623 -0.00909887 10.6018)
(3.47198 -0.136962 9.03991)
(3.46014 -0.0927344 6.68821)
(4.43581 -0.572636 5.81929)
(5.30095 0.16576 3.83833)
(7.64828 -0.602454 -1.70724)
(8.98375 -1.81418 -5.82577)
(3.89579 -1.5597 -0.71946)
(0.282445 -0.298759 9.63072)
(-3.38266 0.083306 12.0239)
(0.721143 0.0720519 16.4524)
(-13.9945 -0.0500822 21.9649)
(13.8346 -0.0506938 16.1063)
(3.50682 -0.156439 16.3655)
(6.60457 -0.165458 13.1282)
(4.45756 -0.0839488 10.6742)
(5.06073 0.0144604 8.74633)
(5.05673 -0.0412845 6.15255)
(5.79274 0.0512005 4.34404)
(7.2092 -0.192949 2.38471)
(9.16922 0.938355 -3.03541)
(6.55679 1.26328 -3.63217)
(0.182592 0.600674 3.56023)
(-3.31037 0.0782151 12.1102)
(-8.15803 -0.219572 14.5277)
(-5.59983 -0.0263401 19.5723)
(-21.488 0.0979867 20.2143)
(13.7803 -0.0918232 16.1042)
(3.41063 -0.255617 16.3957)
(6.55806 -0.25168 13.3383)
(4.41903 -0.104238 10.9595)
(5.01992 0.0166699 8.83522)
(5.12305 -0.041305 6.07961)
(5.84303 -0.173277 3.78679)
(7.93381 -0.61377 2.22698)
(10.2722 1.43793 -2.10263)
(7.7997 1.90436 -3.53902)
(1.28183 0.820538 2.61067)
(-3.17616 0.145531 11.9194)
(-8.19312 -0.368267 14.6837)
(-5.7411 -0.0370468 19.5235)
(-21.5693 0.227759 19.9806)
(13.7453 -0.100052 16.1)
(3.35028 -0.249087 16.4658)
(6.52389 -0.233845 13.5314)
(4.38479 -0.0657284 11.1482)
(5.01467 -0.0373826 8.84189)
(5.06373 0.0108095 5.89551)
(6.13468 -0.719251 3.776)
(8.91242 -2.07041 1.40179)
(10.9822 1.17572 -2.52939)
(7.49339 2.44958 -3.52768)
(0.862855 1.0569 3.1322)
(-3.31737 0.384644 12.1749)
(-8.38238 -0.161896 14.7356)
(-6.27304 -0.0168455 19.3865)
(-21.6938 0.131879 19.4629)
(13.7065 -0.114671 16.0463)
(3.29099 -0.277087 16.4968)
(6.51322 -0.256343 13.6967)
(4.37313 -0.0542822 11.3053)
(5.07209 -0.0491529 8.78153)
(4.7219 0.0293741 5.59623)
(6.56372 -0.92192 3.14775)
(7.95074 -2.39134 -2.25417)
(8.06086 1.80465 -5.25902)
(3.84221 2.81495 -2.61723)
(-1.28289 0.888924 6.10932)
(-3.53006 0.491509 12.6477)
(-8.27902 -0.0284717 14.7233)
(-5.92327 0.0199974 19.5676)
(-21.6682 0.0306177 19.6283)
(13.6938 -0.110057 15.9333)
(3.26247 -0.256095 16.5517)
(6.49607 -0.226887 13.9036)
(4.34565 -0.0311634 11.4932)
(5.11177 0.0519149 8.75435)
(4.44536 0.0572713 5.55923)
(6.85996 0.0188061 1.99116)
(5.13961 -1.49702 -4.76882)
(3.24118 1.85526 -5.53185)
(0.930297 1.67188 0.745315)
(-2.80861 -0.317251 8.32611)
(-3.57662 0.399886 12.472)
(-8.2892 -0.1154 14.709)
(-5.7812 0.0159219 19.6772)
(-21.6744 0.0511084 19.7219)
(13.7081 -0.0920039 15.7382)
(3.26808 -0.215765 16.5789)
(6.47479 -0.193541 14.1169)
(4.34343 -0.0329698 11.7054)
(5.10589 0.160693 8.8045)
(4.706 0.00080183 5.68501)
(6.75931 1.12981 2.09321)
(6.3603 -0.523894 -4.21948)
(2.42532 0.271073 -4.56792)
(2.89483 1.06202 1.60688)
(-2.29358 -0.12807 7.83942)
(-3.30767 -0.0965208 11.9784)
(-8.32084 -0.161437 14.7632)
(-5.68266 -0.0327593 19.7789)
(-21.6904 0.0396093 19.7395)
(13.7664 -0.0558689 15.4558)
(3.3353 -0.114702 16.5384)
(6.45726 -0.1097 14.2826)
(4.34369 -0.0251697 11.9221)
(5.03613 0.136377 8.93726)
(5.14103 -0.104059 5.83263)
(6.30569 0.973055 2.53837)
(8.5298 0.614289 -2.52456)
(6.77912 -0.208491 -4.93438)
(5.11453 0.362627 -1.30361)
(0.573952 0.465479 5.4642)
(-3.1093 -0.308065 11.6851)
(-8.34043 -0.243964 14.8265)
(-5.82479 -0.0539519 19.7528)
(-21.7283 0.0769127 19.5721)
(13.7937 -0.0104986 15.3257)
(3.38002 0.0183625 16.4883)
(6.4604 0.0170607 14.2993)
(4.35239 0.000605726 11.9726)
(5.00352 0.0320371 8.98688)
(5.28131 -0.0457292 5.93697)
(5.7856 0.239349 2.39606)
(8.58566 0.115931 -1.63416)
(9.07381 -0.168447 -4.77626)
(6.5066 -0.128218 -2.62148)
(1.89784 0.0258442 3.83671)
(-2.72093 -0.0806572 11.5161)
(-8.47582 -0.0266838 14.9055)
(-6.18827 -0.0330856 19.6231)
(-21.8075 -0.0188531 19.2316)
(13.7455 0.0444198 15.5064)
(3.32664 0.14358 16.5502)
(6.45782 0.134086 14.2542)
(4.36043 0.0265767 11.8916)
(5.01755 -0.0711649 8.94537)
(5.27185 0.0707908 5.89183)
(5.90152 -0.405725 2.52171)
(8.54811 -0.561703 -1.91055)
(7.82531 -0.49312 -4.87089)
(5.45207 -0.63941 -1.78273)
(0.862428 -0.346426 4.9088)
(-2.97556 0.104988 11.7145)
(-8.28952 0.24028 14.8544)
(-5.73039 0.000662368 19.7836)
(-21.7237 -0.117378 19.6587)
(13.6952 0.0892519 15.7771)
(3.2729 0.232819 16.5806)
(6.47452 0.202249 14.0774)
(4.37218 0.0374752 11.6828)
(5.07802 -0.159234 8.81305)
(5.04277 0.0700639 5.77461)
(6.38173 -0.979273 2.63183)
(7.80962 -0.0821388 -3.1588)
(4.14535 -0.302472 -4.79088)
(3.43635 -1.05343 0.505403)
(-1.47646 -0.127744 7.20014)
(-3.30777 0.00772272 12.0121)
(-8.23928 0.160712 14.7771)
(-5.57347 -0.0208986 19.8013)
(-21.6661 -0.0753109 19.8565)
(13.6859 0.108383 15.9642)
(3.27239 0.265721 16.5508)
(6.49579 0.225804 13.8612)
(4.3612 0.0322574 11.4661)
(5.12151 -0.118157 8.73301)
(4.62256 -0.036919 5.68674)
(6.7653 -0.596027 2.51633)
(5.63235 1.14959 -4.3519)
(3.12796 -1.47225 -5.48579)
(1.51677 -1.73928 0.64061)
(-2.51841 0.151176 8.1692)
(-3.55707 -0.340317 12.5065)
(-8.21718 0.101749 14.7556)
(-5.67501 -0.0645472 19.7135)
(-21.6451 -0.0820192 19.8189)
(13.7031 0.113909 16.0698)
(3.30235 0.279946 16.4932)
(6.51274 0.249813 13.6489)
(4.375 0.0433621 11.2705)
(5.09354 -0.0140254 8.721)
(4.70688 -0.0994818 5.65137)
(6.5852 0.334474 3.2993)
(7.1064 1.93036 -3.1379)
(6.91439 -2.04579 -5.82897)
(3.20364 -2.81892 -2.26087)
(-1.61668 -0.814701 6.54531)
(-3.57236 -0.467887 12.7949)
(-8.20745 0.0290258 14.7777)
(-5.81809 -0.0524194 19.6133)
(-21.6335 -0.0648646 19.7196)
(13.7442 0.0990197 16.1176)
(3.36073 0.248353 16.4603)
(6.52104 0.2268 13.4814)
(4.38123 0.0493674 11.1028)
(5.02171 -0.00163565 8.77367)
(5.03258 -0.102403 5.86857)
(6.13212 0.41337 3.8059)
(8.6064 2.02497 0.629818)
(10.4957 -1.51084 -3.41191)
(6.89534 -2.83247 -3.60202)
(0.444928 -1.20389 3.53901)
(-3.35939 -0.380413 12.4092)
(-8.29582 0.144366 14.7888)
(-6.13823 -0.00301266 19.4416)
(-21.6548 -0.161374 19.5628)
(13.781 0.0903394 16.1175)
(3.42027 0.252051 16.3892)
(6.55317 0.242466 13.287)
(4.41278 0.0866719 10.9056)
(5.00667 -0.0568549 8.76194)
(5.12981 -0.0521835 6.03253)
(5.75399 -0.000583778 3.75658)
(7.99027 0.707837 2.01148)
(10.2826 -1.7619 -2.23396)
(7.73121 -2.25307 -3.47006)
(1.13423 -0.956971 2.70593)
(-3.18497 -0.150874 12.0525)
(-8.11414 0.35339 14.7437)
(-5.60326 0.025161 19.5703)
(-21.5255 -0.250797 20.0708)
(13.8356 0.0494346 16.1166)
(3.51266 0.153187 16.3588)
(6.59679 0.158767 13.0783)
(4.44241 0.0736781 10.6141)
(5.0374 -0.0414552 8.66878)
(5.0317 0.00166244 6.09193)
(5.66795 -0.165607 4.22075)
(7.10257 0.121019 2.22271)
(8.99653 -1.47009 -3.17848)
(6.44939 -1.63587 -3.5576)
(0.0637809 -0.705129 3.61518)
(-3.3269 -0.081082 12.2194)
(-8.08577 0.211462 14.592)
(-5.46002 0.0174532 19.6205)
(-21.4395 -0.108976 20.305)
(16.9662 -0.06037 13.0131)
(5.78457 -0.177118 17.0177)
(8.6463 -0.254899 14.2418)
(6.09823 -0.246507 11.2748)
(5.9248 -0.22342 8.84059)
(5.90114 -0.364117 5.98786)
(5.87258 -0.879625 4.18264)
(7.81233 -0.532514 1.57684)
(7.33935 0.67669 -2.31565)
(0.341001 0.532195 1.77757)
(-7.33659 0.109475 10.0887)
(-11.5879 -0.0461421 16.1522)
(-15.2148 -0.0556624 18.4905)
(-12.5313 0.233462 19.9044)
(-24.5176 0.169929 14.3658)
(16.9414 -0.106721 13.0695)
(5.58689 -0.275612 17.0194)
(8.54977 -0.379061 14.3456)
(5.98911 -0.345325 11.4707)
(5.82752 -0.338157 8.92249)
(5.73673 -0.603963 5.7298)
(5.94456 -2.02166 3.80104)
(8.44709 -0.738103 2.20354)
(8.72717 1.55202 -1.70264)
(1.35674 1.09308 1.30416)
(-6.99017 0.151625 9.85882)
(-11.6251 -0.0868107 16.0955)
(-15.2429 -0.0942919 18.4159)
(-12.6199 0.492377 19.8972)
(-24.5942 0.38404 14.2781)
(16.9317 -0.11595 13.0958)
(5.47473 -0.260288 17.0569)
(8.48279 -0.358073 14.4709)
(5.90678 -0.294078 11.6233)
(5.75485 -0.326623 8.94822)
(5.63011 -0.710844 5.50254)
(5.68471 -2.88792 2.27213)
(8.28156 -1.73493 0.0245275)
(8.36796 2.09638 -2.59881)
(-0.122086 1.77837 2.21807)
(-7.49206 0.114601 10.3895)
(-12.0295 0.0312965 16.0754)
(-15.5349 -0.033513 18.1437)
(-12.9462 0.395473 19.5756)
(-24.591 0.259361 13.9886)
(16.9088 -0.134253 13.0824)
(5.34204 -0.28279 17.0478)
(8.42782 -0.395893 14.5659)
(5.8562 -0.287466 11.7378)
(5.70406 -0.314908 8.8772)
(5.51252 -0.643804 5.07644)
(5.12923 -2.86509 -0.318915)
(5.08506 -1.37471 -4.07233)
(3.75432 3.01651 -3.36555)
(-3.30325 1.76533 4.53424)
(-7.94535 -0.0201065 11.3918)
(-11.8236 0.165729 16.1054)
(-15.1737 0.00873522 18.2424)
(-12.624 0.276041 19.8983)
(-24.7058 0.107146 14.1505)
(16.8983 -0.129551 12.987)
(5.28397 -0.246193 17.0413)
(8.38649 -0.351505 14.7101)
(5.80266 -0.199886 11.9143)
(5.68145 -0.185589 8.85162)
(5.38476 0.028228 4.85464)
(5.45903 -1.33625 -1.12834)
(0.743333 -1.26593 -4.19041)
(-0.977254 2.17155 -1.04219)
(-4.52793 0.726653 6.14964)
(-8.34013 -0.273029 11.7894)
(-11.8063 0.170929 16.0282)
(-15.0164 -0.0144627 18.3084)
(-12.5051 0.263652 20.1219)
(-24.8015 0.11796 14.2231)
(16.8907 -0.110305 12.7967)
(5.28764 -0.197001 16.9838)
(8.36063 -0.301614 14.8574)
(5.77673 -0.134395 12.127)
(5.75933 -0.0890981 8.90909)
(5.19325 0.474916 5.09164)
(7.09625 0.30131 0.308591)
(3.20208 -1.09087 -3.85372)
(-0.0905866 0.283327 -0.156984)
(-2.83371 0.298413 5.93955)
(-8.12167 -0.0100861 11.4363)
(-11.713 0.0020261 15.9907)
(-14.9368 -0.0766058 18.3662)
(-12.4414 0.155281 20.2583)
(-24.8753 0.0706752 14.2426)
(16.8976 -0.0753531 12.507)
(5.40187 -0.0972747 16.8516)
(8.36704 -0.168319 14.961)
(5.75392 -0.0691733 12.3472)
(5.79039 0.00695343 9.02758)
(5.16343 0.234479 5.33436)
(7.14828 0.716388 1.86443)
(6.9139 -0.133069 -3.10189)
(4.20252 -0.297519 -2.60279)
(-1.47379 0.0402142 4.69929)
(-7.49398 0.202625 11.044)
(-11.7706 -0.134421 16.0097)
(-15.0422 -0.101463 18.3507)
(-12.5317 0.144466 20.1852)
(-24.8646 0.102392 14.1009)
(16.8907 -0.0307174 12.3631)
(5.46184 0.0117025 16.7668)
(8.37778 0.0239849 14.9593)
(5.77061 0.0114797 12.3892)
(5.76365 0.0318117 9.09636)
(5.43977 0.0828259 5.36223)
(6.48923 0.195324 2.09527)
(7.83889 -0.222348 -2.54898)
(5.77015 -0.320723 -3.24362)
(-1.02563 -0.105218 4.0716)
(-7.43139 0.0442572 10.8408)
(-11.9719 -0.0317521 16.0088)
(-15.3311 -0.0140498 18.1939)
(-12.8211 -0.0424825 19.8821)
(-24.8205 -0.00659851 13.865)
(16.8782 0.0397703 12.5373)
(5.37 0.116473 16.8779)
(8.36012 0.196799 14.9455)
(5.77536 0.102874 12.3207)
(5.79315 -0.019768 9.05419)
(5.41644 0.133048 5.3645)
(6.64173 -0.151341 2.12851)
(7.58463 -0.172887 -2.73525)
(4.89931 -0.425415 -2.93171)
(-1.41789 -0.169301 4.33179)
(-7.4497 -0.166536 10.9155)
(-11.6866 0.0483818 16.0179)
(-15.0126 0.0733803 18.3486)
(-12.4963 -0.231045 20.2305)
(-24.8844 -0.131713 14.175)
(16.8788 0.0995671 12.8179)
(5.28117 0.206096 17.0019)
(8.36478 0.306984 14.8334)
(5.78615 0.151044 12.1156)
(5.87119 0.0265357 8.91171)
(5.09026 -0.106618 5.32173)
(7.20952 -0.492961 1.61772)
(5.60881 0.403707 -3.42867)
(1.45695 -0.2562 -1.18331)
(-2.50985 -0.358425 5.43372)
(-7.90296 -0.167266 11.3126)
(-11.6525 -0.0679217 16.0016)
(-14.8714 0.0438286 18.3831)
(-12.3859 -0.219638 20.3285)
(-24.8909 -0.102101 14.3347)
(16.8894 0.122648 13.0021)
(5.28815 0.248761 17.0536)
(8.39137 0.345641 14.6829)
(5.8091 0.182283 11.8942)
(5.81725 0.13128 8.83519)
(5.18567 -0.153297 5.1634)
(6.804 0.494429 0.361938)
(2.13959 1.36057 -4.06076)
(-0.373774 -1.58901 -0.992378)
(-3.90668 -0.687944 5.88138)
(-8.19399 0.124082 11.6781)
(-11.7126 -0.196027 16.0385)
(-14.9375 -0.0184647 18.3232)
(-12.441 -0.309038 20.1909)
(-24.8184 -0.148052 14.3153)
(16.9034 0.130621 13.0927)
(5.34747 0.280331 17.0545)
(8.43194 0.38154 14.5314)
(5.8461 0.252658 11.7001)
(5.80308 0.25311 8.82357)
(5.37537 0.248696 5.182)
(5.99341 2.12285 0.0621483)
(4.20297 1.35141 -4.32569)
(2.96135 -2.77386 -3.24148)
(-3.4067 -1.55967 4.67718)
(-7.95158 0.0024302 11.424)
(-11.7245 -0.196018 16.1286)
(-15.0834 -0.0269 18.2665)
(-12.5507 -0.309322 19.9811)
(-24.7193 -0.140686 14.2339)
(16.9276 0.112693 13.1026)
(5.47784 0.255116 17.0589)
(8.48109 0.344744 14.4318)
(5.89198 0.256017 11.57)
(5.79143 0.285678 8.87832)
(5.5926 0.377577 5.46699)
(5.78576 2.5994 1.79504)
(7.75731 1.86703 -1.45286)
(7.68633 -2.25168 -3.19568)
(-0.40422 -1.82255 2.37398)
(-7.49582 -0.160329 10.4584)
(-11.8774 -0.0446427 16.1017)
(-15.4193 0.0207271 18.1624)
(-12.857 -0.41457 19.6842)
(-24.6132 -0.290894 14.085)
(16.9386 0.103482 13.0733)
(5.58858 0.268362 17.0186)
(8.54415 0.364106 14.3039)
(5.96953 0.310366 11.4082)
(5.8297 0.297137 8.84226)
(5.71888 0.379182 5.63348)
(5.77577 2.06688 3.37981)
(8.44905 1.02435 1.68513)
(8.62706 -1.76529 -1.72853)
(1.50299 -1.19527 1.25279)
(-6.92506 -0.176045 9.79946)
(-11.4656 0.0914964 16.0954)
(-15.1242 0.0856645 18.4324)
(-12.517 -0.512612 20.02)
(-24.6116 -0.417248 14.3748)
(16.9636 0.0580216 13.016)
(5.78024 0.171577 17.0147)
(8.63463 0.244694 14.1996)
(6.07002 0.225296 11.206)
(5.89986 0.198997 8.75307)
(5.86686 0.250516 5.87117)
(5.71012 0.936578 3.99243)
(7.86287 0.608582 1.52015)
(7.01025 -1.05838 -2.1516)
(0.441483 -0.578056 1.75506)
(-7.30625 -0.129685 10.0044)
(-11.4317 0.0468738 16.1418)
(-15.092 0.0520542 18.5174)
(-12.4249 -0.243305 20.0496)
(-24.5353 -0.184265 14.4684)
(18.6146 -0.0598713 9.5588)
(8.01856 -0.189743 17.1795)
(10.4751 -0.314895 15.8939)
(7.57209 -0.432685 12.8064)
(5.99524 -0.530496 9.52035)
(5.57047 -1.03502 6.7739)
(5.30563 -1.21522 4.96362)
(6.1914 0.366448 1.07297)
(-0.609754 0.679303 2.89401)
(-8.74214 0.0850206 9.67205)
(-14.4738 -0.121841 15.6015)
(-17.9014 -0.129022 19.1199)
(-18.9493 0.0835892 19.3225)
(-14.7281 0.580181 15.5302)
(-26.2112 0.265464 9.47331)
(18.655 -0.1039 9.67562)
(7.76781 -0.286548 17.2176)
(10.2941 -0.462972 15.8966)
(7.33701 -0.619669 12.8633)
(5.75226 -0.787767 9.50752)
(5.42056 -1.88415 6.58579)
(5.51406 -2.21276 4.81238)
(6.99175 1.05752 1.74921)
(0.204368 1.51257 2.63921)
(-8.88685 0.411852 9.67421)
(-14.6761 -0.168836 15.6704)
(-18.0294 -0.221608 19.1749)
(-18.8246 0.0698069 19.39)
(-14.7165 1.05424 15.9314)
(-26.4157 0.565889 9.66086)
(18.6888 -0.114295 9.73289)
(7.63527 -0.256014 17.2545)
(10.1787 -0.441436 15.9391)
(7.16882 -0.562731 12.9281)
(5.54612 -0.809078 9.40716)
(5.40951 -2.45443 6.14815)
(4.20062 -3.21894 2.66236)
(6.50513 1.50842 0.256775)
(-2.22867 2.49632 3.20376)
(-10.1493 0.807506 10.3051)
(-15.2143 -0.0510166 15.727)
(-18.3808 -0.0671252 18.9635)
(-18.8037 0.0275076 19.095)
(-14.6577 0.858128 16.1467)
(-26.5703 0.419552 10.0185)
(18.7139 -0.134625 9.77618)
(7.44047 -0.256682 17.2457)
(10.0449 -0.48584 15.9377)
(7.00445 -0.560176 12.9377)
(5.33822 -0.862332 9.16134)
(5.23343 -2.26111 4.76338)
(0.657443 -3.66112 0.181653)
(2.12986 2.07833 -0.546624)
(-6.10576 2.77362 4.42525)
(-11.0004 0.727239 10.8447)
(-15.0593 0.0287144 15.6792)
(-18.153 0.0983045 18.8658)
(-18.5184 0.0949874 19.1493)
(-14.5525 0.700883 16.6929)
(-26.7124 0.208404 10.1387)
(18.7235 -0.131659 9.72556)
(7.33747 -0.192374 17.1953)
(9.95796 -0.419609 15.9815)
(6.86854 -0.403252 13.0227)
(5.2989 -0.519264 9.05812)
(5.1246 -0.62849 3.66323)
(-1.212 -2.77554 -0.332826)
(-3.82059 0.72159 0.939498)
(-7.83312 1.75238 5.54326)
(-11.4933 0.30178 11.0532)
(-15.205 0.066852 15.6877)
(-18.162 0.0953456 18.8451)
(-18.3981 0.0865491 19.1521)
(-14.559 0.602006 17.0787)
(-26.8161 0.159937 10.1444)
(18.7035 -0.115249 9.58748)
(7.29522 -0.129207 17.0641)
(9.90778 -0.345663 16.0279)
(6.84609 -0.267067 13.186)
(5.4697 -0.228786 9.28357)
(5.32067 0.878772 4.23145)
(2.43152 -1.75391 -0.256475)
(-4.05807 -0.744992 1.32536)
(-7.16134 0.59139 5.93583)
(-11.4329 0.10874 10.9437)
(-15.2946 0.0919428 15.6235)
(-18.1608 0.067899 18.8189)
(-18.3015 0.0744791 19.1786)
(-14.5317 0.411861 17.4037)
(-26.9023 0.0481035 10.1774)
(18.652 -0.0894932 9.35415)
(7.38505 -0.0476154 16.8377)
(9.93271 -0.184085 16.048)
(6.85569 -0.1234 13.3794)
(5.67413 -0.118783 9.57024)
(4.85185 0.946031 5.31404)
(6.38876 0.026794 0.852117)
(0.280638 -0.76454 -0.238512)
(-5.76298 -0.103899 5.47382)
(-11.3573 -0.0337352 10.8997)
(-15.4284 0.0158217 15.6177)
(-18.318 -0.0128456 18.7152)
(-18.3235 0.0385631 18.9831)
(-14.4857 0.256891 17.3574)
(-26.8937 0.0440021 10.09)
(18.6101 -0.0558063 9.23093)
(7.41371 -0.00195181 16.7175)
(9.94238 0.0293756 16.0177)
(6.87991 0.0249889 13.4078)
(5.68965 0.0230142 9.61963)
(4.67404 0.303798 5.52125)
(6.42918 0.101443 1.60096)
(2.84677 -0.26019 -0.757531)
(-5.21303 -0.303464 5.10664)
(-11.3833 -0.0541865 10.8379)
(-15.5631 -0.0137023 15.5233)
(-18.4033 -0.0667656 18.5526)
(-18.2972 -0.0948523 18.8077)
(-14.4487 -0.0868025 17.309)
(-26.9408 0.011751 10.1415)
(18.636 0.0224558 9.35799)
(7.32669 0.0451337 16.8778)
(9.90255 0.219718 16.0477)
(6.86662 0.17371 13.356)
(5.70308 0.157427 9.59005)
(4.72565 -0.0942555 5.54966)
(6.50934 0.121836 1.68722)
(2.87519 0.0465062 -0.863554)
(-5.00394 -0.200288 5.00395)
(-11.0352 -0.0448951 10.7619)
(-15.2064 -0.029291 15.5984)
(-18.1569 -0.0303225 18.7744)
(-18.2654 -0.117087 19.0659)
(-14.4899 -0.369322 17.4386)
(-26.9316 -0.0684807 10.1251)