/*--------------------------------*- C++ -*----------------------------------*\
| =========                 |                                                 |
| \\      /  F ield         | OpenFOAM: The Open Source CFD Toolbox           |
|  \\    /   O peration     | Version:  4.1                                   |
|   \\  /    A nd           | Web:      www.OpenFOAM.org                      |
|    \\/     M anipulation  |                                                 |
\*---------------------------------------------------------------------------*/
FoamFile
{
    version     2.0;
    format      ascii;
    class       volScalarField;
    location    "333";
    object      p;
}
// * * * * * * * * * * * * * * * * * * * * * * * * * * * * * * * * * * * * * //

dimensions      [0 2 -2 0 0 0 0];

internalField   nonuniform List<scalar> 
204246
(
123.538
-10.469
36.2844
18.748
14.6381
22.3688
10.0682
22.3626
8.76052
21.9585
8.05202
22.4105
6.39553
22.5817
7.7895
19.8359
14.3468
8.84435
21.3476
6.25646
22.6343
6.81298
21.3273
7.81682
21.3497
7.84624
22.4162
6.26898
23.509
6.192
23.6635
6.81001
22.9139
9.46349
19.1744
15.9648
9.1832
21.7687
8.04192
21.5547
8.56965
21.7911
8.41931
22.8307
6.76861
23.8025
6.74272
23.6148
8.01514
21.461
10.3524
18.9401
16.1274
8.98135
21.6069
7.7167
21.1781
8.06397
21.2162
7.72083
22.0648
5.87136
22.8569
5.65993
22.5127
6.75597
20.247
8.88237
17.6847
14.2754
8.53088
18.2704
7.10967
19.1238
6.54831
19.3237
5.86584
20.0379
3.74467
20.5216
3.28842
19.5506
4.40915
16.4886
5.45448
13.5234
9.55102
3.10177
12.0682
0.423004
10.8627
-1.80022
8.75352
-6.00315
5.57962
-9.64951
1.03748
-14.211
-4.76936
-18.7311
-12.5019
-24.3866
-19.8997
-30.6316
-27.4554
-33.8984
-42.2073
-37.5483
-49.5333
-39.0629
-55.5455
-39.4275
-54.9825
-39.6344
-51.0879
-36.9938
-45.8745
-31.5655
-38.6027
-24.9019
-30.1473
-19.3432
-18.8073
-20.6632
-9.08756
-17.6087
-2.92492
-14.885
0.378012
-13.7563
1.60385
-13.5542
1.64005
-14.2732
0.686104
-15.198
-1.6215
-15.1715
-5.95922
-11.9901
-18.4375
-8.32856
-22.6055
-8.9056
-24.7587
-9.90105
-26.1877
-10.6305
-26.8697
-10.8655
-26.8813
-10.6702
-26.1132
-10.4571
-23.6964
-11.9574
-16.5011
-20.6246
-8.56193
-21.0925
-5.03831
-18.9676
-2.5824
-15.2435
0.158343
-10.5506
4.08127
-4.7651
9.22086
2.24941
15.553
11.2533
23.5556
22.8293
33.0589
39.6239
41.8298
55.7319
60.2315
73.5865
83.2932
96.7114
111.011
125.955
145.857
163.723
191.977
214.671
258.537
287.509
375.222
391.155
598.191
45.2575
18.1127
18.0716
21.9832
14.8792
19.5396
13.529
18.2655
13.1115
17.4123
12.6258
17.1853
12.4502
16.0766
13.7428
13.9757
16.5852
11.4011
17.0968
11.7415
16.6462
12.4289
16.3242
12.4458
16.6701
12.2633
17.3565
12.0302
17.3761
12.3251
17.2035
13.0021
16.3295
14.7345
14.4385
17.6781
12.2725
17.2934
12.9407
17.0121
12.9718
17.3247
12.7585
17.9094
12.5002
17.7661
12.8483
17.2829
13.7515
16.2514
14.8706
14.5195
17.7038
12.2046
17.1713
12.6906
16.705
12.5447
16.8235
12.1417
17.2138
11.6897
16.8835
11.8458
16.24
12.5646
15.0976
13.4966
13.3337
15.9028
11.2763
15.2357
11.1087
15.1317
10.8834
15.1254
10.3583
15.345
9.72989
14.7422
9.63808
13.6882
9.79212
12.4762
10.0552
9.97927
12.002
6.93514
9.6926
5.23487
8.12568
2.91339
6.43646
-0.0972678
3.27842
-3.36569
-0.875106
-7.37034
-6.28556
-11.6627
-13.0304
-17.5406
-20.4475
-23.9683
-28.7404
-28.3972
-37.3607
-37.3398
-44.836
-42.7301
-48.9102
-46.197
-49.7201
-46.1527
-48.6132
-42.633
-45.0001
-38.4185
-37.752
-32.6856
-29.3544
-27.3139
-20.0754
-22.1352
-13.5464
-15.4817
-9.25276
-11.5263
-6.07367
-9.0484
-4.26147
-8.14658
-3.75256
-8.36756
-4.5584
-9.0834
-6.66671
-9.56366
-10.1523
-8.70493
-14.7607
-11.5676
-16.995
-13.6341
-18.9177
-15.2341
-20.4081
-16.3191
-21.2935
-16.8426
-21.5087
-16.9389
-20.8905
-17.0565
-18.9008
-17.9613
-15.0733
-19.2384
-13.5421
-17.4765
-11.6663
-15.0798
-9.30975
-12.3022
-6.34861
-8.82182
-2.60302
-4.27473
2.1662
1.56959
7.59631
9.34052
14.5692
19.1374
22.7607
31.5531
35.2143
44.3384
50.8644
60.4352
70.0819
80.5874
93.5896
105.212
122.356
135.21
158.381
171.846
207.069
213.73
288.444
253.884
388.565
10.7713
26.3104
17.8215
21.5067
15.7274
19.4369
14.2044
18.018
13.6992
17.2725
13.1439
16.8159
12.8866
15.879
13.8655
14.4888
15.6313
12.6791
16.0305
12.2195
16.3422
12.3098
16.3783
12.3991
16.5883
12.3709
16.9695
12.2781
17.1566
12.4649
17.1041
13.0608
16.5029
14.3199
14.9796
16.0238
13.4782
16.6809
13.1081
16.9914
12.983
17.2575
12.8613
17.5682
12.723
17.6175
12.9278
17.3331
13.5475
16.5424
14.5676
15.1304
16.166
13.4382
16.6456
12.898
16.7483
12.5948
16.8122
12.2764
16.9219
11.9309
16.7763
11.9303
16.3154
12.3627
15.3787
13.158
13.8942
14.4878
12.2437
14.8131
11.4363
14.9917
10.9861
15.0243
10.4955
15.0067
9.94677
14.6341
9.69514
13.8245
9.74445
12.3443
9.98824
10.2206
10.4848
7.6892
9.6839
5.65557
8.2264
3.59766
5.9791
1.04052
2.67443
-1.99609
-1.60677
-5.87153
-6.85953
-10.6688
-12.9708
-16.6392
-20.019
-23.1671
-28.0099
-30.208
-35.7601
-37.2667
-43.313
-43.6621
-48.1753
-47.0158
-50.1241
-47.064
-49.4715
-44.681
-45.0212
-40.0785
-37.8405
-33.576
-29.448
-26.7056
-21.2808
-20.4219
-14.4456
-14.2185
-9.58036
-10.1014
-6.02018
-8.09088
-3.95949
-7.48777
-3.30633
-7.7294
-4.05542
-8.44575
-6.04634
-8.93214
-9.41455
-9.83931
-13.3511
-11.6247
-16.1264
-13.4452
-18.3966
-14.9753
-20.0668
-16.0898
-21.0463
-16.6487
-21.3175
-16.7741
-20.7575
-16.8334
-19.1106
-17.362
-16.2308
-17.9235
-14.0141
-17.0054
-11.6495
-15.0895
-9.34749
-12.1024
-6.70867
-8.17708
-3.17876
-3.36831
1.49986
2.62341
7.55399
10.0996
15.0682
19.6344
24.6882
31.2572
36.2366
45.2898
51.8597
62.141
71.7703
83.073
96.5814
109.147
127.692
141.603
167.228
181.936
221.62
229.554
305.708
284.438
373.218
1.23197
16.1903
11.7877
18.0558
13.286
17.6156
13.8516
16.6543
14.0596
15.9354
14.1127
15.406
14.2193
14.5923
14.7334
13.5205
15.6941
13.3902
15.2735
13.586
14.9051
13.8602
14.8091
13.8708
15.0339
13.8363
15.3316
13.9382
15.3198
14.225
15.1688
14.7363
14.7977
15.5399
14.119
16.3611
13.9849
15.8896
14.3123
15.7359
14.3883
15.8276
14.3829
15.9623
14.4857
15.7925
14.7776
15.4733
15.2647
14.9756
15.8385
14.2871
16.5077
14.026
15.8765
14.1989
15.5215
14.0895
15.4227
13.8872
15.3607
13.7846
14.996
13.8701
14.5
14.1591
13.9112
14.5216
13.1226
14.9703
12.7478
14.3509
12.6315
13.985
12.4755
13.7846
12.1974
13.6036
11.9772
13.0551
11.8775
12.3084
11.8478
11.4611
11.7
10.1832
11.5942
9.2317
9.84523
7.86812
8.20798
6.03163
6.37248
3.85004
3.51836
0.944906
-0.151536
-2.87078
-4.74964
-7.62223
-10.457
-13.4823
-17.3951
-20.1704
-25.2767
-27.3038
-33.6963
-35.7016
-41.0362
-43.4316
-46.9747
-49.0314
-50.1803
-50.2667
-50.4769
-48.4576
-47.2821
-44.1207
-40.9863
-37.6833
-32.8582
-30.3378
-24.2998
-22.9345
-17.5229
-15.822
-12.1684
-10.4938
-8.14985
-7.34656
-5.79289
-5.90407
-4.95514
-5.76795
-5.49832
-6.54319
-6.99403
-7.4508
-9.51978
-8.85372
-11.938
-12.0723
-14.3902
-14.9189
-16.5672
-17.0234
-18.424
-18.4104
-19.6288
-19.1733
-20.1114
-19.4194
-19.7515
-19.4443
-18.491
-19.4196
-17.0145
-18.5888
-16.1738
-17.0786
-14.7981
-15.1514
-12.8512
-12.8604
-10.4454
-9.97462
-7.27575
-6.31945
-3.19916
-1.63005
1.75668
4.59377
8.04498
12.3515
15.9047
22.1647
26.2763
33.2629
39.3464
46.7312
55.3592
63.2343
74.7873
83.1343
98.3179
107.133
127.666
134.794
167.821
162.707
220.196
207.061
278.157
0.888242
16.7539
10.7265
16.8008
13.7373
16.5188
14.3893
16.1875
14.4481
15.7262
14.4125
15.2307
14.5126
14.6002
14.8189
14.0055
14.916
13.8772
14.6006
13.7525
14.6993
13.8622
14.7294
13.823
14.8686
13.8263
15.0359
13.9955
15.0828
14.2415
15.046
14.6718
14.7192
15.1734
14.3475
15.548
14.4382
15.4471
14.4819
15.571
14.452
15.7079
14.4637
15.78
14.6036
15.6945
14.8286
15.4994
15.1499
15.1648
15.5477
14.7179
15.7845
14.6224
15.5097
14.48
15.4313
14.2257
15.3668
14.0204
15.2318
13.9351
14.9399
13.9269
14.5555
14.0504
14.0504
14.2386
13.424
14.269
13.2141
13.9743
12.9083
13.7832
12.6165
13.6247
12.3116
13.3723
12.0611
12.9326
11.8298
12.3247
11.6499
11.45
11.4575
10.3628
10.8801
9.46486
9.90687
8.23964
8.4178
6.54027
6.47976
4.41366
3.85981
1.62482
0.415609
-2.04629
-3.94203
-6.68266
-9.33571
-12.3421
-15.993
-19.0198
-23.7502
-26.6428
-31.8317
-34.991
-40.0885
-42.8404
-46.9733
-48.9432
-51.2655
-51.6549
-52.0421
-50.5819
-48.959
-46.0162
-42.5384
-38.8385
-33.9334
-30.5401
-25
-22.2497
-17.2825
-15.1157
-11.2281
-9.89332
-7.24209
-6.54782
-4.8874
-5.01474
-4.05334
-4.70078
-4.56743
-5.28102
-6.19104
-6.61353
-8.33813
-8.73169
-10.809
-11.2695
-13.2504
-14.1314
-15.7227
-16.4429
-17.7193
-18.0459
-19.0764
-18.8758
-19.7149
-19.1911
-19.4927
-19.1818
-18.6096
-18.73
-17.4506
-17.8343
-16.2886
-16.5545
-14.7203
-14.8119
-12.7349
-12.4478
-10.1341
-9.48558
-6.80368
-5.71884
-2.61259
-0.811013
2.62507
5.4181
9.25697
13.3227
17.5975
23.0826
28.2662
35.0458
41.8789
49.6684
58.912
67.5877
80.0034
89.4061
105.82
115.501
137.978
145.75
180.092
177.033
226.32
214.957
260.055
-0.59852
12.1278
8.53149
13.5595
12.0053
14.7497
13.4025
15.0726
14.1413
14.8552
14.5155
14.5635
14.713
14.2237
14.8148
14.0081
14.7345
14.1239
14.6037
14.1337
14.3182
14.1913
14.3482
14.2388
14.4706
14.3473
14.5195
14.5397
14.5018
14.7928
14.4897
15.116
14.395
15.5073
14.2657
15.5575
14.6116
15.2153
14.8924
15.1646
14.9907
15.1838
15.0713
15.1761
15.2424
15.0653
15.4464
14.9391
15.6358
14.7993
15.8427
14.6186
15.8853
14.8034
15.3892
14.8744
15.1216
14.7905
14.9327
14.6769
14.7141
14.6332
14.3996
14.6088
14.0916
14.5849
13.8187
14.623
13.4604
14.4604
13.367
14.0582
13.3376
13.6043
13.2293
13.3173
13.0481
13.0532
12.9366
12.6342
12.8113
12.1491
12.6227
11.6129
12.2386
11.0236
11.6756
10.3717
10.6546
9.42484
9.3987
8.07499
7.74286
6.22798
5.47557
3.70151
2.43084
0.321335
-1.62346
-4.05098
-6.86044
-9.54593
-13.3955
-16.2643
-21.1459
-24.2205
-29.8259
-33.1519
-38.6689
-42.1933
-46.7326
-49.7985
-52.6486
-54.1075
-54.9616
-54.2995
-52.9372
-50.4435
-46.9351
-43.4403
-38.2646
-34.6588
-28.7626
-25.502
-20.1291
-17.2494
-13.253
-10.8765
-8.38502
-6.70184
-5.39028
-4.5958
-4.1065
-4.01853
-4.25452
-4.51482
-5.52618
-5.84452
-7.65912
-7.94253
-10.2488
-11.0087
-13.0496
-14.0801
-15.8177
-16.8421
-18.1353
-19.0293
-19.7187
-20.232
-20.4221
-20.6551
-20.2826
-20.5592
-19.6377
-20.0079
-18.7873
-18.9819
-17.819
-17.8397
-16.6614
-16.3881
-15.1374
-14.6142
-13.1415
-12.4052
-10.5744
-9.53607
-7.33753
-5.72999
-3.22842
-0.815156
1.97052
5.4176
8.63096
13.1377
17.2504
22.43
28.0976
33.7306
41.5436
47.5355
57.9815
64.2744
78.0436
84.045
102.854
106.102
136.516
130.069
171.249
168.742
209.334
2.26008
13.1804
9.01651
13.6363
12.3035
14.3544
13.7578
14.7625
14.4443
14.7785
14.6266
14.6168
14.7299
14.4024
14.6365
14.1447
14.5179
14.0459
14.3833
14.1355
14.1841
14.1475
14.1178
14.1645
14.2222
14.2534
14.3157
14.4324
14.3198
14.6602
14.3446
14.9247
14.2652
15.158
14.3925
15.1629
14.6542
15.0005
14.8297
15.0709
14.9945
15.1363
15.0931
15.1272
15.2662
15.0615
15.4398
14.9872
15.5706
14.8899
15.7094
14.8641
15.5789
15.0402
15.2689
15.0495
15.0513
14.8902
14.9152
14.7612
14.705
14.6868
14.4341
14.6153
14.1444
14.5284
13.8585
14.4111
13.5598
14.2136
13.5184
13.8552
13.4607
13.4839
13.268
13.21
13.082
12.8857
12.8846
12.5253
12.68
12.0978
12.4054
11.6048
12.0316
11.0229
11.4672
10.4715
10.6641
9.62038
9.56825
8.40297
8.06956
6.73477
6.04574
4.45155
3.28125
1.3923
-0.432725
-2.64174
-5.25905
-7.82833
-11.3803
-14.348
-18.8333
-22.3052
-27.4514
-31.5699
-36.9006
-41.1793
-46.0802
-49.7523
-53.4375
-55.491
-57.0871
-56.9217
-55.8782
-53.4272
-49.661
-45.6361
-40.0678
-35.5917
-29.4943
-25.3424
-19.8949
-16.5284
-12.3484
-10.0593
-7.20782
-5.80445
-4.13228
-3.58915
-2.80827
-2.79521
-2.96261
-3.18044
-4.22339
-4.57708
-6.26591
-6.89488
-8.73759
-9.76912
-11.649
-12.9332
-14.6444
-15.8873
-17.2141
-18.2734
-19.0288
-19.7749
-19.9092
-20.3586
-19.9911
-20.1948
-19.499
-19.6141
-18.5825
-18.7575
-17.595
-17.4969
-16.2834
-16.0208
-14.6299
-14.1193
-12.4823
-11.7582
-9.75704
-8.74063
-6.39439
-4.80159
-2.1317
0.241573
3.31556
6.60464
10.2819
14.5292
19.2331
24.3003
30.5987
36.3073
44.7118
50.9515
62.0137
68.5393
82.9793
89.1134
108.724
110.952
138.89
135.544
166.755
162.912
191.714
1.80963
11.6041
8.04373
11.9594
11.26
13.0435
12.8879
13.8661
13.9297
14.2145
14.3592
14.2904
14.549
14.2029
14.6599
14.071
14.5706
14.1235
14.3581
14.2273
14.1806
14.2754
14.0599
14.3244
14.0842
14.4741
14.1245
14.6771
14.1172
14.8725
14.2012
15.0929
14.2713
15.257
14.3773
15.2009
14.712
15.0588
14.9175
14.9902
15.0973
14.9684
15.2788
14.9426
15.4438
14.9026
15.5962
14.8812
15.7137
14.8579
15.7744
14.917
15.6145
15.1482
15.2812
15.1856
15.0654
15.1178
14.8491
15.0266
14.6142
14.947
14.341
14.8527
14.0868
14.7485
13.8753
14.6291
13.6423
14.335
13.6772
13.9547
13.6816
13.6018
13.5847
13.2783
13.4693
12.9985
13.3559
12.6773
13.2136
12.3266
13.0016
11.9781
12.6525
11.6441
12.0978
11.2531
11.443
10.587
10.5723
9.62039
9.33317
8.22945
7.56718
6.24665
5.07836
3.4756
1.656
-0.297695
-2.9195
-5.28399
-8.84714
-11.7267
-16.2531
-19.8018
-25.1467
-29.3823
-35.2178
-39.958
-45.6692
-50.2398
-54.8857
-58.1386
-60.5832
-61.4077
-60.7804
-58.993
-55.4784
-51.6412
-45.9946
-41.1275
-34.5656
-29.525
-23.3656
-18.9949
-14.2407
-10.9276
-7.94329
-5.69144
-4.24201
-2.88766
-2.48165
-1.97566
-2.30824
-2.29278
-3.37087
-3.71585
-5.43
-6.12064
-8.25554
-9.35214
-11.4609
-12.8794
-14.8736
-16.3267
-17.9572
-19.2077
-20.2479
-21.0881
-21.4262
-21.8484
-21.4883
-21.7027
-20.8225
-20.999
-19.9592
-19.9028
-19.1304
-18.9156
-18.0895
-17.8294
-16.8707
-16.5144
-15.3523
-14.8348
-13.4061
-12.5772
-10.9103
-9.6135
-7.66982
-5.77579
-3.47075
-0.89369
1.97474
5.20086
9.02843
12.7629
17.9615
22.0795
29.1617
33.5403
42.9954
47.5043
59.978
63.8414
81.4945
82.208
106.795
104.883
133.332
133.241
160.26
4.41788
13.083
9.17808
12.8099
11.9175
13.382
13.4182
13.9324
14.1672
14.2915
14.4872
14.3631
14.569
14.2578
14.5281
14.113
14.3731
14.0742
14.1842
14.1334
14.0221
14.1438
13.9008
14.2008
13.845
14.3056
13.947
14.4506
13.9814
14.6105
14.0555
14.8191
14.1387
15.0238
14.3617
14.9714
14.6459
14.8586
14.8773
14.8936
15.0659
14.9174
15.2495
14.927
15.4319
14.9188
15.5677
14.9201
15.655
14.9323
15.6784
15.0264
15.5109
15.2425
15.2609
15.2531
15.0893
15.1881
14.8788
15.0996
14.6479
15.0046
14.3888
14.8726
14.1207
14.705
13.8913
14.521
13.7012
14.2078
13.7133
13.8042
13.6914
13.4971
13.5632
13.202
13.4074
12.8924
13.2578
12.572
13.0918
12.2432
12.8371
11.9143
12.4667
11.6646
11.9215
11.2881
11.3994
10.718
10.6791
9.91476
9.64292
8.76476
8.16391
7.09724
6.04646
4.71363
3.07067
1.38776
-0.983528
-3.12738
-6.35131
-9.13227
-13.2869
-16.9606
-22.0523
-26.7937
-32.6127
-38.0925
-44.1506
-49.6705
-55.1304
-59.4735
-62.9539
-64.7757
-65.0245
-63.613
-60.0666
-55.6628
-49.2695
-43.4588
-36.2408
-30.5038
-23.7554
-18.9271
-13.7172
-10.3514
-6.93
-4.88539
-2.94029
-1.86975
-1.09563
-0.636351
-0.800495
-0.750821
-1.77182
-2.07925
-3.67986
-4.50769
-6.32692
-7.72348
-9.67038
-11.3765
-13.3216
-15.0742
-16.7393
-18.2745
-19.3982
-20.5151
-20.8872
-21.5415
-21.2559
-21.4766
-20.8195
-20.7208
-19.8704
-19.7091
-18.8047
-18.6313
-17.6642
-17.4072
-16.3458
-15.8895
-14.6757
-14.0929
-12.635
-11.7911
-10.0987
-8.82186
-6.83757
-5.00262
-2.60281
-0.149024
2.89084
5.96498
9.98195
13.5692
19.0391
22.9749
30.3128
34.4857
44.1038
48.3095
60.8589
64.1444
81.0279
81.3812
103.053
100.702
123.476
122.33
143.751
4.44106
12.7286
8.5956
12.4804
11.1605
12.9221
12.7535
13.4991
13.7345
13.9746
14.1708
14.1627
14.4156
14.1515
14.5302
14.0584
14.4432
14.0755
14.2096
14.1916
14.0461
14.2267
13.9222
14.2816
13.8444
14.4112
13.8784
14.5932
14.0113
14.7583
14.0732
14.9723
14.1549
15.1227
14.3645
15.0723
14.7108
14.8987
14.9209
14.8489
15.1032
14.87
15.2787
14.8734
15.4476
14.8867
15.6044
14.9039
15.7197
14.9596
15.7079
15.0804
15.542
15.2965
15.2966
15.3467
15.1371
15.3024
14.9394
15.2199
14.7128
15.1168
14.4668
14.9981
14.1962
14.8517
13.9678
14.6727
13.7913
14.3276
13.8711
13.9251
13.8654
13.6292
13.7987
13.3621
13.6852
13.1202
13.5723
12.8536
13.4456
12.5841
13.2788
12.354
12.9636
12.2215
12.5435
11.9181
12.1134
11.5066
11.5192
10.8902
10.6626
9.95513
9.40124
8.5377
7.54161
6.43488
4.86163
3.39464
1.1076
-0.858907
-3.98526
-6.63973
-10.6927
-14.2826
-19.3257
-23.9999
-30.056
-35.8459
-42.6906
-49.0527
-55.7809
-61.5821
-66.5814
-69.9112
-71.1708
-70.4075
-67.3855
-63.2519
-57.0808
-50.7063
-42.813
-35.6256
-27.9301
-21.4574
-15.385
-10.5558
-6.96122
-3.96277
-2.38963
-0.615394
-0.322561
0.601236
0.0639438
0.373894
-0.80231
-1.09598
-2.69881
-3.65891
-5.64431
-7.06912
-9.28039
-11.1121
-13.3921
-15.3862
-17.4668
-19.2865
-20.7997
-22.1089
-22.7453
-23.3663
-23.0802
-23.1777
-22.2489
-22.1538
-21.0946
-20.9234
-20.0536
-19.952
-19.1753
-19.0736
-18.2985
-18.0881
-17.1987
-16.8437
-15.7581
-15.1624
-13.889
-12.9476
-11.4179
-10.0642
-8.15338
-6.36774
-3.87711
-1.68924
1.69415
4.22235
8.83584
11.6185
17.8934
20.8365
29.2068
32.1486
43.3267
45.5174
61.0407
60.8486
80.3224
80.7476
101.159
101.654
121.695
6.72784
14.4846
10.052
13.7019
12.1452
13.6713
13.3833
13.9304
14.1168
14.2095
14.3745
14.2544
14.4922
14.1591
14.4617
14.0637
14.2803
14.0507
14.0435
14.0877
13.8637
14.074
13.7295
14.104
13.6515
14.2034
13.6411
14.359
13.7176
14.5181
13.8437
14.7183
14.0023
14.8677
14.2746
14.8279
14.633
14.7311
14.8757
14.7656
15.0667
14.8162
15.2483
14.8488
15.416
14.8659
15.5796
14.8988
15.6867
14.9703
15.6848
15.1341
15.5236
15.3483
15.2913
15.4032
15.1379
15.3642
14.967
15.2918
14.7637
15.1896
14.5168
15.0563
14.2417
14.8698
13.9883
14.6259
13.8217
14.2437
13.8587
13.8335
13.8353
13.5186
13.7376
13.2487
13.6009
12.9843
13.4752
12.7096
13.3538
12.4724
13.1294
12.2677
12.8062
12.1301
12.4218
11.9367
12.052
11.621
11.5944
11.1718
10.9505
10.4912
9.99564
9.4193
8.54219
7.75
6.37287
5.23868
3.2416
1.59945
-1.14823
-3.5445
-7.22178
-10.7324
-15.5872
-20.501
-26.5993
-32.9239
-40.1534
-47.6289
-55.3825
-62.7314
-69.2494
-74.2521
-77.0419
-77.6043
-75.0344
-70.493
-63.3564
-55.9426
-47.1426
-39.1807
-30.3149
-23.3122
-16.1114
-10.9636
-6.47059
-3.49645
-1.32515
0.304487
1.0678
1.94525
1.78015
2.06839
1.17511
0.86118
-0.56315
-1.51056
-3.38102
-4.99583
-7.12575
-9.22641
-11.5131
-13.847
-16.0209
-18.2356
-19.9119
-21.6242
-22.4227
-23.3656
-23.2295
-23.4077
-22.6783
-22.2989
-21.2923
-20.8688
-19.9919
-19.7179
-18.9753
-18.6486
-17.9542
-17.4817
-16.6992
-16.2378
-15.2876
-14.6665
-13.5513
-12.6492
-11.267
-10.0121
-8.22833
-6.59852
-4.18972
-2.21257
1.108
3.33559
7.94513
10.3352
16.5613
19.0426
27.2695
29.5756
40.5343
41.6237
56.1154
55.973
72.3376
72.2542
89.4554
89.5978
106.59
6.7245
14.4419
9.85182
13.6018
11.8031
13.5783
13.0523
13.8047
13.8277
14.0678
14.2196
14.1942
14.4243
14.1777
14.4577
14.081
14.3371
14.0503
14.1051
14.1312
13.9056
14.1588
13.7593
14.1841
13.6658
14.2971
13.6902
14.4374
13.7799
14.5779
13.8971
14.7733
14.0442
14.8969
14.3075
14.8764
14.6686
14.7542
14.9129
14.7389
15.1023
14.7745
15.274
14.8111
15.4433
14.8441
15.594
14.8937
15.72
15.018
15.6759
15.1563
15.5631
15.3699
15.3216
15.5028
15.185
15.467
15.0223
15.3862
14.8212
15.2889
14.588
15.1586
14.3357
14.9913
14.0859
14.7492
13.9274
14.3586
13.9947
13.9603
13.9978
13.6653
13.9365
13.4248
13.8433
13.1951
13.777
12.9433
13.694
12.7835
13.5146
12.6446
13.2495
12.599
12.9062
12.4837
12.6073
12.2537
12.2338
11.9123
11.7145
11.3831
10.9358
10.5153
9.71971
9.1016
7.83855
6.87563
5.02637
3.54925
0.992432
-1.20058
-4.59969
-7.83161
-12.3718
-17.0745
-23.138
-29.5359
-37.0884
-44.8779
-53.7192
-62.7073
-71.482
-78.9902
-84.2007
-86.4777
-84.8172
-80.6562
-73.6788
-65.4492
-55.4162
-45.6636
-35.2877
-25.8866
-17.5597
-10.0794
-5.3494
-1.25697
0.172989
2.44288
2.32222
3.67959
2.77087
3.40489
2.08303
1.9376
0.409797
-0.534391
-2.39825
-3.98497
-6.23629
-8.45803
-10.9598
-13.5856
-16.1765
-18.8278
-21.0046
-23.1508
-24.3245
-25.4528
-25.3167
-25.4028
-24.2265
-23.7993
-22.3523
-21.9165
-20.7659
-20.6699
-20.0306
-20.0097
-19.4842
-19.407
-18.7303
-18.506
-17.6759
-17.3114
-16.3523
-15.757
-14.5774
-13.7127
-12.1722
-11.0725
-8.99153
-7.67585
-4.83085
-3.34202
0.600972
2.1836
7.58236
9.13744
16.434
17.8204
27.644
28.3021
40.6794
41.8121
55.9891
57.5072
72.6587
73.7968
89.6555
8.93463
16.2687
11.3911
15.0043
12.8722
14.4549
13.8246
14.3178
14.2385
14.3672
14.4706
14.3096
14.5524
14.1927
14.4843
14.0521
14.2694
13.9955
13.9572
14.0412
13.7033
14.0188
13.5406
13.9988
13.4474
14.0624
13.43
14.2176
13.5021
14.3905
13.6217
14.5689
13.8403
14.7241
14.1543
14.7147
14.6004
14.6018
14.8762
14.6431
15.0661
14.7206
15.2316
14.7703
15.3956
14.8066
15.5531
14.8478
15.6931
14.9603
15.7309
15.1606
15.5813
15.4137
15.2751
15.5396
15.1688
15.5245
15.0536
15.481
14.8735
15.385
14.6509
15.2374
14.3926
15.0465
14.1316
14.7498
13.9624
14.3311
13.97
13.9029
13.9514
13.5759
13.8586
13.3125
13.7466
13.0636
13.6483
12.8285
13.5416
12.6457
13.3778
12.5305
13.1135
12.4811
12.7583
12.4378
12.5188
12.3184
12.2719
12.1327
11.9262
11.8246
11.4168
11.2741
10.5897
10.2931
9.23615
8.63699
7.0945
6.00029
3.82569
1.96314
-1.04392
-4.02242
-8.18676
-12.7035
-18.4656
-25.0472
-32.9634
-42.0462
-52.0003
-62.8312
-73.658
-83.6993
-91.6019
-96.2366
-96.2794
-92.2887
-84.7566
-75.5775
-64.9716
-54.2478
-42.7566
-31.4723
-21.3714
-12.2008
-5.77743
-0.668592
1.08308
3.59392
3.79107
5.21668
4.91081
5.25461
4.62793
4.15291
2.9827
1.93737
0.0609397
-1.70462
-3.89753
-6.41756
-8.99301
-11.945
-14.7048
-17.7965
-20.3003
-22.9507
-24.522
-26.0608
-26.2638
-26.4543
-25.5263
-24.7314
-23.2034
-22.2206
-21.104
-20.4871
-19.9609
-19.5044
-19.1637
-18.7011
-18.3713
-17.8982
-17.4895
-17.0257
-16.4387
-15.89
-15.0198
-14.2975
-13.0531
-12.1349
-10.3086
-9.23453
-6.57731
-5.49739
-1.76102
-0.632741
4.4666
5.54851
12.188
13.1975
21.7726
22.8566
33.1452
34.3976
46.1804
47.5493
60.67
61.7507
75.8372
9.04103
16.4564
11.3581
15.0771
12.8594
14.528
13.6958
14.3787
14.1971
14.385
14.5081
14.3707
14.6192
14.2741
14.5602
14.1336
14.363
14.05
14.025
14.1303
13.7605
14.1047
13.5653
14.0807
13.4555
14.1427
13.4757
14.2516
13.559
14.4063
13.6715
14.595
13.8282
14.7462
14.1487
14.7444
14.5814
14.6476
14.9016
14.6448
15.0989
14.6966
15.2672
14.7396
15.4426
14.7796
15.594
14.8629
15.684
15.0298
15.6796
15.1464
15.6652
15.441
15.3557
15.57
15.189
15.5873
15.0824
15.5408
14.9235
15.4551
14.7132
15.3338
14.4568
15.1471
14.2458
14.8656
14.0823
14.4507
14.1054
14.0148
14.1156
13.707
14.0415
13.4533
13.9591
13.2467
13.8782
13.0544
13.8023
12.9041
13.7233
12.801
13.5139
12.8108
13.1899
12.8954
12.9204
12.7842
12.7054
12.6561
12.4433
12.4303
12.0494
12.0118
11.3956
11.2227
10.2802
9.82128
8.45428
7.5378
5.63697
4.05803
1.45518
-1.12172
-4.82592
-8.96605
-14.393
-20.6528
-28.3064
-36.971
-47.1055
-58.6955
-72.3362
-85.9043
-98.4008
-107.55
-110.72
-107.467
-99.2973
-88.0334
-74.7163
-61.9528
-48.0643
-35.7139
-23.2988
-11.7783
-3.37821
2.52572
3.92141
6.13053
5.49422
6.85378
5.76831
6.46563
5.11766
5.17442
3.7982
3.04107
1.47271
-0.297769
-2.28732
-4.82878
-7.44478
-10.672
-13.7798
-17.393
-20.5122
-23.8839
-26.0913
-28.1852
-28.5674
-28.8696
-27.3894
-26.4506
-24.1972
-23.0404
-21.1707
-20.9226
-20.6275
-20.6054
-20.5402
-20.4988
-20.1293
-19.812
-19.3063
-18.9494
-18.4516
-18.0805
-17.2943
-16.8662
-15.7018
-15.267
-13.6076
-13.165
-10.8066
-10.3431
-7.15475
-6.68987
-2.30912
-1.87524
4.00041
4.45543
11.9379
12.6503
21.8125
22.9495
33.5526
35.08
47.0043
48.2773
61.7629
10.9883
18.4239
12.9788
16.4669
14.0333
15.5015
14.4362
15.0194
14.6295
14.7312
14.7234
14.506
14.7596
14.3227
14.6212
14.1311
14.338
14.0201
13.9135
14.0558
13.5584
14.0037
13.3515
13.9128
13.2208
13.9357
13.2101
14.0673
13.2858
14.2387
13.4064
14.4328
13.6339
14.6008
13.9885
14.6245
14.4741
14.5404
14.8575
14.558
15.1052
14.596
15.2884
14.6475
15.4661
14.6772
15.6248
14.732
15.7189
14.9008
15.7011
15.1443
15.5974
15.4286
15.3784
15.5826
15.2141
15.6567
15.1013
15.6729
14.9503
15.6063
14.7552
15.485
14.504
15.2531
14.2931
14.9117
14.1403
14.4733
14.1173
13.9902
14.0684
13.6267
13.9835
13.3446
13.894
13.1087
13.8141
12.8825
13.7494
12.7251
13.6084
12.6709
13.3972
12.6792
13.1281
12.7692
12.8616
12.8279
12.7036
12.7942
12.5522
12.7423
12.37
12.5835
12.0573
12.1798
11.4268
11.3071
10.228
9.66859
8.11898
6.86784
4.66136
2.43382
-0.727732
-4.36556
-9.13274
-15.0252
-22.5075
-31.8457
-43.1401
-56.5372
-71.2895
-88.0524
-104.903
-118.728
-125.292
-124.012
-116.213
-104.235
-90.7537
-76.6964
-62.3766
-46.4191
-34.9088
-17.6539
-7.0981
4.45006
4.63318
8.44615
7.35898
8.22408
8.42686
8.40058
8.29553
7.33703
6.7638
5.34226
4.02019
2.00065
0.0107764
-2.69161
-5.31502
-8.72472
-11.9838
-16.0518
-19.6418
-23.7307
-26.7085
-29.5712
-30.6311
-31.254
-30.1307
-28.8291
-26.3293
-24.0987
-22.1039
-20.6332
-20.099
-19.7196
-19.7953
-19.3074
-19.5577
-19.1487
-19.0832
-18.7692
-18.618
-18.3094
-17.9967
-17.5844
-16.8821
-16.4959
-15.1683
-14.8551
-12.7704
-12.5598
-9.74354
-9.59246
-5.58712
-5.53879
-0.513183
-0.35583
6.08933
6.28563
14.3638
14.6065
24.1245
24.571
35.5907
35.9627
48.7336
10.8553
18.4706
12.9842
16.637
14.1004
15.7029
14.5708
15.2128
14.8072
14.9024
14.9421
14.6391
14.9355
14.4498
14.7687
14.2654
14.4723
14.1436
13.9744
14.2069
13.6287
14.0921
13.3709
13.9785
13.2282
13.99
13.228
14.0747
13.2958
14.24
13.4178
14.4306
13.5796
14.6253
13.939
14.643
14.4572
14.5366
14.8799
14.5264
15.1386
14.5817
15.3116
14.6396
15.4913
14.6692
15.6496
14.7353
15.7286
14.8742
15.7287
15.0742
15.6134
15.4596
15.3768
15.6702
15.217
15.7221
15.1116
15.7308
14.9452
15.6841
14.7295
15.582
14.5341
15.3925
14.3626
15.0665
14.2399
14.6177
14.2533
14.0931
14.2407
13.7343
14.1535
13.4557
14.0726
13.2434
14.0179
13.0439
13.9919
12.9017
13.9302
12.8549
13.751
12.9187
13.4668
13.0979
13.1113
13.163
12.9776
13.1579
12.8702
13.0943
12.7229
12.9757
12.4873
12.6759
12.0261
12.0078
11.1207
10.7418
9.51469
8.57014
6.80805
4.98983
2.31419
-0.854685
-5.01345
-10.1303
-16.6121
-24.7297
-35.1428
-48.1841
-65.1782
-83.8145
-106.105
-127.524
-140.941
-143.172
-135.601
-120.969
-102.664
-87.1542
-69.9215
-54.2251
-36.5141
-22.8745
-4.5135
6.77473
10.7722
10.0809
9.84866
9.48723
8.57237
9.01315
7.82725
8.07864
7.10639
6.74632
5.46762
3.81582
2.03066
-0.571534
-3.10164
-6.66546
-10.0742
-14.4519
-18.5513
-23.4471
-27.2816
-31.2095
-32.9975
-34.2048
-32.749
-31.3627
-27.7684
-24.8742
-21.1718
-20.6333
-20.3237
-20.6937
-21.3416
-21.5259
-21.3916
-20.7608
-20.5099
-19.9468
-20.0451
-19.8983
-19.5965
-19.2443
-18.7451
-18.5073
-17.6141
-17.4933
-15.8622
-15.997
-13.7348
-14.0297
-10.7658
-11.0859
-7.13095
-7.19014
-2.081
-1.92305
4.75697
5.40679
13.0815
14.1268
23.464
24.1834
36.086
13.1634
20.3819
14.609
17.9229
15.2419
16.549
15.2652
15.6946
15.2601
15.1063
15.2484
14.7576
15.0942
14.534
14.861
14.3072
14.467
14.2074
13.9005
14.1646
13.4579
14.0338
13.1708
13.8712
12.9843
13.8633
12.9528
13.9655
13.0065
14.1425
13.1351
14.3602
13.3495
14.5385
13.7669
14.5459
14.3609
14.4405
14.8619
14.444
15.1681
14.4775
15.3658
14.5098
15.5431
14.544
15.6785
14.641
15.7571
14.8106
15.7405
15.0531
15.5829
15.4289
15.3083
15.71
15.1831
15.8157
15.0934
15.8617
14.9438
15.8517
14.7466
15.747
14.5287
15.5339
14.3666
15.1704
14.265
14.6773
14.2837
14.0883
14.2516
13.6646
14.1444
13.3442
14.0456
13.0668
13.9957
12.8563
13.9365
12.7618
13.782
12.741
13.6298
12.8121
13.3963
13.0383
13.0639
13.168
12.9423
13.2477
12.8839
13.3227
12.8894
13.3544
12.8921
13.2716
12.7322
12.9388
12.2488
12.1138
11.1768
10.5118
9.15118
7.7124
5.60813
2.95157
-0.567664
-5.20353
-11.1811
-18.9434
-28.8844
-41.5717
-57.398
-78.2851
-102.227
-126.17
-143.757
-150.973
-147.795
-136.36
-120.098
-102.548
-85.3412
-68.0315
-59.2798
-34.7658
-21.23
6.91262
11.3668
15.3608
10.8402
11.8182
11.615
11.6876
11.3298
9.95215
9.59818
8.51254
7.77367
5.92057
4.28768
1.6329
-0.540275
-3.98307
-7.38878
-12.2166
-16.9066
-22.8104
-27.9158
-33.1117
-36.0652
-38.1234
-37.3263
-35.9202
-32.4152
-27.8449
-23.2433
-19.9266
-18.7769
-18.1811
-19.1835
-19.2975
-20.8673
-20.2771
-20.4594
-19.6726
-19.9916
-19.7461
-20.3172
-19.9411
-19.8062
-19.674
-18.9903
-18.971
-17.5504
-17.7913
-16.0802
-16.6987
-13.5811
-14.2862
-10.9981
-11.6049
-7.19744
-8.01022
-1.94383
-2.76032
4.54386
3.61545
12.4588
11.4594
23.4711
12.6926
20.3985
14.654
18.0661
15.5514
16.8096
15.7104
15.9563
15.688
15.3526
15.5538
14.9784
15.3191
14.6745
15.0585
14.4842
14.628
14.424
14.0077
14.3765
13.5564
14.1289
13.1711
13.9602
12.9676
13.9009
12.8991
13.992
12.9376
14.169
13.0563
14.3833
13.2735
14.541
13.7096
14.5155
14.3484
14.3736
14.9028
14.3722
15.2384
14.4081
15.4306
14.4311
15.6164
14.4555
15.7506
14.5521
15.8
14.7431
15.7548
15.0232
15.5863
15.4546
15.267
15.7496
15.1035
15.884
15.0201
15.9124
14.9033
15.875
14.7411
15.8003
14.5852
15.6317
14.477
15.305
14.3905
14.7997
14.4448
14.1804
14.4465
13.73
14.3456
13.4006
14.26
13.1393
14.2154
12.9399
14.1745
12.8489
14.0645
12.8879
13.8622
13.0131
13.577
13.2988
13.219
13.4239
13.0712
13.4493
13.0623
13.4173
13.0212
13.4389
13.0198
13.4365
12.9798
13.2416
12.7236
12.6913
12.0342
11.5768
10.6015
9.5041
7.89452
5.78715
3.02505
-0.659752
-5.44812
-11.9187
-20.4261
-31.9496
-46.6736
-66.1973
-88.513
-113.783
-134.388
-145.988
-147.401
-138.35
-122.934
-107.4
-88.5491
-70.9731
-55.8538
-45.2347
-23.4573
0.923568
12.1923
13.8449
14.7842
9.70791
9.59543
10.4223
9.84532
10.5814
9.67731
9.94398
9.23894
7.8222
6.41273
3.73675
1.59736
-1.84781
-5.0757
-9.62221
-14.4064
-20.7327
-26.6601
-33.4419
-37.7998
-41.0893
-40.5786
-39.5055
-35.2146
-29.5392
-21.8973
-19.2865
-18.8358
-20.063
-21.1958
-21.879
-22.3706
-21.4033
-21.1913
-20.1996
-20.608
-20.9185
-21.0193
-20.6141
-20.6178
-20.6349
-20.4786
-20.4918
-19.2509
-19.7159
-18.3562
-19.4188
-17.0014
-17.71
-15.6451
-16.3594
-13.1636
-14.5348
-9.32212
-9.52726
-4.76579
-4.29271
1.0917
1.14895
10.4702
15.2662
22.0115
16.1556
19.0428
16.463
17.3103
16.2998
16.1782
16.0832
15.4857
15.8194
15.0421
15.5422
14.7036
15.2346
14.4747
14.7574
14.4423
14.0056
14.3834
13.4415
14.1872
13.0221
13.9778
12.7523
13.8869
12.6378
13.9807
12.654
14.1531
12.7864
14.378
13.0664
14.5028
13.5389
14.4537
14.2832
14.2669
14.9226
14.2875
15.2878
14.3262
15.4929
14.3249
15.6729
14.3558
15.7931
14.4642
15.8499
14.6539
15.7851
14.968
15.5637
15.4822
15.1756