/*--------------------------------*- C++ -*----------------------------------*\
| =========                 |                                                 |
| \\      /  F ield         | OpenFOAM: The Open Source CFD Toolbox           |
|  \\    /   O peration     | Version:  4.1                                   |
|   \\  /    A nd           | Web:      www.OpenFOAM.org                      |
|    \\/     M anipulation  |                                                 |
\*---------------------------------------------------------------------------*/
FoamFile
{
    version     2.0;
    format      ascii;
    class       volScalarField;
    location    "14";
    object      p;
}
// * * * * * * * * * * * * * * * * * * * * * * * * * * * * * * * * * * * * * //

dimensions      [0 2 -2 0 0 0 0];

internalField   nonuniform List<scalar> 
6750
(
-420.334
-202.312
-358.9
-338.558
-388.378
-405.494
-413.144
-478.593
-434.698
-372.714
-346.398
-284.657
-279.131
-172.878
-272.11
-419.589
-200.011
-357.509
-338.346
-388.713
-406.144
-413.271
-476.033
-434.623
-374.398
-348.686
-288.065
-281.514
-172.615
-273.122
-418.895
-198.178
-356.622
-338.327
-388.915
-406.693
-413.362
-473.62
-433.149
-373.082
-349.011
-290.209
-284.729
-173.492
-274.397
-418.032
-195.676
-355.393
-338.244
-389.151
-407.308
-413.435
-471.024
-432.366
-372.013
-347.607
-292.734
-289.418
-176.486
-275.989
-417.267
-193.139
-354.394
-338.31
-389.367
-407.869
-413.273
-468.371
-430.974
-370.888
-347.385
-295.16
-291.172
-180.244
-277.472
-416.646
-190.572
-353.456
-338.419
-389.582
-408.376
-413.249
-465.925
-429.601
-367.026
-340.839
-296.845
-297.658
-184.16
-279.21
-416.334
-188.47
-352.789
-338.583
-389.777
-408.783
-413.292
-464.22
-428.658
-364.906
-342.184
-300.254
-292.586
-189.114
-279.846
-416.344
-187.823
-352.587
-338.632
-389.85
-408.972
-413.15
-463.62
-427.482
-361.088
-333.831
-300.376
-291.897
-190.644
-280.368
-416.586
-188.914
-352.967
-338.619
-389.83
-408.752
-413.238
-464.213
-428.636
-363.919
-340.982
-302.209
-290.674
-190.27
-280.017
-417.089
-191.196
-353.764
-338.535
-389.716
-408.371
-413.372
-465.908
-429.942
-366.85
-341.667
-300.202
-297.153
-185.008
-279.633
-417.862
-193.909
-354.825
-338.512
-389.578
-407.897
-413.554
-468.375
-431.323
-370.607
-347.499
-297.904
-291.43
-181.113
-278.156
-418.741
-196.507
-355.925
-338.536
-389.447
-407.402
-414.062
-470.981
-433.162
-372.599
-348.691
-295.439
-289.863
-177.397
-276.86
-419.691
-199.046
-357.242
-338.708
-389.286
-406.862
-414.11
-473.538
-433.921
-373.395
-350.046
-292.614
-285.816
-174.392
-275.481
-420.441
-200.892
-358.19
-338.791
-389.14
-406.373
-414.161
-475.939
-435.567
-375.091
-350.033
-290.28
-282.759
-173.469
-274.332
-421.233
-203.189
-359.639
-339.079
-388.862
-405.797
-414.058
-478.498
-435.664
-373.317
-347.625
-286.586
-280.537
-173.679
-273.428
-612.088
-129.211
-342.481
-349.649
-398.983
-419.463
-446.915
-485.218
-429.221
-300.042
-236.87
-199.791
-227.374
-111.736
-349.383
-609.793
-127.636
-341.684
-349.389
-399.412
-419.949
-447.731
-483.466
-428.296
-304.246
-240.965
-201.941
-229.057
-111.041
-350.682
-607.988
-127.044
-341.552
-349.435
-399.641
-420.199
-448.399
-481.194
-426.675
-304.801
-242.859
-203.675
-230.657
-110.699
-352.25
-605.671
-125.944
-340.959
-349.322
-399.883
-420.541
-449.011
-478.763
-425.872
-307.071
-246.089
-208.188
-233.487
-111.794
-353.542
-603.618
-125.128
-340.525
-349.4
-400.105
-420.841
-449.667
-476.167
-424.225
-307.103
-250.188
-211.922
-233.055
-113.339
-354.487
-601.841
-124.268
-339.874
-349.44
-400.286
-421.131
-450.492
-473.715
-423.518
-308.47
-253.861
-216.653
-231.475
-114.956
-355.438
-600.861
-123.542
-339.157
-349.553
-400.446
-421.356
-451.242
-471.518
-423.389
-311.602
-263.86
-221.026
-224.125
-116.919
-355.392
-600.896
-123.24
-338.817
-349.562
-400.486
-421.495
-451.645
-470.693
-422.775
-311.332
-257.39
-220.827
-223.841
-116.24
-355.972
-601.439
-123.568
-339.373
-349.579
-400.482
-421.382
-451.145
-471.782
-423.699
-312.235
-264.432
-223.742
-223.584
-117.395
-355.74
-602.73
-124.354
-340.148
-349.523
-400.367
-421.171
-450.238
-474.111
-424.199
-310.223
-258.515
-219.052
-230.238
-115.746
-356.162
-604.74
-125.316
-340.876
-349.555
-400.232
-420.915
-449.406
-476.644
-424.672
-307.421
-252.512
-214.968
-233.347
-114.102
-355.641
-606.946
-126.193
-341.352
-349.544
-400.061
-420.652
-448.742
-479.241
-426.666
-308.295
-248.161
-210.212
-233.823
-112.563
-354.921
-609.371
-127.352
-341.999
-349.734
-399.876
-420.367
-448.2
-481.674
-427.432
-305.76
-244.727
-205.935
-231.747
-111.417
-353.943
-611.24
-127.982
-342.163
-349.737
-399.685
-420.156
-447.585
-483.924
-429.062
-305.323
-242.699
-203.583
-230.086
-111.663
-352.526
-613.582
-129.59
-343.012
-350.072
-399.317
-419.745
-446.897
-485.726
-429.97
-301.214
-238.467
-200.906
-228.457
-112.276
-351.364
-835.008
-63.9748
-300.028
-355.866
-387.323
-407.005
-416.841
-425.552
-384.593
-254.866
-183.852
-146.048
-190.398
-28.5556
-476.084
-833.035
-61.5632
-299.629
-354.952
-387.618
-407.467
-417.638
-425.147
-385.527
-258.603
-186.665
-145.557
-190.034
-27.663
-477.411
-831.743
-60.8817
-299.897
-354.673
-387.889
-407.635
-418.212
-424.257
-385.21
-259.992
-189.53
-147.443
-190.485
-26.9923
-479.089
-829.771
-59.718
-299.51
-354.114
-388.112
-407.858
-419.031
-423.645
-385.722
-262.117
-192.342
-154.19
-195.037
-27.22
-480.088
-828.036
-59.6188
-299.301
-353.95
-388.42
-407.992
-419.692
-422.995
-385.866
-262.494
-196.434
-157.796
-196.324
-27.6852
-480.837
-826.333
-59.8079
-298.663
-353.729
-388.63
-408.048
-420.275
-422.548
-386.53
-265.824
-202.581
-163.347
-195.777
-28.268
-481.599
-825.102
-60.5638
-297.983
-353.716
-388.852
-408.057
-420.562
-422.108
-387.032
-268.951
-210.4
-168.205
-185.73
-28.2655
-480.975
-825.064
-60.6909
-297.593
-353.644
-388.879
-408.036
-420.651
-421.861
-386.643
-269.165
-205.676
-165.912
-183.473
-26.8025
-481.785
-825.978
-59.9144
-298.196
-353.754
-388.899
-408.118
-420.584
-422.266
-387.28
-269.156
-209.802
-168.142
-184.289
-27.8668
-482.027
-827.435
-59.2871
-298.948
-353.839
-388.731
-408.155
-420.295
-422.797
-387.107
-266.401
-205.573
-164.019
-193.171
-28.3902
-483.303
-829.367
-59.2528
-299.634
-354.157
-388.577
-408.145
-419.728
-423.239
-386.234
-262.195
-197.344
-159.666
-196.979
-27.9176
-483.204
-831.221
-59.5206
-299.86
-354.407
-388.313
-408.045
-419.08
-423.89
-386.172
-262.328
-193.233
-155.431
-195.528
-27.5401
-482.576
-833.292
-60.8528
-300.279
-355.069
-388.151
-407.875
-418.317
-424.495
-385.596
-260.262
-189.841
-149.169
-192.079
-27.3243
-482.054
-834.637
-61.6503
-300.015
-355.408
-387.907
-407.729
-417.765
-425.369
-385.92
-259.018
-187.178
-146.635
-190.959
-27.9222
-480.494
-836.654
-64.1853
-300.457
-356.42
-387.689
-407.326
-417.044
-425.803
-385.074
-255.565
-184.617
-146.987
-191.024
-28.814
-479.298
-975.435
-119.354
-243.029
-375.401
-380.028
-398.644
-401.333
-381.525
-311.416
-191.862
-135.701
-112.193
-157.509
41.4401
-598.891
-974.301
-116.578
-243.258
-374.807
-380.333
-399.485
-402.88
-383.28
-314.07
-195.564
-137.377
-112.105
-153.877
42.1898
-599.803
-973.636
-115.502
-244.077
-374.68
-380.711
-399.913
-403.751
-383.896
-314.982
-196.944
-137.163
-112.621
-154.439
42.7645
-601.628
-972.574
-113.68
-244.338
-374.195
-380.966
-400.438
-404.991
-385.017
-316.774
-198.423
-135.596
-111.267
-164.175
42.8398
-602.228
-971.743
-113.003
-244.893
-374.081
-381.36
-400.866
-405.9
-385.771
-318.324
-199.551
-138.561
-109.457
-166.021
43.1769
-603.015
-970.939
-112.575
-244.928
-373.752
-381.538
-401.137
-406.677
-386.683
-320.737
-204.215
-144.451
-114.435
-165.08
43.5824
-603.493
-970.283
-113.118
-245.025
-373.687
-381.778
-401.364
-407.154
-387.299
-322.839
-209.134
-155.179
-115.49
-154.06
44.7489
-601.982
-970.404
-113.083
-244.891
-373.559
-381.761
-401.365
-407.247
-387.418
-323.136
-210.06
-153.409
-111.692
-150.354
45.8575
-602.9
-971.178
-112.295
-245.088
-373.775
-381.846
-401.429
-407.201
-387.423
-323.167
-209.426
-155.658
-115.013
-152.147
45.8387
-604.351
-971.926
-112.029
-245.112
-373.932
-381.669
-401.257
-406.76
-386.891
-321.479
-204.961
-149.092
-116.602
-161.572
44.4998
-607.263
-972.945
-112.667
-245.069
-374.347
-381.563
-401.046
-406.004
-385.941
-318.741
-199.233
-140.129
-111.698
-167.528
43.615
-607.938
-973.875
-113.557
-244.543
-374.55
-381.229
-400.67
-405.131
-385.194
-317.229
-198.278
-136.953
-111.98
-165.866
42.8997
-606.989
-975.044
-115.594
-244.308
-375.127
-381.053
-400.223
-403.963
-384.113
-315.427
-197.015
-137.261
-114.075
-157.069
42.6196
-606.961
-975.768
-116.807
-243.488
-375.306
-380.714
-399.836
-403.139
-383.523
-314.601
-195.885
-138.008
-113.328
-155.041
42.05
-605.156
-976.959
-119.746
-243.31
-375.988
-380.493
-399.092
-401.685
-381.825
-312.113
-192.585
-137.04
-113.491
-158.035
41.1171
-604.288
-1109.82
-209.39
-216.891
-384.623
-357.254
-362.044
-353.641
-310.307
-251.073
-163.684
-130.508
-96.236
-168.525
87.7057
-758.308
-1109.11
-207.702
-216.763
-384.497
-357.885
-363.483
-355.809
-312.831
-253.59
-166.054
-130.973
-95.5732
-165.702
87.3543
-759.091
-1108.75
-207.132
-217.166
-384.67
-358.519
-364.377
-356.943
-313.861
-254.35
-166.168
-128.629
-94.4326
-165.906
87.3473
-761.184
-1108.1
-205.878
-217.157
-384.574
-359.121
-365.541
-358.698
-315.729
-255.966
-166.058
-124.952
-89.3457
-167.99
87.4282
-760.997
-1107.68
-205.32
-217.506
-384.787
-359.865
-366.585
-360.105
-317.089
-257.305
-165.794
-124.106
-87.5445
-167.408
88.3217
-762.114
-1107.22
-204.697
-217.546
-384.733
-360.348
-367.431
-361.431
-318.699
-259.635
-169.144
-129.447
-90.3881
-164.523
89.3385
-761.738
-1107.09
-204.438
-217.807
-384.898
-360.864
-368.14
-362.433
-319.884
-261.702
-172.522
-138.12
-88.8067
-155.432
90.4169
-758.102
-1107.37
-204.077
-217.776
-384.843
-360.917
-368.281
-362.696
-320.257
-262.204
-173.36
-137.663
-86.0429
-152.745
91.2752
-758.735
-1107.84
-204.029
-217.824
-385.006
-360.943
-368.24
-362.541
-320.042
-262.021
-172.808
-138.715
-88.0378
-155.073
92.7385
-762.389
-1108.27
-204.299
-217.706
-384.96
-360.519
-367.641
-361.675
-319.014
-260.394
-169.905
-133.29
-92.0568
-162.649
91.6011
-768.519
-1108.89
-205.108
-217.731
-385.115
-360.14
-366.913
-360.465
-317.464
-257.899
-165.656
-124.986
-89.4135
-170.744
90.0325
-771.197
-1109.43
-205.827
-217.441
-385.012
-359.499
-365.977
-359.187
-316.215
-256.681
-165.858
-125.408
-89.1717
-171.276
88.2343
-769.603
-1110.19
-207.259
-217.511
-385.216
-359.013
-364.942
-357.589
-314.537
-255.288
-166.671
-129.114
-95.326
-169.718
87.4232
-770.183
-1110.61
-207.944
-217.129
-385.11
-358.45
-364.125
-356.562
-313.644
-254.772
-166.988
-132.354
-96.4102
-168.518
87.2179
-768.012
-1111.39
-209.783
-217.325
-385.338
-357.936
-362.816
-354.562
-311.333
-252.582
-165.213
-132.747
-97.4113
-170.85
87.2121
-767.154
-1241.36
-270.565
-218.427
-401.905
-355.37
-347.461
-335.881
-287.234
-243.386
-166.572
-157.304
-98.4039
-216.664
117.273
-989.64
-1240.87
-269.657
-218.221
-401.842
-355.635
-348.294
-337.153
-288.78
-244.736
-167.886
-155.998
-96.4497
-213.488
117.377
-989.817
-1240.68
-269.436
-218.393
-401.992
-355.952
-348.785
-337.709
-289.24
-244.818
-167.489
-152.972
-95.5592
-211.314
118.183
-993.623
-1240.26
-268.773
-218.271
-401.941
-356.223
-349.471
-338.745
-290.374
-245.657
-167.156
-149.711
-93.7115
-211.594
118.616
-994.038
-1240.02
-268.579
-218.435
-402.126
-356.658
-350.11
-339.556
-291.099
-246.28
-166.402
-148.564
-92.9604
-210.984
119.553
-994.773
-1239.88
-268.117
-218.392
-402.089
-356.899
-350.626
-340.402
-292.158
-247.946
-168.456
-154.473
-93.575
-209.65
119.481
-991.523
-1240.06
-267.81
-218.52
-402.24
-357.27
-351.141
-341.133
-293.006
-249.591
-170.633
-162.173
-90.0474
-204.975
119.877
-984.86
-1240.25
-267.581
-218.492
-402.224
-357.323
-351.281
-341.406
-293.42
-250.125
-171.449
-161.708
-87.5579
-203.322
120.261
-985.005
-1240.58
-267.712
-218.593
-402.421
-357.448
-351.391
-341.493
-293.451
-250.239
-171.211
-163.007
-88.9286
-206.695
122.128
-990.352
-1240.87
-267.864
-218.578
-402.431
-357.259
-351.123
-341.121
-292.991
-249.373
-169.692
-159.611
-94.2664
-209.613
122.947
-1002.23
-1241.34
-268.343
-218.733
-402.619
-357.201
-350.845
-340.573
-292.192
-247.804
-167.029
-150.37
-94.369
-216.035
123.239
-1009.39
-1241.7
-268.684
-218.656
-402.572
-356.935
-350.413
-340.025
-291.735
-247.505
-167.898
-151.151
-93.9392
-217.134
120.921
-1009.18
-1242.25
-269.515
-218.859
-402.764
-356.843
-349.944
-339.261
-290.934
-247.087
-169.054
-154.847
-97.022
-217.027
119.156
-1009.2
-1242.52
-269.846
-218.722
-402.7
-356.637
-349.587
-338.884
-290.696
-247.348
-169.935
-158.88
-97.6715
-218.691
117.381
-1004.71
-1243.09
-270.908
-219.006
-402.884
-356.531
-348.947
-337.856
-289.476
-246.45
-169.319
-161.043
-100.035
-221.776
116.308
-1004.18
-1379.62
-319.786
-228.916
-425.309
-371.546
-357.414
-348.59
-297.082
-271.599
-194.254
-220.472
-126.187
-310.12
154.362
-1318.53
-1379.28
-319.238
-228.794
-425.323
-371.727
-357.969
-349.384
-298.127
-272.22
-195.177
-217.669
-124.613
-305.473
152.494
-1324.02
-1379.19
-319.134
-228.93
-425.484
-371.954
-358.298
-349.695
-298.36
-271.95
-194.655
-214.428
-124.775
-303.023
152.204
-1331.79
-1378.91
-318.733
-228.866
-425.511
-372.139
-358.776
-350.368
-299.171
-272.363
-194.531
-211.766
-123.865
-303.712
145.611
-1326.76
-1378.83
-318.635
-229.02
-425.721
-372.46
-359.233
-350.896
-299.651
-272.642
-193.769
-210.634
-124.802
-302.074
142.06
-1324.77
-1378.86
-318.279
-228.992
-425.757
-372.627
-359.609
-351.499
-300.48
-273.952
-195.143
-216.105
-126.616
-297.77
140.609
-1323.88
-1379.1
-318.099
-229.078
-425.935
-372.926
-360.022
-352.087
-301.222
-275.455
-196.985
-223.818
-123.713
-295.437
136.566
-1315.95
-1379.26
-317.989
-229.076
-425.979
-373.004
-360.201
-352.42
-301.737
-276.18
-197.969
-222.955
-119.56
-297.361
136.493
-1315.09
-1379.54
-318.126
-229.198
-426.187
-373.2
-360.42
-352.69
-301.968
-276.538
-197.952
-224.445
-121.158
-296.784
141.696
-1329.26
-1379.79
-318.195
-229.215
-426.216
-373.167
-360.376
-352.658
-301.863
-276.149
-197.023
-221.472
-127.693
-299.083
144.201
-1344.66
-1380.19
-318.514
-229.363
-426.385
-373.265
-360.355
-352.528
-301.51
-275.328
-195.387
-214.349
-126.461
-308.843
144.02
-1346.99
-1380.48
-318.715
-229.326
-426.354
-373.175
-360.199
-352.407
-301.469
-275.627
-196.503
-215.195
-125.249
-312.962
145.386
-1348.38
-1380.91
-319.276
-229.498
-426.505
-373.227
-360.024
-352.138
-301.124
-275.865
-197.564
-218.935
-127.276
-311.959
150.885
-1355.72
-1381.1
-319.484
-229.416
-426.454
-373.15
-359.88
-352.087
-301.182
-276.595
-198.653
-223.216
-127.362
-314.054
150.356
-1347.52
-1381.53
-320.19
-229.634
-426.586
-373.169
-359.575
-351.622
-300.546
-276.57
-198.683
-226.897
-129.425
-318.532
151.233
-1341.72
-1521.5
-367.339
-244.181
-455.267
-397.119
-379.865
-379.678
-326.84
-327.634
-236.291
-317.153
-161.107
-451.748
197.024
-1801.18
-1521.39
-366.974
-244.11
-455.314
-397.284
-380.341
-380.143
-327.628
-327.098
-236.724
-310.607
-161.496
-450.656
191.809
-1805.6
-1521.46
-366.856
-244.209
-455.464
-397.469
-380.606
-380.248
-327.717
-326.089
-235.927
-304.503
-161.872
-446.687
184.753
-1800.63
-1521.46
-366.524
-244.176
-455.532
-397.642
-381.04
-380.676
-328.379
-325.627
-236.076
-298.39
-165.996
-431.496
182.286
-1811.95
-1521.6
-366.395
-244.292
-455.742
-397.926
-381.449
-381.038
-328.751
-325.284
-235.276
-294.48
-168.584
-418.729
183.725
-1817.74
-1521.69
-366.18
-244.303
-455.836
-398.105
-381.831
-381.564
-329.557
-326.219
-236.415
-298.134
-172.222
-405.514
185.273
-1823.8
-1521.89
-366.16
-244.41
-456.056
-398.4
-382.258
-382.156
-330.357
-327.743
-238.495
-306.036
-171.712
-405.468
175.075
-1805.12
-1522.03
-366.141
-244.444
-456.16
-398.53
-382.517
-382.606
-331.051
-328.888
-240.254
-308.857
-164.88
-416.276
169.046
-1791.3
-1522.26
-366.28
-244.576
-456.378
-398.782
-382.807
-383.02
-331.442
-329.506
-240.356
-309.717
-165.149
-404.334
190.142
-1842.91
-1522.46
-366.36
-244.612
-456.44
-398.846
-382.884
-383.218
-331.527
-329.482
-239.135
-305.962
-170.264
-405.305
201.938
-1867.97
-1522.75
-366.63
-244.749
-456.611
-399.021
-382.971
-383.366
-331.405
-329.338
-237.968
-300.86
-169.662
-422.594
193.665
-1864.4
-1522.95
-366.802
-244.742
-456.619
-399.037
-382.955
-383.569
-331.61
-330.475
-239.331
-303.978
-168.333
-442.583
184.783
-1857.37
-1523.23
-367.219
-244.889
-456.77
-399.168
-382.912
-383.681
-331.549
-331.888
-240.381
-312.027
-165.736
-458.343
184.375
-1842
-1523.36
-367.382
-244.846
-456.754
-399.174
-382.887
-383.922
-331.845
-333.527
-241.896
-319.667
-166.283
-464.681
188.555
-1844.7
-1523.63
-367.878
-245.018
-456.879
-399.255
-382.725
-383.878
-331.603
-334.856
-242.616
-327.688
-167.194
-465.853
190.264
-1839.06
-1667.07
-416.141
-263.506
-492.758
-431.714
-411.675
-424.066
-366.212
-403.737
-280.737
-458.566
-184.25
-718.497
283.268
-2471.81
-1667.08
-415.926
-263.463
-492.816
-431.808
-412.045
-424.057
-366.686
-400.705
-279.858
-439.681
-178.099
-682.041
245.773
-2469.59
-1667.2
-415.837
-263.526
-492.944
-431.927
-412.246
-423.889
-366.657
-398.219
-278.727
-425.822
-181.081
-635.26
266.546
-2544.89
-1667.26
-415.66
-263.527
-493.04
-432.053
-412.624
-423.982
-367.204
-395.833
-278.095
-407.903
-183.694
-581.058
284.578
-2621.57
-1667.41
-415.616
-263.629
-493.247
-432.287
-413.005
-424.168
-367.602
-394.625
-277.548
-399.876
-187.543
-540.985
301.074
-2632.98
-1667.53
-415.531
-263.674
-493.389
-432.47
-413.422
-424.627
-368.559
-395.253
-279.53
-403.559
-194.388
-537.465
293.992
-2623.56
-1667.71
-415.584
-263.797
-493.634
-432.781
-413.9
-425.268
-369.622
-397.129
-283.084
-412.617
-200.501
-534.37
245.895
-2598.32
-1667.87
-415.618
-263.867
-493.787
-432.985
-414.258
-425.855
-370.593
-398.787
-286.442
-419.41
-200.791
-577.184
193.414
-2521.17
-1668.09
-415.762
-264.006
-494.024
-433.299
-414.628
-426.45
-371.174
-399.953
-286.954
-422.217
-200.978
-578.176
209.237
-2593.37
-1668.27
-415.876
-264.073
-494.144
-433.479
-414.828
-426.902
-371.369
-400.305
-284.776
-417.809
-199.476
-559.732
277.339
-2729.06
-1668.49
-416.121
-264.216
-494.349
-433.761
-415.035
-427.377
-371.372
-400.944
-282.99
-413.245
-192.049
-554.806
317.105
-2718.66
-1668.65
-416.294
-264.256
-494.427
-433.922
-415.173
-427.987
-371.761
-403.255
-283.96
-419.073
-188.268
-594.166
288.847
-2695.03
-1668.85
-416.62
-264.407
-494.612
-434.188
-415.298
-428.637
-372.044
-406.902
-286.089
-438.72
-190.488
-651.574
266.125
-2630.66
-1668.95
-416.768
-264.411
-494.65
-434.315
-415.411
-429.299
-372.625
-410.322
-288.181
-455.331
-186.911
-708.525
239.348
-2541.77
-1669.13
-417.128
-264.575
-494.805
-434.531
-415.442
-429.877
-372.88
-414.364
-290.517
-475.899
-195.979
-739.068
275.774
-2548.74
-1818.36
-469.258
-286.86
-538.179
-476.334
-453.54
-482.987
-415.697
-505.454
-331.99
-672.285
-203.517
-1213.5
300.902
-3260.83
-1818.43
-469.151
-286.839
-538.239
-476.315
-453.758
-482.23
-415.68
-498.148
-329.485
-628.315
-200.927
-1000.74
292.58
-3449.75
-1818.58
-469.086
-286.874
-538.342
-476.344
-453.885
-481.672
-415.467
-493.371
-327.518
-597.307
-199.927
-843.301
388.836
-3557.96
-1818.7
-469.004
-286.893
-538.455
-476.391
-454.191
-481.296
-415.938
-488.771
-327.294
-569.401
-201.009
-777.014
420.705
-3687.75
-1818.87
-469.006
-286.974
-538.649
-476.556
-454.539
-481.248
-416.465
-486.838
-327.79
-560.645
-206.092
-823.568
366.829
-3734.27
-1819.03
-468.994
-287.031
-538.817
-476.732
-454.974
-481.586
-417.663
-487.228
-331.034
-565.767
-220.866
-875.167
282.944
-3667.85
-1819.22
-469.068
-287.149
-539.065
-477.044
-455.491
-482.262
-419.104
-489.772
-337.205
-581.966
-237.964
-876.461
162.084
-3556.92
-1819.4
-469.135
-287.238
-539.257
-477.313
-455.934
-482.989
-420.345
-491.948
-341.416
-592.96
-234.401
-991.517
73.0174
-3229.24
-1819.61
-469.281
-287.378
-539.513
-477.69
-456.389
-483.799
-421.145
-493.731
-342.51
-596.861
-237.221
-1009.4
95.8988
-3280.49
-1819.8
-469.419
-287.474
-539.694
-478
-456.722
-484.581
-421.476
-494.824
-339.687
-593.568
-225.291
-980.542
120.008
-3611.59
-1819.99
-469.64
-287.625
-539.938
-478.41
-457.069
-485.477
-421.579
-496.246
-336.801
-585.023
-217.451
-921.205
241.301
-3806.43
-1820.14
-469.818
-287.707
-540.087
-478.742
-457.373
-486.605
-422.148
-500.041
-337.409
-593.532
-213.603
-836.41
369.406
-3756.73
-1820.31
-470.085
-287.868
-540.317
-479.181
-457.703
-487.959
-422.746
-506.104
-338.857
-620.065
-214.566
-890.551
360.182
-3611.39
-1820.4
-470.23
-287.913
-540.415
-479.459
-457.972
-489.184
-423.668
-512.32
-342.016
-655.621
-216.836
-1058.83
261.367
-3515.2
-1820.53
-470.507
-288.08
-540.61
-479.863
-458.258
-490.689
-424.613
-520.916
-346.237
-701.59
-222.398
-1259.26
273.459
-3345.54
-1972.75
-527.775
-313.552
-591.573
-532.027
-507.207
-558.048
-477.663
-629.345
-389.064
-927.876
-218.235
-1863.5
394.952
-4460.62
-1972.87
-527.745
-313.539
-591.641
-531.906
-507.299
-556.498
-477.166
-616.887
-384.052
-844.383
-192.884
-1304.61
340.861
-4751.24
-1973.04
-527.696
-313.547
-591.727
-531.861
-507.378
-555.594
-476.891
-609.711
-381.446
-787.933
-182.114
-1083.62
482.373
-4784.47
-1973.2
-527.676
-313.577
-591.854
-531.851
-507.651
-554.847
-477.59
-604.513
-385.263
-778.077
-212.2
-1137.15
96.8142
-4955.18
-1973.39
-527.7
-313.644
-592.034
-531.965
-507.994
-554.658
-478.444
-602.727
-388.15
-779.738
-226.638
-1313.17
-86.4082
-4561.81
-1973.59
-527.735
-313.715
-592.228
-532.144
-508.465
-554.91
-479.969
-602.859
-393.544
-783.148
-238.238
-1354.2
-46.9835
-4175.19
-1973.8
-527.827
-313.831
-592.481
-532.46
-509.022
-555.615
-481.729
-605.386
-401.649
-796.31
-269.324
-1382.75
-70.3557
-3895.53
-1974.02
-527.935
-313.941
-592.716
-532.8
-509.552
-556.485
-483.182
-607.659
-406.161
-803.101
-274.7
-1414.15
-50.2597
-3636.88
-1974.24
-528.097
-314.091
-592.998
-533.251
-510.091
-557.548
-484.162
-610.019
-407.416
-805.962
-273.895
-1407.07
-37.4523
-3766.98
-1974.44
-528.269
-314.22
-593.239
-533.696
-510.557
-558.729
-484.669
-612.326
-404.321
-807.29
-250.996
-1382.65
-103.413
-4103.87
-1974.63
-528.491
-314.391
-593.527
-534.251
-511.045
-560.165
-484.941
-615.468
-400.509
-807.592
-242.898
-1368.41
-176.909
-4585.24
-1974.8
-528.691
-314.516
-593.748
-534.762
-511.513
-561.885
-485.682
-621.002
-399.979
-816.294
-230.989
-1239.53
-59.8964
-5064
-1974.95
-528.94
-314.699
-594.027
-535.393
-512.04
-564.035
-486.477
-628.924
-397.776
-826.362
-200.688
-1166.9
393.497
-4942.03
-1975.05
-529.1
-314.78
-594.18
-535.828
-512.459
-565.923
-487.774
-638.956
-402.401
-893.743
-218.987
-1406.13
282.965
-4868.22
-1975.15
-529.345
-314.966
-594.425
-536.446
-513.01
-568.59
-489.595
-654.15
-410.242
-986.999
-248.757
-1993.37
331.376
-4622.45
-2130.64
-597.678
-344.006
-652.886
-597.707
-570.142
-643.738
-549.011
-760.204
-445.675
-1148.77
-168.024
-2288.84
809.223
-6073.07
-2130.76
-597.675
-343.985
-652.931
-597.489
-570.111
-641.561
-548.149
-744.314
-439.488
-1044.61
-138.209
-1563.74
635.562
-6337.74
-2130.93
-597.616
-343.966
-652.985
-597.373
-570.146
-640.408
-547.995
-735.338
-437.645
-961.351
-144.368
-1367.89
737.242
-6290.44
-2131.09
-597.612
-343.986
-653.101
-597.304
-570.393
-639.423
-549.132
-730.606
-447.931
-975.295
-203.662
-1471.55
-199.457
-6565.83
-2131.28
-597.625
-344.025
-653.25
-597.363
-570.729
-639.188
-550.531
-730.085
-456.181
-998.378
-258.708
-1761.25
-492.519
-5726.71
-2131.49
-597.667
-344.087
-653.444
-597.532
-571.226
-639.392
-552.497
-730.164
-465.353
-997.907
-284.665
-1647.49
-134.169
-4864.85
-2131.7
-597.747
-344.181
-653.679
-597.833
-571.781
-640.099
-554.438
-732.508
-474.291
-1007.08
-309.717
-1706.39
-133.755
-4381.93
-2131.92
-597.862
-344.29
-653.93
-598.22
-572.358
-641.079
-556.043
-734.739
-479.615
-1010.88
-329.668
-1714
-67.1167
-4171.57
-2132.13
-598.015
-344.431
-654.215
-598.721
-572.922
-642.342
-557.001
-737.581
-480.091
-1014.75
-319.677
-1710
-117.591
-4401.14
-2132.34
-598.193
-344.573
-654.49
-599.273
-573.461
-643.839
-557.519
-740.557
-476.562
-1015.49
-301.545
-1657.54
-163.849
-4943.73
-2132.53
-598.402
-344.748
-654.8
-599.943
-574.016
-645.742
-557.655
-745.289
-470.202
-1025.16
-278.981
-1787.94
-549.292
-5860.1
-2132.7
-598.609
-344.897
-655.066
-600.603
-574.565
-647.9
-558.106
-751.133
-464.916
-1018.59
-227.196
-1562.05
-278.713
-6806.82
-2132.85
-598.844
-345.093
-655.381
-601.403
-575.219
-650.738
-558.734
-760.398
-456.579
-1014.3
-165.219
-1467.26
688.34
-6653.94
-2132.95
-599.012
-345.199
-655.575
-601.977
-575.727
-653.176
-560.032
-773.552
-460.482
-1113.82
-165.458
-1701.1
608.232
-6709.74
-2133.05
-599.239
-345.402
-655.862
-602.795
-576.496
-656.885
-562.473
-794.004
-470.141
-1237.85
-200.815
-2511.46
762.52
-6403.67
-2278.69
-678.659
-379.686
-721.955
-678.525
-648.944
-751.054
-638.253
-920.488
-511.94
-1449.95
-63.298
-3050.91
1412.36
-7813.84
-2278.85
-678.703
-379.671
-721.993
-678.228
-648.841
-748.346
-637.177
-900.36
-504.518
-1304.34
-34.3473
-2012.75
1214.16
-8253.39
-2279.04
-678.655
-379.631
-722.019
-678.039
-648.826
-746.985
-637.122
-890.208
-503.335
-1204.94
-48.8796
-1834.08
1273.31
-7955.27
-2279.24
-678.693
-379.653
-722.128
-677.907
-649.026
-745.722
-638.424
-883.765
-516.153
-1199.26
-109.528
-1786.17
184.613
-8383.24
-2279.45
-678.731
-379.677
-722.242
-677.896
-649.303
-745.426
-640.241
-884.225
-530.806
-1241.27
-208.897
-2400.15
-878.97
-7540.29
-2279.69
-678.816
-379.745
-722.429
-678.044
-649.771
-745.675
-642.592
-885.793
-546.094
-1257.45
-304.533
-2206.84
-343.412
-6444.82
-2279.93
-678.927
-379.837
-722.637
-678.317
-650.254
-746.41
-644.6
-888.452
-556.884
-1263.92
-342.753
-2136.44
-127.81
-5330.82
-2280.18
-679.084
-379.963
-722.894
-678.735
-650.822
-747.574
-646.33
-891.791
-563.735
-1273.01
-368.944
-2174.37
-82.2172
-5167.94
-2280.42
-679.267
-380.116
-723.171
-679.277
-651.352
-749.077
-647.237
-895.372
-563.988
-1276.36
-360.209
-2150.47
-176.584
-5679.7
-2280.66
-679.486
-380.288
-723.47
-679.928
-651.928
-750.967
-647.832
-899.939
-560.172
-1285.07
-338.571
-2263.93
-547.028
-7058.74
-2280.88
-679.723
-380.491
-723.793
-680.721
-652.508
-753.438
-647.834
-906.316
-549.642
-1286.23
-249.446
-2329.8
-810.395
-8200.95
-2281.07
-679.966
-380.678
-724.094
-681.539
-653.121
-756.237
-648.145
-914.656
-539.49
-1283.13
-154.688
-1899.13
356.927
-8928.43
-2281.23
-680.223
-380.912
-724.439
-682.535
-653.881
-760.114
-649.02
-929.702
-530.311
-1316.22
-98.395
-2033.98
1247.8
-8628.05
-2281.34
-680.415
-381.048
-724.659
-683.256
-654.456
-763.269
-650.447
-946.931
-533.895
-1443.58
-90.4989
-2315.69
1157.69
-9018.56
-2281.45
-680.657
-381.292
-724.983
-684.297
-655.397
-768.284
-653.636
-975.935
-546.861
-1628.42
-134.511
-3527.46
1337.2
-8463.53
-2423.89
-778.805
-421.348
-799.663
-767.955
-731.356
-859.121
-727.749
-1071.73
-587.78
-1672.73
-69.1749
-3134.86
1989.4
-10903.7
-2424
-778.812
-421.276
-799.645
-767.518
-731.057
-855.925
-725.904
-1051.11
-578.972
-1552.08
-57.909
-2397.44
1975.04
-11578.1
-2424.12
-778.725
-421.189
-799.626
-767.233
-730.96
-854.381
-725.777
-1041.81
-579.181
-1489.9
-84.6868
-2399
1891.98
-11332.5
-2424.26
-778.707
-421.152
-799.679
-766.995
-730.998
-852.794
-726.259
-1033.12
-585.621
-1448.22
-100.221
-2120.57
1801.16
-11671.6
-2424.4
-778.668
-421.108
-799.727
-766.886
-731.158
-852.358
-727.899
-1032.89
-599.872
-1468.15
-186.207
-2413.22
-257.627
-11566.4
-2424.57
-778.676
-421.116
-799.861
-766.982
-731.511
-852.646
-729.927
-1035.75
-615.093
-1506.64
-295.246
-2785.57
-660.444
-10236.3
-2424.75
-778.697
-421.14
-800.002
-767.192
-731.865
-853.363
-731.761
-1038.47
-627.284
-1512.81
-358.942
-2649.94
-131.822
-8163.36
-2424.95
-778.774
-421.212
-800.212
-767.59
-732.327
-854.537
-733.151
-1041.65
-633.272
-1519.29
-374.009
-2639.8
5.75419
-7660.8
-2425.15
-778.872
-421.309
-800.43
-768.114
-732.713
-856.063
-733.589
-1044.89
-632.521
-1520.76
-377.824
-2698.14
-267.718
-9293.43
-2425.35
-779.023
-421.444
-800.699
-768.789
-733.201
-857.946
-733.737
-1048.02
-626.046
-1511.13
-322.451
-2683.27
-788.963
-11744
-2425.54
-779.192
-421.612
-800.983
-769.641
-733.689
-860.706
-733.306
-1054.92
-612.608
-1502.2
-206.091
-2281.19
266.884
-12690
-2425.72
-779.39
-421.785
-801.272
-770.555
-734.254
-863.9
-733.305
-1065.67
-602.035
-1533.23
-141.184
-2294.38
2059.48
-12873.4
-2425.87
-779.601
-422.01
-801.605
-771.709
-735.039
-868.615
-734.422
-1085.93
-596.798
-1615.31
-109.109
-2652.81
2072.68
-12557.4
-2425.97
-779.771
-422.15
-801.822
-772.543
-735.58
-872.186
-735.441
-1103.73
-596.819
-1715.65
-80.2235
-2798.97
1977.58
-13054.4
-2426.07
-779.987
-422.405
-802.155
-773.791
-736.625
-878.135
-738.847
-1135.77
-608.345
-1906.57
-100.66
-4166.6
1850.63
-11657.5
-2510.14
-913.236
-479.838
-872.261
-893.067
-847.101
-1025.67
-856.827
-1327.01
-690.838
-2187.22
46.6505
-4904.24
3745.11
-13418.5
-2510.34
-913.356
-479.756
-872.25
-892.353
-846.799
-1021.94
-855.998
-1308.21
-691.143
-2086.5
20.1516
-4489.39
3116.78
-13429.7
-2510.57
-913.323
-479.612
-872.152
-891.764
-846.405
-1019.72
-855.317
-1300.29
-695.499
-2061.41
-61.0406
-4498.8
1832.2
-13741
-2510.83
-913.413
-479.54
-872.136
-891.173
-846.016
-1017.26
-854.447
-1291.88
-703.948
-2036.7
-201.466
-4455.49
2077.91
-13615.6
-2511.09
-913.478
-479.437
-872.035
-890.655
-845.471
-1015.52
-853.024
-1285.46
-701.691
-1971.57
-176.145
-3482.28
1171.3
-15214.5
-2511.39
-913.613
-479.416
-872.034
-890.408
-845.056
-1014.93
-851.307
-1288.29
-696.838
-2035.03
-165.556
-4206.05
423.655
-14081
-2511.68
-913.757
-479.413
-872.003
-890.286
-844.622
-1014.63
-850.297
-1287.34
-702.561
-2016.17
-277.901
-4065.17
779.553
-11555.1
-2511.99
-913.962
-479.485
-872.083
-890.458
-844.499
-1015.2
-849.616
-1288.92
-700.795
-2011.61
-264.367
-3928.64
842.912
-10770.2
-2512.28
-914.182
-479.601
-872.159
-890.861
-844.393
-1016.73
-849.554
-1294.43
-707.167
-2030.18
-305.059
-4100.62
228.839
-13705.5
-2512.57
-914.448
-479.775
-872.344
-891.495
-844.703
-1018.68
-850.613