/*--------------------------------*- C++ -*----------------------------------*\
| =========                 |                                                 |
| \\      /  F ield         | OpenFOAM: The Open Source CFD Toolbox           |
|  \\    /   O peration     | Version:  4.1                                   |
|   \\  /    A nd           | Web:      www.OpenFOAM.org                      |
|    \\/     M anipulation  |                                                 |
\*---------------------------------------------------------------------------*/
FoamFile
{
    version     2.0;
    format      ascii;
    class       surfaceScalarField;
    location    "14";
    object      phi;
}
// * * * * * * * * * * * * * * * * * * * * * * * * * * * * * * * * * * * * * //

dimensions      [0 3 -1 0 0 0 0];

internalField   nonuniform List<scalar> 
19125
(
244.597
-4.43174
1604.52
170.121
-17.0027
1422.29
130.947
-16.853
963.132
125.321
-3.06653
952.036
104.474
4.17283
781.025
98.7315
7.76021
734.04
65.0884
13.292
773.858
-411.108
38.1111
-128.905
-682.827
195.572
-1050.86
-730.693
227.172
-1383.42
-528.096
103.919
-941.161
-221.55
57.6687
120.248
-158.846
29.983
903.361
-162.13
0.182475
1273.93
5.36875
1931.53
240.529
-5.62111
1611.13
166.656
-21.1932
1433.35
131.659
-18.7515
994.145
126.377
-2.89257
981.052
105.472
3.95073
796.639
99.5135
8.92492
737.263
53.8926
19.0141
749.481
-436.556
21.2722
-150.257
-699.786
210.846
-1061.21
-736.339
249.478
-1397.33
-522.949
121.161
-943.744
-216.727
57.4254
162.763
-156.77
47.2136
958.311
-165.404
12.2328
1312.38
8.45806
1901.18
237.638
-5.9724
1615.16
165.152
-24.945
1442.81
132.876
-19.4117
1014.85
127.316
-2.47222
996.903
105.804
3.53464
805.27
100.933
8.0831
744.636
45.3927
21.573
711.839
-443.163
10.5438
-169.708
-686.943
208.078
-1067.78
-715.716
251.327
-1404.45
-521.942
144.484
-973.675
-225.987
64.1097
136.788
-161.145
53.2432
935.883
-171.831
30.4281
1343.63
10.4479
1851.22
235.017
-5.31155
1614.89
164.362
-27.5811
1450.79
134.788
-18.2084
1036.02
128.365
-1.03517
1012.98
105.735
3.48656
814.703
100.962
6.55245
754.26
36.902
20.5082
682.016
-448.033
-0.123095
-182.607
-681.517
198.674
-1065.35
-708.716
251.741
-1395.34
-523.449
164.866
-970.098
-233.853
73.6267
83.281
-169.655
56.7158
870.269
-174.294
41.6527
1353.44
11.3144
1868.23
233.618
-3.79724
1609.85
163.914
-27.6563
1462.25
136.386
-15.5604
1059.22
128.99
0.569402
1028.78
105.251
3.55043
823.063
99.8927
5.24061
763.195
20.2029
18.7356
648.298
-467.13
-6.99661
-205.11
-693.588
191.882
-1068.31
-729.334
278.314
-1368.82
-548.191
185.97
-894.437
-249.129
44.3966
60.1552
-176.597
51.1712
800.01
-177.027
48.914
1344.73
10.7033
1875
233.815
-1.71864
1598.28
163.405
-21.8096
1475.95
137.36
-10.6663
1085.8
129.3
1.50744
1045.92
104.598
3.22254
830.513
98.7807
4.29192
772.92
1.73773
14.163
611.314
-483.622
-8.09051
-218.967
-677.744
159.831
-1056.61
-729.936
300.049
-1369.2
-687.308
294.81
-1045.73
-368.018
24.4287
-294.438
-188.559
-52.9035
676.928
-183.372
49.8956
1350.28
6.00635
1879.72
236.568
0.151092
1577.35
162.868
-6.93285
1486.71
137.218
-3.00906
1111.43
129.023
0.912629
1064.13
103.792
1.65277
837.522
99.1711
2.08165
782.414
-15.0552
4.81962
575.388
-497.748
-1.61035
-230.506
-624.201
68.104
-1055.24
-563.692
153.958
-1393.04
-469.688
193.64
-1307.98
-318.173
28.1686
-934.87
-217.246
-60.8413
524.935
-183.717
24.4767
1357.03
2.36636
1870.57
238.198
1.59656
1567.01
162.803
11.366
1487.24
137.081
5.65351
1118.05
128.913
-0.0349158
1070.22
103.493
-0.273828
840.112
100.151
-1.36493
786.938
-29.4405
-2.53107
555.321
-524.226
16.172
-241.144
-632.228
-39.0978
-1060.62
-492.253
-93.1568
-1396.73
-315.232
-56.4256
-1378.83
-256.642
48.7456
-1113.46
-236.261
11.2803
461.413
-186.565
-13.6025
1368.47
-1.29292
1839.58
235.738
3.27436
1582.84
162.73
24.3146
1484.18
137.238
12.851
1107.08
129.069
-0.189208
1061.71
103.849
-1.57888
836.88
98.3469
-2.89094
780.686
-17.1993
-8.89589
577.886
-495.303
21.2484
-226.719
-608.341
-144.981
-1047.53
-515.967
-285.321
-1396.35
-374.321
-255.216
-1352.56
-273.221
33.8213
-1070.25
-225.919
59.8007
497.266
-182.388
-48.6228
1353.7
-4.36086
1874.55
233.517
5.09457
1602.32
163.246
28.9988
1472.88
137.157
17.4378
1081.38
129.282
0.952333
1043.44
104.744
-1.8585
829.493
98.5239
-3.59916
770.45
5.40889
-12.945
617.845
-471.329
16.6044
-209.69
-650.98
-193.082
-1047.37
-688.175
-298.483
-1378.05
-645.372
-212.847
-1115.24
-365.553
-20.3771
-466.79
-189.822
-30.3129
687.311
-182.567
-49.6626
1346.47
-8.88822
1884.32
233.637
6.33132
1613.25
163.762
28.2331
1459.47
136.053
19.8268
1054.84
128.926
2.56955
1025.98
105.397
-1.8153
821.526
99.8283
-4.80786
760.496
23.6545
-14.2667
653.894
-460.579
8.24748
-199.067
-690.843
-195.963
-1064.31
-733.786
-259.298
-1362.6
-559.413
-190.637
-863.927
-259.757
-80.2353
73.9816
-176.528
-46.5504
811.426
-177.449
-41.7227
1346.09
-9.82648
1876.92
235.289
6.74693
1617.47
164.302
25.1869
1448.31
134.445
20.7692
1031.64
128.314
3.9097
1009.83
106.051
-2.03014
812.614
101.319
-6.40169
751.149
43.424
-17.1338
686.794
-435.791
-4.52378
-173.303
-670.091
-206.47
-1060.82
-700.406
-256.061
-1397.85
-520.327
-167.858
-963.921
-238.035
-75.6761
97.5032
-170.584
-46.4531
874.998
-174.731
-30.7733
1355.83
-9.1647
1870.01
238.097
6.18049
1617.14
165.181
21.216
1440.8
132.534
19.8204
1010.65
127.259
4.12506
993.532
106.177
-2.69047
802.782
101.502
-7.43682
741.425
50.6991
-15.6904
714.48
-432.472
-17.1353
-160.951
-675.718
-211.816
-1062.77
-704.861
-256.272
-1407.21
-517.164
-142.032
-977.205
-228.853
-68.225
143.611
-162.281
-43.0296
940.251
-172.581
-12.9443
1347.51
-7.54508
1852.65
241.126
4.79696
1612.62
166.788
16.9146
1431.64
131.348
17.6094
990
126.338
4.02685
977.383
105.968
-3.25438
793.747
100.389
-6.5975
733.812
59.7288
-11.5832
750.503
-425.013
-35.279
-141.588
-689.68
-197.162
-1056.27
-728.737
-233.256
-1399.9
-520.954
-121.342
-947.46
-219.472
-66.9508
164.571
-157.857
-27.969
962.419
-166.225
-0.923331
1317.05
-4.82509
1901.84
245.296
1605.69
170.339
1421.13
130.659
959.461
125.284
948.312
104.981
777.95
99.7951
730.676
69.3039
772.616
-401.905
-121.935
-674.067
-1045.65
-722.903
-1385.14
-525.136
-947.298
-223.365
119.812
-159.76
907.401
-162.939
1279.93
1932.11
887.136
-25.3677
1366.03
732.368
-38.2857
1589.27
534.693
-34.0678
1169.76
426.874
-12.0954
1062.24
345.292
15.3343
858.099
352.378
18.71
721.632
459.967
54.5129
648.025
234.609
-35.9998
121.942
-90.1971
75.8078
-738.423
-423.723
274.299
-1104.78
-527.547
166.036
-888.19
-354.597
92.1359
-95.7437
-339.712
54.2859
865.256
-409.474
-7.20078
1343.05
16.0065
1873.98
871.312
-30.5725
1378.4
713.031
-45.1688
1598.52
525.389
-37.794
1185.51
423.201
-11.475
1082.62
347.507
15.6826
871.984
358.232
17.3557
727.892
452.777
72.3052
637.143
207.68
-50.1514
108.99
-125.93
89.2413
-741.033
-443.563
309.562
-1114.97
-541.524
224.547
-904.295
-361.107
138.485
-64.0047
-341.516
80.2482
912.756
-419.487
12.9277
1370.22
22.4122
1840.32
861.087
-32.2789
1386.42
700.984
-48.9243
1606.67
520.294
-40.4643
1198.21
421.383
-11.0848
1095.42
348.278
13.9459
880.111
362.091
12.6714
735.507
450.558
76.4234
619.253
195.701
-55.543
90.5389
-134.936
97.4357
-745.341
-426.651
311.256
-1114.42
-539.355
292.141
-928.566
-381.065
198.487
-81.5058
-352.464
79.8881
907.64
-438.167
49.0968
1393.16
21.3998
1786.65
849.753
-29.9544
1392.09
690.039
-50.6557
1612.23
518.41
-42.3748
1209.56
422.577
-9.61693
1107.34
349.556
13.3871
888.282
363.176
9.1177
744.193
438.894
76.0261
606.694
180.135
-62.1942
82.8023
-141.709
97.3991
-743.469
-428.918
318.242
-1115.12
-556.545
368.645
-918.975
-405.552
175.378
-44.6037
-365.966
42.0122
868.558
-442.454
73.573
1405.45
18.9142
1799.77
840.62
-23.2283
1392.62
680.933
-47.3302
1618.61
516.156
-41.8446
1223.46
422.329
-7.88682
1120.87
349.834
12.1956
896.747
363.117
6.74761
752.281
423.824
71.1956
592.421
151.969
-63.4328
67.981
-164.023
92.3509
-747.275
-466.231
364.395
-1112.76
-618.838
484.859
-858.045
-441.637
54.2394
4.09087
-372.836
-48.0254
821.245
-445.703
91.6403
1399.53
14.4069
1805.55
833.92
-12.068
1386.84
674.175
-34.9814
1623.35
513.786
-34.1293
1238.47
421.815
-5.66077
1135.66
350.105
9.53364
904.884
363.622
5.76068
760.39
412.475
56.5971
577.058
129.956
-53.4132
53.5295
-151.014
60.1577
-743.45
-382.613
329.816
-1103.02
-559.726
573.295
-957.055
-476.719
7.48606
-330.693
-394.335
-169.615
716.133
-451.829
91.1858
1408.22
5.53284
1809.31
834.876
-0.564909
1371.03
674.668
-10.5812
1622.52
511.106
-11.3533
1252.21
419.424
-1.45241
1151.61
348.584
4.19103
913.703
364.45
3.65334
768.654
410.399
23.0992
562.936
108.709
-17.61
35.3778
-154.551
17.1721
-748.999
-256.408
131.604
-1092.97
-230.772
288.315
-1048.63
-324.067
31.5614
-865.651
-438.944
-97.8614
568.057
-446.543
43.1027
1412.71
3.13004
1801.44
838.571
7.68115
1362.74
678.119
18.1228
1618.98
510.923
19.0467
1254.84
418.613
4.74008
1156.34
347.692
-1.51622
916.738
366.169
-0.151659
772.265
412.948
-23.4536
555.093
97.0812
28.8328
28.2772
-191.76
-0.471205
-754.142
-260.542
-108.164
-1088.18
-122.381
-169.333
-1059.35
-260.049
14.1843
-958.417
-463.607
43.6667
523.442
-452.523
-18.7821
1419.27
0.0802099
1770.4
834.907
17.3622
1375.99
674.127
40.3421
1622.74
511.346
39.0385
1249.86
419.453
9.00551
1149.34
348.418
-6.41806
912.816
363.589
-1.99828
767.36
408.872
-54.5543
563.703
110.669
62.3836
37.9283
-148.18
-45.5934
-743.557
-242.31
-321.659
-1088.73
-168.035
-542.347
-1053.82
-288.227
-1.94201
-933.932
-450.967
164.216
539.454
-442.288
-82.8054
1409.05
-0.583076
1808.35
835.012
27.0537
1389.96
674.794
50.9979
1622.45
514.006
45.3487
1235.86
421.702
11.3403
1133.41
349.736
-8.8574
903.898
362.494
-2.88887
758.58
412.404
-66.0076
579.387
134.781
72.6907
57.6227
-134.491
-86.8344
-736.862
-354.963
-379.136
-1100.1
-507.979
-531.114
-973.452
-456.008
-42.9449
-477.76
-400.809
90.8349
705.492
-448.384
-93.1968
1404.44
-8.57256
1817.29
842.203
32.7037
1394.88
682.05
53.0623
1617.56
516.333
45.0774
1220.83
422.14
13.0237
1118.49
349.312
-9.96612
895.461
361.987
-5.29881
750.23
424.53
-69.2595
594.601
155.53
70.7204
71.8988
-160.868
-90.2602
-744.483
-474.877
-314.239
-1113.49
-635.298
-400.494
-834.128
-457.358
-185.362
38.456
-374.317
-12.7572
831.975
-446.671
-75.3119
1400.55
-14.2676
1809.1
851.754
34.2198
1393.39
691.613
50.4267
1611.08
518.772
42.5725
1206.99
422.506
14.2577
1104.86
349.13
-10.6539
886.676
362.114
-8.9346
741.801
440.199
-68.939
608.388
186.959
63.4686
87.1862
-133.07
-91.4043
-739.649
-425.463
-301.59
-1118.1
-562.965
-312.247
-914.666
-415.669
-214.745
-20.4111
-368.11
-62.3835
877.064
-443.434
-50.7805
1406.62
-17.3838
1802.75
863.391
31.8758
1387.03
702.898
46.0643
1605.66
520.812
39.4354
1195.88
421.368
14.2553
1092.98
347.928
-12.7488
878.315
361.304
-13.9822
733.094
452.325
-65.3906
619.908
203.089
57.3133
94.4355
-126.127
-83.9081
-741.054
-417.904
-301.901
-1115.12
-538.915
-237.659
-930.783
-389.208
-163.174
-57.6693
-355.625
-70.995
915.278
-440.219
-15.4556
1396.77
-19.5864
1788.95
873.822
26.1491
1378.48
715.234
38.7347
1597.56
526.125
35.259
1183.28
423.36
14.3197
1080.08
347.407
-12.9758
869.923
357.869
-15.9423
725.308
455.106
-48.9706
636.844
216.016
42.5661
112.243
-117.116
-70.6673
-736.378
-437.429
-266.235
-1115.25
-541.871
-173.26
-907.419
-367.119
-118.094
-55.2655
-343.948
-50.0977
918.349
-421.51
4.83067
1374.32
-14.3098
1841.88
889.729
1365.78
734.72
1588.6
535.611
1168
427.159
1059.92
345.365
856.047
352.586
719.134
462.297
646.625
242.27
124.957
-82.0347
-733.284
-417.232
-1104.22
-525.059
-894.284
-357.809
-100.373
-341.672
869.258
-411.355
1348.22
1875.43
1433.81
-26.3058
815.327
1507
-59.1997
1532.35
1323.34
-55.3761
1364.32
1114.36
-44.6079
1279.42
903.404
-9.97917
1068.08
776.275
8.96816
845
782.929
44.7607
625.625
750.573
35.3051
145.824
444.416
97.0918
-457.285
-15.5869
203.825
-695.52
-367.34
158.988
-581.98
-345.53
-21.4523
-136.052
-439.617
34.0672
947.981
-581.845
-16.6729
1486.43
23.3408
1757.12
1423.48
-31.9755
826.723
1481.6
-66.1799
1547.37
1295.18
-60.8975
1377.45
1084.6
-45.7329
1294.32
874.883
-8.01109
1079.74
750.316
7.90987
853.518
746.108
58.1768
627.935
700.096
43.6648
146.641
397.838
113.103
-454.787
-35.5335
226.917
-704.687
-370.875
203.093
-613.06
-347.859
90.0992
-198.573
-447.049
66.2195
979.793
-596.677
2.84749
1500.33
29.9298
1719.49
1418.05
-35.8397
834.113
1466.41
-65.3549
1557.49
1277.57
-61.6212
1387.77
1065.99
-43.8266
1305.09
856.805
-6.4633
1087.75
735.129
4.38775
860.705
725.934
59.8702
626.755
672.201
45.3572
142.579
375.165
120.165
-455.368
-23.9829
219.318
-707.678
-345.355
235.831
-639.933
-364.802
241.691
-213.652
-469.032
88.9354
989.154
-625.102
39.681
1512.4
22.4156
1661.1
1408.73
-35.7176
842.066
1448.4
-59.9553
1567.15
1260.75
-61.3558
1396.95
1051.42
-41.7287
1314.57
843.35
-4.99498
1094.88
722.135
2.04202
867.753
704.107
56.5281
628.064
645.105
41.3259
145.835
352.829
120.941
-451.969
-47.0999
218.257
-714.133
-408.917
319.276
-640.604
-430.646
199.649
19.1651
-479.677
20.5576
985.967
-627.28
69.329
1523.4
15.2924
1671.52
1400.08
-31.2386
846.572
1432.24
-47.6739
1574.16
1244.19
-55.9741
1406.13
1035.23
-37.0862
1325.19
827.854
-3.93323
1103.06
707.061
0.246777
874.869
678.809
48.7631
628.437
610.196
32.6447
145.273
324.092
109.753
-449.985
-92.1996
239.567
-717.783
-499.923
472.981
-604.027
-493.791
59.8958
137.711
-483.263
-130.644
961.918
-628.909
93.5459
1520.96
6.90902
1677.73
1389.75
-19.9132
847.619
1416.34
-28.5604
1577.65
1227.61
-42.0404
1413.27
1019.23
-28.0981
1335.05
813.146
-3.31939
1110.35
693.32
-0.375021
880.836
656.243
35.2415
627.656
578.881
19.7984
143.737
317.095
75.4099
-447.322
-20.4628
190.725
-716.621
-385.293
532.485
-651.73
-486.717
29.7881
-199.163
-513.273
-250.832
862.875
-628.057
86.8136
1529.74
-2.63169
1684.34
1381.35
-2.01829
842.032
1408.56
-6.77478
1573.51
1215.92
-13.3124
1416.12
1004.88
-9.06451
1343.62
797.942
-0.413123
1117.73
678.432
1.10407
886.685
635.191
14.2078
627.211
544.071
7.50171
138.792
295.176
25.3108
-450.006
48.9795
65.4858
-721.538
-23.3619
235.585
-679.393
-257.201
22.9501
-624.975
-545.105
-121.993
727.121
-614.13
38.9419
1529.61
2.73301
1677.94
1381.02
14.2293
838.588
1410.79
13.7702
1568.67
1215.75
22.1427
1414.43
1002.79
15.4799
1344.75
794.697
4.97069
1119.45
675.172
4.43173
888.463
628.981
-11.2455
626.736
528.868
-1.66277
137.553
264.475
-13.3364
-451.103
27.4951
-59.1078
-726.609
44.5749
-153.931
-686.914
-199.132
-6.29494
-685.467
-563.58
68.5903
697.306
-621.93
-14.1187
1530.68
7.1157
1645.88
1385.3
26.5073
844.592
1411.43
35.8205
1574.55
1218.78
48.8526
1415.79
1007.42
33.7207
1342.45
800.228
7.90599
1117.07
680.13
5.73654
886.153
636.461
-31.5382
627.664
546.428
-14.7914
141.088
302.572
-66.683
-446.356
62.8621
-187.941
-720.188
31.1299
-493.48
-682.544
-220.962
-17.8874
-670.249
-548.857
237.479
698.459
-607.296
-72.8365
1526.2
12.8792
1689.73
1392.65
35.0611
848.83
1419.59
53.7751
1577.54
1230.82
61.2545
1412.22
1022.1
42.2337
1333.62
815.71
8.62496
1109.57
695.078
4.94033
880.008
658.47
-43.889
628.345
582.852
-27.8325
146.279
331.276
-108.356
-443.614
4.52342
-246.291
-715.004
-304.763
-500.966
-656.681
-436.778
-18.0862
-345.549
-519.02
189.857
835.354
-621.318
-93.3164
1527.22
3.12096
1698.61
1402.54
38.2462
847.055
1435.54
64.7282
1573.61
1247.46
65.3959
1404.76
1038.27
46.3711
1323.55
830.646
9.63186
1102.07
708.994
3.00408
873.817
681.167
-50.5519
629.09
613.246
-35.5071
147.493
326.897
-119.02
-447.472
-104.454
-211.281
-717.153
-523.423
-329.237
-586.889
-513.282
-169.371
179.599
-486.192
23.2805
971.46
-630.192
-71.5297
1522.77
-8.74206
1685.27
1411.16
37.5153
841.871
1451.97
68.8943
1566.1
1264.3
64.6704
1395.38
1054.8
47.8718
1312.86
846.474
10.8173
1093.81
724.328
0.382045
866.568
706.814
-53.216
628.564
649.279
-39.0386
148.249
357.665
-117.684
-449.373
-49.8853
-207.326
-714.511
-423.407
-237.098
-633.286
-444.436
-245.613
76.8555
-479.653
-66.6299
1002.19
-626.964
-41.0655
1523.46
-16.4146
1677.99
1420.52
33.0291
833.447
1470.19
68.6814
1556.2
1281.34
63.1871
1386.2
1069.6
49.1661
1303.42
860.088
11.9675
1086.68
737.578
-3.59688
859.582
728.978
-51.7331
627.023
676.92
-37.4986
144.951
380.02
-109.577
-452.264
-20.0392
-216.548
-705.845
-355.702
-191.353
-640.868
-380.203
-111.507
-167.278
-472.774
-60.482
1001.7
-627.408
-5.35674
1515.7
-25.941
1665.92
1425.93
26.9071
825.73
1485.5
60.7569
1545.91
1299.15
56.9724
1375.84
1088.5
47.2824
1292.62
878.48
13.322
1078.58
753.199
-5.36702
852.357
749.749
-39.3419
627.901
705.487
-29.8968
148.9
403.625
-93.009
-451.087
-31.6164
-194.702
-701.859
-374.296
-142.558
-613.538
-354.968
4.84671
-190.954
-449.224
-35.1414
987.262
-598.729
14.3268
1504.14
-21.1372
1723.5
1436.23
814.132
1510.88
1530.93
1327.36
1362.94
1118.35
1277.96
907.234
1067.07
779.561
843.999
786.503
625.365
755.813
148.278
451.13
-452.861
-9.7677
-691.882
-363.772
-583.52
-345.609
-148.812
-440.905
952.047
-583.131
1491.02
1761.11
1532.02
-9.458
450.288
1866.71
-57.31
1213.29
1944.46
-63.789
1297.38
1902.91
-67.5183
1331.73
1776.17
-49.5034
1199.39
1645.94
-25.4937
974.121
1562.87
8.31795
698.014
1379.91
39.5053
309.967
957.069
82.8888
-64.9265
447.127
152.039
-230.325
-25.7451
162.992
-138.574
-221.768
-44.3061
51.3653
-494.092
-25.1634
1226.13
-674.125
-18.0653
1667.23
24.9389
1666.63
1530.7
-11.2376
454.281
1855.44
-62.6916
1228.01
1924.9
-69.2421
1313.45
1873.37
-71.067
1349.39
1737.2
-49.038
1215.44
1600.81
-23.7657
988.18
1512.48
15.8008
708.785
1331.18
49.4887
317.955
922.892
97.6762
-61.2853
439.413
167.668
-236.837
13.5137
138.379
-162.549
-168.281
-17.0791
-44.0094
-504.203
46.5715
1243.98
-686.22
-3.90861
1668.19
30.7497
1630.77
1532.34
-14.1874
456.944
1851.63
-60.7481
1236.25
1914.24
-67.0357
1322.96
1855.54
-67.7988
1360.52
1713.07
-44.6583
1225.84
1573.47
-21.0724
997.614
1482.34
18.1879
715.497
1301.24
50.6431
322.521
899.781
103.293
-59.5242
439.077
161.007
-240.315
16.4102
103.541
-182.43
-178.446
-5.14415
-30.7342
-536.597
138.988
1254.89
-718.415
21.7823
1668.52
17.0832
1572.1
1530.48
-15.057
460.648
1842.83
-52.8493
1246.91
1900.02
-61.8583
1334.58
1836.75
-63.0643
1373.11
1690.26
-40.378
1237.09
1548.01
-18.8616
1007.79
1453.33
17.2409
723.689
1273.17
46.9503
329.692
875.104
105.699
-56.3106
399.523
168.178
-245.723
-149.594
208.389
-196.336
-375.888
15.7617
224.551
-535.626
27.4285
1257.26
-715.765
48.2213
1677.1
8.70513
1581.04
1529.04
-15.2221
463.508
1835.45
-39.0092
1253.91
1886.38
-49.8879
1343.23
1817.1
-52.5482
1383.95
1665.37
-33.1975
1247.61
1519.62
-15.6022
1017.36
1420.71
13.8004
730.792
1239.87
38.1025
334.96
849.973
99.9376
-54.3271
360.786
191.248
-251.667
-243.695
401.861
-193.02
-468.037
14.7273
363.087
-536.803
-185.996
1244.11
-719.043
70.6976
1680.72
-4.18271
1588.23
1524.16
-11.4403
465.824
1824.35
-20.5567
1259.01
1869.64
-31.8522
1349.94
1794.92
-36.053
1393.27
1638.52
-23.2568
1256.81
1489.76
-11.3779
1025.38
1386.82
8.15293
736.236
1206.31
23.7321
338.619
838.408
72.9562
-52.4377
411.101
157.338
-255.405
-125.27
490.561
-204.061
-395.054
32.3076
53.0395
-560.193
-297.534
1139.55
-708.435
59.7853
1688.89
-15.1319
1601.86
1514.91
0.484822
467.007
1812.7
-3.70414
1258.87
1854.36
-8.61977
1351.23
1774.17
-10.6981
1398.45
1611.92
-6.72842
1263.45
1458.6
-2.75751
1031.39
1350.45
3.76528
739.75
1165.65
8.35049
338.967
816.222
26.2382
-53.8579
458.168
55.6065
-261.753
255.871
219.134
-205.67
-126.043
38.7733
-249.528
-563.287
-143.215
1010.04
-683.034
25.6807
1683.46
3.12277
1595.19
1512.91
12.0254
467.108
1811.31
9.98346
1256.58
1852.35
15.7117
1349.05
1770.62
18.0463
1397.73
1606.48
13.0206
1263.84
1451.5
8.61798
1032.06
1340.66
1.20149
740.138
1151.82
-4.1265
338.878
796.714
-15.5402
-54.2228
435.183
-45.5276
-263.946
303.179
-131.196
-204.581
-61.9819
-0.201933
-281.331
-575.729
84.1424
983.694
-690.075
-6.34516
1677.05
22.6274
1561.95
1520.82
16.0017
467.003
1818.78
27.83
1258.74
1860.08
39.3953
1350.81
1779.76
43.3419
1397.47
1617.76
29.5311
1262.57
1464.45
17.2172
1030.86
1356.37
-3.19523
740.149
1172.51
-19.8788
340.69
825.964
-64.4392
-50.9085
469.61
-150.111
-259.251
306.426
-449.112
-201.444
-81.6287
-7.47332
-274.925
-560.253
286.493
974.732
-676.06
-43.2281
1678.89
36.2797
1613.42
1526.47
17.2518
465.964
1827.7
45.5295
1258.61
1873.76
56.539
1349.02
1799.67
59.1185
1391.93
1643.92
39.1997
1255.66
1495.2
21.3454
1024.6
1392.61
-8.79296
736.532
1213.28
-34.5258
340.255
852.398
-97.864
-49.3071
435.945
-196.574
-252.088
-25.8886
-447.75
-196.212
-315.447
0.0568091
-63.5228
-561.495
267.949
1099.94
-700.719
-65.4884
1688.7
19.8839
1625.21
1530.3
16.4695
463.386
1837.83
58.3484
1253.26
1889.84
67.226
1342.06
1821.49
68.6211
1382.39
1670.64
45.8566
1246.27
1525.01
24.38
1016.42
1426.21
-11.9618
731.052
1245.16
-42.5619
336.577
853.995
-102.903
-51.2659
352.831
-163.672
-248.892
-270.468
-227.659
-183.682
-498.249
-4.22506
411.659
-543.216
32.7642
1251.61
-722.862
-47.6288
1684.55
-2.29199
1601.8
1531.57
15.1546
460.377
1845.13
65.089
1245.8
1903.44
71.2355
1333.05
1841.19
72.3957
1371.34
1695.69
49.5106
1235.66
1553.6
26.1893
1006.85
1458.96
-12.8144
724.052
1278.72
-45.6941
331.629
878.653
-99.48
-52.7317
392.604
-149.159
-242.974
-174.875
-100.509
-192.958
-410.888
2.21539
306.427
-532.763
-122.546
1279.37
-714.455
-20.1265
1677.65
-11.1469
1593.05
1533.4
11.8563
456.537
1853.9
65.9422
1234.84
1917.65
72.4348
1321.26
1860.03
74.7657
1358.67
1718.58
53.2156
1224.42
1579.24
28.3774
996.737
1488.11
-10.6488
715.983
1307.14
-44.6211
324.849
903.183
-92.7532
-55.035
439.501
-156.071
-235.252
-13.135
-108.206
-180.538
-205.349
11.3748
15.7684
-539.024
-57.0126
1269.84
-719.68
4.23995
1671.98
-27.2217
1582.16
1531.68
9.8445
453.796
1857.62
59.4758
1226.43
1928.24
66.02
1311.64
1877.85
70.2791
1347.49
1742.78
52.8669
1214.01
1606.75
29.4179
987.345
1518.48
-3.82195
709.343
1337.39
-35.1878
320.549
927.548
-77.9078
-56.0899
442.418
-142.002
-230.8
10.9758
-132.337
-157.969
-168.447
42.1646
-42.3304
-505.301
13.6215
1253.48
-687.277
18.0052
1672.35
-23.6454
1639.76
1533.07
449.75
1868.87
1211.66
1947.68
1295.64
1907.22
1329.98
1781.58
1198.13
1651.92
973.477
1568.95
698.674
1386.38
312.885
963.262
-59.0103
452.76
-223.466
-16.2266
-133.25
-212.377
38.351
-493.534
1232.88
-673.789
1672.31
1675.38
1491.26
-2.09075
370.399
1784.77
-35.0005
929.134
2003.09
-50.8768
1087.58
2144.1
-63.6919
1200.05
2174.02
-62.1038
1175.58
2116.79
-46.517
1031.86
1981.6
-18.8825
825.921
1720.26
14.4446
555.667
1286.29
46.6296
346.25
780.611
92.9733
246.337
252.939
102.542
378.667
-165.018
-49.4535
485.33
-540.026
-61.7783
1610.32
-726.32
-11.5434
1850.61
22.3815
1665.73
1490.62
-1.69609
370.603
1783.36
-37.3582
937.623
1999.86
-54.4649
1100.54
2136.12
-67.3534
1216.79
2159.51
-63.2822
1193.22
2097.28
-44.7361
1048.63
1960.64
-13.3396
839.88
1704.63
22.8837
565.523
1282.11
57.4912
350.37
797.911
97.6728
242.665
316.315
65.2036
356.385
-112.444
-95.882
431.176
-544.035
-4.69164
1618.48
-728.96
-2.95679
1844.53
27.7528
1641.57
1492.84
-3.05649
370.841
1786.91
-36.721
941.534
2001.2
-52.1328
1106.33
2133.39
-64.0529
1225.04
2151.92
-58.4587
1202.49
2086.09
-39.1618
1057.87
1948.12
-7.55221
847.679
1694.49
28.05
570.976
1274.92
65.229
352.307
801.451
90.3957
240.436
311.431
30.1383
342.654
-142.289
-134.403
461.505
-585.27
65.4632
1627.71
-761.282
7.81592
1833.76
11.5551
1586.51
1492.61
-3.03937
371.363
1786.27
-31.6485
948.172
1998.74
-46.2509
1116.22
2127.83
-57.9034
1237.87
2142.86
-52.3088
1215.91
2074.72
-33.8191
1070.59
1936.5
-3.88347
858.241
1685.82
29.7151
578.702
1267.63
71.6041
355.505
777.153
96.8633
238.286
154.417
118.126
338.412
-291.818
-62.4839
598.867
-576.327
-28.3218
1635.56
-756.019
20.4299
1844.18
2.95593
1594.63
1493.61
-3.45859
371.935
1787.55
-23.9272
952.245
1997.33
-35.1676
1122.36
2122.18
-45.5863
1246.79
2132.5
-41.1548
1226.13
2060.82
-25.6499
1080.87
1921.48
-0.634125
866.879
1672.89
28.4821
584.786
1258.67
73.5845
357.909
752.494
116.657
234.714
37.5937
302.172
337.835
-396.586
31.7835
702.998
-581.265
-227.647
1628.11
-767.195
30.9842
1856.09
-24.0633
1603.89
1491.79
-1.13188
372.993
1784.28
-13.5465
956.131
1991.43
-20.6504
1128.27
2112.12
-28.6262
1255.62
2117.77
-26.4063
1236.42
2042.59
-16.2311
1091.13
1902.33
0.494092
875.368
1657.71
20.8647
590.866
1259.64
58.0378
361.174
794.131
96.2833
230.477
200.554
355.911
335.776
-258.563
81.5964
462.343
-573.883
-300.435
1527.66
-741.073
20.3803
1866.69
-41.5334
1626.89
1489.06
3.51484
374.464
1778.25
-2.01986
958.144
1982.72
-4.57703
1130.69
2099.44
-7.3198
1260.42
2100.05
-6.79435
1243.23
2020.25
-3.51744
1098.48
1877.18
2.00613
881.306
1633.53
8.91157
594.568
1250.92
23.6818
363.114
823.549
35.5904
226.306
487.749
152.5
333.54
18.6139
53.8169
247.385
-535.487
-138.978
1402.69
-694.891
4.91893
1858.32
-2.23864
1617.98
1489.46
6.30167
374.673
1777.27
8.65845
958.079
1980.71
10.8368
1130.2
2096.25
14.4546
1260.42
2095.5
13.8631
1243.94
2014.33
10.129
1099.58
1869.9
4.28652
882.295
1625.51
-3.26648
595.441
1242.68
-11.9444
364.229
813.724
-25.4411
226.044
518.549
-88.7532
331.847
75.7598
-12.6049
227.88
-531.183
88.7293
1362.93
-695.366
1.32182
1844.83
47.4804
1583.57
1493.01
5.6863
373.663
1783.76
19.2308
957.42
1988.11
27.5348
1129.76
2104.69
36.3011
1259.04
2105.53
33.867
1241.73
2026.05
23.2217
1097.24
1883.29
6.26064
880.939
1639.83
-14.6642
595.547
1258.69
-47.2649
365.555
831.648
-86.1539
228.499
523.375
-319.545
337.621
64.3344
-60.0962
231.606
-507.487
294.145
1341.14
-679.903
-1.46229
1854.09
79.4934
1647.59
1493.83
5.09987
372.811
1786.7
29.149
955.827
1994.08
41.7234
1127.44
2115.24
52.7811
1254.28
2121.54
48.2509
1234.98
2046.88
32.4978
1089.98
1907.12
7.29435
875.256
1662.7
-22.3523
592.358
1268.74
-67.3654
364.758
811.541
-114.981
233.935
294.919
-344.779
345.643
-163.683
-30.8707
365.852
-560.509
315.363
1475.55
-727.84
-16.5907
1871.16
53.2588
1663.47
1494.15
4.13944
372.07
1788.31
36.3389
951.901
1998.72
51.8656
1121.51
2124.37
64.0481
1245.47
2135.54
58.5946
1224.75
2064.43
40.1702
1079.86
1925.41
10.2876
867.078
1676.1
-23.1999
586.733
1260.26
-65.1176
362.327
745.54
-88.6516
239.502
2.54278
-133.598
348.133
-434.272
74.2995
743.303
-591.944
93.2341
1631.41
-776.816
-11.4732
1864.31
4.88097
1626.36
1493.07
3.89174
371.532
1786.91
40.648
947.654
1999.97
56.7009
1115.15
2129.85
69.1331
1236.37
2145.77
63.8702
1214.47
2078.22
44.8661
1069.7
1940.24
13.5461
858.765
1688.81
-21.3202
581.181
1267.89
-57.6771
360.744
765.878
-73.835
244.221
96.7617
-3.49095
346.048
-341.448
140.143
678.789
-575.98
-54.1081
1661.25
-758.332
-0.45147
1848.98
-9.38018
1612.61
1493.41
2.24741
371.034
1787.59
40.4541
940.851
2002.38
58.0544
1105.12
2135.31
71.4031
1223.46
2154.75
67.7641
1201.09
2089.54
49.6624
1057.15
1951.77
18.7404
848.548
1697.92
-16.6242
574.008
1276.22
-49.5467
358.535
801.397
-82.1907
247.921
291.978
-25.8921
351.279
-167.807
119.211
496.483
-586.572
-9.30655
1643.8
-761.57
6.69822
1839.83
-26.9953
1602.4
1491.16
2.48143
370.807
1783.96
37.2157
936.865
2000.92
53.4678
1099.27
2137.92
66.6917
1215.2
2162.22
65.5771
1191.89
2100.64
50.5274
1048.06
1964.26
23.4455
841.015
1708.28
-9.0498
568.947
1284.91
-39.5171
357.248
801.145
-80.1208
250.896
322.119
-71.3826
366.545
-109.275
71.9242
436.346
-542.4
48.2366
1629.06
-727.668
13.7072
1850.61
-22.7446
1657.66
1491.99
370.605
1785.55
928.332
2004.19
1086.32
2145.8
1198.56
2176.54
1174.44
2119.95
1031.58
1985.08
827.422
1724.21
559.558
1290.73
353.913
786.848
255.53
266.747
388.709
-152.994
481.619
-537.177
1620.03
-724.214
1857.64
1681.13
1527.06
-1.93671
381.252
1662.92
-16.7501
797.511
1824.69
-28.8885
930.259
1979.95
-42.0493
1050.39
2064.95
-50.0113
1095.73
2052.8
-46.8523
1046.27
1922.03
-32.4604
954.391
1661.71
-9.15362
808.306
1255.42
14.2891
740.775
805.285
59.0821
679.631
317.032
49.1992
873.711
-143.818
-89.3588
971.866
-556.001
-98.0248
2046.09
-748.946
-7.10024
2038.51
18.765
1804.52
1524.99
-1.33766
381.42
1661.42
-16.794
801.232
1825.75
-29.9476
937.273
1983.27
-43.9115
1061.13
2068.95
-51.2315
1108.76
2057.41
-46.4101
1059.73
1928.44
-29.4774
965.869
1672.42
-4.43761
816.823
1272.78
20.8105
743.494
838.401
58.639
677.483
375.064
20.1951
848.726
-108.017
-114.419
939.317
-565.277
-72.2394
2049.95
-754.916
-0.780228
2027.84
37.8694
1774.07
1525.88
-2.06919
381.559
1664.74
-16.6634
802.542
1830.21
-28.5457
939.453
1988.21
-41.7694
1064.89
2073.49
-47.8161
1113.79
2061.45
-41.8555
1065.35
1932.68
-23.8628
970.839
1678.01
0.780969
820.427
1278.26
28.8532
744.011
850.336
51.6576
675.342
369.413
8.0617
835.71
-138.729
-116.476
971.703
-635.527
-9.66196
2061.93
-804.654
-5.61851
2007.72
15.2106
1723.36
1524.5
-1.41568
381.841
1664.28
-13.8727
805.605
1831.57
-24.647
945.029
1991.13
-36.9971
1073.54
2077.2
-42.2584
1124.28
2066.03
-36.3073
1076.21
1938.92
-18.5776
980.063
1686.53
4.68117
827.192
1287.08
37.6667
746.147
847.197
55.1506
674.672
267.672
93.0936
832.904
-236.595
-62.2509
1048.91
-610.021
-64.2511
2063.57
-788.287
-9.01518
2025.84
-16.8112
1756.36
1524.21
-0.0377813
382.134
1666.24
-10.9158
807.263
1834.78
-18.6994
947.867
1994.74
-28.5197
1078.35
2080.42
-32.4661
1130.65
2068.76
-27.1447
1083.37
1942.16
-11.5479
986.453
1690.8
9.0774
831.75
1292.98
45.8542
747.546
838.724
72.1825
671.933
172.518
263.627
833.507
-326.252
19.4591
1120.06
-600.467
-209.4
2047.47
-794.678
-1.12947
2042.42
-66.2419
1765.44
1523.22
2.38659
382.651
1665.25
-6.15313
809.337
1834.52
-11.0737
951.383
1994.74
-17.3871
1084.26
2079.99
-19.7963
1138.5
2067.87
-16.0718
1092.18
1942.24
-5.04831
994.506
1694.19
10.0225
837.966
1309.01
41.418
750.794
877.092
64.6845
669.888
342.247
307.819
826.43
-174.255
61.2715
937.032
-558.445
-261.88
1964.33
-749.769
-6.2686
2063.15
-78.5404
1785.54
1524.21
3.38098
383.011
1665.08
0.34004
810.777
1832.86
-1.54405
953.375
1991.53
-3.42526
1087.79
2075.16
-3.9522
1143.75
2061.36
-2.36635
1098.58
1935.08
1.98591
1000.55
1689.04
7.93556
842.693
1317.51
22.0656
753.995
908.869
29.2369
670.399
583.992
142.832
823.403
99.8631
44.8982
747.887
-496.151
-118.827
1855.65
-689.338
-8.79212
2054.03