/*--------------------------------*- C++ -*----------------------------------*\
| =========                 |                                                 |
| \\      /  F ield         | OpenFOAM: The Open Source CFD Toolbox           |
|  \\    /   O peration     | Version:  4.1                                   |
|   \\  /    A nd           | Web:      www.OpenFOAM.org                      |
|    \\/     M anipulation  |                                                 |
\*---------------------------------------------------------------------------*/
FoamFile
{
    version     2.0;
    format      ascii;
    class       volVectorField;
    location    "14";
    object      U;
}
// * * * * * * * * * * * * * * * * * * * * * * * * * * * * * * * * * * * * * //

dimensions      [0 1 -1 0 0 0 0];

internalField   nonuniform List<vector> 
6750
(
(8.90868 -0.0159174 18.0009)
(-0.621883 -0.0628074 14.9196)
(3.09004 -0.0670928 10.2702)
(0.633414 -0.0131362 10.6712)
(1.84017 0.0171678 8.6109)
(0.597259 0.0278489 8.29247)
(1.89939 0.0517252 8.51208)
(-1.65026 0.326776 -7.06379)
(-6.68487 0.967835 -14.6332)
(-8.53893 1.08181 -15.8875)
(-8.148 0.434889 -8.42845)
(-3.2803 0.238486 4.58751)
(-2.30675 0.101506 10.8784)
(-0.483066 -0.0109321 14.1713)
(-4.66062 0.0174088 21.9967)
(8.82037 -0.0309996 18.0505)
(-0.633566 -0.11645 15.0924)
(3.04788 -0.110723 10.7213)
(0.661834 -0.0188961 11.0132)
(1.84516 0.0261813 8.76534)
(0.610176 0.0533943 8.29654)
(1.91025 0.0967907 8.12916)
(-1.95425 0.151107 -7.32424)
(-6.92099 1.22464 -14.7496)
(-8.67831 1.44847 -16.0799)
(-8.13964 0.698539 -8.4837)
(-3.18867 0.359285 4.81548)
(-2.26328 0.226386 11.5024)
(-0.496162 0.0193904 14.6616)
(-4.73378 0.0405654 21.6668)
(8.75693 -0.0330835 18.0801)
(-0.640619 -0.126753 15.223)
(3.03444 -0.105296 11.002)
(0.685687 -0.0152469 11.1908)
(1.84931 0.0195612 8.85305)
(0.60894 0.0484075 8.36733)
(1.95339 0.117424 7.57109)
(-2.16078 0.079706 -7.45191)
(-6.90044 1.16134 -14.8081)
(-8.40332 1.37687 -16.2964)
(-7.94884 0.667626 -8.95251)
(-3.35404 0.303837 4.46303)
(-2.32951 0.308329 11.1717)
(-0.522193 0.122336 15.0607)
(-4.87234 0.0546951 21.119)
(8.7035 -0.0331474 18.0596)
(-0.643737 -0.151107 15.3499)
(3.03061 -0.109752 11.2944)
(0.715603 -0.0113461 11.3728)
(1.85017 0.0198458 8.95033)
(0.601842 0.0416582 8.46727)
(1.96959 0.123522 7.11159)
(-2.33353 0.0405034 -7.55394)
(-6.88424 1.17148 -14.7397)
(-8.28955 1.44954 -16.1841)
(-7.88617 0.982305 -9.01625)
(-3.45418 0.410595 3.78863)
(-2.45311 0.263678 10.3827)
(-0.565293 0.213772 15.1582)
(-4.87165 0.0613388 21.3312)
(8.67504 -0.0264578 17.99)
(-0.639416 -0.159108 15.5236)
(3.02681 -0.0960853 11.5973)
(0.739885 -0.000966136 11.5412)
(1.84731 0.0195418 9.03294)
(0.588266 0.0320585 8.56226)
(1.97553 0.111581 6.56762)
(-2.67744 -0.0396277 -7.79255)
(-7.02375 1.06814 -14.6658)
(-8.41664 1.36743 -15.6848)
(-8.22 0.810652 -8.19275)
(-3.67925 0.409876 3.1664)
(-2.58968 0.422126 9.56632)
(-0.579688 0.252005 15.0582)
(-4.9067 0.0670099 21.4186)
(8.68181 -0.0156616 17.85)
(-0.626827 -0.149958 15.7412)
(3.01404 -0.0778452 11.9398)
(0.75851 0.00739325 11.7182)
(1.84281 0.0202897 9.10096)
(0.573815 0.0265564 8.66906)
(1.98443 0.0989923 5.94964)
(-3.0733 -0.031274 -7.86266)
(-7.05808 1.09348 -14.4525)
(-8.01297 1.79015 -15.9118)
(-8.57755 1.38957 -10.3637)
(-6.40624 0.130578 -0.698626)
(-2.70336 0.0402265 8.22887)
(-0.676885 0.302064 15.1091)
(-4.94822 0.0489682 21.4899)
(8.75271 -0.00362033 17.6095)
(-0.607644 -0.0913641 15.9306)
(2.99037 -0.0411608 12.2643)
(0.765126 0.00857527 11.9037)
(1.83646 0.0152434 9.15953)
(0.559026 0.0208104 8.7739)
(2.03083 0.0572611 5.32612)
(-3.47052 -0.0562009 -7.8845)
(-7.03828 0.699853 -14.3452)
(-6.79781 1.56594 -16.7934)
(-6.0711 1.81042 -15.049)
(-4.25668 0.0786784 -9.18699)
(-3.49197 -0.518225 6.66158)
(-0.565517 0.240002 15.2014)
(-5.03428 0.0216774 21.3888)
(8.79991 0.00497604 17.4901)
(-0.602299 0.0145225 15.9568)
(2.98321 0.00791523 12.3493)
(0.765741 0.00198107 11.9684)
(1.83548 0.00356212 9.18249)
(0.551382 0.00119053 8.82497)
(2.08068 0.00264899 4.96945)
(-3.82714 0.0374004 -8.01846)
(-7.32296 0.0853569 -14.3708)
(-6.68311 0.219186 -17.0755)
(-4.53846 0.540017 -16.5985)
(-2.41645 0.287504 -12.0187)
(-3.92562 -0.208624 5.90577)
(-0.530838 0.0420671 15.3662)
(-5.13965 0.00242922 21.0426)
(8.7356 0.0130854 17.6679)
(-0.615236 0.111123 15.8871)
(2.99367 0.0548364 12.212)
(0.764219 -0.00239904 11.8817)
(1.837 -0.00663494 9.15542)
(0.560364 -0.0146538 8.75262)
(2.00984 -0.0337244 5.37138)
(-3.48885 0.145577 -7.80424)
(-6.9782 -0.541292 -14.2659)
(-6.49018 -1.3094 -16.9898)
(-5.30203 -1.32779 -16.1189)
(-2.93726 0.208877 -11.4492)
(-3.74632 0.409867 6.36963)
(-0.518537 -0.20815 15.1665)
(-5.0415 -0.0142027 21.4263)
(8.67781 0.023788 17.894)
(-0.632853 0.159302 15.6938)
(3.01469 0.0889732 11.886)
(0.755581 0.00106378 11.6947)
(1.84352 -0.0106334 9.09177)
(0.578053 -0.0172732 8.63983)
(1.96887 -0.06635 6.06858)
(-2.97594 0.0907503 -7.6964)
(-6.87773 -1.08983 -14.3654)
(-7.58188 -1.8967 -16.2307)
(-8.06669 -1.46495 -11.8705)
(-6.11322 0.204365 -3.32103)
(-2.7847 0.109387 8.46153)
(-0.65016 -0.31168 15.0663)
(-4.95329 -0.0381765 21.5349)
(8.6781 0.0329251 18.028)
(-0.644077 0.16465 15.4812)
(3.02615 0.105973 11.5427)
(0.735591 0.00961143 11.5128)
(1.84805 -0.0100715 9.01759)
(0.593398 -0.0225959 8.5311)
(1.96164 -0.0769146 6.67019)
(-2.58286 0.0859223 -7.70116)
(-6.97153 -1.07992 -14.6192)
(-8.40103 -1.47734 -15.5518)
(-8.32852 -1.00451 -7.9018)
(-3.86072 -0.430368 2.97548)
(-2.60758 -0.336714 9.69611)
(-0.574654 -0.252209 15.0756)
(-4.92025 -0.0576274 21.4386)
(8.71265 0.0381912 18.0896)
(-0.647302 0.153139 15.3122)
(3.03052 0.118145 11.2384)
(0.710908 0.0199607 11.3394)
(1.85138 -0.0106689 8.92875)
(0.611668 -0.0316936 8.43236)
(1.95634 -0.0923519 7.20819)
(-2.17751 0.00682149 -7.40111)
(-6.75637 -1.13575 -14.7105)
(-8.15407 -1.4365 -16.2137)
(-7.83104 -1.10052 -8.9703)
(-3.47356 -0.475392 3.81626)
(-2.49038 -0.228248 10.4345)
(-0.559704 -0.214715 15.1875)
(-4.88716 -0.0536817 21.3501)
(8.7703 0.0367396 18.1042)
(-0.643127 0.127447 15.1917)
(3.0351 0.112062 10.9467)
(0.680598 0.0226586 11.1536)
(1.8507 -0.0118667 8.82679)
(0.620133 -0.0396165 8.33151)
(1.94369 -0.0963748 7.63611)
(-2.03172 -0.0586631 -7.30646)
(-6.78568 -1.17442 -14.7749)
(-8.2571 -1.433 -16.353)
(-7.8498 -0.800987 -9.02345)
(-3.36823 -0.365288 4.46723)
(-2.35798 -0.272835 11.2113)
(-0.523693 -0.125224 15.1046)
(-4.8903 -0.0482861 21.1341)
(8.83679 0.0337144 18.0698)
(-0.635145 0.116038 15.0654)
(3.04962 0.116148 10.6655)
(0.656716 0.0255665 10.9718)
(1.84692 -0.0195497 8.7346)
(0.62415 -0.0452385 8.25854)
(1.90419 -0.0816809 8.17317)
(-1.81234 -0.125631 -7.1699)
(-6.80424 -1.22495 -14.718)
(-8.56032 -1.47516 -16.1277)
(-8.08639 -0.806418 -8.5425)
(-3.21179 -0.42138 4.80012)
(-2.28773 -0.211999 11.5428)
(-0.49884 -0.0243873 14.7169)
(-4.75352 -0.0364856 21.6731)
(8.92695 0.017174 18.0169)
(-0.622465 0.0623105 14.8997)
(3.0926 0.0697857 10.2183)
(0.628193 0.0167196 10.6273)
(1.84208 -0.0138944 8.57733)
(0.610966 -0.023594 8.25533)
(1.89954 -0.0468207 8.5198)
(-1.54601 -0.321183 -6.94488)
(-6.58949 -0.984515 -14.596)
(-8.42986 -1.12044 -15.9235)
(-8.08064 -0.519005 -8.51195)
(-3.29372 -0.277223 4.56098)
(-2.32426 -0.0942006 10.9235)
(-0.486578 0.00789479 14.2429)
(-4.68024 -0.0156648 22.0021)
(21.6294 -0.0955726 17.8374)
(5.29661 -0.155557 17.26)
(8.4365 -0.147337 11.3499)
(4.56977 -0.0569277 10.6915)
(4.6967 0.0655009 8.79965)
(3.26714 0.0811373 8.00767)
(4.68957 0.213141 8.40712)
(4.30211 -0.106868 3.20242)
(1.84674 0.346296 -9.21023)
(-3.2678 1.26288 -14.9515)
(-6.38341 0.681726 -12.0537)
(-4.9238 0.320715 -1.09757)
(-4.45574 0.192057 9.67815)
(-1.04451 -0.0495931 14.5503)
(-12.2872 0.0540494 21.4834)
(21.5299 -0.173609 17.9458)
(5.00666 -0.260713 17.3285)
(8.29868 -0.224721 11.5931)
(4.491 -0.074112 11.0014)
(4.69173 0.100432 8.99629)
(3.32652 0.120865 8.07751)
(4.74577 0.389369 8.21611)
(4.15365 -0.263004 2.98291)
(1.34567 0.511595 -9.31538)
(-3.58506 1.76848 -15.0722)
(-6.51594 1.13334 -12.061)
(-5.09633 0.661437 -0.390388)
(-4.41712 0.399951 10.2757)
(-1.1567 -0.0233184 14.9245)
(-12.4276 0.119817 21.1295)
(21.4573 -0.176261 18.0137)
(4.82368 -0.2558 17.4028)
(8.2186 -0.208906 11.7741)
(4.4514 -0.0589519 11.1792)
(4.6915 0.07845 9.1037)
(3.34629 0.0787486 8.1765)
(4.79156 0.425505 7.90533)
(4.12765 -0.291843 2.69184)
(1.06508 0.510159 -9.39313)
(-3.52524 1.75411 -15.0259)
(-6.20082 1.42286 -12.2987)
(-5.40523 0.956797 -0.617728)
(-4.50746 0.515371 10.1104)
(-1.34335 0.176924 15.2328)
(-12.6868 0.12882 20.5511)
(21.3763 -0.182462 18.0358)
(4.6404 -0.290067 17.4471)
(8.16104 -0.24158 11.9543)
(4.45954 -0.0626516 11.358)
(4.71193 0.0782625 9.21981)
(3.35578 0.0625238 8.29662)
(4.7864 0.435607 7.67049)
(3.93819 -0.333131 2.51459)
(0.863477 0.568703 -9.39947)
(-3.49125 1.71947 -14.9546)
(-6.2808 1.85918 -12.2084)
(-5.73562 1.20365 -1.11057)
(-4.73398 0.335664 9.45913)
(-1.41775 0.367792 15.3642)
(-12.6696 0.111112 20.7222)
(21.3213 -0.154574 17.9989)
(4.49664 -0.281551 17.5241)
(8.10774 -0.237849 12.1707)
(4.4532 -0.0474391 11.545)
(4.7163 0.0722975 9.32708)
(3.35886 0.040839 8.40594)
(4.75844 0.421262 7.41855)
(3.67332 -0.358029 2.25012)
(0.473451 0.548392 -9.52862)
(-3.60147 1.88732 -14.8645)
(-7.035 2.2779 -11.3651)
(-6.36187 0.805503 -0.971648)
(-4.9169 0.158054 8.73745)
(-1.41628 0.456962 15.2787)
(-12.72 0.103487 20.79)
(21.2979 -0.103778 17.8821)
(4.40083 -0.249777 17.6075)
(8.05535 -0.231693 12.4239)
(4.44158 -0.0402845 11.7535)
(4.72042 0.0652111 9.42769)
(3.36266 0.0348228 8.52021)
(4.73819 0.376569 7.15475)
(3.48613 -0.351204 2.00249)
(0.129237 0.487994 -9.48294)
(-2.9442 2.21778 -14.6721)
(-5.8265 3.22522 -12.7376)
(-6.42329 -0.224593 -4.96019)
(-5.41966 -0.752706 7.4028)
(-1.46489 0.576199 15.3617)
(-12.7779 0.0523137 20.8274)
(21.3411 -0.030774 17.6512)
(4.44109 -0.141972 17.6569)
(8.02055 -0.148937 12.676)
(4.40716 -0.0248514 11.9784)
(4.70584 0.0410463 9.52785)
(3.34537 0.0300107 8.63109)
(4.74527 0.255236 6.911)
(3.44941 -0.21017 1.73926)
(-0.313003 0.175763 -9.57025)
(-2.53623 1.45237 -14.3489)
(-3.47386 3.05839 -14.0326)
(-1.47822 0.264131 -11.2805)
(-6.77776 -1.00303 5.63402)
(-1.15651 0.428494 15.4306)
(-12.9393 0.0193507 20.7245)
(21.3817 0.0213391 17.5364)
(4.51083 0.024173 17.6425)
(8.02338 0.025051 12.7408)
(4.39768 0.00946814 12.0512)
(4.6991 0.00691973 9.56354)
(3.33306 0.00923542 8.68214)
(4.78242 -0.00441251 6.77591)
(3.47401 0.0341997 1.6266)
(-0.595014 0.0426561 -9.67233)
(-3.10028 0.0672777 -14.163)
(-2.93467 0.421751 -14.0545)
(0.320508 0.176726 -12.5161)
(-7.20057 -0.186527 5.00906)
(-1.16494 0.0885997 15.532)
(-13.1214 0.00719706 20.3745)
(21.3369 0.0665265 17.7163)
(4.42602 0.178629 17.6435)
(8.02526 0.1842 12.6304)
(4.40884 0.0431773 11.9459)
(4.70351 -0.0247065 9.51732)
(3.34408 -0.00925341 8.61221)
(4.73092 -0.25119 6.92435)
(3.44485 0.262985 1.75541)
(-0.289759 -0.0724095 -9.48367)
(-2.40703 -1.31947 -14.2355)
(-3.27874 -2.54258 -13.9663)
(-0.309161 -0.134626 -12.1265)
(-7.12394 0.771886 5.31511)
(-1.05256 -0.333334 15.3913)
(-12.9561 0.00253386 20.7779)
(21.3068 0.12871 17.928)
(4.40661 0.273477 17.5871)
(8.06255 0.252975 12.3788)
(4.44095 0.0594386 11.7216)
(4.71709 -0.0465719 9.41401)
(3.35719 -0.0128818 8.49258)
(4.72569 -0.354776 7.19163)
(3.50658 0.403357 2.04852)
(0.198991 -0.435211 -9.36967)
(-2.63105 -2.28144 -14.5681)
(-5.54295 -3.45562 -12.8344)
(-5.58242 0.204899 -6.39195)
(-5.70199 0.941665 7.39888)
(-1.36753 -0.578116 15.317)
(-12.7987 -0.0184075 20.8877)
(21.3382 0.172675 18.0358)
(4.51166 0.298643 17.5056)
(8.11557 0.25558 12.1274)
(4.45121 0.0669879 11.511)
(4.71267 -0.0533497 9.30817)
(3.3501 -0.0195311 8.37504)
(4.74978 -0.386754 7.45124)
(3.70438 0.410154 2.29798)
(0.506503 -0.52521 -9.48785)
(-3.55329 -1.95403 -14.8645)
(-7.29018 -2.51075 -10.9963)
(-6.54028 -0.706553 -0.493185)
(-4.99133 0.0957474 8.86249)
(-1.41085 -0.469942 15.2905)
(-12.7534 -0.0732622 20.8147)
(21.3999 0.19549 18.062)
(4.6628 0.300279 17.431)
(8.17117 0.25461 11.9126)
(4.45927 0.0815548 11.3212)
(4.70935 -0.0586925 9.19493)
(3.34802 -0.0405915 8.26045)
(4.77865 -0.392913 7.6939)
(3.98638 0.379779 2.57115)
(0.948547 -0.522873 -9.33038)
(-3.37684 -1.63326 -14.989)
(-6.32436 -1.99914 -12.1339)
(-5.86358 -1.35954 -0.83324)
(-4.79764 -0.238816 9.51575)
(-1.41009 -0.37514 15.3878)
(-12.707 -0.0874301 20.7445)
(21.4856 0.185075 18.0321)
(4.85141 0.262368 17.3909)
(8.23087 0.219321 11.736)
(4.45226 0.0754031 11.1414)
(4.68928 -0.0612788 9.07469)
(3.33983 -0.0590852 8.13916)
(4.78814 -0.385112 7.91117)
(4.18326 0.333702 2.74243)
(1.15368 -0.483018 -9.3171)
(-3.40784 -1.71987 -15.0377)
(-6.12853 -1.50921 -12.3277)
(-5.49526 -1.02592 -0.484582)
(-4.56748 -0.430198 10.1713)
(-1.3587 -0.188514 15.2756)
(-12.7288 -0.108851 20.569)
(21.5612 0.179602 17.9579)
(5.03844 0.264327 17.3193)
(8.31338 0.233109 11.557)
(4.4943 0.0894248 10.9614)
(4.69119 -0.0841282 8.96287)
(3.32398 -0.101891 8.03723)
(4.7474 -0.35086 8.20677)
(4.2193 0.304567 3.023)
(1.44425 -0.479723 -9.23794)
(-3.47968 -1.71995 -15.0869)
(-6.48967 -1.19451 -12.1015)
(-5.15753 -0.850029 -0.346477)
(-4.45856 -0.371668 10.3285)
(-1.17134 0.00695797 14.9741)
(-12.4729 -0.107149 21.1389)
(21.6625 0.0982045 17.8453)
(5.33 0.156842 17.2555)
(8.45291 0.1518 11.3203)
(4.57514 0.0657476 10.6527)
(4.69701 -0.0561602 8.76475)
(3.26776 -0.0703163 7.96814)
(4.69997 -0.19162 8.3796)
(4.35908 0.136542 3.23838)
(1.93892 -0.31987 -9.13195)
(-3.17079 -1.22066 -14.9592)
(-6.34082 -0.700995 -12.1255)
(-4.94126 -0.418734 -1.09341)
(-4.4781 -0.174793 9.72366)
(-1.06044 0.03984 14.6137)
(-12.3317 -0.0483655 21.4915)
(26.6711 -0.100822 12.5639)
(14.9403 -0.251839 18.7404)
(16.3566 -0.2522 15.0323)
(13.7951 -0.209723 13.2689)
(11.3058 -0.05966 10.6428)
(9.01784 0.0329705 8.40395)
(8.48708 0.17023 6.59221)
(8.78331 0.144932 0.539547)
(8.00843 0.413856 -7.33897)
(2.66957 0.894983 -10.086)
(-3.0885 0.671218 -8.13502)
(-4.20154 -0.238816 -1.08229)
(-5.74989 0.124041 9.74156)
(-1.00714 -0.0934082 15.8055)
(-18.1273 0.0814563 20.5276)
(26.6931 -0.179539 12.7316)
(14.6401 -0.396467 18.8848)
(16.078 -0.365456 15.1441)
(13.4515 -0.283713 13.4227)
(10.9716 -0.0547014 10.7599)
(8.71444 0.0620159 8.47643)
(8.19938 0.324663 6.55999)
(8.24272 0.253319 0.469753)
(7.39423 0.659884 -7.31202)
(2.26521 1.342 -10.1969)
(-3.14842 1.08272 -8.48131)
(-4.24354 0.0768003 -1.03298)
(-5.6984 0.271364 10.2162)
(-1.27253 -0.0867381 16.0403)
(-18.2413 0.175405 20.1223)
(26.7085 -0.188147 12.8404)
(14.468 -0.35763 18.9965)
(15.9048 -0.325967 15.2497)
(13.2347 -0.235822 13.5356)
(10.7641 -0.0355376 10.8347)
(8.5193 0.0300696 8.54788)
(8.04214 0.334809 6.48024)
(7.9586 0.250868 0.333286)
(7.04857 0.634914 -7.34296)
(2.09879 1.24238 -10.2308)
(-2.74465 1.20035 -8.80166)
(-4.2654 0.973706 -1.25696)
(-5.81413 0.503345 10.2696)
(-1.7266 0.123343 16.2415)
(-18.4649 0.155156 19.4908)
(26.7061 -0.209713 12.9426)
(14.2446 -0.371048 19.0807)
(15.7134 -0.363119 15.3267)
(13.0534 -0.253577 13.628)
(10.6123 -0.0362167 10.9019)
(8.37355 0.0183886 8.6233)
(7.88348 0.335563 6.44568)
(7.64516 0.256216 0.329309)
(6.73795 0.706835 -7.3039)
(1.90754 1.2013 -10.3073)
(-3.06425 1.46766 -8.66848)
(-5.47433 1.55731 -0.0578624)
(-6.01572 0.423449 10.0358)
(-1.77782 0.318447 16.3811)
(-18.4282 0.0989662 19.6154)
(26.7051 -0.193305 12.9881)
(14.0553 -0.306832 19.149)
(15.5324 -0.33 15.4254)
(12.8641 -0.218376 13.7475)
(10.4343 -0.0211546 10.9843)
(8.20839 0.00499276 8.69694)
(7.69756 0.301867 6.39815)
(7.27087 0.214577 0.263686)
(6.31081 0.664758 -7.27779)
(1.71892 1.30279 -10.3366)
(-3.94237 2.13038 -8.12018)
(-6.6717 0.797728 0.836491)
(-6.15104 -0.176964 9.66375)
(-1.76857 0.460702 16.3294)
(-18.4589 0.0744581 19.6784)
(26.6959 -0.155572 12.9707)
(13.87 -0.228299 19.1718)
(15.3481 -0.297725 15.5113)
(12.6739 -0.197437 13.8726)
(10.2623 -0.0223062 11.0654)
(8.05425 -0.00165945 8.76592)
(7.53101 0.245344 6.34522)
(6.93643 0.151359 0.199017)
(5.93255 0.565211 -7.23754)
(1.96072 1.36398 -10.3062)
(-2.60437 3.18918 -8.94779)
(-5.51631 -0.179457 -2.64455)
(-6.99968 -1.36707 8.5752)
(-1.66894 0.587414 16.4353)
(-18.5126 -0.00528333 19.723)
(26.6676 -0.0642175 12.843)
(13.7909 -0.0981892 19.1024)
(15.2385 -0.173512 15.5695)
(12.5177 -0.120154 14.0069)
(10.0953 -0.0164102 11.1629)
(7.88288 -0.00216613 8.84221)
(7.35902 0.152819 6.30916)
(6.63131 0.0766015 0.0929083)
(5.44348 0.27501 -7.27046)
(2.00259 0.751964 -10.3839)
(-1.13362 2.65127 -9.66154)
(0.97099 0.414644 -8.34354)
(-8.16339 -1.27909 7.0023)
(-1.19074 0.383291 16.4665)
(-18.6784 -0.00812663 19.6465)
(26.6563 0.0400326 12.7715)
(13.8251 0.0208067 19.0372)
(15.2491 0.0272669 15.5647)
(12.5023 0.0195138 14.0412)
(10.0643 0.0130582 11.1958)
(7.84237 0.0157842 8.8738)
(7.32255 0.00766056 6.29214)
(6.52093 0.0175906 0.0621081)
(5.20264 0.033979 -7.28491)
(1.56335 0.0145929 -10.4586)
(-1.11085 0.243942 -9.88649)
(2.37051 0.0161916 -9.17614)
(-8.33619 -0.140126 6.62174)
(-1.28425 0.0805148 16.5123)
(-18.835 0.0269684 19.2958)
(26.6904 0.117617 12.8908)
(13.8227 0.138715 19.1216)
(15.2729 0.217603 15.5619)
(12.5494 0.153496 13.9882)
(10.1204 0.0416301 11.1537)
(7.90894 0.0327484 8.83261)
(7.37205 -0.135188 6.31156)
(6.64533 -0.0474766 0.121445)
(5.47847 -0.207197 -7.22845)
(2.13327 -0.70766 -10.3913)
(-0.937038 -2.17706 -9.82575)
(1.95452 -0.243457 -8.99267)
(-8.3447 0.969608 6.68549)
(-1.01982 -0.259273 16.4256)
(-18.7078 0.06243 19.7487)
(26.7124 0.180207 12.9959)
(13.9043 0.26614 19.1727)
(15.3871 0.330849 15.4971)
(12.7091 0.227314 13.8536)
(10.2913 0.0486571 11.0569)
(8.08246 0.0315089 8.75333)
(7.54408 -0.220923 6.35525)
(6.97367 -0.12468 0.23685)
(5.98121 -0.541786 -7.19478)
(2.24077 -1.39181 -10.3256)
(-2.34912 -3.31836 -9.18634)
(-3.99023 0.13944 -4.4651)
(-7.3365 1.55565 8.34707)
(-1.47144 -0.56269 16.3961)
(-18.5588 0.0686976 19.8434)
(26.7222 0.211 13.0028)
(14.0897 0.337584 19.1445)
(15.5711 0.356266 15.4088)
(12.9004 0.246207 13.7275)
(10.4664 0.0475011 10.9742)
(8.23849 0.0234506 8.68221)
(7.71273 -0.27168 6.40892)
(7.307 -0.18518 0.296376)
(6.33927 -0.663181 -7.25274)
(1.76566 -1.32395 -10.345)
(-4.27478 -2.24564 -7.92509)
(-6.91667 -0.336402 1.17601)
(-6.25242 0.585512 9.78206)
(-1.77144 -0.480489 16.3413)
(-18.5027 -0.0281814 19.735)
(26.7243 0.220983 12.9462)
(14.2831 0.393926 19.0714)
(15.754 0.382507 15.31)
(13.0934 0.27813 13.6082)
(10.6488 0.0622448 10.8905)
(8.40651 0.0101976 8.60618)
(7.90174 -0.298069 6.45311)
(7.68696 -0.220257 0.364538)
(6.78725 -0.691524 -7.28153)
(1.97465 -1.1199 -10.3313)
(-3.20166 -1.48955 -8.62615)
(-5.69689 -1.61628 0.218579)
(-6.05283 -0.297472 10.1732)
(-1.74964 -0.323783 16.3848)
(-18.4757 -0.0665702 19.6617)
(26.7283 0.195584 12.8365)
(14.5097 0.374357 18.9855)
(15.9469 0.340676 15.2346)
(13.2774 0.256451 13.5174)
(10.8034 0.0581587 10.8231)
(8.55283 -0.00537494 8.53151)
(8.06532 -0.298119 6.48238)
(8.00349 -0.215635 0.364817)
(7.10766 -0.619922 -7.31673)
(2.15294 -1.18304 -10.2285)
(-2.70419 -1.17766 -8.80287)
(-4.55573 -1.01155 -0.837586)
(-5.86411 -0.408278 10.3801)
(-1.75434 -0.133549 16.2806)
(-18.5163 -0.124255 19.5256)
(26.7135 0.184151 12.7222)
(14.6836 0.408129 18.8724)
(16.1211 0.376832 15.1296)
(13.4972 0.302136 13.4046)
(11.0147 0.0771538 10.7469)
(8.75126 -0.0376349 8.45923)
(8.22897 -0.287992 6.5558)
(8.29562 -0.218208 0.497372)
(7.4602 -0.635121 -7.27954)
(2.33287 -1.28452 -10.1831)
(-3.12498 -0.982289 -8.49438)
(-4.35959 -0.241205 -0.859339)
(-5.72838 -0.280848 10.2904)
(-1.28988 0.0698588 16.0839)
(-18.2979 -0.15933 20.1493)
(26.6927 0.102776 12.5509)
(14.9838 0.257151 18.7291)
(16.399 0.258385 15.0216)
(13.8417 0.220668 13.2541)
(11.3499 0.0739692 10.6313)
(9.05886 -0.0176048 8.3882)
(8.52093 -0.147119 6.58383)
(8.83001 -0.120322 0.568582)
(8.07729 -0.394347 -7.29707)
(2.75406 -0.853535 -10.0611)
(-3.03799 -0.589456 -8.18476)
(-4.17615 0.207704 -1.16762)
(-5.77339 -0.126695 9.78858)
(-1.0095 0.0834558 15.8592)
(-18.1847 -0.0735764 20.553)
(27.2016 -0.0337127 6.00281)
(18.7766 -0.246299 15.5539)
(21.1414 -0.297091 15.7607)
(22.338 -0.321675 15.4582)
(20.7655 -0.251427 13.336)
(19.127 -0.145538 10.5168)
(17.8808 -0.00442856 7.31692)
(17.1525 0.129488 2.51589)
(13.8674 0.316861 -2.77031)
(8.17695 0.638533 -5.31576)
(1.85312 0.777753 -4.63931)
(-0.91432 -0.300774 -1.78066)
(-6.94449 -0.142101 11.7732)
(-0.484296 -0.101871 17.6657)
(-22.397 0.0853478 19.125)
(27.237 -0.0619646 6.08748)
(18.6714 -0.379378 15.7499)
(20.9886 -0.419023 15.9419)
(22.0622 -0.433442 15.6375)
(20.373 -0.306204 13.4813)
(18.6435 -0.147108 10.634)
(17.3468 0.0858264 7.39362)
(16.5525 0.294151 2.58009)
(13.3643 0.579845 -2.73662)
(7.92416 1.01382 -5.40169)
(1.9636 0.990895 -4.95048)
(0.0736673 -0.164029 -3.21327)
(-6.92749 -0.0676258 12.0382)
(-0.789782 -0.0958932 17.7459)
(-22.4251 0.195057 18.6875)
(27.2624 -0.0702351 6.1426)
(18.6495 -0.336281 15.868)
(20.9204 -0.364548 16.0659)
(21.8986 -0.369321 15.7656)
(20.1315 -0.246206 13.5865)
(18.3433 -0.117467 10.7226)
(17.0281 0.0983856 7.44271)
(16.1951 0.275868 2.61331)
(13.0469 0.543025 -2.72289)
(7.71238 0.897432 -5.43656)
(2.19773 0.576596 -5.20225)
(-0.0640161 -0.196231 -3.24727)
(-7.02374 0.631623 12.1767)
(-1.50513 0.0540344 17.8159)
(-22.5079 0.13845 18.0071)
(27.286 -0.0851893 6.2159)
(18.563 -0.339193 16.0044)
(20.7973 -0.386107 16.1925)
(21.7098 -0.390343 15.8857)
(19.8942 -0.254808 13.6802)
(18.0691 -0.120246 10.8044)
(16.7255 0.102573 7.50372)
(15.8488 0.287952 2.681)
(12.7532 0.610725 -2.68881)
(7.44965 0.910832 -5.50466)
(1.57653 0.687549 -5.34696)
(-3.89503 0.234497 0.761809)
(-6.97084 0.781078 12.2585)
(-1.49513 0.186839 17.9234)
(-22.4692 0.0609627 18.116)
(27.3081 -0.0855546 6.26916)
(18.4991 -0.259205 16.0977)
(20.6845 -0.313018 16.2979)
(21.5215 -0.321412 16.0052)
(19.6388 -0.200858 13.7826)
(17.7668 -0.0919933 10.8894)
(16.3858 0.0929416 7.55602)
(15.4574 0.245098 2.72427)
(12.3854 0.589546 -2.67104)
(7.27717 1.02248 -5.5715)
(0.766737 1.6207 -5.14857)
(-5.52148 0.115337 2.51232)
(-6.98628 -0.42531 12.0804)
(-1.54471 0.356912 17.9202)
(-22.4714 0.0344443 18.1935)
(27.3239 -0.0849036 6.30685)
(18.3899 -0.176656 16.1557)
(20.5283 -0.245803 16.3696)
(21.3022 -0.267715 16.1016)
(19.3577 -0.171202 13.866)
(17.4447 -0.0827101 10.9527)
(16.0324 0.0615985 7.58587)
(15.0507 0.180421 2.74422)
(12.0328 0.524995 -2.65617)
(7.36324 1.09538 -5.58531)
(1.78494 2.92159 -5.41886)
(-3.39331 -0.230969 -1.42555)
(-7.89884 -1.73101 10.9396)
(-1.19895 0.434346 18.0123)
(-22.5462 -0.0919457 18.2952)
(27.3066 -0.0396331 6.30875)
(18.2602 -0.0612956 16.1326)
(20.3796 -0.113649 16.3734)
(21.1053 -0.139158 16.16)
(19.089 -0.0917734 13.9348)
(17.1157 -0.0460867 11.0059)
(15.6584 0.0298028 7.60452)
(14.6066 0.0850205 2.72669)
(11.5574 0.280872 -2.68752)
(7.37177 0.627951 -5.63579)
(2.71212 2.3888 -5.38602)
(3.76578 0.611202 -5.43752)
(-8.51809 -1.46225 9.48363)
(-0.539252 0.242987 17.9805)
(-22.6777 -0.053078 18.2259)
(27.2997 0.0442091 6.30314)
(18.2397 0.0188487 16.0897)
(20.362 0.0190199 16.3396)
(21.0773 0.0204974 16.1517)
(19.0382 0.0177346 13.9412)
(17.0447 0.0166387 11.014)
(15.5694 0.0141518 7.60763)
(14.4744 0.012421 2.72357)
(11.3746 0.0301457 -2.69545)
(7.12198 0.0232424 -5.66676)
(2.46603 0.280576 -5.3108)
(5.05404 0.0698237 -5.95348)
(-8.49058 -0.160601 9.21835)
(-0.700417 0.0523856 17.9554)
(-22.7586 0.0768445 17.8562)
(27.3323 0.0865599 6.31771)
(18.3296 0.0990246 16.1376)
(20.4484 0.155617 16.3738)
(21.1676 0.180843 16.1526)
(19.1515 0.12706 13.9294)
(17.1846 0.0786971 11.0042)
(15.7214 -0.0022992 7.61304)
(14.6775 -0.0626411 2.74986)
(11.6378 -0.219951 -2.64745)
(7.5134 -0.559369 -5.60154)
(2.82438 -1.91905 -5.30273)
(4.77513 -0.257919 -5.82997)
(-8.57255 1.12731 9.17131)
(-0.31556 -0.122663 17.9429)
(-22.7405 0.182864 18.3874)
(27.3356 0.0954092 6.30975)
(18.4206 0.215733 16.152)
(20.573 0.28793 16.3604)
(21.3524 0.307974 16.0884)
(19.4139 0.206552 13.857)
(17.5101 0.115861 10.9475)
(16.09 -0.0333313 7.59287)
(15.125 -0.160107 2.76429)
(12.1107 -0.498062 -2.61781)
(7.61864 -1.09964 -5.53971)
(2.03944 -3.0532 -5.31389)
(-1.33795 -0.0170503 -2.9385)
(-8.18845 1.98842 10.5606)
(-0.929478 -0.374241 17.9953)
(-22.6312 0.204282 18.4939)
(27.3193 0.0962687 6.26621)
(18.5178 0.293787 16.089)
(20.7188 0.346391 16.2841)
(21.5662 0.355109 15.9884)
(19.6926 0.232942 13.7707)
(17.8316 0.123383 10.8814)
(16.4426 -0.0647036 7.56171)
(15.5251 -0.2238 2.74196)
(12.431 -0.58263 -2.63964)
(7.34115 -1.04984 -5.55077)
(0.495218 -1.88315 -4.98607)
(-5.94076 0.36738 3.06418)
(-7.10361 1.00005 12.174)
(-1.59768 -0.361065 17.9477)
(-22.5246 0.0235237 18.3061)
(27.2976 0.0911872 6.209)
(18.5816 0.366456 15.9893)
(20.8299 0.412945 16.1745)
(21.7546 0.41915 15.8671)
(19.9493 0.284478 13.6677)
(18.136 0.151107 10.7956)
(16.7847 -0.0712952 7.50941)
(15.9171 -0.25993 2.7009)
(12.8041 -0.589996 -2.65344)
(7.49629 -0.845241 -5.48905)
(1.33967 -0.695535 -5.25042)
(-4.45427 -0.475188 1.69906)
(-6.9353 -0.634114 12.481)
(-1.45957 -0.176461 17.9199)
(-22.5291 -0.0350043 18.2159)
(27.2755 0.0747407 6.13274)
(18.669 0.357512 15.8491)
(20.9517 0.384878 16.0462)
(21.9436 0.392058 15.7465)
(20.1876 0.270858 13.574)
(18.4111 0.143836 10.7144)
(17.0905 -0.0696108 7.44845)
(16.2635 -0.248591 2.6359)
(13.1067 -0.519405 -2.67941)
(7.73714 -0.829425 -5.3945)
(2.20414 -0.481025 -5.20815)
(-0.705091 0.266171 -2.62575)
(-7.04639 -0.625354 12.3438)
(-1.51945 -0.0457701 17.8503)
(-22.5741 -0.105126 18.0808)
(27.2509 0.0647165 6.07587)
(18.6907 0.395138 15.7286)
(21.0182 0.434914 15.9209)
(22.107 0.452602 15.6178)
(20.4298 0.328916 13.4684)
(18.7122 0.173095 10.6257)
(17.4122 -0.0562001 7.39881)
(16.6237 -0.266292 2.60409)
(13.4286 -0.548301 -2.68604)
(7.97258 -0.950546 -5.34889)
(1.99393 -0.779583 -4.93434)
(0.0302915 0.116408 -3.22733)
(-6.94468 -0.0259325 12.1362)
(-0.786812 0.0938659 17.7877)
(-22.4966 -0.185393 18.7511)
(27.2171 0.0349383 5.99003)
(18.7968 0.2541 15.5322)
(21.1694 0.305888 15.7409)
(22.381 0.333081 15.4404)
(20.8202 0.265979 13.3248)
(19.1937 0.162888 10.5101)
(17.9488 0.024505 7.32091)
(17.2229 -0.109497 2.5424)
(13.938 -0.294382 -2.71183)
(8.25408 -0.593582 -5.25466)
(1.90757 -0.655663 -4.6101)
(-0.723377 0.295624 -1.99674)
(-6.96451 0.105839 11.8268)
(-0.439646 0.101083 17.7144)
(-22.477 -0.0809296 19.1895)
(28.8223 -0.00568838 4.13809)
(18.0953 -0.152489 11.5991)
(20.1842 -0.238747 13.4273)
(24.1617 -0.306342 14.5408)
(24.5262 -0.312502 13.7226)
(24.2966 -0.252766 11.5135)
(23.2752 -0.136987 8.54783)
(21.3432 0.00799787 4.69887)
(17.3018 0.153026 1.46008)
(12.0073 0.382191 0.125275)
(5.30388 0.52501 1.42018)
(1.69641 -0.203822 2.7215)
(-7.89406 -0.31619 15.758)
(-0.019269 -0.0792554 19.8174)
(-25.8259 0.0707733 18.475)
(28.8113 -0.0102129 4.14396)
(18.0743 -0.227573 11.7315)
(20.1755 -0.330811 13.6101)
(24.1068 -0.408446 14.7578)
(24.3983 -0.38852 13.9364)
(24.0983 -0.278685 11.7104)
(23.0337 -0.0903521 8.71172)
(21.1136 0.131241 4.81702)
(17.1795 0.339506 1.51132)
(12.0355 0.619293 0.0663708)
(5.67156 0.57618 1.16304)
(2.79429 -0.351317 1.96461)
(-7.85175 -0.33642 15.875)
(-0.154386 -0.0550297 19.7521)
(-25.8273 0.183639 18.1046)
(28.8022 -0.013422 4.14921)
(18.1142 -0.201404 11.7968)
(20.2163 -0.285914 13.702)
(24.1019 -0.351465 14.8787)
(24.3383 -0.323501 14.0635)
(23.9873 -0.22112 11.8319)
(22.8913 -0.0517759 8.81252)
(20.9744 0.139983 4.88909)
(17.0894 0.327479 1.54032)
(11.956 0.499691 0.0329108)
(5.86863 0.18135 0.979678)
(2.32357 -0.808095 2.28994)
(-7.904 0.272278 15.983)
(-1.07639 0.0228989 19.6845)
(-25.7276 0.108196 17.4695)
(28.7956 -0.0172451 4.16021)
(18.1036 -0.20503 11.8979)
(20.2089 -0.297313 13.8388)
(24.0593 -0.366821 15.0405)
(24.2535 -0.333393 14.2209)
(23.8685 -0.220944 11.9763)
(22.753 -0.03759 8.93348)
(20.8516 0.168036 4.98356)
(17.0126 0.39835 1.58159)
(11.8677 0.519427 -0.0104584)
(5.4378 0.228773 0.866027)
(-0.979187 -0.550502 4.18122)
(-7.77275 0.429386 16.0337)
(-1.02716 0.0608591 19.7684)
(-25.666 0.0414106 17.5675)
(28.792 -0.0189325 4.17223)
(18.1205 -0.154673 11.9616)
(20.2172 -0.225822 13.9304)
(24.0232 -0.286788 15.1642)
(24.1619 -0.256593 14.3539)
(23.7283 -0.159759 12.1044)
(22.5798 -0.00470127 9.03917)
(20.6888 0.170864 5.06135)
(16.8787 0.417127 1.61344)
(11.8122 0.607986 -0.0631026)
(4.9261 1.14645 0.823907)
(-3.15803 -0.136259 5.60626)
(-7.81462 -0.743528 15.9308)
(-1.19167 0.17246 19.8545)
(-25.6832 -0.0236177 17.6479)
(28.7914 -0.0172482 4.18832)
(18.0864 -0.112458 12.0171)
(20.1692 -0.167567 14.0102)
(23.938 -0.224124 15.2758)
(24.0203 -0.205179 14.4757)
(23.5379 -0.128445 12.2191)
(22.3586 -0.00346321 9.12965)
(20.4804 0.145742 5.12683)
(16.7443 0.401324 1.64771)
(11.968 0.668468 -0.121015)
(5.67032 2.20141 0.825237)
(0.203278 0.309704 2.53931)
(-8.47737 -1.84484 14.7423)
(-0.351326 0.17684 19.9502)
(-25.8843 -0.258026 17.8467)
(28.8052 0.00496399 4.21252)
(18.0239 -0.0421818 12.039)
(20.0839 -0.0669128 14.0359)
(23.8248 -0.0996094 15.3332)
(23.8501 -0.0938042 14.5554)
(23.3094 -0.0559222 12.3)
(22.0834 0.00708448 9.18905)
(20.1917 0.0867071 5.15803)
(16.4865 0.241101 1.65685)
(12.055 0.387718 -0.195782)
(6.12993 1.65217 0.781121)
(6.27378 0.67799 -0.103659)
(-8.41542 -1.43997 13.284)
(0.624656 0.0535548 19.8573)
(-25.9438 -0.167159 17.7693)
(28.8197 0.0330208 4.21973)
(18.0153 0.0214733 12.0319)
(20.0656 0.0170036 14.0212)
(23.7976 0.018998 15.3256)
(23.8072 0.0191 14.558)
(23.2504 0.0179995 12.307)
(22.0099 0.0170542 9.19461)
(20.1018 0.0149208 5.16199)
(16.3954 0.0322886 1.66125)
(11.9629 0.0237041 -0.211119)
(5.98587 0.186924 0.72314)
(7.12139 0.0672488 -0.337044)
(-8.05148 -0.133608 12.9374)
(0.460921 -0.00251306 19.7395)
(-25.9032 0.13416 17.3933)
(28.8145 0.0361544 4.20356)
(18.0844 0.0759861 12.0303)
(20.1499 0.10386 14.026)
(23.8829 0.141911 15.3187)
(23.909 0.135166 14.5409)
(23.3738 0.0943328 12.2895)
(22.15 0.0297299 9.18954)
(20.2626 -0.0530525 5.17355)
(16.5559 -0.17274 1.68536)
(12.1635 -0.319333 -0.171636)
(6.18996 -1.28074 0.796988)
(7.01152 -0.276066 -0.286491)
(-8.17128 1.13444 12.7912)
(1.14687 0.0360996 19.7976)
(-26.1126 0.395324 18.0106)