/*--------------------------------*- C++ -*----------------------------------*\
| =========                 |                                                 |
| \\      /  F ield         | OpenFOAM: The Open Source CFD Toolbox           |
|  \\    /   O peration     | Version:  4.1                                   |
|   \\  /    A nd           | Web:      www.OpenFOAM.org                      |
|    \\/     M anipulation  |                                                 |
\*---------------------------------------------------------------------------*/
FoamFile
{
    version     2.0;
    format      ascii;
    class       volScalarField;
    location    "15";
    object      p;
}
// * * * * * * * * * * * * * * * * * * * * * * * * * * * * * * * * * * * * * //

dimensions      [0 2 -2 0 0 0 0];

internalField   nonuniform List<scalar> 
6750
(
-339.228
-164.168
-274.329
-252.427
-294.866
-311.202
-321.002
-376.623
-355.462
-367.052
-372.492
-333.828
-334.111
-206.539
-326.529
-338.749
-161.602
-273.151
-252.423
-294.999
-311.571
-319.384
-375.486
-352.872
-366.946
-374.291
-336.13
-335.846
-205.292
-327.478
-338.279
-159.607
-272.43
-252.52
-295.017
-311.822
-318.543
-374.612
-350.878
-365.093
-373.027
-338.059
-339.027
-205.123
-328.79
-337.662
-156.939
-271.426
-252.573
-295.007
-312.037
-317.272
-373.195
-348.106
-362.789
-371.185
-341.688
-344.342
-207.328
-330.338
-337.114
-154.396
-270.647
-252.73
-294.969
-312.228
-315.81
-372.153
-345.776
-360.728
-367.788
-344.102
-349.238
-210.187
-332.026
-336.661
-151.947
-269.924
-252.891
-294.93
-312.346
-314.62
-370.397
-342.85
-356.925
-364.824
-344.894
-354.335
-212.555
-333.575
-336.437
-150.117
-269.434
-253.059
-294.966
-312.484
-314.457
-368.905
-341.413
-351.517
-358.273
-346.419
-360.384
-214.105
-334.746
-336.443
-149.603
-269.273
-253.066
-294.879
-312.449
-312.993
-368.201
-340.015
-347.135
-352.343
-348.229
-359.711
-214.62
-335.263
-336.652
-150.492
-269.526
-253.016
-294.932
-312.375
-314.17
-368.516
-340.978
-350.235
-356.695
-346.893
-359.748
-214.534
-334.958
-337.04
-152.513
-270.094
-252.845
-294.91
-312.14
-314.557
-369.669
-342.27
-355.423
-364.256
-345.735
-355.037
-212.077
-334.114
-337.62
-155.102
-270.889
-252.698
-294.937
-311.955
-315.424
-371.453
-345.099
-360.339
-367.71
-344.858
-348.668
-210.239
-332.676
-338.261
-157.716
-271.734
-252.565
-295.012
-311.73
-317.233
-372.324
-347.469
-361.847
-370.781
-342.928
-344.598
-207.342
-331.26
-338.948
-160.425
-272.796
-252.545
-295.04
-311.494
-318.527
-373.565
-350.106
-364.163
-372.954
-339.255
-339.174
-205.157
-329.862
-339.462
-162.438
-273.56
-252.473
-295.048
-311.237
-319.505
-374.327
-352.167
-365.983
-374.37
-336.751
-336.205
-205.247
-328.694
-339.98
-165.004
-274.781
-252.516
-294.938
-310.871
-321.139
-375.314
-354.726
-366.153
-372.887
-334.09
-334.526
-206.423
-327.84
-490.635
-108.925
-274.563
-264.61
-303.535
-318.751
-340.471
-379.952
-344.475
-306.862
-269.921
-255.316
-279.619
-126.242
-422.402
-488.906
-107.289
-273.66
-264.127
-303.528
-318.904
-340.48
-377.795
-341.511
-306.505
-272.954
-256.191
-281.01
-124.812
-423.861
-487.53
-106.514
-273.367
-263.943
-303.452
-318.874
-340.365
-375.512
-339.15
-305.07
-274.063
-258.46
-283.13
-123.416
-425.855
-485.808
-105.11
-272.594
-263.6
-303.318
-318.809
-339.996
-372.268
-335.932
-304.361
-279.826
-264.872
-287.48
-123.503
-427.526
-484.348
-103.905
-271.971
-263.453
-303.228
-318.722
-340.007
-369.027
-332.377
-303.547
-281.645
-268.534
-289.869
-124.002
-429.165
-483.167
-102.599
-271.151
-263.303
-303.131
-318.608
-339.928
-366.009
-328.755
-300.115
-281.509
-271.051
-291.553
-124.096
-430.639
-482.686
-101.48
-270.352
-263.276
-303.137
-318.536
-340.199
-363.728
-328.073
-300.653
-280.747
-273.845
-290.934
-124.334
-431.548
-482.815
-101.071
-270.01
-263.225
-303.077
-318.498
-340.328
-362.606
-326.993
-298.345
-276.347
-277.895
-289.172
-123.663
-432.394
-483.109
-101.631
-270.551
-263.251
-303.117
-318.455
-340.08
-363.42
-327.967
-300.532
-281.024
-274.996
-289.059
-124.702
-432.015
-483.912
-102.799
-271.384
-263.28
-303.105
-318.423
-339.526
-365.503
-328.645
-299.994
-281.21
-272.224
-290.96
-124.312
-431.737
-485.299
-104.188
-272.252
-263.45
-303.184
-318.465
-339.441
-368.227
-331.511
-303.33
-282.803
-269.764
-289.593
-124.508
-430.609
-486.907
-105.429
-272.891
-263.616
-303.279
-318.481
-339.249
-371.255
-335.42
-304.509
-281.57
-266.802
-288.14
-123.897
-429.441
-488.733
-106.864
-273.688
-263.994
-303.419
-318.515
-339.554
-374.363
-338.452
-304.875
-276.349
-260.562
-284.05
-123.785
-428.091
-490.171
-107.652
-273.992
-264.197
-303.505
-318.52
-339.647
-376.567
-340.854
-306.346
-274.124
-256.989
-281.692
-125.007
-426.332
-491.953
-109.297
-274.922
-264.722
-303.54
-318.374
-339.692
-378.659
-343.757
-306.887
-270.79
-255.345
-280.158
-126.336
-425.016
-701.034
-25.5606
-246.866
-266.664
-295.236
-312.459
-313.98
-321.963
-310.467
-272.016
-212.938
-194.9
-225.627
-18.7313
-550.488
-699.169
-23.8313
-245.992
-265.959
-295.358
-312.251
-313.919
-319.853
-309.183
-271.29
-217.128
-194.403
-222.586
-18.0461
-551.476
-697.883
-23.4793
-245.877
-265.854
-295.471
-311.901
-313.656
-318.091
-307.979
-269.749
-219.124
-196.852
-223.248
-17.0604
-553.115
-695.988
-22.6956
-245.123
-265.464
-295.466
-311.471
-313.238
-315.819
-306.108
-267.699
-226.427
-204.974
-228.489
-16.7828
-554.375
-694.338
-22.67
-244.568
-265.416
-295.544
-311.031
-312.836
-313.899
-304.159
-264.959
-227.063
-207.024
-229.52
-16.7148
-555.478
-692.792
-22.7297
-243.672
-265.282
-295.526
-310.603
-312.405
-312.409
-302.322
-261.001
-227.53
-210.053
-230.501
-16.2544
-556.783
-691.91
-22.9796
-242.783
-265.285
-295.579
-310.317
-312.136
-311.735
-301.789
-261.785
-228.751
-211.718
-225.271
-16.0505
-557.372
-692.034
-22.8475
-242.339
-265.184
-295.506
-310.159
-311.966
-311.26
-301.064
-259.685
-222.184
-210.746
-220.096
-14.7581
-558.677
-692.712
-22.4469
-242.997
-265.237
-295.56
-310.306
-312.123
-311.808
-301.804
-261.374
-228.065
-210.107
-220.566
-15.7705
-558.839
-693.938
-22.1905
-243.925
-265.227
-295.499
-310.567
-312.333
-312.565
-302.348
-261.033
-226.78
-209.968
-229.308
-16.2503
-559.602
-695.714
-22.2282
-244.863
-265.387
-295.512
-310.954
-312.697
-313.705
-303.66
-263.913
-227.007
-207.106
-229.134
-16.9433
-558.967
-697.5
-22.3701
-245.416
-265.459
-295.434
-311.353
-313.045
-315.473
-305.646
-267.206
-227.066
-205.496
-229.438
-16.9704
-558.608
-699.493
-23.2794
-246.189
-265.901
-295.46
-311.768
-313.481
-317.631
-307.437
-269.232
-220.581
-198.178
-225.292
-17.1962
-557.991
-700.833
-23.7175
-246.299
-266.031
-295.352
-312.096
-313.751
-319.363
-308.678
-271.002
-217.937
-194.152
-223.02
-18.0066
-556.666
-702.745
-25.5444
-247.202
-266.8
-295.27
-312.31
-313.891
-321.465
-309.991
-272.005
-213.662
-193.956
-225.434
-18.6476
-555.886
-845.248
-45.7787
-205.011
-291.252
-293.641
-309.527
-310.573
-309.493
-289.578
-232.786
-148.859
-111.592
-161.266
58.7075
-635.766
-844.124
-43.3473
-204.895
-290.027
-293.173
-309.27
-310.499
-308.519
-289.215
-234.226
-156.581
-114.817
-155.02
56.801
-636.381
-843.449
-42.4662
-205.381
-289.488
-293.039
-309.079
-310.448
-307.758
-288.466
-233.771
-159.026
-119.47
-157.512
55.2011
-638.046
-842.36
-41.0829
-205.261
-288.537
-292.665
-308.734
-310.307
-306.655
-287.352
-231.972
-161.453
-128.256
-164.967
53.4607
-639.576
-841.494
-40.8087
-205.353
-288.015
-292.527
-308.491
-310.203
-305.858
-286.532
-230.592
-159.216
-127.21
-165.402
52.1711
-640.411
-840.64
-40.8594
-204.978
-287.389
-292.282
-308.215
-310.127
-305.259
-286.596
-229.8
-162.185
-131.73
-166.675
51.5074
-642.137
-840.119
-41.5401
-204.643
-287.092
-292.214
-308.081
-310.137
-305.041
-287.416
-232.919
-170.045
-134.514
-159.645
51.8339
-642.86
-840.334
-41.4648
-204.359
-286.895
-292.086
-307.93
-310.038
-304.741
-287.222
-232.584
-165.809
-129.844
-150.472
53.5195
-645.339
-841
-40.5824
-204.762
-287.129
-292.229
-308.065
-310.15
-305.082
-287.631
-232.894
-171.148
-131.88
-151.603
54.1843
-647.227
-841.777
-39.9782
-205.191
-287.476
-292.328
-308.197
-310.136
-305.415
-287.1
-230.57
-165.351
-133.731
-165.555
53.566
-649.065
-842.839
-40.1156
-205.565
-288.165
-292.611
-308.45
-310.154
-305.767
-286.565
-229.76
-160.219
-127.616
-165.723
53.3606
-648.046
-843.821
-40.6121
-205.473
-288.747
-292.782
-308.68
-310.251
-306.492
-287.333
-231.325
-162.076
-127.413
-166.524
54.1452
-648.082
-845.015
-42.2259
-205.6
-289.775
-293.215
-309.039
-310.426
-307.541
-288.49
-233.13
-160.887
-120.567
-160.981
55.6675
-647.565
-845.752
-43.2587
-205.095
-290.352
-293.376
-309.229
-310.506
-308.307
-289.351
-233.973
-158.858
-114.423
-155.632
57.3669
-646.196
-846.937
-45.8739
-205.247
-291.653
-293.916
-309.516
-310.644
-309.296
-289.84
-233.028
-151.724
-110.099
-160.32
59.1354
-645.818
-984.255
-135.637
-180.71
-319.657
-298.388
-311.506
-310.517
-291.782
-253.381
-173.04
-100.5
-57.316
-126.247
88.2777
-732.717
-983.512
-133.822
-180.515
-318.974
-298.17
-311.549
-310.766
-291.951
-254.241
-174.336
-108.135
-60.4678
-120.828
85.5043
-733.965
-983.104
-133.154
-180.857
-318.79
-298.293
-311.59
-310.802
-291.577
-253.64
-172.013
-108.751
-63.6129
-127.787
82.494
-737.014
-982.404
-131.848
-180.77
-318.212
-298.133
-311.505
-310.888
-291.238
-252.908
-168.21
-106.313
-66.0873
-138.932
79.0135
-739.316
-981.937
-131.276
-181.004
-318
-298.233
-311.546
-311.059
-291.133
-252.878
-165.919
-104.745
-65.0172
-138.49
76.8943
-740.098
-981.413
-130.754
-180.951
-317.591
-298.127
-311.48
-311.267
-291.436
-254.27
-168.407
-107.354
-69.8033
-141.833
75.7152
-742.862
-981.283
-130.577
-181.079
-317.483
-298.203
-311.558
-311.581
-292.043
-256.498
-175.22
-115.818
-75.8548
-134.148
77.2043
-743.393
-981.655
-130.188
-180.98
-317.35
-298.121
-311.505
-311.633
-292.176
-257.06
-177.537
-118.332
-73.6783
-121.92
80.1098
-748.194
-982.166
-129.962
-181.092
-317.582
-298.286
-311.674
-311.718
-292.234
-257.268
-176.904
-120.735
-76.2811
-123.15
82.6651
-752.501
-982.665
-130.083
-181.093
-317.783
-298.284
-311.68
-311.507
-291.755
-255.413
-170.562
-111.785
-74.0851
-142.166
81.7157
-756.729
-983.342
-130.804
-181.21
-318.28
-298.476
-311.82
-311.368
-291.346
-253.614
-166.059
-106.885
-66.4197
-140.234
80.8276
-754.799
-983.955
-131.556
-181.017
-318.578
-298.451
-311.839
-311.296
-291.441
-253.549
-167.808
-107.678
-65.6699
-141.795
81.6669
-754.536
-984.764
-133.069
-181.16
-319.259
-298.715
-312.018
-311.363
-291.874
-254.453
-172.053
-110.896
-64.143
-134.401
84.2389
-753.834
-985.245
-133.867
-180.825
-319.497
-298.647
-312.024
-311.449
-292.364
-255.377
-175.189
-112.143
-60.6705
-123.259
87.3908
-750.887
-986.062
-135.863
-181.089
-320.284
-298.983
-312.093
-311.397
-292.388
-254.927
-174.35
-106.822
-55.9362
-125.863
89.8883
-749.862
-1119.87
-203.842
-181.7
-344.614
-301.137
-302.821
-297.953
-260.446
-221.764
-135.668
-100.804
-29.5549
-140.159
109.23
-876.169
-1119.37
-202.847
-181.414
-344.25
-301.049
-303.167
-298.555
-261.148
-222.522
-136.336
-103.962
-33.227
-136.757
107.163
-878.654
-1119.17
-202.564
-181.528
-344.218
-301.21
-303.428
-298.756
-261.055
-221.661
-133.798
-98.0794
-35.094
-146.088
103.721
-883.411
-1118.72
-201.83
-181.336
-343.894
-301.179
-303.673
-299.143
-261.245
-220.992
-129.504
-91.1295
-33.8279
-160.066
99.1451
-886.316
-1118.5
-201.495
-181.44
-343.856
-301.402
-304.018
-299.566
-261.496
-221.016
-127.114
-90.1187
-30.6579
-161.855
96.4592
-887.249
-1118.42
-200.872
-181.333
-343.616
-301.436
-304.247
-300.039
-262.299
-222.517
-130.439
-92.5591
-36.351
-166.176
95.4199
-890.944
-1118.58
-200.504
-181.425
-343.624
-301.665
-304.585
-300.62
-263.288
-225.122
-137.523
-106.496
-41.2967
-154.512
97.3237
-888.189
-1118.83
-200.27
-181.395
-343.571
-301.664
-304.644
-300.798
-263.595
-225.753
-139.453
-109.418
-36.7366
-150.952
102.932
-897.298
-1119.22
-200.355
-181.495
-343.806
-301.828
-304.809
-300.956
-263.636
-226.002
-139.041
-110.098
-41.7694
-149.925
108.106
-910.251
-1119.57
-200.537
-181.513
-343.943
-301.763
-304.683
-300.712
-263.011
-224.325
-133.259
-98.7067
-38.7467
-164.437
105.99
-917.915
-1120.07
-201.094
-181.714
-344.323
-301.903
-304.665
-300.507
-262.328
-222.578
-127.89
-92.9947
-34.2264
-166.392
103.289
-915.163
-1120.46
-201.533
-181.698
-344.491
-301.836
-304.497
-300.352
-262.277
-222.827
-129.608
-93.8342
-34.269
-167.002
103.496
-912.693
-1121.04
-202.471
-181.98
-344.963
-302.056
-304.475
-300.277
-262.463
-223.955
-134.638
-100.784
-37.554
-157.458
106.522
-911.999
-1121.33
-202.872
-181.894
-345.078
-302.004
-304.339
-300.289
-262.841
-225.398
-138.366
-108.681
-36.7273
-144.107
109.907
-906.814
-1121.92
-204.05
-182.268
-345.583
-302.285
-304.223
-300.026
-262.607
-225.45
-138.982
-108.323
-33.3209
-143.005
111.327
-904.199
-1259.31
-256.732
-192.543
-372.517
-319.921
-313.083
-309.067
-262.681
-239.35
-146.523
-166.033
-42.2843
-238.217
134.828
-1100.79
-1258.93
-256.111
-192.347
-372.322
-319.782
-313.219
-309.304
-262.998
-239.197
-146.351
-165.839
-42.8636
-241.409
133.672
-1103.63
-1258.8
-255.969
-192.423
-372.34
-319.829
-313.32
-309.279
-262.768
-237.983
-144.227
-159.108
-44.0842
-240.511
133.196
-1114.88
-1258.45
-255.518
-192.299
-372.162
-319.726
-313.413
-309.408
-262.831
-236.986
-141.231
-148.996
-42.2615
-250.554
130.736
-1120.74
-1258.43
-255.277
-192.375
-372.195
-319.839
-313.607
-309.592
-262.861
-236.533
-138.996
-145.906
-42.016
-254.432
129.292
-1123.75
-1258.53
-254.795
-192.259
-372.066
-319.811
-313.732
-309.877
-263.415
-237.543
-141.58
-151.194
-43.0739
-259.396
127.677
-1126.72
-1258.73
-254.607
-192.32
-372.14
-319.996
-314.008
-310.326
-264.102
-239.457
-145.768
-165.606
-46.5412
-269.351
129.664
-1112.16
-1258.93
-254.48
-192.328
-372.157
-320.033
-314.12
-310.566
-264.475
-240.163
-146.829
-167.53
-41.1772
-271.271
134.313
-1122.93
-1259.28
-254.579
-192.464
-372.403
-320.275
-314.398
-310.922
-264.749
-240.646
-146.948
-168.03
-43.823
-271.017
137.902
-1143.29
-1259.61
-254.664
-192.509
-372.54
-320.363
-314.49
-311.062
-264.7
-240.223
-144.489
-160.6
-46.4734
-256.754
142.33
-1173.29
-1260.06
-255.043
-192.707
-372.875
-320.67
-314.732
-311.288
-264.568
-239.358
-140.634
-149.308
-46.514
-263.244
140.724
-1174.43
-1260.4
-255.307
-192.732
-373.021
-320.799
-314.843
-311.584
-264.958
-240.58
-142.715
-153.257
-44.6213
-264.082
138.361
-1166.74
-1260.91
-255.952
-192.988
-373.402
-321.18
-315.105
-311.98
-265.525
-242.433
-147.076
-164.493
-48.8792
-255.582
136.688
-1163.27
-1261.14
-256.207
-192.961
-373.496
-321.296
-315.208
-312.349
-266.159
-244.514
-150.253
-174.613
-47.4027
-258.784
136
-1148.66
-1261.64
-257.014
-193.274
-373.875
-321.703
-315.414
-312.635
-266.544
-245.897
-152.171
-178.506
-47.5948
-255.791
136.205
-1145.75
-1402.27
-307.119
-207.175
-403.754
-347.144
-336.18
-339.677
-289.218
-292.222
-185.865
-274.836
-71.8442
-400.552
189.536
-1436.77
-1402.12
-306.66
-207.028
-403.64
-347.051
-336.294
-339.699
-289.382
-291.394
-185.514
-271.982
-70.5223
-399.699
191.85
-1456.7
-1402.18
-306.484
-207.076
-403.683
-347.093
-336.375
-339.568
-289.196
-290.113
-184.338
-267.208
-72.5553
-403.854
196.089
-1475.61
-1402.13
-306.068
-206.983
-403.593
-347.026
-336.473
-339.551
-289.277
-289.001
-182.926
-261.065
-70.456
-421.491
179.149
-1460.67
-1402.28
-305.865
-207.04
-403.676
-347.135
-336.65
-339.601
-289.274
-288.126
-181.335
-255.279
-70.9214
-427.332
168.779
-1458.51
-1402.39
-305.591
-206.988
-403.653
-347.144
-336.788
-339.792
-289.684
-288.821
-182.983
-263.283
-69.8384
-428.141
161.332
-1463.63
-1402.62
-305.538
-207.066
-403.805
-347.337
-337.065
-340.168
-290.175
-289.984
-184.747
-271.813
-65.6977
-473.489
153.993
-1413.03
-1402.82
-305.472
-207.1
-403.891
-347.428
-337.25
-340.503
-290.638
-290.812
-185.711
-274.089
-64.5068
-480.607
157.269
-1427.66
-1403.14
-305.582
-207.249
-404.143
-347.733
-337.611
-341.033
-291.103
-291.51
-186.041
-272.826
-64.8524
-461.425
152.503
-1475.53
-1403.42
-305.667
-207.308
-404.283
-347.912
-337.837
-341.496
-291.48
-292.26
-185.85
-271.069
-72.6229
-431.433
168.01
-1526.8
-1403.78
-305.994
-207.491
-404.59
-348.295
-338.209
-342.078
-291.786
-292.371
-183.972
-259.572
-73.6127
-438.953
172.306
-1528.41
-1404.05
-306.216
-207.53
-404.734
-348.512
-338.451
-342.726
-292.435
-294.493
-185.909
-266.907
-72.4118
-452.082
178.208
-1519.44
-1404.42
-306.725
-207.753
-405.074
-348.947
-338.831
-343.495
-293.226
-297.036
-189.138
-277.587
-78.9569
-432.334
196.737
-1547.85
-1404.6
-306.931
-207.747
-405.169
-349.121
-339.023
-344.102
-293.932
-299.43
-191.263
-285.832
-76.0858
-431.442
190.647
-1526.87
-1404.95
-307.543
-208.006
-405.499
-349.551
-339.352
-344.787
-294.669
-301.85
-193.507
-292.598
-78.4105
-434.777
185.013
-1506.88
-1545.72
-358.281
-224.623
-439.805
-380.261
-365.589
-381.427
-326.971
-367.039
-235.931
-416.003
-106.02
-598.237
302.959
-1994.67
-1545.68
-357.992
-224.52
-439.742
-380.166
-365.702
-381.156
-327.053
-365.069
-235.586
-412.328
-104.973
-638.239
277.351
-1997.81
-1545.79
-357.865
-224.548
-439.796
-380.182
-365.777
-380.851
-326.9
-363.2
-234.74
-407.165
-102.311
-669.854
244.233
-1955.5
-1545.82
-357.609
-224.493
-439.769
-380.119
-365.9
-380.607
-327.031
-361.265
-234.228
-400.586
-100.559
-656.132
202.265
-1942.86
-1545.98
-357.51
-224.553
-439.882
-380.216
-366.098
-380.494
-327.102
-359.661
-233.483
-393.077
-106.351
-637.511
194.819
-1961.5
-1546.11
-357.365
-224.552
-439.937
-380.252
-366.293
-380.598
-327.541
-359.706
-234.761
-397.74
-108.067
-623.529
197.717
-2007.76
-1546.34
-357.379
-224.653
-440.142
-380.479
-366.622
-380.98
-328.049
-360.393
-235.723
-401.983
-98.4147
-699.286
185.493
-1952.16
-1546.54
-357.366
-224.713
-440.281
-380.647
-366.897
-381.443
-328.653
-361.304
-236.996
-403.59
-101.481
-709.092
202.941
-2001.33
-1546.83
-357.507
-224.865
-440.554
-381.02
-367.33
-382.179
-329.289
-362.417
-237.843
-399.695
-107.622
-615
214.647
-2150.95
-1547.07
-357.634
-224.946
-440.731
-381.302
-367.66
-382.97
-329.923
-364.305
-238.544
-402.927
-114.415
-605.999
231.76
-2145.91
-1547.37
-357.941
-225.132
-441.054
-381.782
-368.127
-383.956
-330.529
-365.969
-238.102
-399.624
-118.337
-638.198
210.554
-2119.63
-1547.59
-358.16
-225.203
-441.233
-382.118
-368.477
-385.029
-331.365
-369.531
-239.584
-412.68
-108.588
-695.761
201.283
-2046.31
-1547.88
-358.583
-225.422
-441.582
-382.662
-368.967
-386.299
-332.373
-373.648
-242.013
-425.424
-111.462
-708.86
236.591
-2066.09
-1548.02
-358.776
-225.45
-441.705
-382.93
-369.243
-387.24
-333.193
-376.968
-243.914
-434.569
-114.74
-689.576
275.541
-2115.55
-1548.27
-359.257
-225.696
-442.037
-383.457
-369.69
-388.444
-334.255
-381.069
-246.418
-442.986
-117.292
-649.795
300.837
-2117.85
-1690.75
-412.228
-244.757
-480.59
-419.283
-399.435
-430.417
-366.541
-455.472
-280.497
-606.969
-122.474
-1071.69
423.972
-2603
-1690.77
-412.065
-244.672
-480.543
-419.085
-399.438
-429.431
-366.194
-449.895
-278.47
-584.334
-114.896
-1008.83
361.61
-2635.95
-1690.9
-411.974
-244.673
-480.58
-419.015
-399.45
-428.7
-365.897
-445.917
-277.603
-570.06
-119.687
-988.899
315.758
-2707.33
-1690.98
-411.82
-244.632
-480.58
-418.867
-399.512
-427.863
-365.812
-440.802
-276.816
-546.285
-133.057
-825.984
334.413
-2933.08
-1691.15
-411.773
-244.671
-480.696
-418.892
-399.678
-427.381
-365.869
-436.905
-276.297
-520.06
-144.043
-755.36
353.523
-2985.99
-1691.31
-411.699
-244.681
-480.785
-418.914
-399.892
-427.254
-366.347
-435.552
-277.613
-518.65
-146.02
-720.162
352.661
-3003.52
-1691.54
-411.736
-244.778
-481.001
-419.154
-400.265
-427.617
-366.997
-436.118
-279.244
-525.388
-137.754
-739.532
316.73
-2989.91
-1691.76
-411.766
-244.845
-481.177
-419.391
-400.624
-428.22
-367.778
-437.33
-280.768
-529.568
-124.971
-899.331
263.198
-2881.36
-1692.02
-411.919
-244.994
-481.473
-419.845
-401.142
-429.229
-368.583
-439.035
-281.778
-523.501
-132.06
-739.93
377.624
-3265.47
-1692.26
-412.068
-245.098
-481.703
-420.263
-401.595
-430.439
-369.368
-441.982
-281.668
-526.504
-128.884
-710.355
440.399
-3272.58
-1692.52
-412.342
-245.294
-482.061
-420.896
-402.205
-432.032
-370.228
-445.661
-281.124
-525.96
-140.861
-761.424
406.596
-3218.34
-1692.73
-412.555
-245.403
-482.3
-421.416
-402.718
-433.791
-371.358
-452.108
-282.796
-556.735
-136.31
-879.258
340.989
-3183.96
-1692.97
-412.911
-245.632
-482.684
-422.161
-403.418
-435.998
-372.917
-460.559
-286.356
-594.82
-125.557
-1038.51
314.915
-2966.33
-1693.09
-413.097
-245.699
-482.856
-422.586
-403.842
-437.58
-374.106
-466.747
-289.051
-617.017
-124.252
-1089.68
358.063
-2871.08
-1693.29
-413.484
-245.95
-483.219
-423.316
-404.531
-439.79
-375.935
-475.351
-294.16
-646.712
-136.133
-1142.61
423.191
-2843.56
-1836.08
-469.653
-267.274
-526.646
-466.529
-440.879
-492.124
-411.146
-564.572
-317.488
-842.007
-108.069
-1597.09
593.593
-3677.54
-1836.13
-469.567
-267.195
-526.597
-466.143
-440.671
-489.879
-409.922
-552.184
-312.612
-789.545
-107.63
-1495.23
451.776
-3792
-1836.26
-469.5
-267.166
-526.609
-465.932
-440.564
-488.423
-409.25
-543.988
-310.221
-747.395
-116.969
-1217.63
507.135
-4165.41
-1836.36
-469.42
-267.121
-526.61
-465.632
-440.484
-486.567
-408.585
-532.733
-306.239
-683.067
-111.493
-991.397
657.458
-4389.95
-1836.54
-469.403
-267.136
-526.705
-465.547
-440.582
-485.541
-408.612
-526.013
-306.211
-642.344
-114.346
-892.235
686.057
-4438.37
-1836.71
-469.379
-267.147
-526.807
-465.522
-440.782
-485.08
-409.21
-523.435
-308.839
-641.33
-119.921
-887.307
698.292
-4462.92
-1836.94
-469.438
-267.233
-527.022
-465.754
-441.195
-485.473
-410.312
-524.889
-314.356
-660.841
-134.747
-896.119
479.202
-4617.43
-1837.17
-469.51
-267.313
-527.233
-466.058
-441.642
-486.325
-411.491
-527.778
-318.374
-681.491
-129.061
-1201.21
291.147
-4126.09
-1837.43
-469.674
-267.468
-527.554
-466.61
-442.266
-487.745
-412.634
-530.858
-320.35
-679.287
-134.081
-1127.21
386.779
-4434.2
-1837.67
-469.844
-267.604
-527.841
-467.192
-442.857
-489.522
-413.596
-535.376
-319.525
-682.364
-136.195
-995.012
513.074
-4949.19
-1837.93
-470.106
-267.82
-528.241
-468.02
-443.635
-491.914
-414.648
-541.019
-316.242
-673.272
-114.9
-969.688
763.755
-4793.36
-1838.14
-470.33
-267.973
-528.547
-468.768
-444.332
-494.574
-416.024
-550.851
-316.745
-713.333
-107.777
-1089.84
677.593
-4713.87
-1838.36
-470.655
-268.23
-528.982
-469.783
-445.294
-498.129
-418.366
-565.963
-323.207
-791.604
-125.802
-1327.54
520.956
-4589.67
-1838.48
-470.846
-268.338
-529.21
-470.411
-445.894
-500.634
-420.032
-576.937
-327.347
-845.301
-114.742
-1663.81
465.673
-4156.69
-1838.65
-471.187
-268.612
-529.621
-471.427
-446.9
-504.382
-422.966
-592.876
-335.626
-903.817
-120.345
-1727.27
649.165
-4050.54
-1981.52
-534.849
-291.816
-577.118
-519.71
-486.005
-559
-454.461
-678.256
-339.486
-1104.74
-75.3091
-2391.58
933.301
-5377.13
-1981.54
-534.793
-291.708
-577.034
-519.124
-485.6
-555.454
-452.393
-657.596
-330.452
-991.02
-55.2311
-1737.37
714.076
-5937.61
-1981.62
-534.733
-291.641
-577.003
-518.785
-485.412
-553.337
-451.619
-644.561
-328.324
-905.761
-81.4758
-1313.64
1010.41
-5994.41
-1981.68
-534.671
-291.565
-576.974
-518.339
-485.237
-550.73
-450.884
-630.278
-325.701
-840.549
-70.0266
-1130.17
1022.03
-6278.09
-1981.79
-534.642
-291.535
-577.026
-518.154
-485.319
-549.442
-451.348
-623.66
-328.507
-815.958
-79.7783
-1224.57
826.863
-6439.31
-1981.93
-534.618
-291.517
-577.113
-518.08
-485.547
-548.859
-452.451
-621.824
-334.419
-828.791
-97.7885
-1365.2
550.672
-6397.3
-1982.1
-534.652
-291.564
-577.303
-518.295
-486.025
-549.388
-454.309
-624.555
-344.711
-854.87
-129.387
-1472.4
201.204
-6041.32
-1982.3
-534.71
-291.628
-577.519
-518.648
-486.568
-550.508
-456.023
-628.74
-351.284
-877.216
-133.757
-1647.71
117.818
-5207
-1982.52
-534.837
-291.763
-577.838
-519.276
-487.289
-552.352
-457.593
-633.343
-354.4
-881.454
-132.933
-1641.66
179.017
-5426.25
-1982.74
-534.985
-291.9
-578.151
-519.995
-487.998
-554.678
-458.769
-639.681
-353.653
-893.025
-127.591
-1631.16
105.096
-6247.18
-1982.97
-535.206
-292.114
-578.568
-520.995
-488.915
-557.845
-459.994
-647.472
-348.816
-886.988
-103.515
-1501.78
414.461
-6818.02
-1983.16
-535.411
-292.286
-578.916
-521.949
-489.755
-561.357
-461.456
-659.946
-347.382
-920.109
-94.4817
-1339.17
816.547
-6794.21
-1983.36
-535.696
-292.554
-579.382
-523.219
-490.936
-566.192
-464.215
-679.497
-351.522
-993.414
-101.785
-1551.39
959.257
-6489.6
-1983.48
-535.874
-292.687
-579.652
-524.046
-491.685
-569.725
-466.241
-697.001
-356.122
-1100.08
-84.343
-2073.97
628.639
-6438.03
-1983.63
-536.175
-292.977
-580.099
-525.362
-492.998
-575.289
-470.414
-723.604
-369.713
-1233.54
-111.71
-2744
888.299
-5935.55
-2117.48
-609.301
-320.719
-633.29
-585.777
-544.122
-647.09
-512.502
-828.675
-366.599
-1447.38
18.7004
-3390.67
1334.24
-7002.74
-2117.51
-609.289
-320.596
-633.165
-584.972
-543.554
-642.331
-510.087
-801.992
-357.034
-1294.53
34.9791
-2371.16
1132.75
-7652.79
-2117.55
-609.258
-320.497
-633.086
-584.473
-543.306
-639.325
-509.539
-779.805
-356.331
-1085.03
-19.0885
-1898.47
1383.75
-7652.26
-2117.6
-609.249
-320.4
-633.013
-583.853
-543.07
-636.112
-509.597
-766.877
-365.778
-1092.26
-75.4407
-1748.25
617.252
-8269.83
-2117.68
-609.256
-320.338
-633.005
-583.525
-543.124
-634.506
-510.907
-761.579
-375.722
-1117.51
-99.7991
-2197.49
34.0475
-7710.42
-2117.79
-609.282
-320.305
-633.051
-583.346
-543.319
-633.64
-512.503
-759.424
-384.783
-1125.97
-118.574
-2157.34
171.711
-6922.96
-2117.94
-609.343
-320.332
-633.185
-583.475
-543.751
-634.027
-514.728
-761.561
-396.804
-1140.2
-152.519
-2220.87
97.741
-6234.44
-2118.12
-609.433
-320.393
-633.366
-583.792
-544.241
-635.076
-516.47
-764.898
-403.6
-1148.64
-171.402
-2212.72
212.797
-5663.74
-2118.33
-609.574
-320.522
-633.637
-584.409
-544.886
-637.044
-517.907
-770.001
-405.941
-1156.59
-166.092
-2234.4
188.929
-6034.63
-2118.54
-609.741
-320.671
-633.925
-585.168
-545.513
-639.58
-518.649
-776.744
-402.82
-1168.13
-145.705
-2243.09
66.7273
-6988.29
-2118.75
-609.963
-320.895
-634.308
-586.249
-546.345
-643.239
-519.317
-786.44
-395.269
-1180.76
-119.54
-2363.1
-163.292
-8217.45
-2118.94
-610.177
-321.091
-634.642
-587.313
-547.082
-647.249
-519.818
-799.465
-387.033
-1184.56
-82.3757
-2073.12
188.812
-9238.72
-2119.13
-610.452
-321.382
-635.094
-588.754
-548.216
-652.929
-521.585
-819.139
-377.281
-1189.86
-17.7603
-2152.75
1299.12
-8772.62
-2119.25
-610.633
-321.54
-635.361
-589.72
-548.922
-657.43
-523.164
-846.142
-379.797
-1415.14
18.2026
-2768.67
1095.03
-8709.09
-2119.39
-610.917
-321.858
-635.812
-591.278
-550.32
-664.524
-527.594
-881.324
-394.804
-1608.47
-9.84741
-3938.22
1325.68
-8076.22
-2248.37
-697.648
-353.351
-694.942
-656.018
-600.723
-727.531
-556.851
-943.098
-337.692
-1647.41
318.092
-3672.33
3106.94
-10314.8
-2248.3
-697.548
-353.135
-694.725
-654.993
-600.078
-721.957
-554.809
-912.283
-330.134
-1482.82
279.797
-3022.79
2310.26
-10074.5
-2248.22
-697.464
-352.979
-694.576
-654.353
-599.835
-718.45
-554.869
-884.004
-327.53
-1178.31
269.54
-2646.13
2260.27
-10280.7
-2248.09
-697.377
-352.787
-694.395
-653.547
-599.601
-714.817
-556.451
-869.829
-351.724
-1165.2
132.629
-2288.09
628.328
-11455.3
-2247.94
-697.303
-352.633
-694.271
-653.063
-599.672
-713.145
-559.381
-867.378
-376.065
-1255.49
57.9547
-3003.6
-630.221
-10449.2
-2247.78
-697.233
-352.502
-694.203
-652.748
-599.865
-712.369
-562.455
-869.404
-398.581
-1308.29
-32.9373
-2680.13
136.446
-8579.96
-2247.68
-697.157
-352.422
-694.211
-652.738
-600.254
-712.765
-565.624
-873.326
-417.298
-1333.04
-89.1092
-2698.26
222.073
-7366.22
-2247.68
-697.091
-352.383
-694.282
-652.951
-600.691
-713.857
-567.973
-878.172
-429.616
-1351.63
-135.233
-2732.34
346.829
-7074.46
-2247.73
-697.062
-352.41
-694.438
-653.473
-601.234
-715.842
-569.41
-883.656
-431.269
-1360.35
-121.37
-2773.02
271.126
-7791.46
-2247.81
-697.071
-352.472
-694.633
-654.179
-601.757
-718.439
-569.831
-890.483
-426.068
-1366.38
-92.2155
-2789.5
183.83
-9482.69
-2247.91
-697.135
-352.615
-694.924
-655.248
-602.464
-722.367
-569.717
-900.622
-410.252
-1364.32
-13.766
-3154.14
-605.424
-11657.6
-2248.01
-697.216
-352.751
-695.195
-656.344
-603.076
-726.803
-569.174
-915.299
-393.541
-1341.54
54.9531
-2584.24
478.148
-13367.3
-2248.13
-697.364
-352.99
-695.585
-657.892
-604.136
-733.389
-569.913
-939.463
-369.033
-1369.81
241.895
-3116.37
2314.2
-12206.2
-2248.2
-697.458
-353.121
-695.825
-658.945
-604.798
-738.714
-571.141
-975.623
-371.663
-1713.46
267.55
-3874.35
2155.17
-12216.3
-2248.31
-697.653
-353.407
-696.239
-660.701
-606.26
-747.427
-575.889
-1022.32
-388.682
-1989.91
259.503
-5285.34
3031.65
-12026.6
-2328.92
-818.155
-400.049
-749.737
-757.396
-683.604
-861.512
-627.878
-1174.99
-329.671
-2182.81
660.878
-5099.75
5721.84
-13812.3
-2328.92
-818.128
-399.785
-749.443
-755.962
-682.851
-854.172
-626.569
-1138.46
-330.211
-2045.05
544.527
-4956.18
4057.45
-13325.5
-2328.91
-818.052
-399.546
-749.195
-754.98
-682.531
-849.245
-627.253
-1103.73
-332.154
-1725.22
547.73
-4428.24
4150.84
-14073.5
-2328.92
-817.997
-399.275
-748.889
-753.733
-682.107
-843.688
-629.231
-1077.3
-359.652
-1614.86
413.704
-3345.6
2182.36
-15124.5
-2328.95
-817.923
-399.017
-748.592
-752.819
-681.961
-840.449
-633.242
-1067.08
-399.618
-1648.39
126.441
-4075.63
-116.287
-14628.5
-2329.01
-817.877
-398.804
-748.328
-752.109
-681.743
-838.496
-635.591
-1065.44
-419.449
-1702.74
85.987
-3823.5
955.781
-12502.3
-2329.1
-817.843
-398.634
-748.109
-751.676
-681.694
-837.629
-638.389
-1065.45
-440.714
-1721.13
3.52242
-3765.75
1082.77
-10116.2
-2329.23
-817.846
-398.522
-747.95
-751.506
-681.603
-837.672
-639.56
-1066.84
-449.748
-1727.72
-23.3145
-3805.75
1173.95
-9939.99
-2329.37
-817.882
-398.477
-747.86
-751.646
-681.585
-838.605
-639.862
-1069.09
-450.71
-1727.33
-18.9044
-3840.15
1115.37
-11253.2
-2329.53
-817.957
-398.483
-747.829
-752.028
-681.539
-840.412
-638.71
-1073.33
-440.185
-1717.33
23.9642
-3891.22
493.785
-15024.4
-2329.69
-818.072