/*--------------------------------*- C++ -*----------------------------------*\
| =========                 |                                                 |
| \\      /  F ield         | OpenFOAM: The Open Source CFD Toolbox           |
|  \\    /   O peration     | Version:  4.1                                   |
|   \\  /    A nd           | Web:      www.OpenFOAM.org                      |
|    \\/     M anipulation  |                                                 |
\*---------------------------------------------------------------------------*/
FoamFile
{
    version     2.0;
    format      ascii;
    class       surfaceScalarField;
    location    "15";
    object      phi;
}
// * * * * * * * * * * * * * * * * * * * * * * * * * * * * * * * * * * * * * //

dimensions      [0 3 -1 0 0 0 0];

internalField   nonuniform List<scalar> 
19125
(
174.339
-2.27634
1709.89
102.805
-23.5444
1346.13
91.5409
-17.0244
920.333
107.272
0.0695815
992.648
100.052
2.67039
879.55
96.1571
7.48442
825.089
100.943
-17.5287
981.916
-378.438
-27.9952
-65.3052
-699.808
77.6175
-912.945
-756.401
202.421
-1426.61
-541.008
147.957
-996.699
-262.537
84.0971
63.7607
-214.262
31.5782
744.436
-212.536
-4.09364
1298.13
6.99647
1832.68
171.92
-3.21356
1711.54
101.28
-28.6468
1355.99
92.8028
-18.3862
956.863
107.116
0.886947
1024.46
97.4988
2.36951
896.087
92.6838
8.95118
827.52
83.8525
-17.4793
962.357
-401.658
-58.863
-103.553
-711.624
74.5137
-951.7
-752.301
226.433
-1435.34
-523.867
191.439
-994.18
-249.275
114.158
95.1681
-209.94
63.5798
799.185
-216.074
8.88516
1323.75
11.2723
1800.02
170.274
-3.85202
1712.16
101.009
-31.8832
1366.31
94.1103
-17.9496
982.664
107.182
1.52675
1042.14
96.0005
1.69741
904.777
92.1714
8.48536
832.996
79.6121
-19.8999
932.944
-405.57
-77.4881
-126.161
-703.724
68.7779
-973.407
-734.034
238.654
-1448.22
-511.895
232.449
-1010.93
-251.978
140.551
88.9781
-215.436
91.2335
794.854
-224.406
30.3802
1343.17
13.8609
1745.74
168.723
-3.68696
1707.8
101.378
-32.9175
1375.74
96.0643
-15.7366
1009.03
107.343
2.71025
1059.53
94.1462
1.34542
913.658
89.9744
7.87464
840.369
72.7292
-24.0921
911.204
-412.788
-82.5025
-153.257
-698.73
72.9878
-1001.38
-720.117
243.215
-1441.56
-506.725
233.447
-965.679
-264.365
145.397
60.5273
-228.69
106.225
750.481
-227.915
40.4705
1357.92
15.0339
1759.01
168.307
-2.92696
1698.92
101.888
-30.4612
1389.51
97.5369
-12.309
1037.35
107.209
3.51037
1076.5
91.9911
1.25941
921.359
88.119
6.71095
847.339
55.4829
-21.5252
885.524
-447.645
-69.131
-195.731
-734.991
112.408
-1039.34
-744.96
252.638
-1389.75
-519.077
188.309
-873.842
-279.027
131.782
-8.97363
-242.947
114.382
689.169
-232.497
39.4668
1354.97
13.8438
1762.02
169.102
-1.60467
1683.73
102.092
-22.1002
1405.59
98.4284
-7.63971
1068.29
106.939
3.12207
1094.52
90.0188
1.11884
927.825
86.6406
4.99969
855.268
43.4064
-16.9516
857.373
-465.092
-42.8215
-219.09
-737.378
145.336
-1046.26
-774.479
278.697
-1388.37
-595.165
160.308
-895.789
-325.918
62.8547
-81.3516
-255.94
77.7947
634.841
-238.946
31.8228
1365.75
9.82478
1759.87
171.411
0.0537342
1660.83
101.75
-6.57119
1417.95
98.5324
-2.06689
1095.81
106.551
0.99039
1113.07
88.7907
0.118572
933.83
87.4156
1.2475
863.311
38.0116
-13.9748
828.746
-453.314
-17.5473
-221.495
-637.27
77.5448
-1022.68
-627.964
166.33
-1483.81
-566.664
114.033
-1355.14
-384.603
4.00635
-576.199
-272.35
0.655035
616.466
-244.202
15.0796
1374.36
3.96037
1745.27
172.409
1.72827
1650.76
101.541
11.0554
1418.69
98.5227
3.70631
1102.06
106.346
-1.31972
1118.95
87.2514
0.0144335
936.138
86.2162
-2.91555
868.162
3.68802
12.1155
809.236
-508.614
17.6892
-261.176
-634.292
-41.6029
-1047.75
-505.018
-103.899
-1521.73
-399.542
-50.6063
-1573.58
-341.557
3.88285
-876.625
-290.188
-14.9445
588.227
-248.265
-10.8807
1380.38
-2.14761
1711.2
170.601
3.07677
1667.14
101.548
24.9971
1414.59
98.4609
9.29088
1090.99
106.513
-2.92547
1110.6
88.5831
-0.577693
933.414
86.657
-6.30175
862.06
31.9281
19.6167
828.482
-456.675
41.9268
-222.298
-615.433
-134.994
-1013.14
-571.136
-272.449
-1493.8
-500.664
-146.396
-1461.43
-367.086
-39.7444
-755.067
-278.907
-63.9809
602.895
-243.225
-35.4665
1373.93
-7.77798
1749.9
168.599
4.08799
1689
101.679
32.2246
1401.53
98.1132
13.9154
1063
106.822
-2.95754
1091.88
90.0786
-0.611603
926.865
85.955
-7.4291
853.181
44.8227
23.3534
860.755
-455.473
67.3369
-209.682
-718.627
-119.027
-1029.81
-767.775
-253.953
-1405.17
-619.211
-161.46
-962.749
-341.117
-109.019
-111.461
-250.76
-114.52
659.653
-238.758
-38.9529
1363.72
-12.4
1765.21
168.034
4.57853
1703.62
101.351
33.9483
1385.74
97.0209
17.2382
1031.96
107.008
-1.99384
1073.49
91.8538
-0.454396
919.757
87.3315
-8.06793
845.101
52.5649
28.5991
888.101
-452.238
82.2968
-196.642
-742.375
-70.1134
-1040.11
-749.357
-240.664
-1366.49
-514.832
-217.115
-825.722
-275.347
-130.427
5.95355
-240.734
-103.465
697.834
-231.728
-38.9504
1357.31
-13.4724
1765.51
168.662
4.5185
1711.71
100.842
32.4234
1372.31
95.4733
19.287
1003.41
107.143
-0.748713
1056.02
94.4188
-0.884888
911.316
89.8991
-8.41786
837.606
75.5221
23.1565
912.439
-405.389
77.9427
-147.312
-693.836
-60.5419
-999.306
-716.458
-235.926
-1432.42
-499.713
-231.747
-933.006
-261.971
-133.851
78.0927
-228.831
-86.9046
756.292
-227.498
-30.0058
1361.9
-12.4958
1762.59
170.384
3.69177
1715.45
100.501
28.88
1363.46
93.4538
19.5012
977.099
106.94
-0.148487
1038.32
96.2784
-1.65034
901.917
92.2151
-8.72691
830.136
82.1394
19.652
931.953
-397.467
59.2918
-119.642
-695.362
-65.2905
-969.756
-727.021
-223.531
-1443.94
-505.19
-201.973
-984.773
-250.393
-120.554
114.493
-215.186
-60.5818
803.108
-224.029
-9.11685
1348.14
-10.1965
1749.14
172.16
2.59409
1714.29
100.823
23.582
1353.54
92.1215
17.8526
951.254
106.874
0.56367
1020.25
97.9482
-2.16104
892.701
93.0643
-7.23618
824.339
87.063
18.4672
959.593
-392.215
28.7761
-95.7963
-703.154
-68.2717
-945.438
-747.044
-198.804
-1435.05
-521.387
-158.369
-993.683
-249.05
-91.2493
100.861
-209.614
-29.741
806.087
-215.815
3.69234
1329.03
-6.31608
1802.69
174.695
1712.25
102.403
1344.36
90.8163
915.2
106.986
988.338
100.46
875.905
96.5701
822.083
103.247
977.059
-369.742
-58.1393
-690.449
-904.437
-750.614
-1426.9
-540.27
-1005.97
-262.627
62.7409
-213.688
750.836
-212.237
1304.32
1835.31
685.861
-17.4058
1546.28
488.44
-44.0198
1557.96
329.129
-42.2424
1090.94
303.137
-13.466
1021.93
304.509
5.27092
877.415
344.793
16.3527
780.671
481.857
7.33736
841.573
125.694
-111.676
341.196
-329.445
-79.3481
-422.767
-653.999
185.267
-1131.19
-660.508
200.433
-1054.18
-495.997
84.1019
-146.579
-523.045
58.141
744.505
-580.527
-11.5012
1358.21
23.7427
1677.44
672.478
-21.1901
1554.72
475.064
-53.3428
1562.73
328.204
-47.3584
1108.84
304.547
-12.4958
1047.15
304.777
4.63403
896.495
343.478
17.2235
787.95
469.981
11.4035
831.79
98.9212
-158.02
313.853
-365.805
-102.501
-463.819
-664.132
203.306
-1155.05
-655.138
303.377
-1106.12
-495.178
222.722
-203.41
-525.906
111.269
776.785
-591.902
7.57788
1370.67
34.7199
1640.21
663.67
-22.2633
1559.93
466.558
-58.9442
1569.03
327.959
-50.1234
1124.02
305.581
-11.1539
1063.17
304.379
3.44299
907.172
343.982
14.8703
795.748
464.11
11.3366
812.885
84.8925
-189.612
284.652
-379.457
-115.895
-495.662
-649.932
202.098
-1176.53
-640.487
412.369
-1129.36
-507.779
365.519
-186.525
-543.927
153.803
788.468
-616.795
46.6727
1376.94
34.948
1580.69
654.296
-19.8799
1561.24
459.632
-61.2137
1572.67
330.579
-50.7345
1138.69
308.478
-8.12649
1078.6
303.406
4.29035
917.884
340.593
13.4818
804.573
449.559
13.1052
800.471
56.0619
-200.325
250.956
-414.66
-100.324
-546.229
-685.277
228.314
-1197.16
-671.974
442.043
-1008.66
-537.198
363.564
-72.2924
-566.104
153.947
779.243
-625.115
67.5375
1396.07
33.3565
1586.62
647.648
-14.1447
1557.1
454.588
-56.8222
1578.17
332.256
-47.5801
1156.52
310.049
-4.98582
1095.57
302.04
5.36108
928.298
338.64
11.3503
812.873
435.682
16.2426
785.346
11.2947
-183.229
211.563
-488.368
-31.5347
-608.469
-773.005
301.864
-1178.66
-729.954
378.054
-852.904
-564.326
216.262
-27.2989
-588.133
127.476
739.447
-634.124
70.3579
1398.14
28.2117
1585.37
644.26
-5.61607
1545.96
451.969
-41.5224
1582.58
333.086
-36.5334
1176.12
310.915
-2.43431
1114.14
300.584
5.38965
938.128
336.821
8.55565
821.828
425.908
16.0521
768.48
-18.5759
-135.748
177.918
-495.132
25.5911
-626.824
-774.105
360.659
-1168.19
-783.676
339.972
-848.135
-613.453
10.5294
-45.8407
-610.75
37.1449
722.47
-646.75
62.9167
1409.19
18.2235
1577.93
648.454
1.26328
1525.56
454.869
-12.2758
1582.28
331.949
-11.5496
1193.74
309.765
-0.583267
1133.4
298.987
1.98703
948.012
337.077
2.6433
831.135
426.272
4.47569
751.13
-25.8091
-57.4578
152.301
-425.4
12.7491
-610.249
-566.878
195.254
-1176.92
-613.511
210.467
-1179
-620.859
-38.5456
-519.774
-644.47
-31.9073
709.129
-651.691
31.711
1412.79
8.37678
1563.25
652.499
5.01986
1516.37
457.935
21.5965
1579.38
331.409
19.6687
1197.36
308.992
1.7434
1139.04
297.202
-1.3468
951.264
337.404
-5.37203
835.978
418.076
-8.0165
741.059
-69.829
44.2173
125.059
-474.302
10.4307
-640.952
-492.155
-124.119
-1184.5
-420.409
-124.959
-1309.9
-558.514
7.61911
-784.684
-677.84
-4.18206
679.828
-659.59
-15.2123
1409.05
-2.84952
1530.47
647.384
10.9258
1532.09
453.491
47.8775
1582.2
331.855
41.817
1190.48
309.574
4.15056
1130.47
298.676
-3.90225
946.87
336.139
-10.7982
830.026
423.143
-17.9404
751.405
-32.5158
127.46
150.123
-417.511
-14.7087
-603.002
-517.114
-350.404
-1167.91
-524.918
-331.308
-1247.27
-586.809
13.7056
-699.26
-654.624
-20.3153
686.843
-646.577
-61.7869
1412.46
-10.8319
1571.99
644.539
18.0698
1550.98
451.487
61.0538
1581.4
332.471
51.3826
1172.45
310.185
7.17765
1111.14
299.965
-3.45622
936.642
334.818
-12.551
820.084
422.5
-15.878
771.014
-17.4626
176.914
180.831
-473.414
17.9813
-606.544
-743.999
-318.407
-1166.58
-778.57
-344.918
-914.565
-622.021
-148.415
-105.887
-606.998
-110.144
734.458
-644.347
-68.3546
1407.64
-21.9723
1587.94
648.501
22.7344
1561.24
454.466
63.9196
1576.9
331.232
53.7194
1152.85
308.94
10.5388
1092.42
300.9
-1.98284
926.326
336.346
-13.8579
810.965
431.361
-10.4113
787.622
1.77442
196.757
213.108
-504.734
96.8215
-612.438
-796.34
-229.092
-1164.2
-746.013
-418.347
-802.619
-566.982
-317.396
-4.09424
-586.212
-137.396
744.317
-632.506
-64.7894
1400.04
-27.39
1592.44
655.643
24.3118
1564.31
459.906
60.5479
1571.42
329.515
52.4685
1135.05
307.252
13.5957
1075.22
302.4
-1.12918
915.315
338.347
-14.4669
802.27
446.652
-7.70632
801.431
54.508
187.588
254.003
-421.681
122.501
-548.795
-702.818
-188.961
-1191.41
-686.842
-412.695
-954.634
-542.677
-355.921
-27.5455
-567.425
-140.843
784.486
-624.428
-46.1873
1400.3
-29.7799
1593.64
665.403
22.6034
1562.16
467.144
54.2174
1568.04
326.854
49.1934
1120.66
304.207
14.7731
1059.79
303.199
-2.47012
904.269
341.765
-16.3278
793.434
461.68
-8.00655
812.342
84.8714
157.214
287.546
-381.266
113.963
-495.075
-657.451
-180.539
-1176.18
-650.02
-315.185
-1089.71
-513.287
-258.879
-119.28
-545.011
-106.506
800.497
-616.645
-8.71105
1382.3
-30.888
1587.64
674.487
18.2974
1556.29
475.933
44.4008
1561.91
327.167
43.5823
1105.63
303.166
15.404
1043.62
303.728
-3.5078
893.181
341.605
-15.2523
785.391
468.075
-4.59803
829.719
101.376
111.522
316.602
-363.064
92.0081
-459.037
-663.323
-162.785
-1152.54
-657.097
-209.578
-1105.51
-497.881
-118.833
-198.398
-525.803
-55.6168
783.121
-591.763
10.2138
1376.06
-21.4505
1646.67
688.052
1547.37
489.494
1557.55
328.13
1088.32
301.691
1018.65
303.365
874.044
343.143
778.329
480.006
838.186
128.462
343.321
-324.53
-414.869
-650.125
-1125.6
-661.402
-1065.03
-497.801
-165.127
-522.049
748.764
-580.074
1364.33
1683.89
1265.54
-24.1526
1011.48
1210.4
-53.8518
1628.1
936.245
-60.2789
1378.69
707.609
-42.8882
1258.61
532.945
-5.02612
1051.36
447.121
14.2043
864.743
489.146
38.1399
790.803
382.135
-67.7326
478.503
45.6107
-77.1932
-54.8147
-380.243
113.202
-719.462
-646.287
230.547
-859.422
-655.76
5.7971
-192.627
-765.236
12.0645
848.844
-856.223
-3.34168
1448.36
31.9009
1377.3
1253.07
-29.4902
1023.16
1185.47
-62.1147
1638.58
915.049
-68.3432
1387.32
692.229
-44.3014
1271.38
524.721
-4.14567
1063.12
442.395
12.8235
871.658
479.129
44.3988
788.799
355.721
-89.5789
459.109
-0.499968
-100.843
-83.9466
-382.749
81.6728
-741.272
-579.329
255.926
-934.916
-617.697
213.717
-372.961
-776.683
86.0849
861.751
-869.175
13.0162
1446.8
45.1077
1336.56
1245.39
-32.3182
1030.61
1169.01
-63.2727
1646.56
900.647
-71.6604
1395.7
681.339
-43.0468
1281.22
517.654
-3.92963
1070.64
439.082
8.65046
878.495
472.667
41.7977
781.903
334.124
-103.642
437.26
-37.7446
-108.899
-115.734
-389.056
27.9931
-771.538
-567.032
274.275
-969.736
-636.054
416.698
-320.484
-809.35
151.947
895.902
-901.217
46.0259
1435.8
40.4048
1273.83
1234.32
-30.853
1037.2
1151.25
-59.977
1652.43
889.186
-73.2712
1402.37
675.963
-40.9823
1289.76
514.537
-2.20644
1077.59
435.235
7.02334
885.504
458.095
40.9588
778.451
293.172
-104.953
417.191
-115.174
-90.254
-156.525
-516.703
60.7325
-828.365
-710.365
294.432
-835.15
-711.283
370.283
-24.9578
-832.687
130.087
922.506
-911.659
66.9059
1454.16
34.2048
1271.56
1224.42
-24.616
1039.26
1135.88
-49.4122
1656.14
877.543
-68.4793
1410.07
668.223
-36.43
1300.34
509.199
-0.592953
1085.71
430.978
5.36771
892.751
444.183
39.1195
773.982
246.345
-88.7772
393.229
-207.871
-44.554
-199.949
-661.038
176.596
-841.354
-840.033
281.444
-660.919
-761.645
123.547
141.051
-849.43
58.593
898.726
-919.405
76.7563
1458.27
26.1048
1266.96
1214.7
-12.4464
1036.2
1123.4
-31.1103
1655.58
866.967
-52.2045
1416.27
660.919
-27.5457
1311.3
504.647
0.0277624
1093.78
427.724
3.93336
900.187
434.359
32.3827
768.585
208.268
-56.9148
372.149
-237.116
-6.99325
-218.997
-657.736
259.66
-830.637
-881.881
319.493
-662.038
-817.18
-117.682
130.688
-873.583
-71.952
909.417
-929.232
74.6006
1467
14.3799
1257.7
1210.7
1.44048
1025.33
1122.12
-7.54487
1647.29
860.963
-16.4254
1419.12
653.659
-8.97231
1322.13
498.724
0.311186
1102.66
424.196
1.21771
908.381
431.936
12.2251
763.551
193.464
-22.1594
356.021
-198.92
-2.56806
-222.286
-436.713
137.753
-817.223
-595.112
219.218
-920.327
-751.973
-108.051
-372.542
-903.503
-93.8527
882.559
-921.63
39.3816
1466.14
10.5671
1248.9
1212.99
11.1808
1019.99
1127.15
16.3148
1641.35
862.177
27.9393
1417.97
652.749
14.9139
1324.58
496.595
2.36259
1105.37
422.661
-1.08408
912.215
428.606
-13.7136
761.055
164.91
22.149
344.451
-254.157
20.5971
-245.048
-403.785
-75.2999
-821.816
-386.284
-116.118
-992.063
-640.735
32.7607
-671.044
-931.415
33.4102
843.246
-924.954
-12.1208
1454.09
5.24556
1223.27
1213.76
20.5353
1029.65
1123.46
39.328
1649.48
862.471
60.4399
1418.97
654.592
32.6057
1320.66
498.881
3.19984
1101.74
423.403
-3.34704
907.769
430.327
-33.1626
763.933
190.263
56.4136
355.926
-192.824
17.0382
-216.352
-388.036
-246.134
-801.866
-467.655
-319.911
-963.86
-677.124
140.306
-597.336
-903.975
99.3282
847.776
-910.04
-62.5474
1468.95
2.16575
1269.63
1217.69
29.5536
1039.18
1125.9
56.1781
1656.33
868.903
74.538
1415.35
661.852
41.1241
1309.67
504.545
4.32824
1092.82
426.251
-4.26957
899.303
432.267
-38.2449
770.083
209.575
84.5729
375.369
-211.503
34.0604
-202.483
-601.908
-205.288
-817.018
-841.774
-263.066
-731.543
-811.343
-22.5611
26.5513
-869.194
-18.7473
910.384
-921.442
-71.5164
1468.86
-12.8103
1281.23
1227.15
34.1274
1041.28
1138.71
65.1589
1656.36
879.418
77.8084
1408.87
668.955
45.3723
1298.64
508.702
6.33307
1084.58
428.933
-5.31488
891.782
440.589
-37.7435
775.467
237.891
104.077
396.304
-226.03
82.8849
-197.337
-693.057
-72.4782
-829.979
-866.418
-279.866
-612.457
-764.364
-296.321
167.613
-846.132
-95.8595
903.196
-915.694
-62.8897
1460.97
-22.2543
1283.04
1237.1
34.5091
1038.27
1154.5
67.0213
1652.15
891.302
74.9883
1401.06
676.826
46.9952
1288.08
514.127
8.06207
1076.29
433.04
-6.37531
884.421
454.558
-37.1554
779.329
286.835
105.288
420.521
-132.687
109.444
-155.824
-558.184
-10.7959
-827.592
-754.768
-267.504
-770.409
-724.696
-399.636
45.7011
-831.884
-130.323
926.136
-909.843
-43.9291
1459.3
-30.0029
1286.25
1248.28
30.9108
1030.96
1172.57
64.7025
1646.06
902.931
70.7821
1394.51
682.218
47.7673
1279.73
517.133
8.05162
1069.37
436.856
-10.2466
877.586
469.131
-39.2964
782.212
328.723
92.9498
440.299
-50.0444
106.512
-113.366
-417.044
-45.7867
-774.18
-613.276
-226.362
-934.621
-659.926
-258.069
-214.195
-809.764
-93.58
913.593
-901.663
-12.4578
1442.73
-38.1127
1287.91
1255.99
25.0098
1022.99
1189.25
55.4425
1637.9
917.55
61.9457
1386.17
693.291
45.6976
1269.95
524.442
8.33963
1061.75
440.538
-11.6732
870.726
476.076
-33.5031
788.392
352.55
71.3634
461.721
-5.69743
84.2397
-78.5077
-387.129
-82.3454
-734.547
-581.021
-205.861
-932.12
-616.927
-52.0473
-368.511
-774.498
-21.0805
868.193
-868.447
3.51442
1454.04
-27.9518
1350.7
1268.46
1010.93
1214.24
1627.47
938.809
1377.89
708.692
1257.57
532.645
1050.23
445.495
864.145
486.268
790.014
379.314
480.827
43.5662
-46.5533
-378.014
-707.666
-637.309
-863.116
-647.476
-231.105
-761.633
850.945
-854.511
1456.44
1391.4
1448.93
-12.2219
558.371
1713.94
-53.8066
1377.9
1662.4
-62.9825
1442.31
1468.58
-68.8146
1465.49
1201.64
-46.9712
1325.07
953.115
-20.9995
1115.96
811.222
17.962
926.66
658.813
-4.03791
634.86
393.64
-6.95339
215.874
-12.7657
73.476
-328.198
-447.416
288.617
-490.69
-627.097
83.8254
-113.142
-845.11
-44.7479
1067
-938.961
24.1597
1530.18
30.5122
1129.86
1446.28
-14.8742
564.247
1698.49
-59.3806
1391.95
1638.09
-70.2227
1454.95
1436.85
-74.0707
1477.88
1166.36
-48.047
1334.69
917.257
-22.4331
1122.2
772.077
23.2061
928.736
602.284
-4.91346
629.778
326.382
-17.1346
202.138
-29.363
33.231
-345.281
-302.448
165.735
-538.948
-527.902
256.357
-320.037
-863.082
86.4844
1065.7
-943.899
36.4395
1515.34
46.0863
1093.63
1446.39
-17.9269
568.043
1690.11
-56.9086
1400.36
1622.09
-69.9545
1463.45
1415.04
-72.6655
1486.87
1141.46
-45.4992
1341.67
892.855
-22.9655
1127.63
746.724
21.7961
929.445
565.436
-9.60908
623.245
268.809
-21.8674
185.629
-78.703
-18.6699
-372.123
-347.328
51.2943
-586.669
-582.119
379.066
-208.401
-908.432
189.174
1119.53
-973.271
49.7728
1487.3
39.5909
1037.2
1442.57
-18.4167
572.699
1677.11
-48.5741
1409.55
1604.2
-66.6854
1472.01
1395.58
-69.6693
1495.38
1121.86
-42.2044
1348.01
873.225
-21.6461
1132.82
721.018
21.3908
931.064
519.114
-9.76684
619.255
179.501
-8.26782
169.491
-275.53
28.4679
-420.47
-635.812
102.713
-526.286
-737.872
267.455
188.714
-928.862
131.092
1171.58
-987.652
63.4102
1499.31
27.7457
1029.52
1438.56
-16.7931
575.756
1665.3
-34.046
1414.87
1586.54
-56.0768
1478.22
1374.27
-60.4456
1503.39
1098.72
-35.7984
1354.85
850.135
-18.7169
1138.41
693.175
19.8902
932.444
470.955
-6.87875
612.562
92.5124
19.3559
150.873
-437.2
164.874
-448.046
-816.318
232.622
-411.708
-804.816
22.4453
374.56
-929.314
-5.13454
1159.45
-989.307
78.9094
1502.76
19.1402
1025.16
1431.05
-9.8686
577.414
1651.86
-16.1106
1416.83
1568.47
-37.76
1481.34
1353.17
-43.358
1509.51
1076.56
-25.9214
1360.52
828.849
-13.9065
1143.09
668.979
15.6294
932.716
431.514
-2.97659
605.714
61.168
31.0873
139.621
-412.009
245.901
-438.485
-829.642
409.365
-421.146
-860.827
-156.98
341.298
-949.772
-177.248
1170.48
-991.932
77.6573
1510.41
10.481
1019.6
1421.96
2.52728
576.478
1643.09
-1.76203
1411.81
1556.49
-10.538
1478.5
1336.41
-13.3128
1512.17
1055.93
-7.87445
1365.1
807.14
-4.36301
1147.63
646.702
6.47726
933.143
402.031
-0.927832
598.645
68.2545
10.9414
131.641
-206.855
122.175
-418.385
-470.586
304.375
-551.605
-719.004
-103.027
-178.076
-961.088
-163.749
1111.14
-968.018
41.1638
1509.56
21.9812
1020.01
1421.15
12.3551
575.581
1644.87
8.66924
1407.2
1557.66
19.8638
1474.77
1335.64
22.4032
1510.88
1052.78
14.8434
1365.51
802.337
9.09177
1149.21
640.099
-3.64477
933.417
382.298
5.42751
595.899
15.8464
9.67057
122.679
-203.942
-60.1012
-419.749
-214.654
-121.781
-555.193
-518.891
38.9966
-508.83
-974.485
68.6846
1066.41
-963.569
-8.96119
1493.3
29.0708
1009.08
1428.24
17.1949
577.331
1649.1
24.4518
1412.83
1561.89
46.8474
1479.19
1341.21
51.7244
1512.02
1060.11
32.7234
1364.96
810.21
18.8062
1147.96
648.964
-12.565
934.101
403.423
6.38546
600.511
74.8906
-16.7114
138.567
-161.607
-223.805
-401.662
-282.129
-411.905
-553.214
-574.783
172.262
-437.946
-950.443
220.483
1071.64
-956.777
-52.5283
1518.85
25.6208
1059.84
1434.72
20.2375
578.198
1656.26
41.9799
1417.26
1573.2
63.9884
1481.26
1357.8
67.8409
1508.95
1080.7
42.3834
1360.27
831.8
23.6074
1143.4
671.398
-16.2745
934.196
437.161
7.24802
608.745
90.5235
-23.6821
151.129
-333.347
-199.875
-417.076
-748.552
-265.964
-462.277
-835.789
73.1092
212.941
-943.833
78.8122
1160.1
-983.683
-64.8229
1521
0.799312
1065.1
1440.79
20.535
576.199
1668.8
55.3054
1415.02
1590.81
73.0023
1477.85
1378.67
75.932
1502.68
1102.65
48.4344
1354.55
852.61
26.6252
1138.8
694.078
-16.4213
934.147
469.388
12.3946
615.85
83.7673
7.02856
157.577
-461.792
-45.8237
-438.468
-845.487
-120.934
-373.792
-811.257
-200.044
406.538
-922.736
-72.8569
1166.34
-982.748
-54.056
1510.22
-11.853
1057.89
1444.39
19.2966
572.841
1680.49
62.2374
1409.12
1608.48
74.8098
1471.26
1400.1
77.8175
1494.57
1125.93
51.1465
1347.74
875.721
27.872
1133.38
721.601
-15.9311
932.958
517.204
14.4297
622.882
165.77
26.4484
176.187
-325.378
36.0206
-418.288
-701.996
-39.2891
-475.436
-755.89
-367.45
267.001
-922.749
-157.914
1178.05
-982.799
-42.112
1507.4
-24.8659
1057.5
1448.08
15.7473
567.882
1693.46
63.3811
1399.53
1626.37
73.8621
1462.54
1419.57
78.2275
1486.12
1145.5
53.02
1341.56
895.34
27.1049
1128.52
747.042
-17.0311
931.611
563.448
10.929
627.393
257.682
25.6289
193.222
-111.73
-1.35558
-367.39
-429.785
-90.2196
-565.634
-628.795
-296.543
-86.0886
-907.857
-111.781
1146.52
-974.616
-30.3364
1497.71
-37.7202
1062.97
1447.82
12.7739
563.909
1701.74
56.4974
1390.86
1642.35
65.5034
1453.92
1441.45
71.9392
1477.14
1170.58
51.0014
1334.64
920.11
25.0582
1123.24
772.95
-12.4886
931.011
601.749
9.70941
634.144
321.274
15.9138
211.686
-33.9688
-47.7387
-332.918
-304.403
-222.911
-528.991
-523.091
-133.379
-312.984
-858.758
15.122
1076.96
-942.067
-19.3384
1526.35
-26.4547
1119.76
1450.51
557.892
1717.15
1376.72
1666.51
1441.38
1472.98
1465.02
1205.63
1325.34
955.839
1117.44
811.73
929.334
657.57
639.782
391.097
227.987
-11.2054
-311.864
-422.749
-481.961
-601.957
-156.669
-838.967
1068.65
-934.888
1542.33
1156
1421.25
-3.19527
407.428
1747.35
-37.9551
1062.09
1937.46
-52.5001
1261.73
1993.62
-68.2422
1421.23
1907.07
-67.5779
1421.18
1735.91
-53.5938
1293.03
1552.87
-26.123
1109.4
1350.89
-3.93502
832.464
1041.33
20.2035
516.068
550.576
44.5329
151.247
-83.0778
197.459
112.364
-410.422
123.181
120.169
-757.671
-37.1695
1390.38
-867.845
48.3824
1619.68
32.4812
1094.92
1421.12
-3.30146
408.16
1744.04
-40.7826
1071.85
1928.29
-57.0218
1275.22
1974.56
-73.6885
1437.06
1876.52
-70.8048
1435.96
1695.17
-55.2717
1305.23
1503.42
-24.0021
1118.36
1291.88
-0.550988
837.937
979.029
18.6524
516.542
518.213
13.4119
146.656
75.4766
10.7376
90.511
-277.183
197.019
-41.2141
-773.213
152.581
1371.98
-866.037
59.8831
1596.66
51.0872
1070.28
1423.46
-5.06176
408.733
1745.39
-39.0926
1076.74
1924.25
-54.514
1282.08
1962.64
-71.2043
1446
1855.93
-67.3339
1444.91
1667.42
-52.2567
1313.13
1469.93
-21.2921
1124.22
1251.03
0.540445
841.058
921.411
19.6328
514.268
438.011
-15.4703
140.16
-69.0225
-111.895
42.9998
-402.884
209.778
112.703
-826.667
266.042
1429.85
-894.268
54.674
1560.11
38.3589
1031.37
1423.06
-5.36517
409.803
1742.13
-32.5353
1083.91
1916.07
-48.1449
1291.7
1948.36
-65.5659
1457.46
1835.57
-62.1544
1455.62
1641.85
-47.9996
1322.29
1438.46
-18.0179
1131.18
1208.34
3.804
846.119
850.846
32.4708
514.144
257.534
27.9865
129.387
-406.137
5.09864
20.3929
-644.404
135.535
501.226
-837.716
142.37
1488.56
-907.951
60.7206
1563.5
21.8119
1022.23
1423.13
-5.62014
411.015
1739.84
-22.512
1088.14
1908.27
-35.888
1297.52
1933.31
-52.8129
1465.59
1812.79
-51.0569
1464.27
1612.5
-39.5627
1330.26
1403.24
-13.5289
1137.22
1163.11
7.22816
849.263
788.292
45.8288
512.338
117.125
135.587
115.522
-573.758
224.423
59.8522
-701.699
-21.2989
659.334
-821.522
-72.3621
1494
-901.506
77.3034
1566.16
17.8661
1018.87
1419.31
-1.74848
412.847
1732.53
-10.391
1091.48
1896.63
-20.3352
1301.69
1915.55
-34.1961
1471.98
1788.14
-34.5913
1471.46
1582.2
-27.3909
1336.86
1368.18
-8.70123
1141.91
1122.92
7.06738
851.134
753.344
44.517
510.507
153.062
179.936
117.449
-549.78
447.733
58.3862
-746.513
-59.834
576.567
-845.277
-285.193
1482.07
-903.854
69.0026
1577.29
12.2304
1018.04
1414.88
4.90606
414.49
1724.64
0.0362491
1091.62
1886.01
-4.0213
1300.81
1899.93
-9.09185
1473.15
1765.29
-9.67065
1474.81
1552.12
-7.54065
1340.95
1332.57
-1.02638
1145.02
1083.37
4.30098
850.615
731.051
20.6952
507.785
292.584
83.3634
116.656
-196.153
335.089
49.7779
-496.859
-2.12673
64.9251
-826.948
-234.057
1390.1
-859.025
36.5186
1574.12
48.1325
1024.27
1415.58
8.47342
414.6
1725.02
7.66203
1090.14
1886.11
11.3985
1298.26
1899.03
17.8637
1471.01
1762.38
18.6358
1473.85
1546.85
16.1512
1341.04
1324.82
8.96872
1145.46
1070.94
3.45969
850.621
708.487
-1.76781
507.598
295.314
-35.3961
112.186
124.311
-112.125
63.0246
-218.086
2.93053
-171.49
-825.953
101.544
1338.67
-852.934
-0.83946
1557.64
70.0105
1029.57
1420.28
8.4156
413.595
1732
17.6342
1091.14
1893.26
28.8141
1300.51
1906.95
43.61
1472.58
1772.44
43.822
1474.29
1559.63
36.0001
1340.92
1340.32
16.6354
1145.74
1091.64
0.0419357
852.609
747.419
-31.7534
512.777
344.309
-157.422
123.475
65.0866
-446.177
60.0619
-293.38
42.6484
-119.197
-819.101
343.258
1355.64
-864.643
-31.276
1594.83
59.5424
1081.59
1422.79
7.96678
412.444
1736.91
29.3847
1091.38
1901.37
44.2538
1301.36
1920.84
61.7485
1471.34
1794.16
59.83
1470.94
1588.82
47.7539
1336.99
1375.21
21.2605
1143.18
1131.62
-1.41987
853.807
774.887
-41.3724
517.479
226.625
-155.718
129.483
-457.55
-282.964
58.6866
-713.467
100.327
411.182
-847.338
180.815
1456.41
-908.672
-49.9061
1600.96
9.13435
1087.38
1424.28
6.79161
411.181
1741.77
38.7519
1088.17
1911.31
55.3422
1297.21
1937.55
73.162
1465.03
1818.09
69.9121
1463.92
1618.42
55.5407
1330.69
1408.96
25.8155
1139.05
1167.69
2.94045
852.758
791.803
-27.2297
519.323
109.579
-35.2425
123.283
-598.251
-31.2642
82.3396
-715.831
-77.4898
701.934
-819.381
-55.9621
1506.67
-897.469
-42.3698
1580.77
-7.77027
1071.65
1423.86
6.05886
410.13
1743.71
44.3326
1083.68
1918.86
60.3651
1291.09
1952.44
77.4361
1456.73
1840.77
74.0077
1455.32
1647.62
59.0576
1323.01
1443.76
29.0096
1133.63
1211.62
7.50322
850.46
848.776
-10.8831
522.688
222.778
36.3348
136.139
-465.796
132.799
49.0793
-660.114
-207.822
591.656
-823.079
-222.525
1507.58
-896.164
-37.1145
1575.23
-21.09
1068.1
1424.26
3.96161
409.042
1746.93
44.9166
1076.28
1926.95
61.6116
1281.28
1966.61
78.65
1445.24
1861.01
76.3825
1444.79
1673.09
61.2303
1314.27
1474.96
31.4056
1127.35
1254.32
8.99393
846.536
918.892
-6.53614
524.31
422.21
13.7014
151.929
-156.093
91.5927
53.8809
-474.398
-215.536
239.936
-826.177
-189.898
1465.68
-895.185
-46.6972
1576.3
-42.6547
1073.87
1421.84
3.67248
408.482
1745.42
40.9258
1071.27
1930.81
55.8196
1274.31
1978.38
71.9273
1436.29
1881.49
71.9457
1435.96
1700.83
58.5028
1306.63
1508.74
32.5631
1121.94
1296.32
11.5096
844.058
981.739
-8.37653
528.104
526.631
-25.7765
161.67
76.7578
-93.1
105.579
-268.647
-168.904
-14.2054
-767.578
-10.466
1396.46
-863.499
-38.8123
1614.39
-29.3864
1111.62
1422.15
407.746
1748.86
1061.42
1939.92
1260.84
1997.24
1420.64
1911.72
1421.54
1741.24
1294.97
1558.1
1113.72
1355.69
839.573
1048.12
529.748
561.131
170.279
-36.1615
131.93
-362.486
87.5205
-747.116
1400.06
-861.597
1639.45
1136.26
1438.23
-1.77038
402.564
1626.27
-19.7184
879.109
1838.24
-33.2234
1055.39
2025.99
-49.7748
1241.46
2115.91
-60.3741
1339.47
2096.43
-59.2166
1318.57
1982.03
-46.6167
1226.15
1777.2
-24.3149
1034.7
1429.86
-0.515781
857.675
943.014
17.6999
631.109
336.722
72.8958
739.638
-103.341
90.1927
538.467
-602.351
-6.42208
1841.06
-747.356
57.1217
1739.62
38.62
1296.74
1436.57
-1.20932
402.618
1625.25
-20.1859
883.633
1838.12
-34.9473
1064.08
2023.75
-53.0019
1254.66
2107.78
-63.3471
1354.9
2080.75
-60.9003
1333.94
1959.11
-46.1323
1239.52
1749.21
-21.8953
1045.41
1403.38
-1.37528
863.236
933.646
1.42474
632.664
465.669
-93.4687
724.854
54.7821
12.0333
447.834
-587.357
199.094
1808.6
-730.221
78.2018
1718.44
58.7311
1298.76
1437.69
-2.00902
402.714
1628.57
-19.7303
885.401
1841.2
-32.8671
1067.36
2024.29
-50.4493
1260.37
2103.43
-59.8582
1362.28
2070.49
-56.7489
1341.92
1942.95
-41.2701
1246.89
1728.24
-17.8393
1051.72
1371.53
3.50113
866.105
891.13
-13.7273
635.708
303.845
-168.333
705.151
-124.356
-9.41139
562.35
-646.663
302.903
1848.34
-764.076
70.2654
1685.46
43.1402
1271.8
1436.27
-0.839223
402.966
1627.86
-16.4822
889.072
1840.68
-27.9768
1074
2021.86
-44.6548
1270.48
2097.14
-53.6507
1374.13
2059.61
-50.7825
1353.86
1927.38
-35.2783
1257.42
1706.78
-11.8287
1060.71
1335.69
17.8432
870.889
789.049
20.7888
641.515
-35.1113
-11.7228
687.944
-425.467
27.0908
855.079
-671.05
134.13
1902.92
-791.072
65.8472
1687.94
27.5071
1245.8
1436.15
0.819768
403.458
1628.89
-12.293
891.212
1841.04
-20.1823
1077.58
2019.39
-33.9524
1276.54
2089.77
-41.8114
1382.05
2046.33
-39.6787
1362.61
1908.68
-26.0143
1265.6
1682.4
-3.77664
1067.49
1305.41
33.3322
873.837
709.125
91.585
641.013
-175.87
247.835
685.29
-508.755
9.50701
1009.8
-669.983
-137.829
1927.19
-796.797
62.8534
1695.97
16.672
1238.67
1435.63
2.87974
404.21
1626.99
-5.83566
893.664
1837.62
-10.3586
1081.23
2013
-19.8685
1282.52
2078.66
-25.8989
1389.88
2029.69
-25.0782
1371.23
1887.32
-15.3806
1273.65
1659.78
1.20314
1073.69
1288.66
37.5758
877.386
747.071
111.326
639.298
-93.298
448.788
697.803
-491.746
137.912
846.611
-685.26
-350.67
1888.42
-795.003
34.885
1715
-1.87071
1252.44
1436.07
4.19454
404.682
1625.3
1.47255
895.077
1833.52
-0.126678
1082.36
2005.55
-3.29291
1284.54
2066.37
-5.47388
1393.57
2011.15
-5.21286
1376.31
1863.31
-1.4765
1278.95
1633.85
4.31227
1076.97
1279.5
20.717
878.991
828.13
49.1606
630.195
353.57
260.441
712.686
-62.4899
158.845
460.053
-594.082
-219.199
1790.22
-692.684
3.28476
1704.32
91.7868
1251.68