/*--------------------------------*- C++ -*----------------------------------*\
| =========                 |                                                 |
| \\      /  F ield         | OpenFOAM: The Open Source CFD Toolbox           |
|  \\    /   O peration     | Version:  4.1                                   |
|   \\  /    A nd           | Web:      www.OpenFOAM.org                      |
|    \\/     M anipulation  |                                                 |
\*---------------------------------------------------------------------------*/
FoamFile
{
    version     2.0;
    format      ascii;
    class       volVectorField;
    location    "15";
    object      U;
}
// * * * * * * * * * * * * * * * * * * * * * * * * * * * * * * * * * * * * * //

dimensions      [0 1 -1 0 0 0 0];

internalField   nonuniform List<vector> 
6750
(
(7.12915 -0.00755421 19.0288)
(-1.01553 -0.0894915 14.1008)
(2.23296 -0.0696803 10.1601)
(0.457551 -0.00118224 11.3842)
(1.67256 0.0116238 9.85211)
(0.645798 0.0280746 9.29925)
(1.68226 -0.0720306 11.0875)
(-0.410878 0.00970514 -6.47682)
(-7.12035 0.458948 -14.0107)
(-8.77163 0.985531 -16.5392)
(-8.40397 0.640734 -8.76582)
(-3.38578 0.337432 3.72453)
(-3.18106 0.0944563 8.92268)
(-0.642009 -0.0263239 14.4359)
(-5.95565 0.0229904 21.0844)
(7.07204 -0.0163385 19.0254)
(-1.01107 -0.160812 14.278)
(2.21231 -0.111279 10.6558)
(0.4796 0.00255319 11.7299)
(1.65732 0.0168269 9.99835)
(0.593924 0.0527307 9.29867)
(1.67617 -0.109837 10.7949)
(-0.748873 -0.294497 -6.95174)
(-7.33907 0.438461 -14.2728)
(-8.84058 1.28257 -16.5038)
(-8.25602 0.985742 -8.52926)
(-3.14232 0.579429 4.04832)
(-3.09805 0.258543 9.61825)
(-0.647297 -0.00898877 14.7901)
(-6.05532 0.0539299 20.7302)
(7.02896 -0.0203996 19.0185)
(-1.00421 -0.167164 14.4345)
(2.2098 -0.100244 10.9852)
(0.495836 0.00660424 11.9112)
(1.64978 0.0105294 10.0737)
(0.56144 0.0487378 9.34837)
(1.71093 -0.0942725 10.399)
(-0.852911 -0.383967 -7.07968)
(-7.35471 0.389329 -14.4147)
(-8.64969 1.27194 -16.6621)
(-8.02151 1.18838 -8.79593)
(-3.12966 0.729418 3.76623)
(-3.17675 0.461367 9.48665)
(-0.682302 0.114764 15.0738)
(-6.24513 0.0725661 20.1348)
(6.99559 -0.0222002 18.9572)
(-0.997585 -0.187924 14.5908)
(2.2184 -0.0987005 11.3202)
(0.516019 0.0114178 12.0912)
(1.6409 0.00871532 10.1539)
(0.52109 0.0470239 9.42465)
(1.71729 -0.127525 10.087)
(-1.00294 -0.470414 -7.25261)
(-7.38194 0.394442 -14.4815)
(-8.51645 1.41655 -16.5691)
(-7.82224 1.41899 -8.80702)
(-3.23516 0.818119 2.97856)
(-3.38036 0.549375 8.82463)
(-0.747173 0.219881 15.2195)
(-6.24734 0.0831758 20.3163)
(6.98277 -0.0192061 18.8504)
(-0.983675 -0.182588 14.8)
(2.22354 -0.0794079 11.6638)
(0.530217 0.0185376 12.2587)
(1.63137 0.00672615 10.2206)
(0.473785 0.0414096 9.4992)
(1.74388 -0.139704 9.70946)
(-1.40337 -0.477348 -7.74059)
(-7.79522 0.419162 -14.5311)
(-8.92353 1.30894 -15.8012)
(-7.94685 1.22448 -8.14757)
(-3.40213 0.809035 1.88801)
(-3.59875 0.649447 8.04236)
(-0.804065 0.230922 15.1659)
(-6.29448 0.0850999 20.3703)
(6.99961 -0.0132605 18.6776)
(-0.967126 -0.157857 15.0444)
(2.21973 -0.0581463 12.033)
(0.540399 0.0210125 12.4334)
(1.6221 0.00807732 10.2731)
(0.432258 0.0349818 9.58667)
(1.76848 -0.0963023 9.30404)
(-1.7141 -0.282183 -7.929)
(-7.87613 0.860865 -14.5136)
(-8.88933 1.53313 -15.8999)
(-8.63327 0.860934 -8.7001)
(-4.41089 0.711625 0.720698)
(-3.73841 0.644281 7.28212)
(-0.896861 0.212091 15.2827)
(-6.34926 0.069972 20.3767)
(7.06492 -0.00478272 18.4224)
(-0.956409 -0.087821 15.2366)
(2.20645 -0.0273289 12.3568)
(0.544827 0.0132198 12.6161)
(1.61448 0.00326533 10.3213)
(0.410124 0.0200202 9.67582)
(1.81412 -0.112173 8.90061)
(-1.90925 -0.18867 -7.7837)
(-7.40008 0.764403 -14.3875)
(-7.09762 1.61838 -17.9945)
(-7.08611 0.975639 -15.3213)
(-5.44749 -0.0117211 -5.55337)
(-3.99833 0.168993 7.05976)
(-0.9425 0.145796 15.4011)
(-6.44048 0.0396068 20.2272)
(7.10245 0.00528953 18.3086)
(-0.959128 0.0142586 15.2553)
(2.20348 0.00452171 12.4314)
(0.544907 -0.0014872 12.6779)
(1.61183 -0.000135219 10.3426)
(0.372612 -0.00493929 9.72965)
(1.848 -0.0132712 8.57969)
(-2.70485 -0.00481373 -8.35504)
(-7.88616 0.12504 -14.5908)
(-6.53338 0.289519 -18.8477)
(-4.85862 0.364653 -18.6038)
(-4.02222 0.0201783 -9.5853)
(-4.40273 -0.103893 6.72685)
(-0.918351 0.0258881 15.519)
(-6.57625 0.00437634 19.846)
(7.04827 0.0140728 18.4877)
(-0.963115 0.108974 15.1871)
(2.20754 0.0366834 12.3046)
(0.543695 -0.0137067 12.5947)
(1.61377 -0.00113387 10.3194)
(0.406059 -0.0287749 9.65978)
(1.80236 0.121837 8.88953)
(-2.03534 0.201255 -7.77309)
(-7.34907 -0.607777 -14.2846)
(-6.65659 -1.48888 -18.3454)
(-6.24166 -0.974504 -16.9628)
(-4.85117 0.0588495 -7.88254)
(-4.1685 -0.108322 6.94192)
(-0.917997 -0.155792 15.3927)
(-6.43851 -0.0275628 20.2731)
(6.99349 0.020595 18.7323)
(-0.975568 0.169882 14.9858)
(2.2173 0.067445 11.9743)
(0.537816 -0.0184314 12.4101)
(1.62024 -0.00458911 10.2655)
(0.437313 -0.040727 9.56149)
(1.74267 0.108692 9.35443)
(-1.66188 0.265429 -7.74001)
(-7.70336 -0.902535 -14.4158)
(-8.6338 -1.59115 -16.3051)
(-8.73779 -0.727047 -9.64009)
(-4.85553 -0.504477 0.454939)
(-3.61657 -0.581348 7.63674)
(-0.911917 -0.231498 15.2515)
(-6.33663 -0.0600664 20.4295)
(6.98296 0.0249466 18.9004)
(-0.992396 0.190319 14.7451)
(2.2186 0.0881758 11.6023)
(0.525994 -0.014905 12.2303)
(1.6289 -0.00236142 10.2061)
(0.474462 -0.0436553 9.47273)
(1.72374 0.15688 9.7436)
(-1.44382 0.463922 -7.75274)
(-7.8609 -0.45144 -14.4649)
(-9.02509 -1.28248 -15.4633)
(-7.94721 -1.05777 -7.63692)
(-3.31611 -0.744141 1.95671)
(-3.57796 -0.680825 8.15877)
(-0.78666 -0.214175 15.1883)
(-6.29608 -0.0775155 20.4013)
(7.00127 0.0265495 18.9996)
(-1.00601 0.191957 14.5401)
(2.21291 0.106859 11.2545)
(0.511287 -0.0069642 12.057)
(1.6383 -0.00350427 10.1319)
(0.5331 -0.0470693 9.39257)
(1.69709 0.154239 10.1162)
(-0.917009 0.485176 -7.12812)
(-7.29997 -0.331888 -14.426)
(-8.48575 -1.40144 -16.4761)
(-7.77198 -1.39085 -8.57693)
(-3.14525 -0.729509 3.0359)
(-3.39577 -0.507527 8.881)
(-0.737451 -0.216793 15.2588)
(-6.25226 -0.0741421 20.3473)
(7.03859 0.0235314 19.055)
(-1.012 0.169239 14.3905)
(2.2041 0.107063 10.9183)
(0.49025 -0.0024077 11.8727)
(1.64685 -0.00637424 10.0462)
(0.574358 -0.0478969 9.31527)
(1.69204 0.10714 10.4008)
(-0.773179 0.375488 -6.94494)
(-7.25089 -0.356464 -14.3599)
(-8.56312 -1.25982 -16.6261)
(-7.95345 -1.21472 -8.62683)
(-3.06266 -0.74186 3.8609)
(-3.18692 -0.446221 9.55265)
(-0.670455 -0.114297 15.1256)
(-6.25341 -0.0658582 20.1625)
(7.08454 0.0186717 19.0569)
(-1.01822 0.161387 14.2391)
(2.20688 0.117154 10.5867)
(0.47367 0.0017205 11.6864)
(1.65447 -0.0129631 9.96555)
(0.611471 -0.0510622 9.2623)
(1.65881 0.11993 10.7787)
(-0.653365 0.306132 -6.79087)
(-7.22301 -0.369661 -14.2125)
(-8.76198 -1.26102 -16.5271)
(-8.22135 -1.07503 -8.54746)
(-3.12623 -0.629969 4.08394)
(-3.10107 -0.243047 9.68587)
(-0.636812 0.00644039 14.848)
(-6.06707 -0.0486741 20.7484)
(7.14364 0.00867352 19.0565)
(-1.02169 0.0894006 14.0704)
(2.22761 0.0727577 10.0946)
(0.450878 0.00370955 11.3383)
(1.66931 -0.00987158 9.81622)
(0.663018 -0.0270121 9.26468)
(1.6658 0.0731321 11.0427)
(-0.335284 -0.00897598 -6.3249)
(-7.00236 -0.42198 -13.9395)
(-8.67473 -0.967256 -16.5856)
(-8.37799 -0.672629 -8.8724)
(-3.39146 -0.365917 3.73743)
(-3.17725 -0.0886687 8.99353)
(-0.630793 0.024704 14.5054)
(-5.9681 -0.0207401 21.1017)
(18.7686 -0.0639949 19.3526)
(2.41935 -0.17692 16.2222)
(6.04223 -0.18228 10.4173)
(2.40812 -0.0620225 10.8645)
(4.03874 0.0252113 9.81518)
(2.98641 0.0704334 9.1612)
(4.82258 0.0228095 10.7206)
(5.08985 -0.393745 4.28772)
(-1.43172 -0.290963 -6.64727)
(-5.98163 0.87593 -15.3218)
(-8.67141 0.787669 -13.1235)
(-5.94774 0.229905 -1.69672)
(-6.43 0.189221 8.01277)
(-2.84055 -0.0603356 14.8575)
(-15.1358 0.0802689 20.0878)
(18.6749 -0.119662 19.3988)
(2.19347 -0.302401 16.2606)
(5.98303 -0.279292 10.7443)
(2.42819 -0.0816614 11.2397)
(4.05525 0.0337183 10.0446)
(2.97449 0.109897 9.21612)
(4.79803 0.0589186 10.5537)
(4.9146 -0.816196 3.96378)
(-1.89433 -0.551418 -7.23024)
(-6.35684 1.20436 -15.5397)
(-8.54553 1.43443 -13.2841)
(-5.94901 0.723658 -1.32926)
(-6.37817 0.458231 8.51924)
(-2.97788 -0.0582473 15.0807)
(-15.3089 0.181729 19.7025)
(18.6056 -0.122987 19.4237)
(2.04819 -0.307095 16.3298)
(5.95124 -0.263097 10.9946)
(2.4431 -0.0632393 11.4594)
(4.06698 0.0187024 10.1673)
(2.95204 0.0857392 9.29072)
(4.8237 0.0684553 10.2737)
(4.81648 -0.978069 3.64211)
(-2.15672 -0.620536 -7.56062)
(-6.40222 1.09428 -15.676)
(-8.19241 2.02177 -13.4271)
(-6.01148 1.81588 -1.19838)
(-6.5277 0.807274 8.5545)
(-3.27805 0.153694 15.24)
(-15.6222 0.203838 19.069)
(18.5351 -0.124044 19.3914)
(1.90829 -0.350709 16.3796)
(5.94502 -0.295212 11.2529)
(2.49528 -0.0587328 11.6746)
(4.08429 0.0214307 10.2897)
(2.91009 0.0820568 9.38128)
(4.77994 0.0666834 10.0815)
(4.57064 -1.13359 3.24925)
(-2.56999 -0.674577 -8.10672)
(-6.78399 1.17355 -15.6346)
(-8.63736 2.56089 -12.4477)
(-6.27819 2.20804 -1.03317)
(-6.89925 0.885861 8.23703)
(-3.43509 0.364478 15.4361)
(-15.6181 0.191337 19.1854)
(18.4929 -0.0996611 19.3023)
(1.81423 -0.339747 16.4761)
(5.936 -0.278487 11.5478)
(2.5283 -0.0344778 11.8931)
(4.09204 0.026505 10.3988)
(2.87127 0.0698367 9.4648)
(4.75811 0.0764839 9.85766)
(4.2957 -1.11396 2.81229)
(-3.28298 -0.450044 -8.88989)
(-7.74928 1.37892 -15.2527)
(-9.6452 2.42563 -11.0637)
(-6.57644 1.90024 -1.44342)
(-7.23975 0.855832 7.66494)
(-3.57066 0.390518 15.4354)
(-15.6847 0.183044 19.1986)
(18.4887 -0.0570633 19.1347)
(1.77653 -0.297575 16.5899)
(5.91925 -0.254871 11.8763)
(2.54919 -0.020317 12.1267)
(4.09649 0.0352295 10.4931)
(2.83352 0.0589744 9.55622)
(4.74007 0.112641 9.60762)
(4.0817 -0.934136 2.47648)
(-3.70768 0.133739 -9.04751)
(-7.47458 2.0569 -15.13)
(-9.95481 1.83604 -11.0365)
(-7.47798 0.559508 -1.84559)
(-7.48487 0.563134 7.24137)
(-3.79903 0.405048 15.5702)
(-15.75 0.13216 19.1432)
(18.5588 -0.00672725 18.8731)
(1.85709 -0.16615 16.675)
(5.89472 -0.152446 12.174)
(2.538 -0.00837678 12.3638)
(4.08749 0.0237328 10.5809)
(2.8089 0.037334 9.64911)
(4.75287 0.0630386 9.34885)
(4.04929 -0.579109 2.24221)
(-3.79525 0.11278 -8.65147)
(-5.82363 1.96099 -15.211)
(-6.92187 1.97541 -14.844)
(-6.79909 -0.429649 -6.90355)
(-8.24392 -0.139818 7.09572)
(-3.78744 0.297129 15.6499)
(-15.907 0.0755236 18.964)
(18.6082 0.0182413 18.7596)
(1.92259 0.0297294 16.6735)
(5.89017 0.0261073 12.2412)
(2.52853 0.00278323 12.435)
(4.08188 0.000508336 10.6116)
(2.77507 -0.00793229 9.70428)
(4.78557 -0.0151719 9.20317)
(3.82595 -0.0431578 1.91072)
(-4.55945 0.0600233 -9.00858)
(-6.14992 0.283458 -15.2154)
(-4.87896 0.469454 -16.4955)
(-4.61581 -0.0882585 -9.75694)
(-8.94783 -0.187936 6.80516)
(-3.82247 0.0757679 15.6704)
(-16.116 0.0116967 18.5772)
(18.5467 0.0403738 18.9501)
(1.82751 0.210854 16.6483)
(5.89627 0.190219 12.1173)
(2.53574 0.0161606 12.3293)
(4.08366 -0.0173113 10.5732)
(2.80646 -0.0523209 9.63716)
(4.73325 -0.0741853 9.35287)
(3.99204 0.520839 2.20707)
(-3.88211 0.0295705 -8.54199)
(-5.55679 -1.72729 -15.0884)
(-6.06861 -1.95687 -15.6091)
(-5.69128 0.247253 -8.67725)
(-8.57238 0.142701 6.91154)
(-3.67233 -0.266426 15.6464)
(-15.9114 -0.0356996 19.0242)
(18.4938 0.083077 19.198)
(1.76659 0.325239 16.557)
(5.91737 0.278049 11.8156)
(2.54 0.0317734 12.0902)
(4.0867 -0.0251362 10.4789)
(2.83033 -0.0685162 9.53495)
(4.69913 -0.119476 9.63906)
(4.03669 0.893915 2.49229)
(-3.62912 -0.162627 -8.78086)
(-7.06416 -2.17471 -15.1098)
(-9.6831 -1.73929 -11.6195)
(-7.67009 -0.0930069 -2.24907)
(-7.44026 -0.418545 7.44481)
(-3.76911 -0.416751 15.5514)
(-15.7397 -0.091508 19.2134)
(18.5071 0.118187 19.3575)
(1.81367 0.359183 16.4465)
(5.93101 0.297745 11.4876)
(2.51363 0.0475675 11.8532)
(4.07892 -0.0147247 10.3771)
(2.85975 -0.0740717 9.44153)
(4.71908 -0.0668666 9.88513)
(4.2291 1.08797 2.8052)
(-3.41758 0.348497 -8.96915)
(-7.98571 -1.44513 -15.0697)
(-9.93934 -2.16839 -10.4875)
(-6.63572 -1.59389 -1.17643)
(-7.24079 -0.790211 7.73869)
(-3.52905 -0.36164 15.462)
(-15.7044 -0.151058 19.2487)
(18.5571 0.13773 19.436)
(1.91561 0.361987 16.3541)
(5.93995 0.309899 11.192)
(2.48005 0.0729577 11.6294)
(4.06867 -0.00743948 10.2589)
(2.90439 -0.0815258 9.35224)
(4.73692 -0.0444046 10.0885)
(4.54978 1.11931 3.26456)
(-2.58509 0.717115 -8.11525)
(-6.92503 -1.12307 -15.5294)
(-8.89845 -2.5469 -11.9519)
(-6.34949 -2.01279 -0.710572)
(-6.94813 -0.777072 8.30893)
(-3.41328 -0.359088 15.4833)
(-15.6437 -0.157888 19.2372)
(18.6332 0.132376 19.4599)
(2.06167 0.31379 16.3105)
(5.9466 0.274606 10.9363)
(2.42651 0.0762139 11.4116)
(4.04938 -0.006589 10.1305)
(2.94459 -0.082047 9.26067)
(4.78297 -0.050648 10.2585)
(4.80589 0.969159 3.66048)
(-2.15002 0.661823 -7.53133)
(-6.44349 -0.989791 -15.6197)
(-8.33572 -2.04928 -13.0219)
(-6.07969 -1.91329 -0.742219)
(-6.5718 -0.768202 8.67275)
(-3.261 -0.155178 15.2972)
(-15.6559 -0.17877 19.1205)
(18.7062 0.126353 19.4281)
(2.21187 0.305644 16.2458)
(5.97956 0.288739 10.6875)
(2.41214 0.0947138 11.188)
(4.03682 -0.021318 10.0014)
(2.97125 -0.103214 9.18236)
(4.76039 -0.0381512 10.5177)
(4.91667 0.815277 3.98489)
(-1.84909 0.634705 -7.14767)
(-6.33707 -1.05402 -15.5135)
(-8.55649 -1.52319 -13.2665)
(-5.98578 -1.00665 -1.25616)
(-6.39105 -0.438412 8.60247)
(-2.95875 0.048638 15.1391)
(-15.3481 -0.163757 19.7467)
(18.8023 0.0671044 19.3765)
(2.44092 0.177934 16.2143)
(6.03976 0.187487 10.3677)
(2.39186 0.0701275 10.813)
(4.01884 -0.0182368 9.76902)
(2.98306 -0.0650922 9.12936)
(4.78892 -0.0140082 10.665)
(5.09219 0.393923 4.30378)
(-1.38038 0.352564 -6.52409)
(-5.92321 -0.77539 -15.2846)
(-8.64955 -0.805312 -13.2345)
(-5.99127 -0.332919 -1.74939)
(-6.42239 -0.180133 8.08016)
(-2.81562 0.0557314 14.9245)
(-15.1763 -0.0727516 20.1318)
(24.821 -0.0917001 15.0745)
(11.7283 -0.22647 19.1613)
(12.8818 -0.267513 14.214)
(8.78233 -0.200667 12.2537)
(7.06184 -0.0313323 10.0471)
(4.90262 0.0679118 8.49885)
(5.26815 0.164633 8.55805)
(5.56639 -0.242138 4.42216)
(2.83696 -0.290132 -2.52966)
(-1.60097 0.549877 -10.2283)
(-6.71435 0.926699 -10.7706)
(-7.61072 -0.287577 -1.93506)
(-8.57157 0.0120911 8.69304)
(-5.34773 -0.0276486 15.8913)
(-20.9106 0.11035 17.4383)
(24.8247 -0.165874 15.2188)
(11.4101 -0.365201 19.2318)
(12.6365 -0.401381 14.2907)
(8.55456 -0.273282 12.4424)
(6.93697 -0.0260668 10.2415)
(4.84902 0.092981 8.61084)
(5.20365 0.263646 8.52094)
(5.43505 -0.482023 4.09852)
(2.36427 -0.54301 -2.91156)
(-2.15965 0.723883 -10.538)
(-6.25845 1.61994 -11.7723)
(-6.57183 0.400106 -3.50454)
(-8.66323 0.18203 8.93899)
(-5.58863 -0.00768453 15.9484)
(-21.0159 0.246952 16.9864)
(24.8291 -0.172759 15.31)
(11.2072 -0.341959 19.3039)
(12.4699 -0.375231 14.3826)
(8.39772 -0.23092 12.5789)
(6.84516 -0.0213293 10.3548)
(4.78727 0.0521642 8.71385)
(5.18026 0.236688 8.3877)
(5.33397 -0.537854 3.73273)
(1.97712 -0.608988 -3.33095)
(-2.59981 0.198497 -10.8748)
(-5.99561 1.31637 -12.1404)
(-6.60405 2.0307 -3.20713)
(-8.909 0.792192 9.18387)
(-6.19003 0.159993 15.9256)
(-21.1901 0.25456 16.2812)
(24.8143 -0.18593 15.3713)
(10.9676 -0.364417 19.3359)
(12.3055 -0.42619 14.4553)
(8.30367 -0.24923 12.7068)
(6.81511 -0.0209546 10.4693)
(4.7527 0.046267 8.82433)
(5.11673 0.236099 8.3139)
(5.09174 -0.612929 3.36398)
(1.30529 -0.60075 -3.95578)
(-3.63471 0.116248 -11.3602)
(-7.92077 1.67681 -10.4072)
(-7.88354 2.52509 -0.798791)
(-9.27354 0.851424 9.29228)
(-6.42281 0.354955 16.1554)
(-21.1605 0.201713 16.3027)
(24.8031 -0.162001 15.3667)
(10.7715 -0.313408 19.362)
(12.1527 -0.401083 14.5624)
(8.19124 -0.214598 12.8662)
(6.75235 -0.00516994 10.5913)
(4.70097 0.0332676 8.93074)
(5.06208 0.224832 8.21896)
(4.84637 -0.564768 2.93625)
(0.503586 -0.408676 -4.60409)
(-4.90869 0.563479 -11.2999)
(-9.91923 1.68529 -8.27632)
(-8.80626 1.72029 0.622844)
(-9.50194 0.643038 8.96737)
(-6.56555 0.394401 16.2003)
(-21.1925 0.185122 16.264)
(24.7857 -0.111702 15.282)
(10.6166 -0.24192 19.3449)
(12.0175 -0.367317 14.6746)
(8.08359 -0.193749 13.0464)
(6.69553 9.65101e-05 10.7154)
(4.65942 0.0286963 9.04298)
(5.02272 0.218119 8.1091)
(4.66722 -0.4247 2.56332)
(-0.198249 -0.0659254 -4.86785)
(-4.81091 1.47357 -11.1686)
(-9.97639 1.48839 -8.18011)
(-9.69216 -0.353029 0.607403)
(-9.84547 -0.0297072 9.00064)
(-6.79476 0.47275 16.3101)
(-21.203 0.103228 16.1528)
(24.7652 -0.0263417 15.0831)
(10.6224 -0.110607 19.2519)
(11.9687 -0.217478 14.7736)
(7.99348 -0.11767 13.2404)
(6.62351 -0.00128791 10.8485)
(4.60151 0.0155554 9.16108)
(4.99698 0.145705 7.99753)
(4.63716 -0.227952 2.29832)
(-0.507783 -0.0429846 -4.86094)
(-3.6336 1.38378 -11.2573)
(-6.17728 2.04926 -11.7835)
(-7.11909 -0.98194 -4.92967)
(-10.8458 -0.736932 8.84608)
(-6.50197 0.359325 16.3093)
(-21.3719 0.0667587 16.0012)
(24.7632 0.0398559 14.9901)
(10.6992 0.026314 19.1885)
(11.9995 0.0364382 14.7888)
(7.98932 0.0184353 13.296)
(6.6081 0.00694682 10.8913)
(4.56992 -2.22199e-05 9.21625)
(4.99202 -0.00540405 7.93799)
(4.56153 -0.00102638 2.06404)
(-1.05507 0.0480859 -5.2077)
(-4.35292 0.227785 -11.4097)
(-4.66196 0.568239 -13.0521)
(-4.03768 -0.202637 -7.98371)
(-11.3881 -0.268631 8.48725)
(-6.54814 0.102214 16.2052)
(-21.4971 0.040885 15.6501)
(24.7877 0.0859623 15.1536)
(10.6357 0.159045 19.2774)
(11.9889 0.27316 14.7569)
(8.00869 0.147933 13.2094)
(6.6284 0.0176053 10.8308)
(4.6 -0.014097 9.14745)
(4.98132 -0.152006 7.99949)
(4.61409 0.230377 2.28769)
(-0.556638 0.150282 -4.80484)
(-3.44345 -1.12982 -11.1679)
(-5.27374 -2.02203 -12.5374)
(-5.17431 0.577389 -7.15878)
(-11.1033 0.663524 8.53465)
(-6.2259 -0.25394 16.3046)
(-21.4115 0.0288335 16.1414)
(24.807 0.145101 15.3319)
(10.6441 0.283978 19.3525)
(12.0466 0.405299 14.6528)
(8.10038 0.220412 13.0161)
(6.69861 0.0198618 10.6966)
(4.6538 -0.0235027 9.02377)
(4.99697 -0.220111 8.12945)
(4.64097 0.407693 2.61136)
(-0.151561 0.0614634 -4.66483)
(-4.27131 -1.59289 -11.1461)
(-9.25284 -1.51835 -9.07204)
(-9.50924 0.953852 -0.312263)
(-9.90196 0.320058 9.06585)
(-6.62677 -0.445549 16.2928)
(-21.2343 -0.0161494 16.3117)
(24.8253 0.184289 15.4045)
(10.8033 0.347081 19.3644)
(12.1829 0.431039 14.54)
(8.20597 0.240522 12.8361)
(6.75303 0.0273183 10.5693)
(4.68888 -0.0258911 8.90967)
(5.02861 -0.212585 8.23852)
(4.79616 0.547436 2.97565)
(0.363361 0.3174 -4.61572)
(-5.16718 -0.741642 -11.15)
(-10.3896 -1.45362 -7.70792)
(-8.91444 -1.15818 0.885772)
(-9.48238 -0.458223 9.00822)
(-6.48442 -0.363946 16.2159)
(-21.2354 -0.118167 16.3754)
(24.8382 0.200816 15.3954)
(11.0058 0.389005 19.3345)
(12.338 0.447617 14.4342)
(8.32124 0.272929 12.677)
(6.81599 0.0453595 10.4429)
(4.74254 -0.0341114 8.79982)
(5.07746 -0.211519 8.32112)
(5.05221 0.617627 3.40889)
(1.2042 0.595751 -4.00176)
(-3.92324 -0.0892958 -11.3281)
(-8.57584 -1.74519 -9.67559)
(-8.21247 -2.25953 -0.106945)
(-9.27129 -0.657958 9.33995)
(-6.37971 -0.338707 16.2034)
(-21.2121 -0.135516 16.4107)
(24.8547 0.182488 15.3238)
(11.2506 0.359348 19.302)
(12.5042 0.391032 14.3651)
(8.41679 0.251305 12.5515)
(6.84509 0.043181 10.327)
(4.77591 -0.0390094 8.69003)
(5.1404 -0.209842 8.38266)
(5.29741 0.552572 3.76987)
(1.89409 0.625416 -3.34514)
(-2.786 -0.0234802 -10.9189)
(-6.45807 -1.18357 -11.6401)
(-7.15873 -2.12998 -2.13877)
(-8.90546 -0.760926 9.3363)
(-6.1901 -0.153263 15.9895)
(-21.2494 -0.205126 16.3878)
(24.851 0.172343 15.2249)
(11.4567 0.377153 19.2291)
(12.6723 0.413321 14.2753)
(8.5767 0.292337 12.4157)
(6.93809 0.0485718 10.211)
(4.8423 -0.0767738 8.58529)
(5.16693 -0.23224 8.50168)
(5.40754 0.504207 4.12733)
(2.31948 0.587732 -2.8816)
(-2.23073 -0.497613 -10.505)
(-6.29612 -1.40427 -11.7639)
(-6.56563 -0.764437 -3.43996)
(-8.64736 -0.268244 9.00336)
(-5.54738 0.00884666 16.0119)
(-21.0866 -0.216493 17.0893)
(24.8485 0.0946533 15.0748)
(11.776 0.231943 19.1603)
(12.9176 0.273992 14.2043)
(8.80533 0.212569 12.232)
(7.06254 0.0455105 10.0182)
(4.89627 -0.0559563 8.47631)
(5.23511 -0.145342 8.52909)
(5.54055 0.26085 4.44139)
(2.79931 0.324261 -2.46961)
(-1.61529 -0.432164 -10.1375)
(-6.65454 -0.867276 -10.8922)
(-7.4549 0.132569 -2.27552)
(-8.54656 -0.0299354 8.72569)
(-5.28137 0.027965 15.9624)
(-20.9855 -0.0970273 17.5406)
(25.6804 -0.0451038 7.85889)
(17.1717 -0.229712 17.3858)
(19.1964 -0.286844 16.8815)
(18.1838 -0.319064 16.0008)
(15.0788 -0.228582 13.5994)
(11.8784 -0.104627 10.9589)
(9.60634 0.0664799 9.13554)
(8.56166 -0.0104094 5.97894)
(5.99906 -0.0150418 0.966311)
(2.96497 0.349645 -6.11165)
(-2.81824 1.32873 -8.46265)
(-6.68616 -0.0323347 -1.9406)
(-9.26833 -0.299698 10.5724)
(-6.15125 0.0790001 16.7355)
(-23.6492 0.101649 13.7187)
(25.7286 -0.0820173 7.97312)
(17.0242 -0.358824 17.555)
(18.9907 -0.418606 16.9953)
(17.8538 -0.446535 16.1033)
(14.6902 -0.295614 13.675)
(11.4739 -0.129375 11.0021)
(9.20059 0.136639 9.12574)
(8.09451 -0.0223724 5.84968)
(5.17334 -0.063659 0.699492)
(2.3035 0.425461 -6.3471)
(-2.5521 1.77743 -9.1713)
(-3.8805 0.935688 -4.57349)
(-9.58187 -0.0859019 10.6273)
(-6.33782 0.179458 16.6334)
(-23.6381 0.244579 13.2596)
(25.7668 -0.0909801 8.04632)
(16.9575 -0.317932 17.6655)
(18.864 -0.37642 17.0888)
(17.6278 -0.391589 16.1914)
(14.4212 -0.247853 13.7338)
(11.1835 -0.124361 11.0506)
(8.93814 0.123708 9.09999)
(7.79048 -0.0389906 5.70572)
(4.62935 -0.130194 0.409646)
(1.58606 -0.0437605 -6.72918)
(-2.95982 0.15275 -9.59648)
(-4.57985 1.98075 -3.76632)
(-9.91158 1.02735 11.1321)
(-7.15678 0.232286 16.3988)
(-23.56 0.266472 12.5589)
(25.7971 -0.106516 8.1292)
(16.8264 -0.315575 17.7692)
(18.6907 -0.407053 17.1634)
(17.4059 -0.422098 16.2595)
(14.2019 -0.261438 13.7793)
(10.9635 -0.132166 11.0962)
(8.71159 0.122911 9.09254)
(7.44542 -0.0612726 5.59696)
(3.8814 -0.0997512 0.111522)
(0.429618 -0.137641 -7.52176)
(-6.30349 0.365863 -8.28496)
(-7.7927 2.1066 0.428607)
(-10.0695 1.02226 11.6113)
(-7.54462 0.323824 16.5746)
(-23.4885 0.175423 12.4857)
(25.822 -0.102041 8.17718)
(16.714 -0.234273 17.8298)
(18.5261 -0.345936 17.2276)
(17.1777 -0.364011 16.3424)
(13.9485 -0.215117 13.8433)
(10.698 -0.112119 11.1508)
(8.454 0.118081 9.08153)
(7.0802 -0.0491092 5.44854)
(3.11755 0.0266661 -0.226837)
(-0.704651 0.460403 -7.87118)
(-8.82979 0.9002 -6.47663)
(-9.35306 1.08319 2.76337)
(-10.016 0.502725 11.4024)
(-7.59706 0.3881 16.6158)
(-23.491 0.146454 12.4217)
(25.8273 -0.0847501 8.18992)
(16.5736 -0.147516 17.8349)
(18.3483 -0.282713 17.2528)
(16.9495 -0.314015 16.4118)
(13.7008 -0.186039 13.9029)
(10.4478 -0.0971599 11.2036)
(8.2215 0.106553 9.06343)
(6.77497 -0.0251764 5.30725)
(2.49531 0.189712 -0.412071)
(-0.715258 1.43806 -7.7611)
(-8.3207 1.70761 -6.627)
(-10.1372 -0.909168 2.54345)
(-10.4397 -0.61779 11.6066)
(-7.69966 0.497374 16.6956)
(-23.4754 0.0565472 12.3252)
(25.7935 -0.0236132 8.14405)
(16.4695 -0.0397124 17.7403)
(18.2392 -0.141949 17.2164)
(16.7872 -0.174773 16.4637)
(13.487 -0.106818 13.9713)
(10.1982 -0.0602908 11.2685)
(7.98046 0.0678324 9.05446)
(6.52173 -0.0140261 5.17785)
(2.07251 0.111998 -0.525477)
(-0.118972 1.23347 -7.40254)
(-4.34479 2.74311 -8.87842)
(-5.97706 -0.940398 -3.2454)
(-11.402 -1.34467 11.152)
(-7.01162 0.374221 16.6741)
(-23.685 0.0784025 12.2775)
(25.778 0.0501589 8.11765)
(16.4825 0.0196677 17.6699)
(18.2607 0.0261887 17.1754)
(16.7918 0.0265481 16.464)
(13.4659 0.0200588 13.9902)
(10.1491 0.0132956 11.2996)
(7.92031 0.00783446 9.05427)
(6.43555 0.0132957 5.11667)
(1.66002 0.0577334 -0.702313)
(-0.872984 0.204642 -7.38407)
(-3.44287 0.904283 -9.20995)
(-1.19941 -0.0227683 -6.8762)
(-11.6835 -0.400117 10.6482)
(-6.95945 0.10146 16.5056)
(-23.726 0.153679 12.0557)
(25.8238 0.0866185 8.17034)
(16.5403 0.0825504 17.7652)
(18.306 0.194372 17.2298)
(16.8445 0.224034 16.4613)
(13.5365 0.14523 13.9682)
(10.2432 0.0870526 11.2691)
(8.0041 -0.0517535 9.06186)
(6.55064 0.0393243 5.19049)
(2.0631 0.00705343 -0.445034)
(0.0553229 -0.933568 -7.15929)
(-3.51376 -2.50177 -9.09929)
(-2.5864 0.37617 -6.06225)
(-11.5417 1.18584 10.6953)
(-6.57733 -0.200277 16.7437)
(-23.847 0.176811 12.6029)
(25.8476 0.107942 8.20788)
(16.6173 0.194554 17.8447)
(18.4035 0.332257 17.2537)
(17.0035 0.358882 16.4048)
(13.75 0.22412 13.8998)
(10.4924 0.125312 11.2041)
(8.24318 -0.0884089 9.07866)
(6.80938 0.032842 5.34078)
(2.5938 -0.168994 -0.24612)
(-0.148648 -1.52786 -7.48338)
(-7.14325 -2.00933 -7.32583)
(-9.43365 1.44462 1.12277)
(-10.6018 1.11766 11.5629)
(-7.3784 -0.399687 16.7551)
(-23.641 0.0943331 12.6968)
(25.8381 0.117337 8.18599)
(16.7444 0.27617 17.8323)
(18.5734 0.385803 17.2232)
(17.2286 0.402297 16.3334)
(13.9958 0.251101 13.8394)
(10.7398 0.139249 11.1516)
(8.46715 -0.0946382 9.09779)
(7.08918 0.0524977 5.48202)
(3.05884 -0.063949 -0.15649)
(-0.80916 -0.712719 -7.75946)
(-9.31288 -0.919278 -5.96266)
(-9.5224 -0.449518 3.09658)
(-9.97865 -0.137915 11.4614)
(-7.4486 -0.332176 16.6611)
(-23.5863 -0.0600672 12.6751)
(25.8121 0.115578 8.13056)
(16.8555 0.349292 17.764)
(18.7363 0.438286 17.1555)
(17.4579 0.454363 16.2507)
(14.2507 0.295696 13.776)
(11.0072 0.161194 11.098)
(8.72283 -0.0905219 9.10784)
(7.44989 0.0854584 5.63225)
(3.82183 0.114619 0.171546)
(0.210058 0.16935 -7.52742)
(-7.2409 -0.5503 -7.5591)
(-8.32355 -1.94402 1.33603)
(-9.97839 -0.728454 11.649)
(-7.4296 -0.273952 16.6417)
(-23.5962 -0.0837687 12.71)
(25.7824 0.0971216 8.04167)
(16.9875 0.343821 17.6556)
(18.9083 0.399682 17.08)
(17.6804 0.417065 16.1844)
(14.4702 0.276862 13.7324)
(11.2269 0.150309 11.0558)
(8.94874 -0.0905137 9.11524)
(7.79107 0.0694322 5.74282)
(4.57298 0.165448 0.476116)
(1.42947 0.216823 -6.73852)
(-3.59525 0.134768 -9.31132)
(-5.74044 -2.0996 -2.44135)
(-9.84152 -1.00577 11.3795)
(-7.1766 -0.196016 16.4905)
(-23.6636 -0.198045 12.771)
(25.7445 0.0859843 7.96464)
(17.0538 0.378397 17.5417)
(19.0334 0.436624 16.9855)
(17.907 0.468156 16.097)
(14.7402 0.322952 13.674)
(11.5205 0.156271 11.0086)
(9.21609 -0.100034 9.13938)
(8.10358 0.0589871 5.88651)
(5.14586 0.123375 0.790269)
(2.23632 -0.244637 -6.23074)
(-2.62553 -1.20595 -9.11672)
(-3.826 -1.21713 -4.54957)
(-9.54018 -0.176537 10.7124)
(-6.24425 -0.143771 16.7322)
(-23.7726 -0.215053 13.4762)
(25.6979 0.046945 7.84745)
(17.2021 0.239516 17.3715)
(19.2369 0.296809 16.8736)
(18.235 0.332113 15.9982)
(15.1262 0.246 13.6019)
(11.9225 0.123058 10.9697)
(9.62068 -0.0422308 9.1506)
(8.56429 0.0376279 6.01943)
(5.9613 0.0534195 1.08961)
(2.95824 -0.246994 -5.94129)
(-2.80712 -1.15849 -8.4197)
(-6.14624 -0.234392 -2.49145)
(-9.23727 0.230944 10.5952)
(-5.99447 -0.0624229 16.8449)
(-23.7974 -0.0867052 13.935)
(26.9576 -0.00988408 4.70981)
(17.3368 -0.164144 13.4184)
(20.0653 -0.242528 15.5857)
(23.0333 -0.319533 16.9561)
(22.1968 -0.327277 16.1918)
(20.6147 -0.268074 14.1082)
(18.4305 -0.147505 11.6663)
(16.4915 -0.0459156 8.27924)
(13.7838 0.0679203 4.03758)
(9.85391 0.201602 -0.988312)
(2.70126 1.04618 -2.30568)
(-3.07482 0.261182 -0.435176)
(-8.89044 -0.383435 13.5017)
(-4.32347 0.171116 17.5769)
(-25.4659 0.0990102 11.8274)
(26.9567 -0.0182288 4.72852)
(17.3111 -0.24892 13.5642)
(20.0175 -0.345075 15.7581)
(22.8829 -0.443523 17.1299)
(21.9156 -0.43057 16.3304)
(20.2088 -0.334672 14.2041)
(17.9188 -0.148078 11.7211)
(15.8932 -0.00171451 8.29271)
(13.0442 0.140565 3.99896)
(9.24162 0.241357 -1.09038)
(2.50262 0.936024 -2.62321)
(0.486267 1.01531 -2.42033)
(-9.1491 0.100366 13.4095)
(-4.47262 0.358495 17.3464)
(-25.3685 0.269911 11.4714)
(26.9575 -0.0234547 4.74144)
(17.3406 -0.218198 13.642)
(20.0182 -0.30036 15.8567)
(22.7963 -0.388826 17.2416)
(21.731 -0.368338 16.4266)
(19.9303 -0.287524 14.2772)
(17.571 -0.120416 11.7628)
(15.4883 -0.000539049 8.29297)
(12.5163 0.0810323 3.92802)
(8.52541 -0.0633428 -1.25825)
(1.39172 -0.763029 -3.24808)
(-1.80253 1.18562 -0.707856)
(-9.45826 1.55243 14.0875)
(-5.46913 0.316023 16.9524)
(-25.1163 0.287599 10.9)
(26.9605 -0.0296666 4.76417)
(17.315 -0.215193 13.7446)
(19.9646 -0.309831 15.9756)
(22.6706 -0.409213 17.3626)
(21.5337 -0.386851 16.522)
(19.6702 -0.298965 14.3479)
(17.254 -0.118491 11.8067)
(15.0985 0.00872648 8.31421)
(11.9265 0.148898 3.88362)
(7.59321 -0.0661167 -1.5322)
(-1.76436 -0.421167 -3.21927)
(-6.81964 1.12192 3.94107)
(-9.29185 1.3478 14.7699)
(-5.91125 0.288358 17.048)
(-25.0365 0.137845 10.7986)
(26.9668 -0.0327743 4.78593)
(17.3041 -0.15402 13.805)
(19.917 -0.234257 16.052)
(22.5461 -0.330479 17.4582)
(21.3197 -0.314097 16.6107)
(19.3728 -0.24183 14.4189)
(16.8898 -0.0841193 11.8485)
(14.6723 0.0357408 8.31444)
(11.3169 0.224914 3.82027)
(6.84138 0.434733 -1.80623)
(-4.2098 0.547258 -2.48404)
(-8.27142 0.506948 5.72596)
(-9.021 0.341729 14.7153)
(-5.80992 0.396431 17.0866)
(-25.0328 0.130315 10.7655)
(26.9708 -0.0271768 4.81193)
(17.2302 -0.0978895 13.8442)
(19.8142 -0.167537 16.0962)
(22.3862 -0.261662 17.5243)
(21.0801 -0.25861 16.677)
(19.0574 -0.201927 14.4706)
(16.5214 -0.0674302 11.872)
(14.2546 0.0454246 8.30065)
(10.8206 0.285416 3.76013)
(6.5387 1.08113 -1.74505)
(-3.11548 1.97706 -2.61662)
(-8.74402 -0.784585 5.22383)
(-9.55909 -1.24029 14.7469)
(-5.867 0.463624 17.1795)
(-25.049 0.0414732 10.7339)
(26.983 0.00830747 4.83646)
(17.1417 -0.0216767 13.8284)
(19.71 -0.0628758 16.0679)
(22.2492 -0.124255 17.5305)
(20.8681 -0.131812 16.7107)
(18.7551 -0.107313 14.5075)
(16.1464 -0.0322358 11.8896)
(13.8325 0.0290746 8.26736)
(10.3554 0.190208 3.69768)
(6.47274 0.817751 -1.66094)
(0.087841 2.89523 -3.23696)
(-3.17169 -0.138439 -0.505658)
(-10.3186 -1.94698 13.8559)
(-4.6351 0.319264 17.1857)
(-25.353 0.138521 10.7811)
(26.9948 0.0442619 4.84168)
(17.1423 0.0238439 13.797)
(19.713 0.0194716 16.0252)
(22.2485 0.023523 17.5014)
(20.85 0.0246924 16.7012)
(18.7081 0.0241445 14.5118)
(16.0751 0.0223118 11.8956)
(13.7309 0.0220656 8.26451)
(10.1757 0.0556633 3.68598)
(6.14804 0.13799 -1.70126)
(0.457962 0.957789 -3.00588)
(3.40502 0.453953 -4.48323)
(-10.3869 -0.544747 13.4041)
(-4.44195 0.102203 16.9856)
(-25.4406 0.37049 10.7583)
(26.9956 0.0499493 4.82862)
(17.2231 0.0632656 13.8261)
(19.7976 0.107418 16.0704)
(22.3276 0.175886 17.53)
(20.9462 0.183264 16.7109)
(18.8382 0.155781 14.5139)
(16.2324 0.0768128 11.9037)
(13.9223 0.0137551 8.2954)
(10.4517 -0.0926767 3.76714)
(6.76065 -0.569131 -1.53289)
(0.903917 -2.38944 -3.06973)
(1.72364 -0.66522 -3.64037)
(-10.432 1.70666 13.4614)
(-4.2852 -0.0941007 17.3207)