/*--------------------------------*- C++ -*----------------------------------*\
| =========                 |                                                 |
| \\      /  F ield         | OpenFOAM: The Open Source CFD Toolbox           |
|  \\    /   O peration     | Version:  4.1                                   |
|   \\  /    A nd           | Web:      www.OpenFOAM.org                      |
|    \\/     M anipulation  |                                                 |
\*---------------------------------------------------------------------------*/
FoamFile
{
    version     2.0;
    format      ascii;
    class       volScalarField;
    location    "13";
    object      epsilon;
}
// * * * * * * * * * * * * * * * * * * * * * * * * * * * * * * * * * * * * * //

dimensions      [0 2 -3 0 0 0 0];

internalField   nonuniform List<scalar> 
204246
(
2.81508
3.00728
3.01766
3.03416
3.04632
3.06017
3.0721
3.08605
3.09606
3.11167
3.12029
3.13699
3.14378
3.16389
3.17307
3.18995
3.20169
3.20632
3.2359
3.24015
3.2617
3.27227
3.28689
3.30094
3.31482
3.32862
3.34256
3.35512
3.37186
3.38534
3.40163
3.41556
3.43203
3.44634
3.46125
3.47641
3.48081
3.51202
3.51644
3.53756
3.54879
3.56534
3.57875
3.59342
3.6065
3.62411
3.63857
3.65578
3.67112
3.68681
3.70373
3.71934
3.73607
3.74111
3.77607
3.78167
3.80566
3.82069
3.8388
3.85681
3.87396
3.89189
3.91265
3.93218
3.95278
3.97357
3.99277
4.01552
4.03476
4.05735
4.06531
4.10497
4.11527
4.14607
4.16189
4.18879
4.20852
4.233
4.25329
4.28052
4.30475
4.32983
4.35602
4.37959
4.4082
4.4318
4.46047
4.47176
4.51981
4.53297
4.57208
4.59074
4.62653
4.64635
4.68498
4.71157
4.7438
4.77572
4.80692
4.84023
4.86989
4.9074
4.93718
4.97504
5.0058
5.04313
5.06448
5.12478
5.14219
5.19628
5.21607
5.27316
5.30012
5.34937
5.388
5.43074
5.4717
5.51512
5.55911
5.60266
5.65081
5.69398
5.74494
5.77239
5.85293
5.87448
5.94935
5.97664
6.0495
6.08276
6.15357
6.19059
6.26113
6.30141
6.37254
6.41576
6.48693
6.53309
6.60541
6.65433
6.70817
6.79446
6.83499
6.9196
6.96259
7.048
7.09185
7.17924
7.22364
7.31305
7.3576
7.44903
7.49327
7.587
7.63097
7.72734
7.77104
7.84575
7.93331
7.98639
8.07484
8.12617
8.21742
8.26643
8.36068
8.4069
8.50536
8.54786
8.65099
8.69052
8.8002
8.83591
8.95412
8.98708
9.11834
9.14558
9.26532
9.35647
9.43897
9.557
9.63495
9.78183
9.86423
10.044
10.1423
10.3603
10.489
10.7509
10.9244
11.2063
11.387
11.5414
11.5614
0.445777
0.687668
0.69691
0.695884
0.705564
0.700519
0.708535
0.704904
0.713658
0.710018
0.719624
0.716299
0.725917
0.721031
0.731467
0.725849
0.737441
0.732755
0.732011
0.743103
0.737805
0.7487
0.742971
0.753759
0.750481
0.761761
0.758659
0.769787
0.764871
0.776798
0.771112
0.78317
0.777503
0.789728
0.78412
0.797472
0.795689
0.794726
0.807444
0.802155
0.814258
0.811096
0.823506
0.820414
0.832644
0.827707
0.840867
0.835283
0.848671
0.84321
0.856338
0.853395
0.868604
0.867355
0.868523
0.883168
0.878536
0.893327
0.890992
0.90644
0.904246
0.919784
0.915655
0.932365
0.927525
0.944651
0.939906
0.956932
0.954854
0.974239
0.973912
0.978924
0.99562
0.99439
1.0136
1.01207
1.03186
1.03027
1.05102
1.04811
1.06963
1.06544
1.08759
1.08357
1.10586
1.10486
1.13038
1.13178
1.14104
1.16204
1.16234
1.18754
1.1873
1.21411
1.2126
1.24059
1.23787
1.26616
1.26301
1.29323
1.2912
1.32195
1.32351
1.3549
1.35666
1.39115
1.39288
1.41844
1.4442
1.44815
1.48404
1.48551
1.52397
1.52386
1.56426
1.56441
1.60761
1.61101
1.65528
1.65974
1.70448
1.70837
1.75938
1.76729
1.8007
1.84005
1.84705
1.90065
1.90893
1.9633
1.97118
2.02988
2.03958
2.10066
2.11145
2.17567
2.18746
2.25487
2.26806
2.34195
2.3591
2.40953
2.46996
2.48583
2.56415
2.58179
2.66311
2.68158
2.7664
2.78605
2.87469
2.89581
2.98606
3.00722
3.10141
3.12402
3.22688
3.25417
3.32141
3.40543
3.42957
3.53005
3.55375
3.65486
3.67851
3.77838
3.80121
3.89919
3.92042
4.0154
4.0354
4.12708
4.14544
4.23625
4.25911
4.34474
4.36569
4.40175
4.46828
4.47213
4.53699
4.53376
4.58324
4.57324
4.60817
4.59253
4.62839
4.61661
4.75457
4.87974
5.35493
5.63618
5.77963
0.590578
0.605045
0.611077
0.614194
0.618733
0.6209
0.62475
0.626764
0.630516
0.632636
0.636312
0.638631
0.642202
0.644691
0.648419
0.651283
0.655101
0.6582
0.66113
0.665129
0.667743
0.67199
0.674882
0.679125
0.682487
0.686687
0.690362
0.69451
0.698404
0.702592
0.706811
0.711069
0.715613
0.720051
0.725016
0.729592
0.734789
0.738708
0.744517
0.748473
0.754223
0.758744
0.764305
0.769301
0.7747
0.780036
0.785279
0.791026
0.796182
0.802283
0.807647
0.814204
0.819788
0.826488
0.831399
0.838321
0.843539
0.850331
0.856159
0.862881
0.869213
0.875865
0.882593
0.889083
0.896407
0.90284
0.910688
0.917519
0.92595
0.933189
0.941842
0.948483
0.957501
0.964465
0.973397
0.981111
0.990047
0.998536
1.00749
1.0164
1.02524
1.03473
1.04365
1.05377
1.06312
1.07401
1.08381
1.09501
1.10405
1.11566
1.125
1.13665
1.14694
1.15862
1.16942
1.18098
1.19232
1.20405
1.21607
1.22831
1.24088
1.25316
1.2662
1.27922
1.29294
1.30663
1.32034
1.33329
1.3478
1.36044
1.37575
1.38834
1.40436
1.41696
1.43371
1.44626
1.46395
1.47664
1.49498
1.50755
1.52669
1.53939
1.56016
1.57221
1.59046
1.60605
1.62093
1.63974
1.65257
1.67301
1.68423
1.70662
1.7162
1.7393
1.74834
1.7714
1.77995
1.80296
1.81119
1.83438
1.8421
1.85887
1.87299
1.88088
1.8985
1.90268
1.91947
1.922
1.93642
1.93711
1.94913
1.94806
1.95527
1.95131
1.95553
1.94841
1.95188
1.93783
1.93087
1.92647
1.90424
1.90223
1.87156
1.86709
1.83067
1.82412
1.78302
1.77529
1.73087
1.72231
1.67493
1.66598
1.61606
1.60671
1.55791
1.54916
1.49687
1.47362
1.45495
1.41419
1.40867
1.36417
1.35993
1.31852
1.31632
1.28183
1.28348
1.26545
1.27547
1.26446
1.27248
1.1604
1.11862
0.737325
0.724027
0.738154
0.744942
0.75006
0.756756
0.759113
0.76489
0.766754
0.772074
0.773736
0.778879
0.780476
0.785862
0.78719
0.792796
0.794148
0.800292
0.803172
0.805833
0.810858
0.812244
0.818072
0.819783
0.825476
0.827375
0.833165
0.835143
0.841265
0.84304
0.849502
0.851393
0.858118
0.86017
0.867203
0.869585
0.876877
0.880621
0.884969
0.891329
0.894182
0.901394
0.90424
0.911722
0.914677
0.922467
0.925243
0.933278
0.936135
0.944437
0.947607
0.955735
0.959028
0.96742
0.971845
0.977329
0.983973
0.987935
0.995542
0.998847
1.00681
1.01017
1.01838
1.02162
1.02999
1.0333
1.04189
1.04549
1.05404
1.05781
1.06643
1.0713
1.07766
1.08387
1.08924
1.09643
1.10127
1.10917
1.11365
1.12217
1.12615
1.13494
1.13897
1.14795
1.15223
1.16121
1.16565
1.17437
1.17969
1.18667
1.19283
1.19918
1.20594
1.21184
1.21897
1.2244
1.23173
1.23689
1.24434
1.24947
1.25677
1.26185
1.26888
1.27429
1.28097
1.28665
1.29257
1.29797
1.30362
1.30839
1.31421
1.31799
1.32422
1.32676
1.33314
1.33482
1.34073
1.34231
1.34735
1.34833
1.35273
1.35298
1.3569
1.35643
1.3565
1.35759
1.35547
1.35657
1.35243
1.35301
1.3467
1.34671
1.33791
1.33709
1.32584
1.32408
1.3101
1.30717
1.29082
1.28698
1.26614
1.25628
1.24185
1.22275
1.21253
1.18621
1.17743
1.14657
1.13647
1.10277
1.09148
1.05499
1.04248
1.00347
0.989884
0.949326
0.935333
0.891235
0.870301
0.839056
0.807438
0.785689
0.746284
0.731555
0.690023
0.675825
0.636224
0.623007
0.587097
0.575136
0.542895
0.532475
0.50402
0.495173
0.470312
0.462928
0.441254
0.4317
0.418481
0.406807
0.399117
0.385321
0.381534
0.367803
0.364729
0.355967
0.355816
0.355685
0.36944
0.381582
0.404339
0.411935
0.417607
0.900279
0.869719
0.880611
0.886545
0.892455
0.898756
0.90154
0.906814
0.908627
0.913063
0.914453
0.918438
0.919659
0.923641
0.924601
0.928641
0.929589
0.933741
0.93564
0.937598
0.940866
0.941728
0.945471
0.946521
0.950118
0.951287
0.954876
0.956087
0.959819
0.960907
0.964814
0.965991
0.970054
0.971367
0.975594
0.977119
0.981389
0.983565
0.986524
0.989968
0.992118
0.996266
0.998222
1.00273
1.00473
1.00944
1.01145
1.01627
1.01837
1.02332
1.02557
1.03043
1.03271
1.03744
1.04006
1.04364
1.04685
1.04968
1.05318
1.0555
1.05915
1.06111
1.06474
1.06655
1.06996
1.07168
1.07496
1.07667
1.07981
1.08151
1.08442
1.08609
1.08831
1.09011
1.09196
1.09378
1.09543
1.09716
1.09869
1.10018
1.10172
1.10276
1.10433
1.10486
1.1065
1.10674
1.1082
1.10817
1.10822
1.10878
1.10817
1.10862
1.10745
1.10776
1.10556
1.10595
1.1029
1.10312
1.0992
1.09925
1.09415
1.09357
1.08806
1.08703
1.08073
1.07937
1.07077
1.06706
1.062
1.05427
1.05097
1.04025
1.03764
1.02491
1.02174
1.00745
1.00321
0.988288
0.983215
0.966949
0.961252
0.943567
0.93747
0.917214
0.907479
0.892658
0.876716
0.865298
0.844278
0.835594
0.811428
0.802755
0.777246
0.768123
0.74173
0.732301
0.705155
0.695397
0.667953
0.658061
0.629424
0.615831
0.594851
0.575609
0.559993
0.536343
0.525624
0.500002
0.490719
0.465642
0.456821
0.433104
0.424842
0.402709
0.395131
0.374941
0.368192
0.349323
0.340772
0.328729
0.318089
0.310797
0.29903
0.295033
0.284302
0.281178
0.272552
0.27024
0.263464
0.26183
0.256814
0.255869
0.252496
0.252223
0.250334
0.250671
0.250008
0.250294
0.252177
0.25247
0.255481
0.256204
0.259214
0.259901
0.262257
0.262684
0.265975
0.267306
0.274491
0.279304
0.288266
0.29188
0.294468
1.00742
0.986162
0.993093
0.997121
1.00162
1.00626
1.00821
1.01163
1.01268
1.01481
1.01524
1.01663
1.01672
1.01784
1.01769
1.01859
1.01837
1.01899
1.01913
1.01879
1.01902
1.01848
1.01864
1.01805
1.01807
1.01737
1.01729
1.01647
1.01635
1.01541
1.01523
1.01428
1.01406
1.01316
1.01291
1.01203
1.0117
1.01095
1.01031
1.00986
1.00923
1.00889
1.00846
1.00821
1.00806
1.0079
1.00788
1.00787
1.00788
1.00787
1.00799
1.00792
1.00804
1.00777
1.00741
1.00742
1.00642
1.00641
1.00505
1.00486
1.00306
1.00269
1.00029
0.999948
0.996896
0.996358
0.992736
0.991873
0.988044
0.986962
0.982149
0.979351
0.976582
0.971763
0.969786
0.963724
0.961718
0.954949
0.952715
0.945098
0.943041
0.934552
0.932247
0.923038
0.920199
0.910892
0.907702
0.897096
0.891599
0.884292
0.875766
0.869967
0.859144
0.854355
0.841633
0.837543
0.823527
0.819102
0.804332
0.799602
0.783974
0.778517
0.762713
0.756763
0.740363
0.734124
0.715936
0.707484
0.693509
0.680986
0.669656
0.653316
0.645307
0.626056
0.619261
0.598855
0.591452
0.571523
0.563819
0.543924
0.536223
0.516485
0.508873
0.488339
0.478741
0.463642
0.450346
0.439328
0.422946
0.415511
0.39787
0.391433
0.374238
0.368135
0.351884
0.346191
0.330924
0.325594
0.311469
0.306575
0.29303
0.28681
0.277862
0.269862
0.263947
0.254675
0.251182
0.241938
0.238862
0.230585
0.227882
0.220582
0.218238
0.211888
0.209897
0.204429
0.202759
0.197928
0.195812
0.193163
0.190621
0.189275
0.186743
0.186047
0.184084
0.183687
0.182414
0.182322
0.18182
0.182059
0.182025
0.183131
0.183405
0.18527
0.18594
0.188536
0.189617
0.192763
0.194768
0.19828
0.201209
0.205103
0.208967
0.21332
0.218157
0.222988
0.22873
0.233905
0.240327
0.245477
0.250691
0.253003
0.254309
1.07761
1.06334
1.06536
1.06679
1.06829
1.06998
1.0704
1.0708
1.07023
1.06967
1.06769
1.0666
1.06376
1.06226
1.05883
1.0571
1.05325
1.05115
1.04737
1.04433
1.04086
1.03708
1.03373
1.02958
1.0261
1.02178
1.01812
1.01368
1.00978
1.00524
1.001
0.996498
0.991875
0.987495
0.982438
0.978144
0.97269
0.967818
0.96316
0.957342
0.953258
0.947107
0.943366
0.936926
0.933583
0.926696
0.92404
0.916902
0.914337
0.907217
0.904611
0.897767
0.895147
0.887918
0.883987
0.879204
0.87315
0.869426
0.862283
0.858925
0.850776
0.847559
0.838487
0.835394
0.825509
0.822149
0.811546
0.807662
0.796831
0.79257
0.780768
0.774391
0.765375
0.756357
0.748635
0.737619
0.730792
0.718161
0.711984
0.697801
0.692538
0.677338
0.671887
0.656156
0.650214
0.634624
0.628391
0.611942
0.603564
0.59091
0.579552
0.569129
0.555479
0.54683
0.530851
0.524655
0.507431
0.501265
0.484032
0.477894
0.460705
0.454282
0.437868
0.431406
0.415436
0.409145
0.392793
0.385285
0.372946
0.363234
0.353658
0.341721
0.335461
0.322111
0.31735
0.304033
0.299269
0.287172
0.282609
0.271394
0.26718
0.256816
0.252953
0.242883
0.238422
0.231457
0.225801
0.221042
0.214327
0.21161
0.204746
0.20244
0.196202
0.194166
0.188618
0.18685
0.181937
0.180395
0.176102
0.17478
0.170875
0.169137
0.166929
0.164657
0.163508
0.161122
0.160412
0.15828
0.157729
0.155982
0.155576
0.154198
0.15393
0.152906
0.152774
0.152096
0.152108
0.151778
0.151714
0.152018
0.151985
0.152685
0.152832
0.153887
0.15423
0.155627
0.156172
0.158003
0.158792
0.161077
0.162123
0.164899
0.166231
0.16949
0.171121
0.174833
0.176779
0.180756
0.183353
0.187437
0.190711
0.194911
0.198745
0.203139
0.207549
0.212264
0.217237
0.222254
0.227528
0.232147
0.236143
0.238079
0.239047
1.10865
1.09906
1.09759
1.09461
1.09321
1.09112
1.08896
1.08628
1.08298
1.07946
1.07503
1.07081
1.06548
1.06066
1.05469
1.04932
1.04284
1.03676
1.02987
1.02343
1.01604
1.00919
1.00128
0.994115
0.98569
0.978248
0.969277
0.96159
0.951899
0.944307
0.933967
0.926335
0.915429
0.907803
0.896389
0.88862
0.876917
0.867957
0.858
0.847384
0.838437
0.827172
0.818751
0.807073
0.799112
0.786938
0.77984
0.767185
0.76084
0.747849
0.742
0.729211
0.72359
0.71074
0.703559
0.693931
0.684191
0.676262
0.665342
0.658221
0.646236
0.639775
0.626466
0.62112
0.606853
0.601412
0.586644
0.580773
0.566033
0.559887
0.544376
0.536448
0.524135
0.513555
0.503162
0.490654
0.481771
0.467779
0.460183
0.444881
0.438818
0.422998
0.417019
0.401403
0.395287
0.380477
0.374428
0.359686
0.352341
0.34115
0.332126
0.323233
0.312921
0.306031
0.294489
0.289955
0.27812
0.273887
0.262745
0.258807
0.248361
0.244523
0.235152
0.23154
0.222965
0.219671
0.211405
0.207705
0.20181
0.197406
0.193071
0.187856
0.185294
0.179713
0.177828
0.172544
0.170749
0.166178
0.164534
0.160485
0.159036
0.155441
0.154169
0.150786
0.149326
0.147137
0.145387
0.143919
0.141862
0.141137
0.139076
0.138453
0.136653
0.136131
0.134586
0.134162
0.132847
0.132505
0.131405
0.131143
0.130183
0.129776
0.129448
0.128925
0.128842
0.128407
0.128394
0.12811
0.128161
0.128053
0.128209
0.12817
0.128518
0.128563
0.12912
0.129276
0.130043
0.130316
0.131186
0.131819
0.132682
0.133668
0.134635
0.136031
0.137206
0.138978
0.140358
0.142522
0.144191
0.146793
0.148839
0.15194
0.154419
0.158023
0.160975
0.165072
0.168512
0.172996
0.176868
0.181535
0.185663
0.190493
0.194917
0.199864
0.204571
0.209609
0.214534
0.219534
0.224339
0.22865
0.232033
0.233871
0.234688
1.11575
1.10007
1.09584
1.08746
1.08356
1.07677
1.07236
1.06566
1.06026
1.05305
1.04658
1.03875
1.0313
1.02256
1.01454
1.00497
0.996357
0.985926
0.976238
0.966294
0.955233
0.945276
0.933369
0.923074
0.910659
0.899911
0.886938
0.875827
0.862159
0.850932
0.836547
0.825173
0.810166
0.79873
0.7832
0.771584
0.755782
0.742979
0.72908
0.714631
0.70166
0.686559
0.674159
0.658695
0.646917
0.631098
0.620321
0.604122
0.594241
0.577817
0.568583
0.552436
0.543638
0.527571
0.517679
0.504859
0.492843
0.482095
0.469241
0.459858
0.44642
0.438249
0.424057
0.417514
0.402816
0.396831
0.382186
0.376132
0.362136
0.356153
0.342183
0.335172
0.324095
0.315623
0.306465
0.296866
0.289395
0.279042
0.273099
0.262168
0.257735
0.246944
0.242825
0.232718
0.228757
0.219658
0.215958
0.207402
0.20322
0.196919
0.192217
0.187369
0.182261
0.178692
0.17316
0.170983
0.165494
0.163557
0.158599
0.156875
0.152414
0.150806
0.146946
0.145487
0.142072
0.140786
0.137591
0.136181
0.133961
0.132338
0.13074
0.128862
0.127947
0.125967
0.125318
0.123478
0.122876
0.12132
0.120782
0.119437
0.11898
0.117819
0.117437
0.116369
0.11592
0.115313
0.114764
0.114425
0.113837
0.113705
0.113185
0.113099
0.112715
0.112681
0.112413
0.112428
0.112297
0.112369
0.112316
0.112498
0.112496
0.112735
0.112982
0.113155
0.113619
0.11379
0.114408
0.114642
0.115395
0.115705
0.116599
0.116988
0.118028
0.118512
0.119698
0.12031
0.121649
0.122424
0.123849
0.124891
0.126358
0.127677
0.129271
0.13085
0.132587
0.13447
0.136408
0.138673
0.140893
0.143545
0.146098
0.149168
0.152156
0.155736
0.159224
0.163342
0.167369
0.172
0.176464
0.18153
0.186391
0.191747
0.196849
0.202365
0.207512
0.212978
0.217874
0.222985
0.227196
0.231384
0.234013
0.235864
0.236546
1.10539
1.0814
1.0726
1.05631
1.04851
1.03544
1.02773
1.01629
1.0081
0.997167
0.988355
0.97763
0.96814
0.957091
0.947136
0.935513
0.924961
0.912534
0.900853
0.88902
0.875946
0.864055
0.850092
0.837696
0.823188
0.810262
0.795155
0.781749
0.765962
0.752339
0.735898
0.722067
0.705113
0.691177
0.673859
0.659795
0.642409
0.627561
0.611908
0.596004
0.581273
0.565205
0.551169
0.535144
0.521786
0.505813
0.493336
0.477379
0.465585
0.449666
0.43835
0.422695
0.411668
0.396139
0.384766
0.371118
0.358896
0.346698
0.334376
0.323541
0.311387
0.301905
0.28992
0.281916
0.270157
0.263525
0.252075
0.246548
0.235832
0.230922
0.220899
0.215888
0.207945
0.202597
0.196055
0.19053
0.185234
0.179638
0.175442
0.169756
0.166713
0.161081
0.158725
0.153506
0.151358
0.146804
0.144881
0.140757
0.13874
0.135696
0.133594
0.131199
0.129056
0.127225
0.124995
0.123766
0.121503
0.120619
0.118518
0.117747
0.115873
0.115167
0.113556
0.112926
0.111511
0.11096
0.109649
0.109059
0.108145
0.107498
0.106813
0.106099
0.105677
0.104913
0.104654
0.103935
0.103703
0.103112
0.102917
0.102427
0.102276
0.101879
0.101769
0.101427
0.101293
0.10118
0.101043
0.10103
0.100939
0.100984
0.100944
0.101052
0.101045
0.10125
0.10129
0.101593
0.101684
0.102077
0.10222
0.102703
0.102896
0.103415
0.103792
0.104295
0.104836
0.105352
0.106036
0.106596
0.107413
0.108045
0.108991
0.10972
0.110798
0.111648
0.112868
0.11386
0.115232
0.116391
0.117923
0.11936
0.121065
0.122813
0.124732
0.126779
0.129
0.131389
0.133967
0.136706
0.139647
0.142758
0.146112
0.149665
0.153492
0.157544
0.161913
0.166498
0.171455
0.176595
0.181964
0.187628
0.193349
0.199431
0.205364
0.211679
0.21758
0.223793
0.229247
0.234862
0.23932
0.243668
0.246359
0.248246
0.248919
1.11534
1.0725
1.05608
1.02819
1.01335
0.991679
0.97784
0.960515
0.947555
0.932534
0.920063
0.906422
0.89429
0.881408
0.869491
0.856868
0.844836
0.831907
0.819085
0.807005
0.793288
0.78106
0.767072
0.754412
0.740219
0.727079
0.712553
0.698955
0.684017
0.670221
0.654949
0.640997
0.625547
0.611564
0.596136
0.582289
0.567172
0.55337
0.539557
0.525998
0.513155
0.500341
0.48843
0.476392
0.465309
0.45394
0.443582
0.432755
0.422786
0.412146
0.402147
0.391318
0.380872
0.369475
0.358382
0.34653
0.334875
0.322489
0.310641
0.298157
0.286573
0.274435
0.263355
0.251674
0.241522
0.230705
0.221722
0.212016
0.204108
0.195629
0.188769
0.181339
0.17564
0.169216
0.164239
0.158839
0.154424
0.149905
0.145953
0.142173
0.138625
0.135421
0.13227
0.129517
0.126724
0.124385
0.121919
0.119896
0.117635
0.116057
0.113981
0.112663
0.110825
0.109704
0.10806
0.107125
0.105655
0.104861
0.103557
0.102876
0.101727
0.101141
0.100148
0.0996512
0.0987875
0.0983693
0.0975992
0.0972203
0.096651
0.0962589
0.0958207
0.0954454
0.0951307
0.0947732
0.0945676
0.0942347
0.0941064
0.0938438
0.093753
0.0935713
0.0935213
0.0934185
0.0934081
0.0933712
0.0933737
0.0934707
0.0935001
0.0936719
0.0937422
0.0939919
0.094108
0.0944349
0.0946042
0.0950089
0.0952407
0.0957219
0.0960146
0.096578
0.0969389
0.0975869
0.0980296
0.0987366
0.0993169
0.100057
0.100766
0.101575
0.102403
0.103296
0.104246
0.105241
0.106318
0.107432
0.108642
0.109893
0.111247
0.11266
0.114174
0.115787
0.117478
0.119268
0.121149
0.123136
0.125244
0.127466
0.129893
0.13243
0.135246
0.138222
0.14148
0.144966
0.148731
0.152759
0.157095
0.161697
0.166656
0.171843
0.177475
0.183284
0.189359
0.19577
0.202232
0.209111
0.215802
0.222914
0.229526
0.236452
0.242452
0.248557
0.253248
0.257821
0.260465
0.262422
0.263067
1.18958
1.1193
1.09328
1.05146
1.02537
0.99149
0.965827
0.937931
0.915231
0.892916
0.873129
0.854475
0.837083
0.821202
0.805681
0.791847
0.777544
0.764676
0.750831
0.739063
0.725513
0.713975
0.701226
0.689733
0.677724
0.666257
0.654684
0.643189
0.631816
0.620278
0.609118
0.597632
0.586812
0.575566
0.565212
0.55441
0.544687
0.534705
0.525871
0.517316
0.509386
0.502449
0.495446
0.489698
0.483676
0.479405
0.47412
0.471269
0.466288
0.464294
0.459041
0.456769
0.450442
0.44711
0.440551
0.433015
0.426707
0.415765
0.408097
0.394409
0.385654
0.36996
0.360803
0.343004
0.333973
0.31531
0.306956
0.288758
0.280507
0.263747
0.25617
0.242068
0.233804
0.222796
0.214215
0.206054
0.19733
0.191532
0.182825
0.178965
0.17072
0.167428
0.160131
0.157255
0.150847
0.148183
0.142534
0.140151
0.135408
0.132732
0.128881
0.126159
0.123082
0.120299
0.117963
0.115074
0.113394
0.110542
0.109368
0.106756
0.105733
0.103513
0.102594
0.100739
0.099957
0.0983935
0.0977409
0.0964962
0.095863
0.0948988
0.094377
0.0936206
0.0931851
0.0926145
0.0922354
0.0918357
0.0915134
0.0912564
0.091003
0.0908628
0.0906967
0.0906285
0.0905649
0.0905511
0.090547
0.0906404
0.0906975
0.0908546
0.0909982
0.0912063
0.0914439
0.0917026
0.092023
0.0923397
0.092736
0.0931317
0.0936055
0.0940786
0.0946368
0.0951792
0.0958311
0.0964516
0.0972057
0.097912
0.098764
0.0995784
0.100523
0.101464
0.102508
0.103591
0.104746
0.105988
0.107269
0.108687
0.110114
0.111728
0.113322
0.115168
0.116974
0.119059
0.121133
0.123512
0.125924
0.128617
0.131419
0.134413
0.13766
0.141005
0.144766
0.148583
0.152944
0.157342
0.162404
0.167457
0.173286
0.179027
0.18568
0.192179
0.199363
0.206613
0.214257
0.222103
0.230009
0.238173
0.245959
0.253927
0.260932
0.267898
0.273229
0.278313
0.281209
0.283326
0.283994
1.37991
1.27299
1.23482
1.17513
1.13322
1.08449
1.04273
1.00227
0.964257
0.930825
0.898206
0.870976
0.843469
0.821189
0.797749
0.779715
0.760107
0.745539
0.728672
0.71596
0.701505
0.689617
0.6775
0.666336
0.656411
0.646284
0.638097
0.628895
0.621773
0.613081
0.606583
0.598208
0.592167
0.584185
0.578913
0.571652
0.567217
0.561524
0.557268
0.553874
0.550843
0.549994
0.549278
0.549768
0.54982
0.552333
0.553131
0.557598
0.559059
0.564334
0.566083
0.570605
0.571875
0.574285
0.574838
0.573649
0.573392
0.569296
0.566481
0.558827
0.553669
0.542861
0.535867
0.521461
0.513031
0.495775
0.486588
0.467874
0.457899
0.438669
0.428627
0.411747
0.398772
0.385341
0.371077
0.360639
0.345845
0.338024
0.323628
0.317676
0.303763
0.298552
0.285601
0.280885
0.268921
0.26422
0.253031
0.248581
0.239267
0.232505
0.22529
0.217048
0.211522
0.202151
0.198297
0.188378
0.184796
0.175264
0.171854
0.16291
0.159715
0.151595
0.148441
0.14121
0.138375
0.131976
0.129578
0.124326
0.121436
0.11755
0.114745
0.112028
0.109041
0.107493
0.104604
0.103609
0.101228
0.100384
0.0985744
0.0979372
0.0965738
0.0961119
0.0951214
0.0948267
0.09422
0.0938903
0.0936193
0.0934188
0.0933956
0.0933108
0.0933825
0.0933991
0.0936892
0.0937802
0.094226
0.0944126
0.0949959
0.0952694
0.0959846
0.0963411
0.0971954
0.0976924
0.0985863
0.0992609
0.100202
0.101066
0.102061
0.103123
0.104188
0.105452
0.106606
0.108082
0.109344
0.111046
0.112438
0.114378
0.115924
0.118139
0.119942
0.122298
0.124461
0.12703
0.129598
0.132437
0.135473
0.138679
0.142234
0.145891
0.150029
0.154225
0.159041
0.163889
0.169509
0.17512
0.181647
0.188089
0.19562
0.203001
0.211212
0.219533
0.228344
0.237417
0.246596
0.256088
0.265205
0.274507
0.282767
0.29087
0.297121
0.302889
0.306157
0.308479
0.309181
1.65711
1.54709
1.50673
1.43824
1.38467
1.32311
1.2645
1.20844
1.15114
1.10137
1.04942
1.00829
0.963881
0.931227
0.893466
0.868488
0.837348
0.81843
0.794546
0.776884
0.759378
0.742695
0.72962
0.714406
0.704666
0.691683
0.685102
0.674838
0.67038
0.662005
0.658728
0.651941
0.649528
0.644024
0.642309
0.638158
0.636994
0.635521
0.634437
0.634953
0.634685
0.636629
0.637619
0.642088
0.644515
0.651234
0.654469
0.663223
0.667174
0.677161
0.681635
0.691484
0.695796
0.704749
0.709236
0.713927
0.717533
0.717883
0.718528
0.716828
0.715823
0.710888
0.707833
0.699051
0.694048
0.682006
0.675452
0.661462
0.653416
0.638375
0.629581
0.616036
0.604205
0.593072
0.580105
0.570992
0.557786
0.550584
0.537774
0.532608
0.520275
0.515918
0.504411
0.500552
0.489784
0.485797
0.475381
0.471454
0.462777
0.455447
0.448689
0.438881
0.433252
0.421343
0.416774
0.402854
0.397984
0.382894
0.37754
0.361445
0.35564
0.338994
0.332311
0.315383
0.308479
0.291507
0.284875
0.269235
0.259433
0.24714
0.235131
0.226236
0.212098
0.206452
0.192385
0.187299
0.174911
0.170116
0.159515
0.155408
0.146405
0.142974
0.135507
0.132832
0.127141
0.124016
0.120157
0.1174
0.114946
0.112183
0.111095
0.108667
0.108034
0.106313
0.105863
0.1048
0.104586
0.104031
0.104048
0.10385
0.104089
0.104198
0.104615
0.105065
0.105585
0.106371
0.106965
0.108063
0.108756
0.110127
0.110956
0.112579
0.113567
0.115447
0.116618
0.118769
0.120147
0.1226
0.12431
0.126896
0.129054
0.131833
0.134483
0.137507
0.140728
0.144092
0.14794
0.151761
0.156305
0.160721
0.166057
0.171204
0.177481
0.183503
0.190876
0.197893
0.20652
0.214713
0.224255
0.233659
0.244046
0.254442
0.265405
0.276418
0.287464
0.298437
0.308606
0.318344
0.326076
0.333101
0.33693
0.339715
0.340506
1.86716
1.80607
1.78294
1.73284
1.69192
1.64139
1.58895
1.53471
1.47574
1.41934
1.35735
1.30302
1.2435
1.19656
1.14305
1.10483
1.05866
1.02905
0.993893
0.965797
0.941565
0.915198
0.897892
0.873943
0.860696
0.839972
0.830738
0.815018
0.808826
0.797002
0.793027
0.784218
0.781691
0.77508
0.773576
0.768763
0.767731
0.766081
0.76457
0.765346
0.764817
0.766738
0.767089
0.771459
0.7732
0.780058
0.782546
0.791438
0.794834
0.804943
0.809093
0.819254
0.823584
0.833293
0.838448
0.844244
0.849838
0.851975
0.854283
0.854073
0.85429
0.85212
0.851017
0.84573
0.842905
0.834657
0.830036
0.819782
0.813448
0.802045
0.79468
0.784206
0.774367
0.765577
0.7551
0.747805
0.737665
0.732022
0.722819
0.719234
0.711379
0.708998
0.702823
0.701453
0.696783
0.695794
0.69221
0.691749
0.689857
0.687724
0.687276
0.684255
0.683962
0.680274
0.680036
0.674918
0.674372
0.667877
0.666714
0.658538
0.656581
0.646693
0.643264
0.631353
0.626811
0.612614
0.607261
0.592932
0.581281
0.569099
0.552584
0.541959
0.520443
0.511492
0.487008
0.477613
0.452104
0.441514
0.415731
0.404951
0.379258
0.368621
0.34376
0.333887
0.311523
0.298222
0.281009
0.265476
0.25332
0.235576
0.228395
0.211207
0.205164
0.190653
0.185233
0.173403
0.169022
0.159472
0.156225
0.148474
0.146144
0.140886
0.137966
0.135001
0.132604
0.131181
0.129261
0.128882
0.127695
0.127721
0.127355
0.127812
0.127799
0.129053
0.12938
0.1312
0.131868
0.134249
0.135441
0.137899
0.139847
0.142425
0.145114
0.147887
0.151342
0.154419
0.158668
0.162187
0.167287
0.171417
0.177451
0.182366
0.189493
0.195384
0.203802
0.210857
0.220802
0.229351
0.240442
0.250645
0.262854
0.27452
0.287546
0.300303
0.313559
0.326762
0.339149
0.351442
0.360924
0.37023
0.374766
0.378363
0.379341
1.83795
1.84678
1.84931
1.83844
1.82772
1.80938
1.78867
1.76138
1.72983
1.69401
1.65172
1.60882
1.55983
1.51552
1.46563
1.42372
1.37561
1.33822
1.29751
1.26159
1.23114
1.19786
1.17478
1.14437
1.12542
1.09781
1.08207
1.05788
1.04633
1.02658
1.01877
1.00308
0.997531
0.985303
0.981472
0.972054
0.969035
0.963102
0.958525
0.956591
0.952646
0.952129
0.950066
0.950791
0.950181
0.952707
0.952471
0.95655
0.956954
0.962262
0.963422
0.968628
0.970011
0.975034
0.97737
0.9794
0.981576
0.981277
0.981651
0.979717
0.97872
0.974802
0.97267
0.966735
0.963461
0.955587
0.950844
0.941498
0.935201
0.924972
0.917604
0.907964
0.898639
0.890227
0.880578
0.873387
0.864372
0.858629
0.850856
0.847001
0.84103
0.839037
0.835504
0.835058
0.834067
0.834705
0.834638
0.836914
0.8391
0.84128
0.845219
0.847453
0.852336
0.854535
0.860136
0.861968
0.867821
0.86954
0.875145
0.876562
0.881664
0.882832
0.886791
0.887467
0.890362
0.890329
0.892525
0.892808
0.891676
0.892
0.888917
0.888983
0.883269
0.882679
0.874375
0.872725
0.862045
0.858511
0.844989
0.839921
0.823109
0.816067
0.795786
0.787636
0.767103
0.749849
0.732278
0.708098
0.692665
0.661495
0.648367
0.61325
0.599717
0.563448
0.548457
0.512435
0.497545
0.462445
0.448616
0.413714
0.400704
0.370465
0.353263
0.330662
0.310894
0.295324
0.274115
0.264932
0.245275
0.238298
0.222233
0.216877
0.204411
0.200534
0.191325
0.188755
0.182418
0.180993
0.177926
0.175939
0.175782
0.17514
0.175802
0.176144
0.178687
0.179479
0.183494
0.185065
0.190333
0.192811
0.199297
0.202876
0.210678
0.215336
0.224616
0.230536
0.241589
0.249452
0.261578
0.271927
0.285273
0.298056
0.312434
0.327374
0.342283
0.358687
0.373114
0.389477
0.401023
0.41385
0.419864
0.424598
0.425892
1.46334
1.5969
1.62867
1.64316
1.66436
1.67173
1.68287
1.68411
1.68487
1.68023
1.67355
1.66155
1.647
1.6286
1.60838
1.58618
1.56161
1.53696
1.51138
1.48553
1.46324
1.43847
1.42032
1.39693
1.38144
1.35957
1.34532
1.32426
1.3113
1.2913
1.28088
1.26227
1.25455
1.23891
1.23305
1.21992
1.21484
1.20535
1.19821
1.19293
1.18518
1.18224
1.17543
1.17335
1.16763
1.16635
1.16081
1.15991
1.15451
1.15363
1.14818
1.14659
1.14078
1.13874
1.13395
1.12863
1.12488
1.11768
1.1133
1.10508
1.09965
1.09056
1.08442
1.07435
1.06771
1.05685
1.04949
1.03809
1.02975
1.01807
1.00898
0.997947
0.987335
0.977355
0.96653
0.957592
0.94743
0.939792
0.930968
0.925106
0.917885
0.914023
0.909144
0.907383
0.905808
0.905763
0.905773
0.907488
0.910032
0.913113
0.917784
0.922185
0.928276
0.933564
0.940866
0.946699
0.955191
0.961435
0.970795
0.977314
0.987217
0.993993
1.0039
1.01089
1.0207
1.02769
1.03767
1.04524
1.05352
1.06209
1.06939
1.07862
1.08466
1.09434
1.09934
1.10921
1.11362
1.12297
1.12688
1.13564
1.13898
1.14696
1.14964
1.15762
1.1611
1.16449
1.16909
1.16972
1.17351
1.17223
1.17422
1.17013
1.17097
1.16254
1.16068
1.14663
1.14167
1.12149
1.11385
1.0858
1.07577
1.04706
1.0213
0.995913
0.958416
0.93468
0.886749
0.865149
0.81155
0.789813
0.734773
0.713142
0.65851
0.63704
0.583839
0.563158
0.513528
0.494557
0.45405
0.43026
0.402372
0.377285
0.360072
0.336212
0.327485
0.30821
0.302555
0.289544
0.286609
0.279479
0.278878
0.276831
0.278372
0.279031
0.284742
0.286354
0.294969
0.299174
0.308086
0.316399
0.326238
0.338611
0.349962
0.366005
0.379565
0.398887
0.413799
0.43509
0.449383
0.467387
0.475886
0.482458
0.48425
0.784961
0.992521
1.04645
1.09574
1.14765
1.18234
1.2294
1.25755
1.29829
1.32107
1.35684
1.37137
1.39571
1.40383
1.42049
1.42462
1.4339
1.43474
1.43659
1.43802
1.437
1.43745
1.43785
1.43854
1.44043
1.44166
1.44292
1.44295
1.44278
1.44056
1.43942
1.43475
1.43292
1.42718
1.42521
1.41932
1.41722
1.41203
1.40815
1.40488
1.39929
1.39709
1.39077
1.38837
1.38123
1.37839
1.36969
1.36601
1.35559
1.35045
1.33845
1.33101
1.31772
1.30861
1.29593
1.28312
1.27168
1.25711
1.24538
1.23008
1.21791
1.2023
1.19003
1.17412
1.16206
1.14625
1.13435
1.11892
1.10685
1.09187
1.07966
1.06572
1.05256
1.03982
1.02657
1.01484
1.00219
0.991591
0.980106
0.971055
0.96107
0.953927
0.945881
0.94084
0.935149
0.93204
0.929342
0.928555
0.92841
0.928946
0.930997
0.933972
0.938155
0.942593
0.948328