/*--------------------------------*- C++ -*----------------------------------*\
| =========                 |                                                 |
| \\      /  F ield         | OpenFOAM: The Open Source CFD Toolbox           |
|  \\    /   O peration     | Version:  4.1                                   |
|   \\  /    A nd           | Web:      www.OpenFOAM.org                      |
|    \\/     M anipulation  |                                                 |
\*---------------------------------------------------------------------------*/
FoamFile
{
    version     2.0;
    format      ascii;
    class       volScalarField;
    location    "13";
    object      k;
}
// * * * * * * * * * * * * * * * * * * * * * * * * * * * * * * * * * * * * * //

dimensions      [0 2 -2 0 0 0 0];

internalField   nonuniform List<scalar> 
204246
(
2.10301
2.19275
2.20275
2.2058
2.21667
2.21912
2.22841
2.23162
2.23998
2.24395
2.25166
2.25611
2.26369
2.26822
2.27773
2.28066
2.2914
2.29361
2.30251
2.30971
2.31473
2.32495
2.32741
2.33773
2.34057
2.35078
2.35361
2.36401
2.36654
2.37818
2.38044
2.39231
2.3946
2.40665
2.40897
2.41982
2.42265
2.43163
2.43915
2.44422
2.45326
2.45698
2.46705
2.46986
2.48059
2.48307
2.49527
2.4975
2.51013
2.51246
2.52413
2.52722
2.53881
2.54193
2.552
2.56027
2.56617
2.577
2.58105
2.59323
2.59679
2.60979
2.61318
2.62777
2.63102
2.64618
2.64962
2.66389
2.66817
2.68236
2.68676
2.69903
2.70783
2.71702
2.72824
2.73565
2.74858
2.75486
2.76895
2.77451
2.79124
2.79577
2.81335
2.81809
2.83484
2.84045
2.8572
2.86296
2.87792
2.88807
2.90007
2.91256
2.92305
2.937
2.94662
2.96442
2.97123
2.99127
2.99753
3.01814
3.02467
3.04499
3.05246
3.07291
3.08068
3.10191
3.10963
3.12931
3.14136
3.15835
3.17242
3.18835
3.20641
3.21965
3.241
3.25221
3.27481
3.28582
3.3096
3.32049
3.34589
3.35647
3.38295
3.3936
3.41865
3.43361
3.4561
3.4733
3.49478
3.5143
3.53474
3.55571
3.57581
3.59802
3.61798
3.64141
3.66127
3.68568
3.70572
3.73113
3.75123
3.77609
3.79836
3.82232
3.84536
3.86946
3.89294
3.91734
3.94102
3.96587
3.98959
4.01488
4.03848
4.0643
4.08781
4.11413
4.13768
4.16416
4.18705
4.21377
4.23671
4.2628
4.28643
4.31171
4.33611
4.36042
4.38584
4.40902
4.43591
4.45794
4.48677
4.50752
4.53893
4.55879
4.59426
4.61223
4.65225
4.67391
4.71035
4.74045
4.77533
4.81451
4.85079
4.90014
4.94153
5.00249
5.05349
5.12729
5.19239
5.27124
5.33797
5.37582
5.39233
1.41784
1.39881
1.40016
1.40094
1.40374
1.40344
1.40641
1.40629
1.40962
1.40955
1.4134
1.41357
1.41741
1.41724
1.42139
1.42119
1.42604
1.42654
1.42765
1.43162
1.43173
1.43647
1.4365
1.44233
1.4432
1.44923
1.45035
1.45632
1.45697
1.46328
1.46392
1.47056
1.47132
1.47818
1.47907
1.48735
1.48974
1.49257
1.49883
1.50006
1.50787
1.50973
1.5176
1.51959
1.52719
1.52863
1.53633
1.53773
1.54557
1.54707
1.55567
1.55793
1.56717
1.57035
1.57484
1.58216
1.58432
1.59374
1.59663
1.6064
1.60953
1.61934
1.62201
1.63227
1.63503
1.64579
1.64875
1.66063
1.66452
1.67738
1.68232
1.69012
1.70134
1.70603
1.71933
1.72418
1.73824
1.74332
1.75792
1.7629
1.77763
1.78255
1.79802
1.80323
1.81995
1.82622
1.84412
1.85157
1.86398
1.8786
1.88745
1.90525
1.91275
1.93223
1.93976
1.95953
1.96712
1.98764
1.9954
2.01731
2.02585
2.04876
2.0584
2.08224
2.09242
2.11768
2.12852
2.15029
2.16891
2.18655
2.20995
2.22399
2.25099
2.26305
2.29244
2.3051
2.3369
2.35056
2.38355
2.39825
2.43235
2.44764
2.48452
2.50153
2.53348
2.55942
2.58755
2.61841
2.64561
2.67937
2.70623
2.74399
2.77092
2.8115
2.83928
2.88227
2.91153
2.95676
2.98818
3.03603
3.07101
3.11338
3.15793
3.19899
3.24619
3.2899
3.3388
3.38542
3.43598
3.48582
3.53817
3.59141
3.64411
3.7014
3.7553
3.81737
3.87483
3.94114
3.99301
4.068
4.1239
4.19391
4.26069
4.3253
4.40162
4.46096
4.54467
4.60014
4.68783
4.74189
4.82944
4.88489
4.96501
5.0236
5.10676
5.16375
5.24524
5.28439
5.37788
5.4135
5.50262
5.53474
5.6193
5.64806
5.72955
5.75548
5.84369
5.87473
6.0409
6.18545
6.59928
6.85526
6.9637
2.055
1.96325
1.9865
1.99832
1.99883
2.00853
2.00763
2.0142
2.01313
2.01921
2.01795
2.02385
2.02251
2.02965
2.02731
2.03478
2.0325
2.0413
2.04493
2.04273
2.05007
2.0479
2.05589
2.05454
2.06194
2.06109
2.06891
2.06821
2.0777
2.07624
2.08632
2.08508
2.09576
2.09477
2.10601
2.10578
2.11805
2.12402
2.12366
2.13528
2.13527
2.14628
2.14682
2.15788
2.15852
2.17069
2.1703
2.18282
2.18247
2.19523
2.19571
2.20735
2.20825
2.22115
2.22739
2.22739
2.23938
2.23965
2.25079
2.25164
2.26289
2.2639
2.2763
2.27627
2.28957
2.28976
2.30386
2.30524
2.31858
2.32063
2.33558
2.34293
2.3466
2.35906
2.36125
2.37524
2.37786
2.39251
2.39544
2.41105
2.41304
2.42947
2.43173
2.44904
2.45247
2.46911
2.47321
2.49127
2.50016
2.50734
2.522
2.52615
2.54296
2.54748
2.56509
2.56878
2.58706
2.59106
2.61
2.61447
2.63371
2.63892
2.65735
2.66326
2.68226
2.68858
2.70909
2.71809
2.73016
2.74541
2.75235
2.77118
2.77717
2.79674
2.80303
2.8229
2.8299
2.84915
2.85638
2.8758
2.8832
2.90333
2.91133
2.9317
2.94133
2.95548
2.96931
2.97958
2.99644
3.00419
3.02197
3.02999
3.04724
3.05528
3.07168
3.07967
3.09521
3.10322
3.1183
3.12658
3.14037
3.14703
3.1578
3.16358
3.17244
3.17691
3.18427
3.18555
3.19096
3.18971
3.19201
3.1881
3.18855
3.17737
3.17726
3.16002
3.15861
3.13188
3.11883
3.10295
3.0698
3.06062
3.01463
3.00221
2.94825
2.93287
2.87229
2.85479
2.78918
2.76984
2.69975
2.67922
2.60546
2.58431
2.51077
2.4906
2.41204
2.37561
2.33979
2.27745
2.26209
2.19222
2.17817
2.11109
2.09933
2.0404
2.03382
1.994
1.99828
1.9724
1.97764
1.84462
1.79527
2.77134
2.62585
2.64513
2.65902
2.66159
2.67172
2.67153
2.67688
2.67571
2.67908
2.67738
2.68005
2.67824
2.68152
2.67882
2.68241
2.67978
2.68344
2.68489
2.68235
2.68572
2.68317
2.6867
2.6849
2.68797
2.68662
2.69004
2.68885
2.69343
2.69168
2.69668
2.69513
2.70069
2.69942
2.70547
2.70488
2.71115
2.71443
2.71401
2.72059
2.72032
2.72663
2.72683
2.73345
2.73382
2.74107
2.74075
2.74814
2.74786
2.75543
2.75578
2.76262
2.76321
2.77011
2.77356
2.77343
2.77965
2.77957
2.78507
2.78523
2.79051
2.79068
2.79641
2.79601
2.80175
2.8014
2.80731
2.80754
2.81312
2.81371
2.81937
2.82222
2.82295
2.82736
2.82771
2.83243
2.83296
2.83778
2.83843
2.84341
2.84365
2.84861
2.84888
2.85385
2.85457
2.85907
2.86001
2.86417
2.86624
2.8669
2.86972
2.87012
2.87287
2.87325
2.87569
2.87577
2.87778
2.87778
2.87943
2.87945
2.8805
2.88045
2.8809
2.8808
2.88104
2.88067
2.88043
2.8795
2.87763
2.87648
2.87405
2.87243
2.86937
2.86708
2.86338
2.8605
2.85598
2.85271
2.84715
2.84312
2.83677
2.83138
2.82503
2.81668
2.80801
2.80005
2.78768
2.78045
2.76353
2.75723
2.73618
2.72934
2.7048
2.69681
2.66851
2.65924
2.62665
2.61572
2.57939
2.56719
2.52313
2.50159
2.47003
2.43168
2.4088
2.35821
2.33885
2.28116
2.25988
2.1982
2.17518
2.10971
2.08491
2.01592
1.98953
1.91846
1.89134
1.81503
1.77814
1.71967
1.66716
1.62225
1.55715
1.52471
1.4532
1.42575
1.35493
1.32903
1.26362
1.23977
1.1803
1.15902
1.10583
1.08723
1.04011
1.02405
0.981974
0.962903
0.935251
0.91237
0.894273
0.867969
0.856536
0.82965
0.821178
0.802517
0.79966
0.795618
0.810025
0.827063
0.857046
0.866699
0.873944
3.25882
3.17074
3.17848
3.19012
3.19169
3.19807
3.19686
3.19836
3.19386
3.19406
3.18716
3.18647
3.17903
3.17853
3.17022
3.16985
3.16127
3.16068
3.15488
3.14841
3.14715
3.13853
3.13749
3.12934
3.12767
3.12005
3.11842
3.11113
3.10997
3.10235
3.10145
3.09419
3.09341
3.08672
3.08611
3.08003
3.07891
3.0752
3.07068
3.07014
3.06492
3.064
3.05957
3.0588
3.05484
3.05444
3.05032
3.05001
3.04605
3.04573
3.04208
3.04134
3.03751
3.03646
3.03338
3.02954
3.02785
3.02265
3.02071
3.01503
3.01276
3.00673
3.0043
2.99766
2.9949
2.98778
2.98469
2.97744
2.97399
2.9666
2.96258
2.95564
2.94934
2.94313
2.9357
2.92966
2.92166
2.91556
2.90723
2.901
2.89225
2.88568
2.87657
2.86968
2.86058
2.8532
2.84414
2.83557
2.82605
2.81665
2.80649
2.79684
2.78542
2.77588
2.76249
2.75376
2.73781
2.73004
2.71157
2.7047
2.68407
2.67628
2.65488
2.64641
2.62367
2.61471
2.58815
2.57549
2.55481
2.53473
2.51763
2.49028
2.47792
2.44481
2.43307
2.39649
2.38296
2.34528
2.3304
2.29034
2.27445
2.23199
2.21548
2.16779
2.14449
2.10888
2.07258
2.04477
1.99841
1.9764
1.92365
1.90286
1.84739
1.82583
1.76902
1.74695
1.68907
1.66645
1.60824
1.5854
1.52509
1.49599
1.44912
1.40983
1.3726
1.32552
1.2969
1.24412
1.22258
1.16872
1.14806
1.09673
1.07717
1.0288
1.01058
0.965865
0.949285
0.907111
0.887535
0.85799
0.834685
0.814189
0.787995
0.775855
0.750218
0.741201
0.719097
0.711792
0.693461
0.687612
0.672887
0.668478
0.657104
0.654068
0.645762
0.644007
0.638132
0.635928
0.635531
0.633939
0.634798
0.634043
0.635056
0.634203
0.634866
0.633678
0.635206
0.635686
0.645029
0.650818
0.66361
0.668338
0.672132
3.68396
3.59333
3.58948
3.59134
3.58848
3.58913
3.58102
3.5785
3.56615
3.5615
3.54663
3.54067
3.52473
3.51844
3.50151
3.49503
3.47761
3.47071
3.4555
3.44363
3.43209
3.41694
3.40739
3.39105
3.38186
3.36534
3.3561
3.3396
3.33049
3.31357
3.30468
3.28772
3.27889
3.26219
3.25332
3.23713
3.22764
3.21304
3.20143
3.18884
3.17623
3.16481
3.15208
3.14141
3.12893
3.11881
3.10665
3.09697
3.08493
3.07546
3.06377
3.05421
3.04272
3.03261
3.02134
3.01016
2.99882
2.98689
2.97504
2.9627
2.94994
2.93736
2.92337
2.91101
2.89536
2.88325
2.86593
2.85395
2.83575
2.82378
2.80401
2.7889
2.77248
2.7541
2.73889
2.71798
2.70363
2.68045
2.66683
2.64058
2.62913
2.60018
2.58896
2.55832
2.54612
2.51539
2.5026
2.46972
2.45125
2.42651
2.40122
2.38031
2.35012
2.3317
2.29636
2.28197
2.24298
2.22837
2.18783
2.17272
2.13054
2.11403
2.07181
2.05443
2.01122
1.99335
1.94664
1.92441
1.88691
1.85604
1.82431
1.78577
1.76079
1.71483
1.69534
1.6453
1.62544
1.57602
1.55559
1.50626
1.48588
1.4369
1.41673
1.36616
1.3421
1.30281
1.27087
1.24023
1.20193
1.17872
1.13606
1.11859
1.07524
1.05853
1.01727
1.00151
0.962442
0.947538
0.911016
0.897139
0.861992
0.845511
0.820209
0.800061
0.781371
0.758422
0.745601
0.721473
0.712055
0.689024
0.680524
0.659808
0.652206
0.633735
0.627014
0.610645
0.604734
0.589887
0.583111
0.573207
0.565541
0.558671
0.550398
0.546356
0.538455
0.535643
0.52903
0.526899
0.521978
0.520558
0.517267
0.516551
0.514848
0.514833
0.514439
0.515478
0.515895
0.518158
0.52028
0.523247
0.527014
0.530734
0.535977
0.540417
0.547139
0.552544
0.56074
0.566934
0.57644
0.582975
0.590407
0.593388
0.595309
3.95443
3.88501
3.87405
3.86492
3.85292
3.84446
3.82871
3.81756
3.7984
3.78471
3.76301
3.74745
3.72426
3.70761
3.68323
3.66603
3.64087
3.6228
3.59854
3.57732
3.55476
3.53124
3.50967
3.48508
3.46359
3.43866
3.41694
3.39185
3.36999
3.34478
3.32285
3.2978
3.2759
3.25119
3.22904
3.20469
3.18183
3.15746
3.13516
3.11024
3.08871
3.06398
3.04306
3.01837
2.99829
2.97305
2.95453
2.92848
2.91123
2.8844
2.86816
2.84158
2.82568
2.79858
2.77902
2.75835
2.73394
2.71584
2.6894
2.67209
2.64382
2.62684
2.59613
2.58075
2.54721
2.53275
2.49699
2.48184
2.44567
2.42982
2.39216
2.37038
2.34045
2.31224
2.28582
2.25316
2.22901
2.19299
2.17039
2.13074
2.11113
2.06788
2.05022
2.00495
1.98629
1.94151
1.92231
1.87597
1.85165
1.81454
1.78306
1.75144
1.7147
1.68722
1.64534
1.62341
1.57708
1.55849
1.51071
1.49221
1.4446
1.4255
1.37968
1.36054
1.31576
1.29705
1.25141
1.22995
1.19386
1.16693
1.13755
1.10539
1.08374
1.04678
1.03188
0.993591
0.978745
0.943424
0.929138
0.89603
0.882664
0.851731
0.839301
0.809217
0.795487
0.773081
0.756495
0.73964
0.720604
0.708849
0.688379
0.680225
0.660242
0.652839
0.634732
0.628091
0.611714
0.605727
0.591036
0.585683
0.572083
0.565804
0.556539
0.549009
0.542496
0.534143
0.529996
0.521493
0.518353
0.51059
0.507844
0.501051
0.498675
0.492791
0.490769
0.485762
0.484106
0.479839
0.47793
0.475572
0.473336
0.472339
0.470315
0.469846
0.468518
0.468381
0.46788
0.468136
0.468218
0.469558
0.469969
0.472286
0.473183
0.476373
0.477731
0.481715
0.483497
0.487933
0.490665
0.495241
0.498832
0.503668
0.508174
0.513506
0.519026
0.524817
0.531382
0.537726
0.545066
0.55108
0.556576
0.559077
0.560457
4.12005
4.06069
4.04338
4.01725
3.99856
3.97621
3.9541
3.93107
3.90553
3.88075
3.8523
3.82593
3.79538
3.76763
3.73558
3.70687
3.67377
3.64385
3.61081
3.57924
3.54662
3.51364
3.48073
3.44712
3.41347
3.37949
3.34495
3.31076
3.27488
3.24104
3.20392
3.17037
3.13209
3.09895
3.05974
3.02674
2.98711
2.9517
2.91642
2.87782
2.84475
2.80544
2.7735
2.73398
2.7031
2.66309
2.63421
2.59374
2.56663
2.52596
2.50005
2.4603
2.43508
2.39548
2.36683
2.33512
2.30098
2.27322
2.237
2.21104
2.17299
2.14843
2.10787
2.08586
2.04244
2.02227
1.9763
1.95642
1.91022
1.8898
1.84244
1.8167
1.7782
1.74556
1.71216
1.67476
1.64516
1.60432
1.57777
1.53349
1.51144
1.46442
1.44498
1.3974
1.37764
1.33212
1.31257
1.2672
1.24437
1.20844
1.18082
1.15117
1.12009
1.09574
1.06144
1.04329
1.00692
0.992369
0.956578
0.942853
0.909001
0.895618
0.864724
0.852031
0.823384
0.811631
0.783934
0.771187
0.75014
0.735422
0.718871
0.702004
0.690487
0.671685
0.664222
0.645359
0.638214
0.621479
0.614842
0.599701
0.593687
0.579951
0.574508
0.561482
0.555597
0.546043
0.539377
0.531977
0.524486
0.519296
0.511088
0.507733
0.49959
0.496549
0.489186
0.486452
0.479783
0.477305
0.471276
0.46904
0.463415
0.460801
0.456963
0.453832
0.451042
0.447588
0.445742
0.442177
0.440835
0.437541
0.43638
0.433512
0.432528
0.430105
0.429311
0.427388
0.426817
0.425322
0.424683
0.424224
0.423667
0.423675
0.423533
0.424199
0.424492
0.425994
0.426575
0.428918
0.429932
0.433163
0.434734
0.438894
0.44111
0.446216
0.449097
0.455149
0.458661
0.465347
0.469683
0.476533
0.481566
0.488431
0.494104
0.500843
0.506957
0.51359
0.519951
0.526378
0.532542
0.537986
0.542288
0.544539
0.545638
4.21449
4.13988
4.11336
4.0687
4.0414
4.00441
3.97456
3.94004
3.90766
3.87333
3.83833
3.80312
3.76601
3.72914
3.69065
3.65199
3.6122
3.57125
3.52955
3.48888
3.44481
3.4036
3.35828
3.31605
3.26998
3.22675
3.17983
3.13594
3.08795
3.04396
2.99488
2.95072
2.90072
2.85672
2.80602
2.76201
2.71101
2.66483
2.61846
2.56926
2.52498
2.47508
2.43204
2.38198
2.34032
2.28999
2.25059
2.19987
2.16244
2.11162
2.07561
2.02584
1.99087
1.94153
1.90396
1.86284
1.82054
1.78439
1.74082
1.7079
1.66367
1.63364
1.58823
1.56229
1.5152
1.49266
1.44439
1.42307
1.37616
1.35516
1.30845
1.28454
1.24644
1.21786
1.18562
1.15371
1.12633
1.09241
1.06927
1.03343
1.01539
0.978762
0.963525
0.92806
0.913343
0.880891
0.867019
0.836239
0.821034
0.797176
0.780277
0.761034
0.742922
0.727699
0.70835
0.697552
0.677489
0.66939
0.650167
0.642796
0.625225
0.618287
0.602699
0.596302
0.582215
0.576428
0.563135
0.557045
0.546922
0.540185
0.532133
0.524646
0.518825
0.510543
0.506661
0.498198
0.494837
0.48716
0.484038
0.477071
0.47423
0.467885
0.465299
0.459276
0.456516
0.451962
0.448874
0.445206
0.441814
0.439136
0.435434
0.433596
0.429848
0.428375
0.424887
0.42357
0.420434
0.419264
0.416475
0.41545
0.412925
0.411756
0.410112
0.408711
0.407669
0.406186
0.405633
0.404281
0.403867
0.402837
0.402566
0.401868
0.401745
0.401389
0.401421
0.40137
0.401728
0.401912
0.402461
0.403194
0.403753
0.405024
0.405766
0.407521
0.408461
0.410782
0.412012
0.415055
0.416722
0.420515
0.422719
0.427363
0.430255
0.435795
0.439501
0.445851
0.450428
0.457315
0.462731
0.469857
0.475844
0.482993
0.489302
0.496574
0.503087
0.510248
0.516667
0.523327
0.529097
0.534372
0.538128
0.540261
0.541194
4.2578
4.1601
4.12105
4.05606
4.01674
3.96397
3.92338
3.87605
3.83452
3.78904
3.74655
3.70188
3.65839
3.61334
3.56928
3.52333
3.47815
3.43051
3.38325
3.33662
3.2869
3.23975
3.18865
3.14014
3.08812
3.03832
2.98513
2.93421
2.87971
2.82828
2.77263
2.72083
2.66444
2.61267
2.55598
2.50436
2.44795
2.39531
2.34314
2.28914
2.23909
2.18566
2.13723
2.08463
2.0377
1.98575
1.94063
1.88906
1.84509
1.79368
1.75026
1.69926
1.65594
1.60488
1.56047
1.51337
1.46709
1.42313
1.37715
1.33656
1.29183
1.25483
1.21145
1.17845
1.13681
1.10789
1.06796
1.04258
1.005
0.98269
0.946889
0.925298
0.895723
0.873579
0.848446
0.826227
0.804982
0.783021
0.765211
0.743424
0.729251
0.707521
0.696534
0.6755
0.666173
0.647087
0.63861
0.621103
0.612452
0.598726
0.589766
0.578463
0.56938
0.56016
0.550836
0.54377
0.534114
0.528878
0.519214
0.515106
0.50597
0.502133
0.493962
0.490425
0.482986
0.479757
0.472722
0.469412
0.463789
0.460259
0.455499
0.451729
0.447923
0.443862
0.440884
0.436577
0.43425
0.429969
0.428061
0.423985
0.422227
0.418463
0.416843
0.413246
0.411558
0.408716
0.406929
0.404512
0.402644
0.40071
0.398709
0.397224
0.395122
0.394046
0.391987
0.39115
0.389283
0.388555
0.386931
0.38631
0.384879
0.384209
0.383344
0.382584
0.382127
0.381405
0.381178
0.380655
0.380545
0.380301
0.38032
0.380305
0.38061
0.380776
0.381398
0.381773
0.382715
0.383329
0.384543
0.385737
0.38719
0.388999
0.390756
0.393111
0.395347
0.39829
0.401084
0.404581
0.407891
0.41192
0.415796
0.420441
0.424966
0.430333
0.435582
0.441715
0.447708
0.454565
0.461124
0.468573
0.475614
0.483494
0.490813
0.498762
0.506011
0.51361
0.520294
0.526966
0.532457
0.53744
0.540801
0.542865
0.543688
4.31906
4.18
4.12259
4.02908
3.96918
3.89447
3.83688
3.77361
3.7188
3.66224
3.61005
3.55752
3.5071
3.45682
3.40777
3.35886
3.31036
3.26109
3.21143
3.164
3.11301
3.06497
3.01407
2.96504
2.91406
2.86398
2.81236
2.76112
2.70857
2.6567
2.60354
2.55126
2.49799
2.44582
2.39318
2.34188
2.29055
2.24068
2.19267
2.14515
2.09994
2.0557
2.01348
1.97226
1.93252
1.89366
1.85572
1.81873
1.78157
1.74505
1.70692
1.66903
1.62849
1.58789
1.54446
1.50044
1.45464
1.40699
1.35991
1.31082
1.26432
1.21561
1.17058
1.1228
1.08115
1.03626
0.999144
0.958241
0.925305
0.888995
0.860395
0.828318
0.803935
0.776194
0.754483
0.731105
0.711487
0.69179
0.673965
0.657303
0.641046
0.626768
0.6121
0.599638
0.586468
0.575604
0.563809
0.554173
0.543346
0.535326
0.525394
0.518347
0.509475
0.503165
0.495184
0.489563
0.482364
0.477281
0.470791
0.466162
0.460301
0.456065
0.450815
0.446952
0.442197
0.438671
0.434266
0.430935
0.427235
0.423943
0.420685
0.417514
0.414652
0.411592
0.409095
0.406122
0.40394
0.401077
0.399204
0.396435
0.394858
0.392203
0.390887
0.388329
0.387097
0.384975
0.383753
0.381911
0.38074
0.37918
0.378065
0.376779
0.375734
0.374711
0.373764
0.372986
0.372133
0.371599
0.37086
0.37056
0.370001
0.369747
0.369564
0.369401
0.369405
0.369405
0.369665
0.369807
0.370318
0.370634
0.37139
0.371909
0.372912
0.373661
0.374918
0.375932
0.377465
0.378794
0.38058
0.382255
0.384261
0.38628
0.388567
0.390985
0.393715
0.396679
0.399962
0.403677
0.407578
0.412128
0.416726
0.422106
0.427467
0.433679
0.43985
0.446857
0.453864
0.461606
0.469202
0.477542
0.485614
0.494346
0.502675
0.511486
0.51968
0.528047
0.53546
0.542627
0.54844
0.553574
0.556936
0.559017
0.559796
4.47461
4.27863
4.19898
4.07408
3.98888
3.88595
3.80133
3.71422
3.63732
3.56333
3.49487
3.43078
3.36973
3.31251
3.25669
3.20476
3.15309
3.1044
3.05479
3.00952
2.96109
2.91651
2.87057
2.82644
2.7828
2.73932
2.6971
2.65389
2.61218
2.56881
2.52774
2.48455
2.44435
2.40188
2.36327
2.32248
2.28605
2.24826
2.21373
2.18081
2.14903
2.12273
2.0958
2.07564
2.05258
2.03718
2.01573
2.00513
1.98527
1.97738
1.9562
1.94642
1.92115
1.90705
1.88154
1.8518
1.82614
1.78339
1.75166
1.69943
1.6632
1.6037
1.56494
1.49747
1.45818
1.38674
1.34992
1.27876
1.24359
1.17582
1.14434
1.08755
1.05092
1.00718
0.968705
0.936006
0.897455
0.8733
0.83577
0.818716
0.783061
0.768379
0.736431
0.723425
0.695011
0.682858
0.657464
0.646444
0.624706
0.612499
0.594551
0.581777
0.567247
0.554063
0.542741
0.529035
0.520529
0.50676
0.500499
0.487621
0.482252
0.470881
0.465958
0.456114
0.451776
0.443168
0.439379
0.432095
0.428364
0.422227
0.418962
0.413689
0.410712
0.406239
0.403428
0.39969
0.397014
0.393885
0.391397
0.388745
0.386462
0.384202
0.382114
0.380175
0.37824
0.376651
0.374898
0.373484
0.371991
0.370713
0.369486
0.368335
0.36734
0.366322
0.365532
0.364699
0.364101
0.363444
0.36304
0.362551
0.3623
0.362039
0.361947
0.361898
0.361944
0.362132
0.362371
0.36278
0.363214
0.363869
0.36451
0.365432
0.366298
0.367508
0.368627
0.370147
0.371544
0.373412
0.37514
0.377418
0.379543
0.382303
0.384922
0.388166
0.391331
0.395003
0.398777
0.402927
0.407414
0.412218
0.417516
0.423115
0.429333
0.435793
0.442978
0.450287
0.458453
0.466594
0.475385
0.484248
0.493521
0.502869
0.512351
0.521827
0.53106
0.540061
0.548289
0.555908
0.562156
0.567445
0.570921
0.57301
0.573758
4.7675
4.5289
4.42931
4.27049
4.15473
4.02311
3.9075
3.7941
3.68722
3.58924
3.49562
3.41149
3.3308
3.26009
3.19164
3.13236
3.07351
3.0232
2.9722
2.92826
2.88332
2.84236
2.80294
2.76458
2.73042
2.69569
2.66619
2.63486
2.60813
2.57787
2.55219
2.52237
2.49885
2.4702
2.44919
2.4224
2.40437
2.38397
2.36652
2.35403
2.33925
2.33383
2.32785
2.32791
2.32686
2.33156
2.33201
2.34245
2.3449
2.35817
2.36157
2.37148
2.37243
2.37551
2.37559
2.36722
2.36223
2.34148
2.32666
2.29499
2.27185
2.22942
2.19904
2.14418
2.108
2.04372
2.0042
1.93534
1.89228
1.82174
1.77816
1.7155
1.66234
1.6108
1.55416
1.51209
1.45501
1.42122
1.36551
1.34018
1.28577
1.26403
1.21273
1.19286
1.14518
1.12549
1.08058
1.06182
1.02396
0.996509
0.96678
0.933815
0.910249
0.873283
0.855552
0.815916
0.800521
0.761576
0.746797
0.709929
0.695938
0.662039
0.64823
0.617606
0.605015
0.577555
0.566638
0.543481
0.53088
0.513064
0.500571
0.487471
0.474247
0.465735
0.45239
0.447075
0.435253
0.430579
0.42098
0.417129
0.409262
0.406103
0.399666
0.39714
0.392128
0.389502
0.385725
0.38352
0.380625
0.378541
0.37652
0.374477
0.37322
0.371329
0.370524
0.369002
0.368394
0.36728
0.366865
0.366101
0.365854
0.365526
0.365335
0.365327
0.365308
0.365643
0.365759
0.366447
0.366734
0.36776
0.368226
0.369609
0.370259
0.372019
0.372877
0.375024
0.37611
0.378676
0.380165
0.382899
0.384956
0.387965
0.390656
0.394018
0.397429
0.401273
0.405442
0.409871
0.414826
0.419966
0.425809
0.431797
0.438668
0.445614
0.453608
0.461542
0.47071
0.479659
0.489583
0.499437
0.509955
0.520423
0.531226
0.541889
0.552475
0.562631
0.572122
0.580677
0.58783
0.593634
0.597439
0.599685
0.600444
5.13506
4.9037
4.80572
4.64004
4.5079
4.358
4.21485
4.07558
3.93776
3.81209
3.68818
3.58168
3.47606
3.3879
3.29834
3.22687
3.15318
3.09637
3.03854
2.9903
2.94564
2.90328
2.86791
2.8307
2.80277
2.77179
2.75178
2.72819
2.71537
2.69582
2.68738
2.67085
2.66445
2.65062
2.6459
2.63498
2.63155
2.62753
2.62477
2.6265
2.62614
2.63306
2.63708
2.65172
2.66051
2.68146
2.69269
2.71892
2.73213
2.76148
2.77595
2.80408
2.81732
2.84185
2.85533
2.86455
2.87041
2.86799
2.86715
2.85535
2.84625
2.82282
2.80555
2.76895
2.7439
2.69637
2.66506
2.61086
2.57354
2.51557
2.47518
2.4219
2.37148
2.32543
2.27196
2.23169
2.17843
2.14392
2.09282
2.06527
2.01495
1.99422
1.94653
1.9283
1.88382
1.86569
1.8232
1.80564
1.76979
1.74064
1.71143
1.67494
1.64939
1.60684
1.5849
1.53453
1.51481
1.45988
1.43872
1.38082
1.3583
1.29867
1.27343
1.21274
1.18675
1.12578
1.10055
1.04449
1.00836
0.963976
0.920252
0.886873
0.836046
0.813348
0.762171
0.742339
0.696153
0.677373
0.637144
0.620742
0.585988
0.571972
0.542577
0.531208
0.507878
0.495284
0.478366
0.466901
0.455052
0.443574
0.436548
0.425525
0.421497
0.412267
0.408918
0.401915
0.399375
0.394045
0.392254
0.388124
0.38688
0.384181
0.382664
0.381296
0.380062
0.379566
0.378712
0.378603
0.378309
0.378458
0.378508
0.379297
0.379539
0.380861
0.381382
0.383205
0.384005
0.386345
0.387636
0.390161
0.392131
0.394907
0.397592
0.400676
0.404177
0.407701
0.412067
0.416197
0.421481
0.426374
0.432677
0.438462
0.445942
0.452763
0.461568
0.469512
0.479761
0.488935
0.500171
0.510493
0.522538
0.533671
0.546155
0.557647
0.569996
0.581157
0.592321
0.601984
0.610306
0.617113
0.621147
0.623791
0.62459
5.31719
5.17271
5.10647
4.98102
4.8714
4.74464
4.61599
4.48323
4.34769
4.2154
4.08064
3.95708
3.83243
3.72563
3.61648
3.52851
3.43713
3.36847
3.29985
3.24155
3.19379
3.14471
3.11064
3.06974
3.04409
3.0109
2.99413
2.97348
2.96598
2.95382
2.95122
2.9443
2.94441
2.94157
2.94429
2.94368
2.95037
2.95518
2.9599
2.97154
2.97733
2.99363
3.00247
3.02402
3.03695
3.06412
3.07936
3.11128
3.12809
3.16244
3.18036
3.21351
3.23124
3.26161
3.28027
3.29817
3.31543
3.32077
3.32457
3.32214
3.3207
3.3098
3.30146
3.27895
3.26279
3.22974
3.20616
3.1657
3.13501
3.08964
3.05446
3.01093
2.9669
2.92724
2.88093
2.84457
2.7992
2.767
2.72434
2.698
2.65732
2.63759
2.60056
2.5864
2.5546
2.54235
2.5149
2.5046
2.48408
2.46655
2.45158
2.42968
2.41772
2.39211
2.38263
2.35237
2.3425
2.30874
2.29731
2.25936
2.24592
2.20395
2.18661
2.14053
2.11922
2.06826
2.04468
1.9944
1.95314
1.90895
1.85511
1.8151
1.74866
1.71293
1.63663
1.60409
1.52304
1.48763
1.40571
1.36978
1.28803
1.25244
1.17322
1.14004
1.06935
1.02526
0.97039
0.919445
0.879241
0.822217
0.795959
0.740343
0.719018
0.670624
0.651364
0.611056
0.595053
0.561782
0.549284
0.521601
0.511921
0.491603
0.480653
0.467229
0.45771
0.449073
0.440312
0.435909
0.428324
0.425912
0.420317
0.418824
0.415171
0.414394
0.412384
0.41222
0.411578
0.411956
0.412586
0.413299
0.415174
0.416169
0.419202
0.420481
0.424607
0.426426
0.431591
0.434
0.440265
0.44347
0.450867
0.455083
0.463765
0.469186
0.479342
0.486142
0.497975
0.506456
0.519398
0.529645
0.543532
0.555227
0.569601
0.582296
0.596436
0.609498
0.622201
0.634344
0.643579
0.652736
0.657057
0.66048
0.661438
5.01331
5.05717
5.03507
4.96378
4.90821
4.8331
4.76051
4.67493
4.58749
4.4923
4.39267
4.2922
4.18875
4.09177
3.99395
3.90683
3.81933
3.74616
3.6762
3.61485
3.56514
3.51519
3.48057
3.44024
3.41496
3.38192
3.36354
3.34072
3.33246
3.3206
3.31871
3.31514
3.31775
3.31703
3.32512
3.32742
3.3407
3.34934
3.35867
3.37425
3.38337
3.40255
3.41355
3.43596
3.44948
3.47598
3.49048
3.52018
3.53479
3.56543
3.57996
3.60836
3.62231
3.64776
3.6628
3.67727
3.69216
3.69797
3.70186
3.70001
3.69845
3.68983
3.68291
3.66592
3.65282
3.62761
3.60769
3.57581
3.54911
3.51225
3.4806
3.44342
3.40449
3.36864
3.32775
3.29353
3.25359
3.2222
3.18514
3.15847
3.12441
3.10367
3.07357
3.05873
3.03409
3.02413
3.00652
3.00024
2.98969
2.98169
2.97671
2.96768
2.96521
2.95616
2.95476
2.94492
2.94397
2.93313
2.93182
2.91901
2.91679
2.90181
2.89729
2.8793
2.87309
2.85148
2.84422
2.82327
2.80392
2.78661
2.75933
2.74304
2.70755
2.69157
2.64902
2.6318
2.58422
2.56194
2.51003
2.48283
2.42554
2.39349
2.32992
2.29468
2.23153
2.17541
2.11941
2.04869
1.99754
1.91202
1.86596
1.76904
1.72751
1.62597
1.58156
1.48062
1.43649
1.33853
1.2976
1.20196
1.16386
1.08092
1.03173
0.968721
0.912999
0.867751
0.809147
0.7796
0.724566
0.702859
0.656346
0.639024
0.60181
0.588386
0.559488
0.549443
0.527747
0.520579
0.50664
0.498697
0.491211
0.485269
0.48211
0.477808
0.477077
0.475158
0.475555
0.475428
0.478267
0.479156
0.484208
0.486306
0.493405
0.496563
0.505689
0.510198
0.52145
0.528281
0.540521
0.550287
0.563555
0.576036
0.589967
0.604764
0.618687
0.635019
0.647947
0.664113
0.67397
0.686088
0.6916
0.695766
0.696965
4.05105
4.34914
4.39907
4.40523
4.41226
4.39855
4.38957
4.36022
4.33774
4.29692
4.26083
4.20878
4.16017
4.10248
4.05237
3.99896
3.95102
3.90248
3.86013
3.81961
3.78807
3.75712
3.73651
3.71401
3.70164
3.6854
3.67732
3.66724
3.66482
3.66287
3.66521
3.66609
3.67466
3.67902
3.69382
3.70165
3.72042
3.73383
3.74927
3.76851
3.78268
3.80436
3.8189
3.84179
3.85651
3.88059
3.89393
3.91806
3.92908
3.95102
3.95955
3.97624
3.98246
3.99504
4.00118
4.00442
4.00683
4.00446
4.00218
3.99368
3.98574
3.97157
3.95924
3.93953
3.92291
3.898
3.87657
3.84705
3.82047
3.78706
3.75621
3.72148
3.68518
3.6503
3.61212
3.5777
3.53997
3.50734
3.47197
3.44294
3.41081
3.38663
3.35889
3.33995
3.31748
3.30383
3.28786
3.28027
3.27212
3.26705
3.26559
3.26409
3.26478
3.26443
3.26747
3.26764
3.27313
3.27423
3.28117
3.28267
3.28988
3.29152
3.29768
3.29894
3.30381
3.30413
3.30826
3.3092
3.3081
3.30887
3.30585
3.30648
3.30028
3.30036
3.29098
3.2899
3.27784
3.27451
3.25971
3.25492
3.2368
3.23037
3.20892
3.2019
3.18159
3.16243
3.14628
3.11902
3.10434
3.06822
3.05399
3.00959
2.99362
2.94287
2.91958
2.86258
2.83097
2.76562
2.72678
2.64756
2.60347
2.5248
2.45111
2.37963
2.28528
2.2169
2.10457
2.03964
1.91522
1.85472
1.72413
1.66812
1.53989
1.48664
1.36501
1.31453
1.20168
1.1554
1.06174
1.00789
0.940375
0.884199
0.839203
0.785188
0.75932
0.713166
0.696141
0.661395
0.649865
0.626261
0.619225
0.60491
0.601475
0.594624
0.593961
0.591466
0.592456
0.594533
0.597423
0.604146
0.609228
0.620626
0.627771
0.643345
0.653104
0.671657
0.683739
0.703361
0.715443
0.731168
0.73861
0.743905
0.745453
2.42882
2.92286
3.03905
3.12002
3.21405
3.26415
3.33657
3.37078
3.42765
3.45029
3.49456
3.50843
3.53632
3.54017
3.55619
3.5546
3.56436
3.56188
3.56535
3.57133
3.57401
3.58604
3.59335
3.60954
3.62253
3.64292
3.66046
3.68352
3.70527
3.73112
3.7562
3.78212
3.80906
3.83493
3.8648
3.89187
3.92411
3.95345
3.98363
4.01478
4.04259
4.07348
4.09928
4.12844
4.1512
4.17772
4.19574
4.2182
4.23009
4.24587
4.25147
4.25594
4.25516
4.25414
4.24933
4.24039
4.23155
4.21696
4.20303
4.18384
4.16551
4.14233
4.12048
4.09376
4.06917
4.03967
4.01248
3.98063
3.95063
3.91665
3.8839
3.84872
3.81299
3.77725
3.74002
3.70422
3.66702
3.63218
3.5965
3.56409
3.53111
3.5024
3.47331
3.44904
3.42473
3.40531
3.38652
3.37268
3.36076
3.35235
3.34758
3.34563
3.34524
3.34552
3.34788
3.35082
3.35628
3.36156
3.37005
3.37732
3.38778
3.39632
3.40781
3.41723
3.42912
3.43877
3.45094
3.46128
3.47215
3.48322
3.49354
3.50529
3.51428
3.52651
3.53412
3.54652
3.55337
3.56539
3.57197
3.5837
3.58972
3.60112
3.60636
3.61819
3.6243
3.63194
3.64027
3.64531
3.65492
3.65743
3.66679
3.66818
3.67652
3.67719
3.68311
3.68276
3.68585
3.68365
3.68586
3.67932
3.68096
3.67591
3.66536
3.66249
3.64351
3.63938
3.6093
3.60121
3.55839
3.54319
3.48385
3.45716
3.37874
3.33436
3.23561
3.17671
3.0565
2.9835
2.86123
2.73916
2.62649
2.473
2.36217
2.19276
2.08907
1.91251
1.82577
1.64654
1.56799
1.40073
1.3295
1.18753
1.12844
1.01922
0.975073
0.901115
0.87216
0.822295
0.795028
0.767713
0.744906
0.734692
0.720544
0.717112
0.714509
0.720317
0.727325
0.742201
0.756059
0.773993
0.786238
0.792865
0.795033
0.704114
1.09019
1.18374
1.29862
1.40062
1.50269
1.60622
1.69383
1.80191
1.87299
1.98958
2.05419
2.174
2.23423
2.34983
2.40019
2.50562
2.54841
2.6326
2.69483
2.75429
2.82549
2.87373
2.94867
2.99488
3.07267
3.12097
3.19996
3.24914
3.32857
3.37868
3.4557
3.50712
3.58023
3.63215
3.70073
3.75432
3.81609
3.87381
3.92873
3.98425
4.03492
4.08511
4.13094
4.17407
4.21401
4.24799
4.27903
4.3018
4.32243
4.33354
4.33699
4.3357
4.33005
4.31939
4.30476
4.28703
4.26572
4.24256
4.21584
4.18839
4.15786
4.12739
4.09414
4.0616
4.02686
3.9932
3.9578
3.9233
3.8872
3.85152
3.81488
3.77913
3.74203
3.70579
3.6687
3.63247