/*--------------------------------*- C++ -*----------------------------------*\
| =========                 |                                                 |
| \\      /  F ield         | OpenFOAM: The Open Source CFD Toolbox           |
|  \\    /   O peration     | Version:  4.1                                   |
|   \\  /    A nd           | Web:      www.OpenFOAM.org                      |
|    \\/     M anipulation  |                                                 |
\*---------------------------------------------------------------------------*/
FoamFile
{
    version     2.0;
    format      ascii;
    class       volScalarField;
    location    "13";
    object      p;
}
// * * * * * * * * * * * * * * * * * * * * * * * * * * * * * * * * * * * * * //

dimensions      [0 2 -2 0 0 0 0];

internalField   nonuniform List<scalar> 
204246
(
7.19515
-12.2044
-13.3712
-13.5907
-14.4041
-14.7804
-15.5302
-15.9487
-16.3982
-16.795
-17.1972
-17.513
-17.791
-17.9224
-18.0429
-18.0666
-19.2462
-19.765
-19.5756
-20.0716
-20.0806
-20.2435
-20.3809
-20.5757
-20.7476
-20.9719
-21.1511
-21.3428
-21.4349
-21.573
-21.6376
-21.7624
-21.813
-21.9169
-21.945
-22.8704
-23.2804
-22.9389
-23.4349
-23.41
-23.4732
-23.5283
-23.6505
-23.7406
-23.8661
-23.9059
-24.0012
-24.0121
-24.0599
-23.989
-23.9118
-23.7726
-24.6868
-25.0332
-24.5464
-24.9714
-24.8528
-24.8314
-24.8096
-24.8648
-24.8999
-24.9827
-24.9902
-25.0622
-25.057
-25.0994
-25.03
-24.9615
-24.8359
-25.756
-26.2365
-25.9438
-26.2628
-26.2001
-26.2379
-26.2421
-26.2731
-26.2131
-26.8156
-26.7401
-26.8052
-26.8223
-26.9045
-26.8702
-26.8338
-26.7287
-27.7125
-28.2211
-27.9355
-28.2751
-28.1818
-28.1504
-28.0528
-28.6969
-28.6799
-28.789
-28.7924
-28.7719
-28.5038
-29.1669
-29.1093
-29.0955
-29.0194
-28.9885
-28.9253
-30.0083
-30.3875
-30.1718
-30.3643
-30.1024
-30.716
-30.6613
-30.7786
-30.829
-30.8761
-30.7099
-31.2527
-30.9098
-31.4776
-31.3394
-31.2698
-31.1161
-32.2698
-32.7486
-32.5234
-32.903
-32.5555
-33.226
-33.2834
-33.3458
-33.1935
-33.8467
-33.5962
-34.2407
-33.9562
-34.5835
-34.1985
-34.6814
-34.3911
-35.6565
-36.2513
-36.1389
-36.6346
-36.3318
-36.9892
-36.7279
-37.4495
-37.1503
-37.8393
-37.5469
-38.2821
-38.345
-38.4497
-38.3539
-38.218
-37.8761
-39.0992
-39.3868
-38.772
-38.9095
-38.2757
-37.7242
-36.979
-36.1845
-35.084
-33.8251
-32.1593
-30.2543
-27.8872
-25.2581
-22.211
-18.9714
-14.3553
-9.71337
-4.3212
1.5551
8.37781
16.2981
24.8938
34.6974
45.6879
58.3328
72.6897
89.2331
107.929
129.044
152.456
178.734
208.826
248.313
308.301
403.931
532.546
-1.00656
-5.12122
-8.86251
-11.342
-13.032
-14.1373
-14.939
-15.5584
-16.0856
-16.5463
-16.9498
-17.2858
-17.559
-17.7651
-17.9768
-18.2585
-18.6899
-19.1053
-19.4051
-19.6708
-19.8828
-20.0669
-20.2375
-20.4166
-20.6047
-20.8032
-20.9927
-21.1701
-21.3243
-21.4649
-21.5839
-21.6911
-21.786
-21.9123
-22.1112
-22.4199
-22.7086
-22.9062
-23.0962
-23.2434
-23.3593
-23.4656
-23.5733
-23.6844
-23.7915
-23.8867
-23.9683
-24.0178
-24.0347
-24.0081
-23.9966
-24.0733
-24.307
-24.5179
-24.62
-24.7125
-24.7588
-24.7783
-24.7966
-24.8282
-24.8734
-24.9265
-24.9791
-25.0291
-25.0575
-25.0568
-25.0224
-25.0176
-25.1157
-25.3768
-25.6522
-25.8362
-25.9804
-26.071
-26.1288
-26.1731
-26.2335
-26.3398
-26.5104
-26.6487
-26.7476
-26.8153
-26.8477
-26.8512
-26.8849
-27.0232
-27.3225
-27.626
-27.8193
-27.9574
-28.0367
-28.1021
-28.2095
-28.3847
-28.5406
-28.6469
-28.709
-28.7403
-28.7948
-28.9415
-29.037
-29.0522
-29.0438
-29.0749
-29.2248
-29.542
-29.8321
-29.9985
-30.1281
-30.2477
-30.4124
-30.5533
-30.6589
-30.7464
-30.8093
-30.8938
-31.0323
-31.1338
-31.2531
-31.2886
-31.3182
-31.4721
-31.8179
-32.165
-32.3934
-32.5807
-32.7339
-32.9352
-33.1182
-33.237
-33.3761
-33.5639
-33.7557
-33.9724
-34.1746
-34.3552
-34.4695
-34.5803
-34.8034
-35.2309
-35.6817
-36.0282
-36.3277
-36.5705
-36.7894
-37.044
-37.269
-37.5298
-37.7357
-38.0195
-38.2795
-38.6102
-38.7656
-38.9506
-38.8768
-39.074
-39.2789
-39.4863
-39.5626
-39.527
-39.4438
-39.031
-38.7092
-38.0609
-37.3712
-36.3719
-35.1495
-33.6095
-31.7842
-29.6601
-27.1502
-24.2596
-20.7607
-16.8013
-12.2061
-7.08588
-1.10043
5.73377
13.3107
21.8385
31.2721
41.9466
53.9257
67.6624
83.2052
100.824
120.135
140.905
162.759
187.788
223.693
289.138
385.909
-9.54985
-9.00418
-9.9836
-11.3161
-12.6268
-13.7236
-14.6122
-15.3093
-15.8983
-16.3928
-16.824
-17.1842
-17.4909
-17.7609
-18.0287
-18.3315
-18.6415
-18.9454
-19.2446
-19.5072
-19.7437
-19.9545
-20.1513
-20.3342
-20.5266
-20.7142
-20.9027
-21.0765
-21.2478
-21.4004
-21.5474
-21.6716
-21.8056
-21.9581
-22.1606
-22.3685
-22.5736
-22.7823
-22.9656
-23.1253
-23.2639
-23.3891
-23.5056
-23.6214
-23.732
-23.8421
-23.933
-24.0062
-24.0392
-24.0616
-24.0983
-24.1904
-24.2956
-24.4066
-24.5227
-24.6135
-24.6777
-24.7223
-24.7597
-24.7948
-24.8385
-24.8872
-24.9476
-25.001
-25.047
-25.0613
-25.0762
-25.116
-25.2269
-25.365
-25.5196
-25.6865
-25.8322
-25.9515
-26.0362
-26.1145
-26.1961
-26.3098
-26.4282
-26.5598
-26.6791
-26.7795
-26.8386
-26.8964
-26.9747
-27.1236
-27.2994
-27.4829
-27.6644
-27.8097
-27.9293
-28.0354
-28.1623
-28.2865
-28.4206
-28.5297
-28.6209
-28.6938
-28.8016
-28.8951
-28.9911
-29.0404
-29.0902
-29.1732
-29.3281
-29.4921
-29.6574
-29.8227
-29.9787
-30.1336
-30.2689
-30.4087
-30.5236
-30.6415
-30.7165
-30.8299
-30.9439
-31.0752
-31.1804
-31.2669
-31.3599
-31.5352
-31.7277
-31.9362
-32.1545
-32.3604
-32.5578
-32.7356
-32.9088
-33.0584
-33.2189
-33.376
-33.555
-33.7522
-33.9576
-34.1398
-34.3085
-34.4843
-34.7219
-35.0178
-35.3363
-35.6404
-35.927
-36.1593
-36.4068
-36.6385
-36.8855
-37.1121
-37.3543
-37.5832
-37.8416
-38.0465
-38.2498
-38.3434
-38.4788
-38.6093
-38.8381
-38.9638
-38.9565
-38.8701
-38.6427
-38.3282
-37.8714
-37.2932
-36.5228
-35.5289
-34.2765
-32.7086
-30.8936
-28.7089
-26.222
-23.2772
-19.966
-16.1199
-11.7277
-6.64024
-0.823371
5.71467
13.1412
21.4653
30.8027
41.1982
52.8868
66.0587
81.0707
98.0129
116.819
136.857
157.808
180.258
208.942
252.1
309.305
-13.073
-11.4348
-11.4021
-11.9733
-12.7871
-13.6401
-14.4388
-15.1242
-15.7178
-16.2258
-16.6676
-17.0465
-17.373
-17.6707
-17.9596
-18.2549
-18.5421
-18.8243
-19.099
-19.3596
-19.6015
-19.8243
-20.0347
-20.2255
-20.4213
-20.608
-20.7964
-20.9717
-21.1471
-21.3058
-21.4628
-21.6032
-21.7555
-21.9178
-22.1072
-22.2916
-22.4815
-22.6748
-22.8598
-23.0302
-23.1768
-23.3169
-23.4388
-23.5629
-23.6737
-23.7872
-23.8787
-23.9692
-24.0164
-24.0736
-24.1272
-24.2091
-24.2848
-24.3709
-24.4608
-24.544
-24.6197
-24.6651
-24.7138
-24.7505
-24.795
-24.8299
-24.9004
-24.9345
-25.0034
-25.0151
-25.0654
-25.1209
-25.2177
-25.3246
-25.4494
-25.5846
-25.7178
-25.8441
-25.9421
-26.0438
-26.1367
-26.2495
-26.3507
-26.4839
-26.5807
-26.7101
-26.7727
-26.877
-26.9759
-27.1183
-27.2586
-27.4131
-27.5687
-27.7108
-27.8476
-27.9572
-28.1033
-28.2072
-28.3517
-28.4351
-28.5585
-28.6258
-28.7562
-28.8303
-28.9513
-29.0039
-29.0939
-29.1828
-29.3415
-29.4575
-29.6098
-29.757
-29.8914
-30.0587
-30.1719
-30.3312
-30.4285
-30.58
-30.6501
-30.7911
-30.884
-31.0272
-31.1218
-31.2484
-31.3545
-31.5507
-31.694
-31.8783
-32.0738
-32.2474
-32.4712
-32.6363
-32.8443
-32.9846
-33.1864
-33.3264
-33.5383
-33.6989
-33.927
-34.0865
-34.3013
-34.4717
-34.7595
-34.9883
-35.2658
-35.5616
-35.8353
-36.1542
-36.3841
-36.6846
-36.9021
-37.2001
-37.4143
-37.7484
-37.9688
-38.2904
-38.4702
-38.7261
-38.877
-39.1527
-39.3017
-39.4915
-39.6439
-39.697
-39.6782
-39.541
-39.344
-39.0241
-38.5993
-38.0311
-37.2214
-36.1772
-34.7535
-33.0026
-30.8497
-28.324
-25.3624
-21.9622
-18.0362
-13.5444
-8.34456
-2.42555
4.26133
11.8089
20.2448
29.6836
40.1942
51.9521
65.0447
79.5798
95.5302
112.932
131.975
153.779
181.065
215.825
254.228
-14.5696
-12.9471
-12.6623
-12.8424
-13.303
-13.8855
-14.5084
-15.1052
-15.6542
-16.1474
-16.5796
-16.9656
-17.3009
-17.616
-17.9063
-18.1986
-18.4664
-18.738
-19.0011
-19.2544
-19.499
-19.7219
-19.9411
-20.1354
-20.3362
-20.5221
-20.7142
-20.8905
-21.0734
-21.234
-21.4027
-21.55
-21.7165
-21.8762
-22.0597
-22.2276
-22.4096
-22.594
-22.7773
-22.9557
-23.1057
-23.257
-23.3853
-23.5186
-23.6332
-23.758
-23.841
-23.957
-23.9991
-24.0873
-24.1421
-24.2279
-24.2818
-24.3604
-24.4378
-24.5009
-24.5909
-24.627
-24.6918
-24.7185
-24.7765
-24.8023
-24.878
-24.9007
-24.9814
-24.9919
-25.0657
-25.1103
-25.2112
-25.2874
-25.4067
-25.5269
-25.6344
-25.7729
-25.863
-25.9878
-26.0758
-26.2019
-26.2948
-26.4398
-26.5242
-26.6672
-26.7313
-26.8572
-26.9514
-27.1005
-27.2156
-27.3654
-27.5133
-27.6336
-27.7836
-27.8928
-28.0419
-28.1473
-28.2971
-28.3788
-28.5164
-28.5837
-28.7187
-28.7877
-28.915
-28.9764
-29.0841
-29.1653
-29.3087
-29.4181
-29.5638
-29.7
-29.8234
-29.9816
-30.0987
-30.2591
-30.3519
-30.51
-30.5867
-30.7357
-30.8301
-30.9738
-31.0714
-31.2095
-31.3166
-31.494
-31.6363
-31.813
-31.9851
-32.1579
-32.3661
-32.5212
-32.7316
-32.8796
-33.0858
-33.2338
-33.4476
-33.6077
-33.8341
-33.9946
-34.2094
-34.3981
-34.6628
-34.8796
-35.1475
-35.4112
-35.6834
-35.9707
-36.2138
-36.4895
-36.7376
-37.0003
-37.2557
-37.5224
-37.7846
-38.0247
-38.2545
-38.4364
-38.6391
-38.8219
-39.0371
-39.2131
-39.3091
-39.336
-39.2665
-39.0939
-38.7928
-38.3358
-37.7565
-37.0121
-36.1762
-35.136
-33.9163
-32.403
-30.5913
-28.4027
-25.8227
-22.7853
-19.2638
-15.1879
-10.4967
-5.173
0.900764
7.80081
15.6172
24.4146
34.2374
45.0725
56.8611
69.4891
82.93
97.2858
113.163
131.921
155.291
183.314
211.282
-15.3823
-13.942
-13.6315
-13.6491
-13.8992
-14.2812
-14.7367
-15.2187
-15.6918
-16.1438
-16.5486
-16.9261
-17.2597
-17.5802
-17.8681
-18.1564
-18.4108
-18.6724
-18.9267
-19.1745
-19.4184
-19.6381
-19.8605
-20.0564
-20.26
-20.4461
-20.6404
-20.8185
-21.0058
-21.1685
-21.3474
-21.499
-21.6759
-21.8335
-22.0183
-22.1761
-22.3506
-22.528
-22.7085
-22.8948
-23.0447
-23.2048
-23.338
-23.4803
-23.5938
-23.734
-23.8149
-23.936
-23.994
-24.0865
-24.1488
-24.2338
-24.2844
-24.3546
-24.4317
-24.4777
-24.5621
-24.5988
-24.6656
-24.6915
-24.7517
-24.78
-24.8531
-24.8743
-24.9535
-24.9701
-25.0508
-25.0907
-25.1901
-25.2576
-25.3661
-25.477
-25.5743
-25.7073
-25.7978
-25.9287
-26.0167
-26.1482
-26.2426
-26.3881
-26.4765
-26.6198
-26.6959
-26.8301
-26.9225
-27.069
-27.1823
-27.3248
-27.4632
-27.5807
-27.7277
-27.8369
-27.9818
-28.0907
-28.2373
-28.3251
-28.4633
-28.5421
-28.6765
-28.7506
-28.879
-28.9537
-29.0622
-29.1563
-29.2777
-29.3924
-29.527
-29.6517
-29.7761
-29.9083
-30.0371
-30.1866
-30.2857
-30.4394
-30.5279
-30.6674
-30.7829
-30.9133
-31.028
-31.1577
-31.2802
-31.4313
-31.5798
-31.7474
-31.9094
-32.0782
-32.2618
-32.4204
-32.6201
-32.7771
-32.9763
-33.1345
-33.3426
-33.508
-33.7278
-33.895
-34.1192
-34.3048
-34.562
-34.7684
-35.0278
-35.2866
-35.5507
-35.8459
-36.0943
-36.395
-36.6404
-36.9461
-37.1946
-37.5162
-37.7725
-38.1017
-38.3354
-38.675
-38.902
-39.2363
-39.3852
-39.6269
-39.9511
-40.0892
-40.259
-40.3089
-40.3464
-40.3763
-40.2355
-39.9374
-39.3732
-38.5807
-37.5105
-36.1707
-34.5162
-32.5385
-30.1886
-27.4469
-24.2597
-20.596
-16.3638
-11.5466
-6.05816
0.21474
7.35528
15.4541
24.522
34.5383
45.383
56.9304
69.1267
82.0357
96.1404
112.628
132.295
154.997
176.53
-15.8818
-14.6195
-14.3505
-14.3224
-14.462
-14.7159
-15.0428
-15.42
-15.8093
-16.2057
-16.5702
-16.9261
-17.247
-17.5634
-17.8454
-18.1295
-18.3733
-18.6255
-18.8712
-19.114
-19.3564
-19.5707
-19.7939
-19.9893
-20.1948
-20.3807
-20.5764
-20.7545
-20.947
-21.1038
-21.2994
-21.4427
-21.6361
-21.7833
-21.9824
-22.1316
-22.3032
-22.4746
-22.6473
-22.8465
-22.9918
-23.1596
-23.2932
-23.4455
-23.5621
-23.7041
-23.7993
-23.9194
-23.9895
-24.0872
-24.1519
-24.2383
-24.2878
-24.3594
-24.429
-24.4683
-24.5468
-24.5818
-24.6479
-24.6751
-24.7284
-24.7659
-24.8295
-24.8548
-24.9276
-24.9537
-25.0295
-25.0735
-25.1655
-25.2354
-25.3327
-25.4303
-25.529
-25.6502
-25.7466
-25.8728
-25.9679
-26.0959
-26.1975
-26.3393
-26.4317
-26.5755
-26.6611
-26.7991
-26.8935
-27.0379
-27.1527
-27.2906
-27.4204
-27.5453
-27.6785
-27.7972
-27.9296
-28.0499
-28.1921
-28.2839
-28.4241
-28.509
-28.6459
-28.7248
-28.845
-28.939
-29.0458
-29.1428
-29.2595
-29.3698
-29.4971
-29.6198
-29.7387
-29.8638
-29.9869
-30.1372
-30.2387
-30.3898
-30.4852
-30.6359
-30.7374
-30.8717
-30.9862
-31.1198
-31.2431
-31.4046
-31.527
-31.6863
-31.8444
-32.0079
-32.1918
-32.3431
-32.5352
-32.6923
-32.8859
-33.0478
-33.2458
-33.4172
-33.6168
-33.7979
-34.0028
-34.203
-34.4266
-34.648
-34.8923
-35.136
-35.3885
-35.6489
-35.9029
-36.167
-36.4296
-36.6936
-36.9657
-37.2329
-37.5109
-37.7726
-38.0424
-38.2799
-38.5283
-38.7314
-38.9956
-39.2314
-39.4087
-39.5315
-39.5722
-39.5269
-39.381
-39.1434
-38.8834
-38.5429
-38.1806
-37.677
-37.0091
-36.0952
-34.9049
-33.3855
-31.5105
-29.2403
-26.5497
-23.4029
-19.747
-15.574
-10.7889
-5.30318
0.96984
8.10008
16.1019
24.9528
34.5756
44.8833
55.8227
67.4712
80.2132
94.8333
111.662
130.438
147.67
-16.2365
-15.0942
-14.883
-14.8583
-14.9484
-15.129
-15.3676
-15.6631
-15.977
-16.317
-16.6356
-16.9625
-17.2612
-17.567
-17.8378
-18.1183
-18.3511
-18.5954
-18.8312
-19.0685
-19.3096
-19.5156
-19.7409
-19.9333
-20.1415
-20.3255
-20.5234
-20.6944
-20.8979
-21.0484
-21.2493
-21.3943
-21.5905
-21.7382
-21.9409
-22.0895
-22.2644
-22.434
-22.5967
-22.7949
-22.9461
-23.1174
-23.2552
-23.4094
-23.5334
-23.6788
-23.7806
-23.908
-23.9826
-24.0864
-24.1526
-24.2366
-24.296
-24.3652
-24.4205
-24.471
-24.5338
-24.5772
-24.633
-24.6688
-24.716
-24.7527
-24.8056
-24.8417
-24.8997
-24.9402
-25.0039
-25.058
-25.1371
-25.2126
-25.3025
-25.393
-25.4876
-25.5979
-25.7018
-25.8188
-25.9207
-26.0411
-26.1521
-26.2881
-26.3856
-26.5285
-26.6215
-26.7606
-26.8591
-26.9951
-27.1184
-27.2513
-27.3779
-27.5025
-27.6321
-27.7514
-27.8807
-28.0027
-28.1401
-28.2348
-28.3713
-28.4621
-28.5942
-28.6784
-28.8032
-28.8945
-29.0065
-29.1062
-29.2229
-29.3247
-29.4492
-29.5661
-29.6839
-29.809
-29.92
-30.0637
-30.1672
-30.3108
-30.4118
-30.5521
-30.6606
-30.7983
-30.9125
-31.052
-31.1722
-31.3207
-31.4465
-31.6042
-31.7589
-31.9167
-32.0924
-32.2463
-32.432
-32.5908
-32.7853
-32.9472
-33.149
-33.3196
-33.5306
-33.7063
-33.9285
-34.1224
-34.357
-34.5564
-34.7892
-35.041
-35.2995
-35.5753
-35.8352
-36.1211
-36.3888
-36.686
-36.9637
-37.2735
-37.5622
-37.8841
-38.1829
-38.5139
-38.8134
-39.1375
-39.4066
-39.711
-40.03
-40.335
-40.6305
-40.879
-41.0897
-41.2273
-41.2309
-41.1032
-40.7914
-40.3222
-39.6635
-38.8136
-37.7261
-36.3777
-34.7148
-32.709
-30.3157
-27.51
-24.2304
-20.4673
-16.1413
-11.182
-5.53985
0.826885
7.92758
15.7571
24.2689
33.4163
43.1926
53.6943
65.2321
78.2629
92.9124
108.84
123.094
-16.4767
-15.4346
-15.2799
-15.2757
-15.3498
-15.4926
-15.6756
-15.9124
-16.1669
-16.4565
-16.731
-17.0273
-17.298
-17.5888
-17.8431
-18.1197
-18.3408
-18.5785
-18.8061
-19.0346
-19.2751
-19.4674
-19.7001
-19.8855
-20.0983
-20.2753
-20.4793
-20.6452
-20.849
-21.0034
-21.2028
-21.3518
-21.5465
-21.6973
-21.8985
-22.0524
-22.2267
-22.3995
-22.5572
-22.7482
-22.9044
-23.0776
-23.2207
-23.377
-23.5062
-23.6556
-23.7619
-23.8948
-23.975
-24.0819
-24.1524
-24.238
-24.3031
-24.3701
-24.4241
-24.4744
-24.5321
-24.576
-24.6274
-24.6642
-24.7099
-24.7438
-24.7926
-24.8272
-24.8822
-24.9215
-24.984
-25.0362
-25.1117
-25.1836
-25.2712
-25.3577
-25.4471
-25.5522
-25.6521
-25.7716
-25.8684
-25.9958
-26.1
-26.2408
-26.3402
-26.4811
-26.5797
-26.7178
-26.8201
-26.957
-27.0722
-27.2061
-27.3359
-27.4538
-27.5916
-27.703
-27.8376
-27.9514
-28.0904
-28.1888
-28.3229
-28.4174
-28.5468
-28.6356
-28.7603
-28.852
-28.9693
-29.0643
-29.1841
-29.2786
-29.3997
-29.5172
-29.6288
-29.7549
-29.8639
-29.9983
-30.1054
-30.2413
-30.3477
-30.4819
-30.5938
-30.7244
-30.8422
-30.9769
-31.0997
-31.237
-31.3638
-31.5169
-31.6688
-31.8214
-31.9846
-32.1349
-32.3067
-32.4623
-32.6329
-32.8055
-32.9889
-33.1676
-33.3562
-33.5411
-33.7393
-33.9363
-34.1444
-34.3631
-34.5955
-34.8275
-35.0698
-35.3141
-35.5687
-35.8241
-36.0908
-36.3577
-36.6356
-36.9119
-37.1986
-37.4799
-37.7715
-38.0545
-38.3534
-38.647
-38.9618
-39.2431
-39.4731
-39.6769
-39.8406
-40.0062
-40.1229
-40.1987
-40.2551
-40.2539
-40.2595
-40.1676
-39.9513
-39.5469
-38.926
-38.0439
-36.8651
-35.3489
-33.4595
-31.1603
-28.3917
-25.1382
-21.3436
-16.9581
-11.9541
-6.30915
-0.0277113
6.88179
14.3957
22.5051
31.2292
40.6867
51.1135
62.778
75.7147
89.5317
101.676
-16.6106
-15.6799
-15.5754
-15.5975
-15.6726
-15.7984
-15.95
-16.1463
-16.3583
-16.6044
-16.8433
-17.1081
-17.3514
-17.6226
-17.8594
-18.1256
-18.3393
-18.5703
-18.7934
-19.0104
-19.2438
-19.4359
-19.6591
-19.848
-20.0562
-20.2359
-20.4355
-20.6065
-20.8046
-20.9644
-21.1594
-21.3138
-21.5051
-21.6607
-21.8566
-22.0142
-22.1895
-22.3643
-22.5212
-22.7075
-22.8651
-23.039
-23.1861
-23.3451
-23.4789
-23.6314
-23.7432
-23.8789
-23.9665
-24.0769
-24.1525
-24.2427
-24.3073
-24.3749
-24.43
-24.4783
-24.5439
-24.5746
-24.6303
-24.6581
-24.7089
-24.734
-24.7894
-24.8119
-24.8719
-24.8998
-24.967
-25.0101
-25.0876
-25.1486
-25.2334
-25.3195
-25.4017
-25.5111
-25.6008
-25.7203
-25.8186
-25.9412
-26.0454
-26.1783
-26.2842
-26.4209
-26.5265
-26.6641
-26.7724
-26.9043
-27.0158
-27.1495
-27.282
-27.3984
-27.5344
-27.6481
-27.7785
-27.8923
-28.0293
-28.1315
-28.2639
-28.3616
-28.4889
-28.5816
-28.7063
-28.8013
-28.9192
-29.015
-29.1324
-29.2242
-29.3448
-29.4604
-29.5714
-29.6979
-29.8043
-29.9358
-30.0409
-30.1746
-30.2805
-30.4187
-30.5295
-30.6644
-30.7789
-30.9189
-31.0387
-31.1819
-31.2992
-31.4469
-31.5981
-31.7496
-31.9127
-32.0648
-32.2504
-32.4003
-32.5996
-32.7531
-32.9439
-33.1113
-33.309
-33.4905
-33.7001
-33.8952
-34.1109
-34.3078
-34.5298
-34.77
-35.0181
-35.2786
-35.5366
-35.8129
-36.0816
-36.3729
-36.6564
-36.9636
-37.2619
-37.584
-37.896
-38.2325
-38.5568
-38.903
-39.2294
-39.5829
-39.9499
-40.3119
-40.6717
-41.0027
-41.3009
-41.5268
-41.6732
-41.7305
-41.6823
-41.5437
-41.3065
-40.9653
-40.491
-39.8427
-38.976
-37.8427
-36.3907
-34.5636
-32.2971
-29.5671
-26.3254
-22.533
-18.1745
-13.2388
-7.73596
-1.67529
4.93166
12.0982
19.8678
28.364
37.7697
48.2524
59.8109
72.0166
82.6196
-16.6517
-15.8478
-15.7921
-15.8441
-15.9279
-16.0487
-16.1836
-16.3541
-16.5361
-16.7476
-16.9594
-17.1927
-17.4151
-17.6619
-17.8825
-18.1319
-18.3394
-18.5665
-18.7831
-18.9931
-19.2169
-19.4054
-19.6239
-19.8098
-20.0173
-20.1959
-20.3957
-20.5656
-20.7655
-20.9242
-21.1203
-21.2742
-21.4672
-21.6198
-21.8148
-21.9716
-22.1495
-22.3252
-22.4803
-22.6653
-22.8218
-22.9963
-23.1457
-23.3067
-23.4443
-23.5995
-23.7164
-23.8547
-23.9499
-24.0651
-24.1474
-24.2427
-24.3069
-24.3779
-24.437
-24.4845
-24.5522
-24.5797
-24.6357
-24.659
-24.7087
-24.7297
-24.784
-24.8035
-24.8597
-24.8853
-24.9482
-24.9899
-25.0611
-25.1152
-25.1932
-25.2741
-25.3617
-25.4597
-25.554
-25.6622
-25.7659
-25.8809
-25.988
-26.1201
-26.2255
-26.3609
-26.4681
-26.6046
-26.7195
-26.8446
-26.9615
-27.0878
-27.216
-27.3436
-27.4729
-27.5941
-27.7195
-27.8361
-27.9664
-28.0736
-28.2014
-28.3043
-28.4263
-28.5246
-28.6459
-28.7455
-28.8608
-28.9606
-29.0724
-29.1655
-29.281
-29.3943
-29.5086
-29.6274
-29.7333
-29.8594
-29.9643
-30.0917
-30.1978
-30.3274
-30.4415
-30.5691
-30.6867
-30.8186
-30.9411
-31.0736
-31.1936
-31.3365
-31.4822
-31.6366
-31.7904
-31.9337
-32.0858
-32.2385
-32.3994
-32.5675
-32.7446
-32.9276
-33.111
-33.2987
-33.4894
-33.6854
-33.8851
-34.0943
-34.3138
-34.5369
-34.7693
-35.0055
-35.253
-35.5042
-35.7675
-36.0347
-36.3142
-36.5972
-36.8922
-37.1898
-37.4991
-37.8109
-38.1364
-38.467
-38.8142
-39.1611
-39.4965
-39.8281
-40.1463
-40.4633
-40.7699
-41.1049
-41.4348
-41.7402
-41.9977
-42.1601
-42.2081
-42.1268
-41.9037
-41.526
-40.9634
-40.1786
-39.1212
-37.7358
-35.9533
-33.7413
-31.052
-27.8537
-24.1368
-19.8966
-15.1439
-9.88586
-4.12556
2.1611
9.03868
16.635
25.102
34.5566
44.9794
55.9249
65.362
-16.6122
-15.9616
-15.9486
-16.0301
-16.1257
-16.2475
-16.3735
-16.528
-16.6888
-16.8757
-17.065
-17.2735
-17.4776
-17.6998
-17.9071
-18.1359
-18.3384
-18.5596
-18.7698
-18.9742
-19.1839
-19.3743
-19.5838
-19.7715
-19.9727
-20.1546
-20.3481
-20.5233
-20.7171
-20.8792
-21.0738
-21.2285
-21.4208
-21.5731
-21.7656
-21.9236
-22.1026
-22.2755
-22.4304
-22.616
-22.7674
-22.9412
-23.0911
-23.2529
-23.3932
-23.5495
-23.6704
-23.8105
-23.9121
-24.0319
-24.1213
-24.2215
-24.2906
-24.3663
-24.4311
-24.481
-24.551
-24.5845
-24.6402
-24.6692
-24.7134
-24.7373
-24.7864
-24.8114
-24.857
-24.8877
-24.9382
-24.9821
-25.043
-25.0975
-25.166
-25.2404
-25.3255
-25.4157
-25.5101
-25.6127
-25.7147
-25.8262
-25.9362
-26.0582
-26.1716
-26.2976
-26.4139
-26.5428
-26.6629
-26.7883
-26.906
-27.0304
-27.1569
-27.2858
-27.4144
-27.5384
-27.6651
-27.784
-27.909
-28.0234
-28.1455
-28.2555
-28.3735
-28.478
-28.593
-28.6973
-28.8101
-28.9156
-29.0251
-29.1206
-29.23
-29.3431
-29.4561
-29.5719
-29.6812
-29.813
-29.9145
-30.049
-30.1489
-30.2804
-30.3903
-30.5206
-30.6361
-30.771
-30.8926
-31.0268
-31.1438
-31.283
-31.4268
-31.5761
-31.7308
-31.8811
-32.0536
-32.2018
-32.3876
-32.5348
-32.7193
-32.8822
-33.0645
-33.2457
-33.443
-33.6344
-33.8405
-34.0344
-34.2478
-34.4753
-34.7114
-34.9585
-35.2068
-35.4701
-35.7318
-36.012
-36.2911
-36.5899
-36.8874
-37.2046
-37.5206
-37.8569
-38.1935
-38.551
-38.9075
-39.2862
-39.6732
-40.0584
-40.4407
-40.8105
-41.1706
-41.5094
-41.8402
-42.1551
-42.4545
-42.7235
-42.94
-43.0732
-43.1006
-43.0003
-42.747
-42.3058
-41.6314
-40.67
-39.3564
-37.6503
-35.5052
-32.8912
-29.8021
-26.2365
-22.2061
-17.7158
-12.764
-7.31813
-1.30251
5.42656
13.0146
21.5574
31.0226
40.9598
49.4994
-16.4782
-16.0292
-16.0658
-16.1649
-16.2742
-16.3977
-16.5211
-16.665
-16.8119
-16.9813
-17.152
-17.3423
-17.5293
-17.7317
-17.9253
-18.1358
-18.3314
-18.5427
-18.7461
-18.9452
-19.1461
-19.3346
-19.5366
-19.7235
-19.92
-20.1026
-20.2931
-20.4701
-20.6577
-20.8262
-21.0119
-21.1752
-21.3575
-21.518
-21.7003
-21.8646
-22.041
-22.2097
-22.3697
-22.5459
-22.7001
-22.8705
-23.0205
-23.1812
-23.3238
-23.4797
-23.6037
-23.7446
-23.8511
-23.974
-24.0696
-24.1744
-24.25
-24.331
-24.4012
-24.456
-24.5279
-24.5708
-24.6259
-24.6638
-24.7084
-24.74
-24.785
-24.8152
-24.8598
-24.891
-24.9389
-24.9804
-25.0374
-25.0886
-25.1527
-25.2223
-25.3002
-25.386
-25.4757
-25.5751
-25.6725
-25.7817
-25.8891
-26.008
-26.1202
-26.2443
-26.3601
-26.4876
-26.6071
-26.7336
-26.8514
-26.976
-27.1009
-27.2282
-27.3556
-27.4806
-27.6072
-27.7265
-27.8502
-27.9649
-28.0853
-28.196
-28.3121
-28.4184
-28.5309
-28.6369
-28.748
-28.8536
-28.96
-29.0593
-29.1659
-29.2743
-29.387
-29.4994
-29.6113
-29.7248
-29.8346
-29.9496
-30.0622
-30.1818
-30.297
-30.4184
-30.5393
-30.6663
-30.791
-30.9155
-31.0328
-31.1696
-31.3077
-31.4526
-31.5979
-31.7482
-31.8964
-32.0432
-32.204
-32.3603
-32.535
-32.7077
-32.8849
-33.066
-33.2519
-33.4412
-33.6337
-33.8331
-34.0437
-34.2594
-34.4845
-34.715
-34.955
-35.2018
-35.4585
-35.7235
-35.9993
-36.2845
-36.5811
-36.8873
-37.2046
-37.532
-37.8718
-38.2248
-38.5952
-38.9848
-39.386
-39.8031
-40.2309
-40.6675
-41.1053
-41.5407
-41.9682
-42.3873
-42.7935
-43.1792
-43.5344
-43.8432
-44.0869
-44.2417
-44.2825
-44.1754
-43.877
-43.3334
-42.4819
-41.2746
-39.6649
-37.6225
-35.1418
-32.224
-28.8842
-25.1299
-20.9583
-16.3328
-11.1676
-5.30307
1.42889
9.1297
17.7607
26.8751
34.7242
-16.3208
-16.0479
-16.1378
-16.2536
-16.3775
-16.5044
-16.6289
-16.7664
-16.9039
-17.0601
-17.2162
-17.3908
-17.5633
-17.7509
-17.9322
-18.1279
-18.3143
-18.515
-18.7096
-18.903
-19.0983
-19.284
-19.4789
-19.6629
-19.8556
-20.0369
-20.2255
-20.4023
-20.5875
-20.7573
-20.9394
-21.1047
-21.2833
-21.446
-21.6243
-21.7896
-21.9637
-22.1309
-22.2933
-22.4632
-22.62
-22.7868
-22.9376
-23.097
-23.2411
-23.3958
-23.5228
-23.6641
-23.7747
-23.8996
-24
-24.1082
-24.1902
-24.2763
-24.3533
-24.415
-24.4877
-24.5386
-24.596
-24.6406
-24.6897
-24.727
-24.7735
-24.8067
-24.8528
-24.886
-24.9342
-24.9753
-25.0309
-25.0809
-25.1439
-25.2103
-25.2832
-25.3654
-25.4504
-25.547
-25.6403
-25.747
-25.8505
-25.9679
-26.0768
-26.2004
-26.3136
-26.4412
-26.5596
-26.6875
-26.805
-26.9302
-27.0555
-27.1817
-27.3104
-27.4347
-27.5636
-27.683
-27.8101
-27.9241
-28.0479
-28.1579
-28.2773
-28.3822
-28.4968
-28.6013
-28.7141
-28.8185
-28.9272
-29.025
-29.1306
-29.237
-29.346
-29.4579
-29.5718
-29.6892
-29.7962
-29.9141
-30.0208
-30.1393
-30.2505
-30.3723
-30.4903
-30.6183
-30.7402
-30.8683
-30.9874
-31.1178
-31.2535
-31.3944
-31.542
-31.6915
-31.8496
-31.9996
-32.1625
-32.3141
-32.4813
-32.6433
-32.8197
-32.9949
-33.1827
-33.3677
-33.5645
-33.751
-33.9538
-34.168
-34.391
-34.6243
-34.8606
-35.1096
-35.3599
-35.6258
-35.8946
-36.1808
-36.4714
-36.7801
-37.0937
-37.4251
-37.7615
-38.1151
-38.4751
-38.8581
-39.2587
-39.6776
-40.1151
-40.5688
-41.0376
-41.5174
-42.0082
-42.5034
-43.0011
-43.4936
-43.9756
-44.4366
-44.8647
-45.2426
-45.5489
-45.7532
-45.8146
-45.6797
-45.2863
-44.5763
-43.4986
-42.018
-40.1264
-37.8267
-35.1402
-32.0852
-28.6652
-24.8477
-20.5395
-15.558
-9.69767
-2.82151
5.04107
13.4645
20.8036
-16.1559
-16.033
-16.1664
-16.3
-16.4381
-16.5705
-16.6981
-16.8331
-16.9647
-17.1114
-17.2566
-17.418
-17.5787
-17.7537
-17.9246
-18.1083
-18.2851
-18.476
-18.6616
-18.8482
-19.0377
-19.2202
-19.4099
-19.5907
-19.7793
-19.9587
-20.1448
-20.3211
-20.504
-20.674
-20.8548
-21.0209
-21.1977
-21.3612
-21.5372
-21.702
-21.8747
-22.0409
-22.2043
-22.3715
-22.53
-22.6937
-22.8457
-23.0042
-23.1492
-23.3021
-23.4329
-23.5737
-23.6888
-23.8144
-23.9191
-24.0288
-24.1176
-24.2094
-24.2922
-24.3625
-24.4362
-24.4942
-24.5568
-24.6065
-24.6613
-24.7034
-24.7532
-24.7899
-24.8381
-24.8737
-24.9232
-24.9643
-25.0196
-25.069
-25.132
-25.1965
-25.2662
-25.3458
-25.4267
-25.5197
-25.6103
-25.7141
-25.8143
-25.9288
-26.0343
-26.1558
-26.266
-26.392
-26.5085
-26.6367
-26.7537
-26.8798
-27.005
-27.1303
-27.2598
-27.383
-27.513
-27.6323
-27.7614
-27.8754
-28.002
-28.1123
-28.2347
-28.3396
-28.4566
-28.5606
-28.6741
-28.7786
-28.8891
-28.9871
-29.0934
-29.198
-29.3047
-29.4144
-29.5255
-29.6412
-29.7466
-29.8622
-29.9676
-30.0828
-30.1908
-30.3075
-30.4214
-30.5426
-30.6604
-30.7833
-30.9022
-31.0286
-31.1558
-31.2901
-31.4291
-31.5744
-31.7224
-31.8701
-32.0256
-32.1788
-32.3404
-32.5008
-32.6707
-32.8436
-33.0253
-33.2082
-33.397
-33.5845
-33.7845
-33.9909
-34.208
-34.4332
-34.6663
-34.9076
-35.1542
-35.4129
-35.6787
-35.9587
-36.2474
-36.5524
-36.8674
-37.2001
-37.543
-37.9032
-38.2733
-38.6664
-39.0763
-39.5062
-39.9564
-40.4279
-40.9208
-41.433
-41.9679
-42.5195
-43.0882
-43.6678
-44.2563
-44.8457
-45.4299
-45.9983
-46.5359
-47.0184
-47.4113
-47.6641
-47.7177
-47.5022
-46.957
-46.035
-44.7203
-43.0139
-40.9419
-38.5378
-35.8257
-32.7906
-29.3487
-25.2961
-20.3651
-14.3501
-7.25262
0.547058
7.50273
-15.9934
-15.9926
-16.159
-16.3099
-16.457
-16.5944
-16.7254
-16.8611
-16.9904
-17.1322
-17.2709
-17.4225
-17.5747
-17.7387
-17.9013
-18.0751
-18.2439
-18.4257
-18.6039
-18.7838
-18.9674
-19.1457
-19.3312
-19.5091
-19.6941
-19.8714
-20.0548
-20.2304
-20.412
-20.5826
-20.7612
-20.9279
-21.1034
-21.2674
-21.4415
-21.6048
-21.7767
-21.9424
-22.1057
-22.2723
-22.4307
-22.594
-22.747
-22.905
-23.0513
-23.2026
-23.3372
-23.4773
-23.5973
-23.7233
-23.8314
-23.943
-24.037
-24.134
-24.2215
-24.2983
-24.3773
-24.4419
-24.5104
-24.5647
-24.6245
-24.6716
-24.7262
-24.7668
-24.8184
-24.8563
-24.9078
-24.9494
-25.005
-25.0541
-25.117
-25.1809
-25.2486
-25.3267
-25.4043
-25.4947
-25.5825
-25.6836
-25.7812
-25.8924
-25.996
-26.1138
-26.2217
-26.3445
-26.4584
-26.5844
-26.7007
-26.8272
-26.9517
-27.0761
-27.2052
-27.3279
-27.4582
-27.5769
-27.7076
-27.8208
-27.9505
-28.0602
-28.1865
-28.2907
-28.4117
-28.5155
-28.6303
-28.7348
-28.8483
-28.947
-29.0561
-29.1624
-29.2694
-29.3814
-29.4893
-29.6082
-29.7126
-29.8322
-29.9365
-30.0561
-30.1635
-30.2827
-30.3945
-30.5174
-30.633
-30.7583
-30.8734
-31.0006
-31.1286
-31.2594
-31.397
-31.5362
-31.6852
-31.8255
-31.9806
-32.1255
-32.285
-32.4381
-32.6041
-32.7686
-32.9453
-33.12
-33.305
-33.4829
-33.6763
-33.8761
-34.0845
-34.3019
-34.5272
-34.7618
-34.9988
-35.2506
-35.5059
-35.7786
-36.0571
-36.3546
-36.6609
-36.988
-37.3249
-37.6824
-38.0502
-38.4443
-38.8579
-39.2936
-39.7532
-40.2373
-40.7477
-41.2817
-41.8476
-42.4387
-43.0596
-43.704
-44.3746
-45.0669
-45.7802
-46.5082
-47.2429
-47.9642
-48.6478
-49.2514
-49.7247
-49.9894
-49.9751
-49.6157
-48.8791
-47.7577
-46.2733
-44.4671
-42.3925
-40.0736
-37.471
-34.3955
-30.5076
-25.4698
-19.2324
-12.0753
-5.48773
-15.8456
-15.9364
-16.1187
-16.281
-16.4332
-16.5742
-16.7064
-16.8443
-16.9735
-17.1143
-17.2515
-17.398
-17.5462
-17.7017
-17.8581
-18.0237
-18.1867
-18.3617
-18.5347
-18.7094
-18.8885
-19.0629
-19.2447
-19.4202
-19.6022
-19.7782
-19.9591
-20.1341
-20.3144
-20.4858
-20.6631
-20.8301
-21.0041
-21.1681
-21.3404
-21.503
-21.6736
-21.8391
-22.0022
-22.1685
-22.327
-22.4902
-22.6439
-22.8019
-22.9492
-23.1007
-23.2374
-23.3788
-23.5021
-23.63
-23.7406
-23.8547
-23.9527
-24.0537
-24.1457
-24.2282
-24.3126
-24.3831
-24.4572
-24.5172
-24.582
-24.634
-24.6931
-24.7383
-24.7936
-24.8348
-24.888
-24.9306
-24.9864
-25.0357
-25.0983
-25.1622
-25.2287
-25.3057
-25.3812
-25.4694
-25.5547
-25.6533
-25.7484
-25.8572
-25.9589
-26.0744
-26.1802
-26.2998
-26.4104
-26.5329
-26.6476
-26.7732
-26.8968
-27.0199
-27.1483
-27.2707
-27.4003
-27.5204
-27.6496
-27.765
-27.8936
-28.0055
-28.1316
-28.2386
-28.3599
-28.4651
-28.5803
-28.6839
-28.7978
-28.8974
-29.0091
-29.1163
-29.2229
-29.3352
-29.4396
-29.5592
-29.6607
-29.7824
-29.8839
-30.007
-30.1138
-30.2343
-30.3434
-30.4668
-30.5805
-30.7065
-30.8184
-30.9485
-31.0775
-31.2075
-31.3456
-31.4809
-31.6305
-31.7681
-31.9241
-32.0662
-32.2265
-32.3768
-32.5415
-32.7015
-32.8755
-33.0453
-33.2287
-33.4007
-33.5914
-33.7859
-33.9867
-34.197
-34.4126
-34.6418
-34.8699
-35.1155
-35.362
-35.6266
-35.8942
-36.1819
-36.4758
-36.7928
-37.1187
-37.468
-37.8273
-38.2158
-38.6243
-39.0571
-39.5167
-40.005
-40.5251
-41.0715
-41.6589
-42.2756
-42.9346
-43.624
-44.3561
-45.124
-45.9382
-46.7894
-47.6781
-48.5884
-49.5067
-50.4046
-51.2472
-51.9561
-52.4622
-52.6777
-52.5432
-52.0243
-51.1238
-49.8723
-48.3466
-46.6314
-44.7678
-42.6593
-39.962
-36.1536
-31.0229
-24.6891
-18.5236
-15.6927
-15.8555
-16.0488
-16.2185
-16.3681
-16.5114
-16.6399
-16.7818
-16.9105
-17.0525
-17.1906
-17.3336
-17.4823
-17.6312
-17.7857
-17.9444
-18.1056
-18.2761
-18.4458