/*--------------------------------*- C++ -*----------------------------------*\
| =========                 |                                                 |
| \\      /  F ield         | OpenFOAM: The Open Source CFD Toolbox           |
|  \\    /   O peration     | Version:  4.1                                   |
|   \\  /    A nd           | Web:      www.OpenFOAM.org                      |
|    \\/     M anipulation  |                                                 |
\*---------------------------------------------------------------------------*/
FoamFile
{
    version     2.0;
    format      ascii;
    class       volScalarField;
    location    "5";
    object      epsilon;
}
// * * * * * * * * * * * * * * * * * * * * * * * * * * * * * * * * * * * * * //

dimensions      [0 2 -3 0 0 0 0];

internalField   nonuniform List<scalar> 
204246
(
0.688529
0.79908
0.79877
0.799828
0.800009
0.800635
0.801105
0.802023
0.802895
0.804028
0.804413
0.804718
0.803686
0.803906
0.802843
0.802538
0.801618
0.797849
0.798783
0.797093
0.797157
0.797194
0.797465
0.797983
0.798659
0.799507
0.800484
0.801746
0.803389
0.803638
0.803902
0.803116
0.80284
0.80176
0.800798
0.800008
0.796093
0.797195
0.797104
0.797343
0.797825
0.798516
0.799381
0.800373
0.801714
0.80339
0.803741
0.804022
0.803257
0.802596
0.801674
0.801468
0.801284
0.799437
0.801615
0.802193
0.802909
0.803642
0.804612
0.805811
0.807043
0.808785
0.810907
0.813712
0.815913
0.819135
0.821186
0.824759
0.827409
0.832361
0.833381
0.842603
0.846311
0.855285
0.862301
0.875095
0.888445
0.910075
0.939766
0.992252
1.0773
1.23307
1.49786
1.93644
2.53174
2.86992
2.95119
2.96308
2.96339
2.92133
2.88864
2.85093
2.8202
2.76383
2.73418
2.6888
2.65751
2.61554
2.6055
2.59998
2.60154
2.60511
2.60955
2.62441
2.63461
2.66982
2.68438
2.74165
2.78657
2.84108
2.91953
2.98084
3.09252
3.15848
3.29772
3.37262
3.52774
3.61289
3.77751
3.86779
4.03288
4.12482
4.28741
4.36663
4.53919
4.61144
4.77035
4.84907
4.99231
5.08156
5.21193
5.31052
5.43105
5.53669
5.64966
5.75897
5.86342
5.97146
6.06661
6.16915
6.23548
6.36336
6.40504
6.52478
6.56039
6.67492
6.70664
6.81888
6.8491
6.96224
6.99535
7.11083
7.14709
7.26323
7.29939
7.41544
7.45295
7.54908
7.63222
7.70687
7.79415
7.86548
7.95907
8.02736
8.12724
8.19195
8.29979
8.35903
8.47508
8.53032
8.65655
8.70667
8.84461
8.89158
9.04542
9.08627
9.23128
9.33649
9.44432
9.5783
9.68183
9.84723
9.95505
10.1566
10.28
10.5234
10.677
10.9676
11.1659
11.4785
11.68
11.8605
11.8845
0.031229
0.102998
0.0990782
0.097123
0.0995534
0.0978123
0.100366
0.0994108
0.101983
0.100798
0.102482
0.100815
0.102199
0.0991558
0.100805
0.0974831
0.0990421
0.0963283
0.0952089
0.0969145
0.094766
0.0972966
0.0954803
0.0981053
0.0972248
0.100538
0.0998585
0.102531
0.100544
0.102568
0.0998045
0.101583
0.0980562
0.0995833
0.0959582
0.0972265
0.0956161
0.0947848
0.0973076
0.0955239
0.0980557
0.0971628
0.100271
0.0995662
0.102451
0.10065
0.102775
0.100097
0.101901
0.0985976
0.0999685
0.0982405
0.100072
0.0989566
0.0983802
0.101071
0.0992983
0.102073
0.101199
0.104517
0.103792
0.107404
0.106171
0.110367
0.108886
0.113261
0.111774
0.116443
0.11595
0.122156
0.12256
0.125901
0.136232
0.13962
0.160356
0.170199
0.207237
0.23792
0.318415
0.423469
0.653153
1.00384
1.57686
1.97343
2.06096
1.95021
1.50499
0.937032
0.710268
0.626507
0.562501
0.521884
0.467857
0.459219
0.434054
0.435289
0.412556
0.416428
0.407759
0.416175
0.411682
0.423919
0.424268
0.444318
0.450376
0.477744
0.487496
0.520387
0.54378
0.575236
0.613912
0.640148
0.701329
0.726151
0.803903
0.833862
0.923218
0.9609
1.05751
1.09994
1.19965
1.2432
1.34185
1.38267
1.46777
1.51868
1.5868
1.63941
1.69354
1.75356
1.79457
1.86466
1.89484
1.97238
1.99758
2.08069
2.10637
2.19115
2.21666
2.30138
2.32613
2.38203
2.43847
2.45977
2.52893
2.54514
2.61743
2.63356
2.70889
2.72645
2.80899
2.8301
2.9211
2.94524
3.03814
3.06252
3.16471
3.19415
3.26135
3.34823
3.37444
3.47786
3.50445
3.61066
3.6383
3.7447
3.77227
3.87754
3.90415
4.00771
4.03378
4.13562
4.16088
4.26322
4.29344
4.3909
4.42337
4.47085
4.55179
4.56458
4.64511
4.65018
4.71654
4.71369
4.76793
4.7593
4.81406
4.80888
4.96911
5.101
5.59958
5.89763
6.04975
0.00474554
0.00837252
0.00750245
0.00707258
0.00734673
0.00715728
0.00750112
0.00738486
0.00757458
0.00736031
0.00749184
0.00723359
0.00734214
0.00691947
0.00705269
0.00659908
0.00673783
0.00644154
0.0063596
0.00657219
0.00644689
0.00676585
0.0066315
0.00702654
0.00699143
0.00742181
0.00734193
0.00753579
0.00725848
0.00741348
0.00702267
0.00716578
0.00669177
0.00680773
0.00643757
0.00661873
0.00649437
0.00646574
0.00679021
0.00666289
0.00705515
0.00701556
0.00742728
0.00733379
0.00751883
0.00723945
0.00739425
0.00699543
0.00714019
0.0068178
0.00702227
0.0068825
0.00711802
0.00702842
0.00701954
0.00737564
0.00721898
0.00758828
0.00751701
0.00794285
0.00788249
0.00836116
0.00825503
0.008824
0.0086953
0.00933496
0.00922079
0.0100394
0.0101414
0.0116221
0.0121184
0.0140038
0.0167727
0.0200686
0.0270309
0.0359287
0.0545828
0.0838176
0.142856
0.248003
0.452019
0.803145
1.33523
1.55003
1.53479
1.20793
0.643969
0.345789
0.254226
0.224262
0.208588
0.198555
0.180866
0.174142
0.167061
0.164887
0.159862
0.159815
0.158613
0.161141
0.162198
0.170604
0.175652
0.188
0.195042
0.212307
0.222314
0.24308
0.261732
0.284544
0.313901
0.340537
0.382662
0.413816
0.469808
0.507062
0.576474
0.621658
0.702679
0.755209
0.84536
0.901831
0.995261
1.04943
1.13425
1.18898
1.25592
1.30783
1.35928
1.40849
1.44982
1.49899
1.53491
1.58545
1.61842
1.67182
1.7028
1.75789
1.78659
1.83913
1.86188
1.90077
1.92216
1.94389
1.96106
1.96793
1.97606
1.97409
1.97551
1.96516
1.96433
1.95854
1.96459
1.96294
1.97057
1.96732
1.97232
1.96562
1.95911
1.95957
1.94199
1.94231
1.91953
1.91851
1.89021
1.88702
1.85344
1.84882
1.81194
1.8065
1.76661
1.76078
1.71716
1.71055
1.66702
1.66068
1.61287
1.59167
1.5774
1.53922
1.53567
1.49413
1.49167
1.45268
1.45223
1.41935
1.42235
1.40805
1.42083
1.41124
1.42063
1.3026
1.25609
0.00171979
0.00206956
0.00200004
0.00196831
0.00197844
0.00196495
0.00198312
0.0019738
0.00198307
0.00196965
0.00197645
0.00196091
0.00196629
0.00194233
0.0019487
0.00192429
0.00193046
0.00191541
0.00191163
0.00192062
0.00191664
0.00193282
0.001928
0.00195073
0.00195156
0.00197731
0.00197264
0.00198226
0.00196551
0.0019728
0.00194963
0.0019564
0.00193014
0.0019353
0.00191587
0.0019243
0.00191839
0.00191768
0.00193437
0.00193024
0.00195375
0.0019546
0.00197992
0.00197468
0.00198395
0.00196675
0.00197404
0.00194972
0.00195616
0.00193735
0.00194799
0.00194102
0.00195393
0.00195008
0.00195123
0.00197316
0.00196661
0.00199238
0.00199003
0.00202042
0.00201843
0.00205346
0.00204844
0.00209168
0.00208567
0.00214438
0.00214457
0.00225047
0.00229214
0.00249617
0.00266096
0.00308283
0.00379621
0.0050365
0.00759305
0.0123296
0.0222984
0.0419245
0.0823868
0.161552
0.314766
0.583947
0.986532
1.15532
1.15273
0.917797
0.451418
0.187704
0.112124
0.0851555
0.0726707
0.0658304
0.055875
0.0475046
0.0421935
0.0405036
0.0384752
0.0383576
0.037876
0.0384457
0.0385437
0.040324
0.0415585
0.044256
0.0459401
0.0496982
0.0524344
0.0575882
0.0627766
0.0697729
0.0788838
0.0892763
0.104195
0.119891
0.142789
0.165774
0.199236
0.232521
0.278174
0.32285
0.381631
0.436658
0.507054
0.569092
0.642751
0.711925
0.778816
0.84706
0.901799
0.962817
1.0052
1.05842
1.09108
1.13927
1.16528
1.2119
1.23379
1.27802
1.29645
1.33432
1.34824
1.36952
1.38062
1.38144
1.38412
1.37698
1.37131
1.34338
1.32067
1.27253
1.24142
1.18512
1.15765
1.11076
1.0939
1.05509
1.04171
1.0006
0.980596
0.949559
0.916657
0.893783
0.854285
0.838662
0.796172
0.781156
0.739388
0.725004
0.685928
0.67256
0.637154
0.625278
0.59354
0.58326
0.555151
0.546393
0.521482
0.510346
0.494852
0.481227
0.471752
0.455812
0.450603
0.434412
0.430317
0.419624
0.418989
0.418225
0.432614
0.44635
0.471325
0.479664
0.48585
0.00184614
0.00183808
0.00183488
0.00183192
0.0018314
0.00183071
0.00183107
0.00183087
0.00183131
0.00183102
0.00183123
0.00183087
0.00183102
0.00183044
0.00183056
0.00182995
0.00183002
0.00182964
0.0018295
0.00182948
0.00182941
0.00182967
0.00182955
0.00183003
0.00183025
0.00183098
0.00183085
0.0018311
0.00183064
0.00183083
0.00183019
0.00183032
0.00182959
0.00182962
0.00182904
0.00182912
0.00182896
0.00182889
0.00182888
0.00182885
0.00182926
0.00182938
0.00183028
0.00183024
0.00183054
0.00183009
0.00183028
0.00182966
0.00182983
0.00182946
0.0018297
0.00182953
0.00182979
0.00182968
0.00182989
0.00183063
0.00183071
0.00183203
0.0018322
0.00183368
0.00183387
0.00183531
0.00183521
0.0018371
0.00183706
0.00184089
0.00184242
0.00185152
0.00186174
0.00189058
0.00193988
0.00205202
0.00229318
0.00281234
0.0039755
0.00650999
0.0121481
0.0243265
0.0505114
0.104354
0.211267
0.405085
0.710975
0.887646
0.906187
0.782999
0.460658
0.161988
0.0673287
0.0378645
0.0279363
0.0239998
0.021783
0.0205397
0.0188306
0.017846
0.0166375
0.0162754
0.0159669
0.0160562
0.0162008
0.017131
0.0181665
0.019687
0.0207519
0.0225957
0.0242909
0.0271498
0.0303666
0.0343515
0.0396133
0.0456073
0.0542994
0.0634049
0.0766349
0.0899952
0.108979
0.127992
0.153842
0.179434
0.212714
0.244612
0.285388
0.322744
0.3672
0.410902
0.454082
0.499641
0.537358
0.580062
0.609467
0.647243
0.668681
0.701658
0.716048
0.742195
0.752042
0.772945
0.779456
0.791698
0.792803
0.79325
0.793967
0.785195
0.778569
0.755447
0.741015
0.707714
0.688436
0.645693
0.622582
0.577756
0.559209
0.522627
0.508649
0.480505
0.470337
0.446436
0.435322
0.419017
0.404763
0.393279
0.378467
0.370936
0.356659
0.35169
0.33941
0.335571
0.325572
0.322632
0.314959
0.312955
0.307465
0.306382
0.302867
0.302629
0.300814
0.30046
0.301419
0.301386
0.303899
0.304253
0.306952
0.307297
0.309296
0.309367
0.312529
0.313663
0.321389
0.326579
0.336453
0.340405
0.343243
0.00183357
0.0018323
0.00182993
0.00182909
0.0018287
0.00182841
0.00182831
0.00182823
0.00182822
0.00182817
0.00182814
0.00182815
0.00182809
0.00182807
0.00182824
0.00182848
0.00182858
0.00182863
0.00182866
0.00182867
0.00182867
0.00182867
0.00182854
0.00182854
0.00182848
0.0018284
0.00182841
0.00182835
0.00182828
0.00182827
0.00182827
0.00182825
0.00182815
0.00182816
0.00182813
0.00182802
0.00182803
0.00182802
0.00182791
0.00182791
0.00182789
0.00182777
0.00182777
0.0018277
0.00182763
0.00182763
0.00182756
0.00182747
0.00182747
0.0018274
0.00182737
0.00182737
0.00182733
0.00182734
0.0018273
0.00182731
0.00182729
0.00182728
0.00182753
0.00182827
0.0018292
0.00182949
0.00182953
0.00182954
0.00182954
0.00182997
0.00183102
0.00183347
0.00183824
0.00184827
0.00186904
0.00191498
0.00202074
0.00226624
0.00284843
0.00420523
0.00737072
0.0145626
0.0306929
0.0653788
0.137393
0.275513
0.516088
0.72214
0.758715
0.697972
0.491662
0.200958
0.0730482
0.0316713
0.0171527
0.0121548
0.010231
0.00940628
0.00886867
0.0084814
0.00795309
0.00783451
0.00778134
0.00795309
0.00839269
0.00918062
0.00983102
0.010395
0.0108739
0.0115985
0.0123796
0.0133994
0.0145274
0.0157828
0.017604
0.020043
0.0236253
0.0278685
0.0337784
0.0407861
0.0502813
0.0612171
0.0752772
0.0910125
0.110391
0.131321
0.156218
0.181805
0.210291
0.239694
0.268429
0.298424
0.323949
0.351127
0.370451
0.392229
0.404502
0.419299
0.424619
0.433141
0.435223
0.43975
0.439594
0.440854
0.438075
0.433519
0.428489
0.416563
0.410175
0.394051
0.386377
0.366883
0.358695
0.338425
0.330081
0.311658
0.304393
0.289744
0.284237
0.273276
0.269312
0.260459
0.256445
0.251017
0.246459
0.242801
0.238172
0.235905
0.231897
0.230525
0.227479
0.226621
0.224617
0.224251
0.223395
0.223535
0.22343
0.22463
0.224966
0.227212
0.228061
0.231001
0.23299
0.236356
0.239468
0.243239
0.247493
0.251818
0.257161
0.262092
0.268422
0.273839
0.280962
0.28647
0.292216
0.294722
0.296152
0.00183738
0.00183387
0.0018321
0.00183054
0.00182992
0.00182943
0.00182921
0.00182908
0.00182907
0.00182894
0.00182889
0.00182888
0.00182878
0.00182871
0.00182868
0.00182857
0.00182855
0.0018285
0.0018284
0.0018284
0.00182833
0.00182825
0.00182825
0.00182822
0.00182811
0.00182811
0.00182808
0.00182798
0.00182798
0.00182795
0.00182784
0.00182785
0.00182776
0.00182769
0.0018277
0.00182768
0.00182763
0.00182763
0.00182761
0.00182757
0.00182755
0.00182753
0.00182761
0.00182805
0.00182862
0.00182873
0.00182874
0.00182873
0.00182864
0.00182864
0.00182861
0.00182852
0.00182852
0.00182846
0.00182837
0.00182837
0.00182831
0.00182821
0.00182822
0.00182818
0.00182812
0.00182812
0.00182811
0.0018281
0.00182809
0.00182808
0.00182824
0.00182894
0.00183068
0.00183463
0.00184332
0.001863
0.001909
0.00201832
0.0022839
0.00292259
0.00446191
0.00808269
0.0165183
0.0354404
0.0768023
0.161031
0.319825
0.563214
0.676481
0.671635
0.544798
0.309942
0.110388
0.0428316
0.0199852
0.0114588
0.00807332
0.00666262
0.00611299
0.00591042
0.00588018
0.00593803
0.00623896
0.00693133
0.00810554
0.0090632
0.00938973
0.00932868
0.00904466
0.008736
0.00881467
0.00935522
0.0103886
0.0115757
0.0130458
0.0149638
0.0177416
0.0211679
0.0259465
0.031578
0.0388849
0.0473392
0.0579671
0.0699724
0.0844004
0.0999455
0.117751
0.135987
0.155707
0.175541
0.194652
0.213603
0.229378
0.245244
0.256042
0.267234
0.27203
0.276122
0.277055
0.278141
0.277631
0.277787
0.275524
0.273955
0.268532
0.264198
0.25935
0.252243
0.248178
0.240127
0.236792
0.228981
0.225907
0.219053
0.216432
0.210966
0.208984
0.20498
0.203608
0.200702
0.199764
0.197542
0.196575
0.195544
0.194511
0.194222
0.193494
0.193445
0.193236
0.193515
0.193637
0.194723
0.195107
0.196935
0.197719
0.200264
0.201445
0.204609
0.206139
0.209869
0.211805
0.215845
0.218549
0.222662
0.226102
0.230363
0.234484
0.239026
0.243839
0.248794
0.254228
0.259591
0.265404
0.270383
0.274787
0.276869
0.277922
0.00183519
0.00183226
0.00182993
0.00182883
0.0018283
0.0018279
0.00182775
0.00182769
0.00182784
0.0018279
0.00182789
0.00182786
0.00182786
0.00182782
0.00182777
0.00182776
0.00182771
0.00182771
0.00182766
0.00182759
0.00182757
0.00182749
0.00182748
0.00182744
0.00182735
0.00182737
0.00182736
0.00182734
0.00182735
0.00182728
0.0018273
0.00182728
0.00182718
0.0018272
0.0018272
0.00182716
0.00182717
0.00182715
0.00182712
0.0018272
0.00182761
0.00182791
0.00182796
0.00182795
0.00182788
0.00182788
0.00182782
0.00182772
0.00182771
0.00182767
0.00182765
0.00182761
0.00182762
0.0018276
0.0018276
0.00182758
0.00182756
0.00182773
0.00182828
0.00182913
0.00183
0.00183032
0.0018304
0.0018304
0.0018304
0.00183038
0.00183058
0.00183108
0.00183242
0.001835
0.00184014
0.00185034
0.00187247
0.00192275
0.00204282
0.00233181
0.00303643
0.00472346
0.00874058
0.0179923
0.0389405
0.0836332
0.174308
0.337111
0.555987
0.627143
0.604812
0.472564
0.257524
0.0953152
0.0414286
0.022438
0.0164844
0.0147524
0.0145156
0.0144396
0.015124
0.0166338
0.0205951
0.0264198
0.0356701
0.0414045
0.0432495
0.0409167
0.0316805
0.0157031
0.0101116
0.0082255
0.00770526
0.00767724
0.00803973
0.00915146
0.0108686
0.0130837
0.0158548
0.0194221
0.0241503
0.0301615
0.0376984
0.0467493
0.0575592
0.0699233
0.0841933
0.0997272
0.116373
0.133373
0.149785
0.16558
0.179139
0.191587
0.200545
0.20617
0.20798
0.208932
0.208914
0.209046
0.208326
0.207727
0.205425
0.203603
0.199904
0.197048
0.193914
0.190312
0.188136
0.184564
0.183054
0.179857
0.178605
0.175965
0.174967
0.17293
0.172216
0.17081
0.17038
0.1695
0.169288
0.168723
0.168514
0.168531
0.168477
0.168918
0.169053
0.17001
0.170455
0.171935
0.172902
0.17482
0.176218
0.178699
0.180528
0.183697
0.186127
0.189903
0.192895
0.197271
0.200839
0.205686
0.209843
0.214951
0.219507
0.224729
0.229464
0.234699
0.239817
0.245188
0.250559
0.255927
0.261212
0.265833
0.269653
0.271578
0.272473
0.00183859
0.00183458
0.00183178
0.00183045
0.00182964
0.00182898
0.00182871
0.00182857
0.00182854
0.00182841
0.00182834
0.00182833
0.0018283
0.00182818
0.00182817
0.00182808
0.001828
0.00182799
0.00182797
0.00182795
0.00182791
0.00182786
0.00182785
0.00182777
0.00182778
0.00182778
0.0018277
0.0018277
0.00182769
0.00182758
0.00182759
0.00182758
0.00182747
0.00182748
0.00182746
0.00182735
0.00182737
0.00182736
0.00182729
0.00182732
0.00182732
0.00182726
0.00182728
0.00182727
0.00182725
0.00182725
0.00182725
0.00182725
0.00182722
0.00182732
0.00182767
0.0018281
0.00182844
0.00182874
0.00182902
0.00182923
0.00182945
0.00182983
0.00183026
0.00183065
0.00183092
0.00183099
0.00183101
0.00183097
0.00183092
0.00183093
0.00183096
0.00183107
0.0018316
0.00183283
0.0018353
0.00184017
0.00185015
0.0018716
0.00192065
0.00203614
0.00231747
0.00299788
0.00464999
0.00854291
0.0176422
0.0378472
0.0813474
0.166743
0.318982
0.516864
0.583272
0.565757
0.468425
0.299026
0.135714
0.067293
0.0475952
0.0439481
0.0460833
0.0538384
0.0714276
0.0987896
0.142238
0.19446
0.245384
0.261564
0.267117
0.259338
0.221012
0.135019
0.0566875
0.0260862
0.0136626
0.00992718
0.00887052
0.00881575
0.00937724
0.0112479
0.014173
0.0179279
0.0223588
0.0277575
0.0345682
0.0430009
0.0532109
0.064877
0.077931
0.0918599
0.106474
0.12141
0.135849
0.149428
0.160841
0.170677
0.176022
0.178148
0.178702
0.17893
0.178755
0.178553
0.177615
0.176607
0.174605
0.172859
0.170238
0.168182
0.166067
0.163922
0.162457
0.16048
0.15964
0.158165
0.157604
0.15663
0.156321
0.155902
0.155874
0.155812
0.156077
0.156362
0.156915
0.157162
0.157856
0.158524
0.159263
0.160265
0.161216
0.162557
0.163752
0.165456
0.166987
0.169162
0.171136
0.173852
0.176248
0.179487
0.182468
0.18628
0.189831
0.194274
0.19843
0.203421
0.208093
0.213556
0.218651
0.224489
0.229914
0.235899
0.241426
0.247328
0.252644
0.258149
0.262745
0.267214
0.270168
0.272117
0.272856
0.00183651
0.00183384
0.00183067
0.00182945
0.00182837
0.00182786
0.00182758
0.00182738
0.00182732
0.00182729
0.00182726
0.00182721
0.00182721
0.00182719
0.00182719
0.00182718
0.00182716
0.00182733
0.00182788
0.00182854
0.00182871
0.00182874
0.00182875
0.00182868
0.00182868
0.00182864
0.00182853
0.00182853
0.00182847
0.00182837
0.00182837
0.00182828
0.00182821
0.00182821
0.00182812
0.00182804
0.00182804
0.00182794
0.00182788
0.00182788
0.00182776
0.00182772
0.00182772
0.00182763
0.00182759
0.00182758
0.00182747
0.00182742
0.00182742
0.00182738
0.00182733
0.00182733
0.00182732
0.00182732
0.0018273
0.00182726
0.00182735
0.00182777
0.00182836
0.00182881
0.00182902
0.00182931
0.00182966
0.00182987
0.00182993
0.00183002
0.00183012
0.00183043
0.00183101
0.00183216
0.00183418
0.0018376
0.0018435
0.00185443
0.00187652
0.00192427
0.00203484
0.00229679
0.00293116
0.0044378
0.00801634
0.0161486
0.0343243
0.0721143
0.146492
0.27414
0.45725
0.540461
0.542058
0.49817
0.39862
0.268025
0.165053
0.131245
0.129229
0.141009
0.177528
0.238451
0.337169
0.459587
0.590943
0.641261
0.653893
0.650849
0.621708
0.542538
0.414887
0.231467
0.0866972
0.0373297
0.0183465
0.0122249
0.010093
0.00980673
0.00989942
0.0112489
0.0141157
0.0186566
0.0244093
0.031402
0.0397398
0.049531
0.0610987
0.0741
0.0884093
0.103261
0.117816
0.13175
0.143884
0.154293
0.15879
0.160426
0.160786
0.160879
0.160695
0.160375
0.159576
0.158652
0.157139
0.15567
0.153726
0.152113
0.150654
0.14934
0.148474
0.147397
0.146939
0.14625
0.146026
0.145802
0.145796
0.145801
0.146137
0.146389
0.146833
0.147249
0.148095
0.148721
0.149675
0.150612
0.151738
0.153072
0.154571
0.156414
0.158305
0.160652
0.163031
0.165832
0.168697
0.171965
0.175323
0.179031
0.182971
0.187305
0.191863
0.196852
0.202117
0.207688
0.213473
0.219642
0.225825
0.232489
0.238935
0.245845
0.252296
0.25906
0.265053
0.271203
0.276096
0.280837
0.283804
0.285864
0.286599
0.00184035
0.00183594
0.00183347
0.00183152
0.00183015
0.00182948
0.0018289
0.00182862
0.00182846
0.00182833
0.00182817
0.00182807
0.00182806
0.001828
0.00182788
0.00182788
0.0018278
0.00182772
0.00182772
0.00182763
0.00182756
0.00182756
0.00182754
0.00182749
0.0018275
0.00182748
0.00182745
0.00182756
0.0018281
0.00182862
0.00182869
0.00182865
0.00182865
0.00182861
0.00182853
0.00182853
0.00182847
0.00182838
0.00182839
0.00182838
0.00182833
0.00182833
0.0018283
0.00182831
0.0018283
0.00182821
0.00182821
0.00182819
0.00182807
0.00182807
0.00182802
0.00182792
0.00182792
0.00182783
0.00182778
0.00182776
0.00182776
0.00182776
0.00182776
0.00182774
0.00182769
0.00182769
0.00182768
0.0018277
0.00182798
0.00182866
0.00182961
0.0018307
0.0018318
0.00183309
0.00183475
0.00183711
0.00184076
0.00184677
0.00185713
0.00187681
0.00191854
0.00201152
0.00223098
0.00274851
0.00398965
0.00685462
0.0134326
0.0276313
0.0573224
0.113686
0.212013
0.357825
0.484023
0.516526
0.515781
0.493701
0.449746
0.402676
0.392287
0.397932
0.431753
0.48549
0.564514
0.644629
0.734326
0.773346
0.78366
0.780441
0.755827
0.692792
0.601147
0.492413
0.389517
0.280009
0.156028
0.0710715
0.0375013
0.0235612
0.0165783
0.0152096
0.0150849
0.0167562
0.0210168
0.0279109
0.0364648
0.0463605
0.0573435
0.0697255
0.083313
0.0980967
0.113017
0.127501
0.14013
0.148964
0.152147
0.153191
0.15338
0.153383
0.153131
0.152605
0.15171
0.150549
0.149077
0.147512
0.145838
0.144344
0.143143
0.142082
0.141391
0.140641
0.140337
0.140146
0.140113
0.140133
0.140457
0.140901
0.141471
0.142197
0.143131
0.143982
0.144932
0.146043
0.147392
0.148832
0.150305
0.151984
0.153853
0.155972
0.158187
0.160741
0.16349
0.166529
0.169746
0.173399
0.177271
0.181494
0.185969
0.190913
0.19616
0.201837
0.207926
0.21432
0.220961
0.228013
0.235071
0.242611
0.249902
0.257689
0.264905
0.272426
0.278946
0.285619
0.290692
0.295671
0.298486
0.300647
0.301349
0.0018393
0.00183525
0.00183299
0.00183131
0.00183033
0.0018299
0.00182962
0.00182955
0.00182952
0.00182939
0.00182939
0.00182936
0.00182925
0.00182925
0.00182923
0.00182911
0.00182911
0.00182904
0.00182896
0.00182895
0.00182886
0.0018288
0.00182878
0.00182868
0.00182868
0.00182864
0.00182857
0.00182856
0.00182853
0.00182846
0.00182847
0.00182844
0.00182843
0.00182838
0.00182841
0.00182862
0.00182868
0.00182867
0.00182868
0.00182867
0.00182861
0.00182861
0.00182858
0.0018285
0.00182851
0.0018285
0.00182839
0.0018284
0.00182838
0.00182828
0.00182828
0.00182822
0.00182814
0.00182813
0.00182807
0.00182807
0.00182806
0.00182799
0.00182799
0.00182796
0.00182797
0.00182794
0.00182794
0.0018279
0.00182788
0.0018281
0.00182871
0.00182954
0.00183031
0.00183097
0.00183181
0.00183333
0.001836
0.00184014
0.00184688
0.00185795
0.00187751
0.00191469
0.00199318
0.00216684
0.00257185
0.0034995
0.00564682
0.0103621
0.0205553
0.0409291
0.079596
0.144961
0.244193
0.366715
0.456892
0.497669
0.517612
0.53526
0.557082
0.592384
0.640173
0.705237
0.782101
0.872784
0.948171
0.967156
0.96198
0.925336
0.854631
0.759116
0.655267
0.561598
0.489019
0.437975
0.409252
0.381079
0.324022
0.207467
0.0823667
0.0382861
0.0247636
0.0212947
0.0206247
0.0216708
0.0256835
0.0334073
0.0441081
0.0570457
0.0712281
0.0860716
0.1007
0.115647
0.129711
0.14205
0.147031
0.148637
0.149003
0.149013
0.148761
0.148166
0.147338
0.14627
0.145021
0.143524
0.141954
0.140404
0.139283
0.138507
0.138072
0.137643
0.13747
0.137417
0.137479
0.137911
0.138547
0.13918
0.139726
0.140532
0.141372
0.142448
0.143548
0.144936
0.146293
0.14799
0.149859
0.152082
0.154299
0.156815
0.159533
0.162513
0.165749
0.169112
0.172908
0.176723
0.181239
0.185897
0.191251
0.196696
0.203032
0.209359
0.216692
0.223947
0.231874
0.239919
0.248326
0.256941
0.265525
0.274466
0.282901
0.291589
0.299118
0.306772
0.312486
0.318099
0.32108
0.323456
0.324177
0.00184226
0.00183646
0.00183393
0.00183179
0.00183047
0.00182969
0.00182898
0.00182867
0.00182842
0.00182831
0.00182824
0.00182819
0.00182814
0.0018281
0.00182833
0.00182893
0.00182936
0.00182946
0.0018295
0.00182951
0.00182951
0.00182952
0.00182942
0.00182943
0.00182944
0.00182936
0.00182937
0.00182936
0.0018293
0.00182932
0.00182932
0.00182924
0.00182926
0.00182926
0.0018292
0.00182923
0.00182923
0.00182917
0.0018292
0.0018292
0.00182913
0.00182915
0.00182915
0.00182904
0.00182904
0.00182902
0.00182899
0.00182899
0.0018289
0.0018289
0.00182887
0.00182877
0.00182877
0.00182869
0.00182863
0.00182862
0.00182849
0.00182847
0.00182866
0.00182888
0.00182911
0.0018295
0.00183004
0.00183074
0.00183109
0.00183115
0.00183114
0.00183112
0.0018312
0.00183154
0.00183231
0.00183356
0.00183547
0.00183824
0.00184235
0.00184852
0.00185859
0.00187542
0.00190632
0.00196637
0.00209446
0.00237327
0.00300716
0.00439818
0.00745286
0.0137329
0.0262357
0.0488693
0.0864703
0.143786
0.220619
0.315954
0.398734
0.464877
0.510821
0.562067
0.611181
0.677286
0.742392
0.825878
0.885131
0.900496
0.887857
0.84353
0.757354
0.65008
0.524457
0.414694
0.321319
0.255553
0.218186
0.200636
0.193494
0.181724
0.16926
0.146264
0.125507
0.0907306
0.0632443
0.0446324
0.0391899
0.0384019
0.0398824
0.0468897
0.0590783
0.0752604
0.0926299
0.109915
0.126142
0.140996
0.148572
0.150971
0.151631
0.151688
0.151568
0.150927
0.15002
0.148604
0.147254
0.145457
0.143944
0.142138
0.140807
0.139757
0.139187
0.138821
0.138544
0.138484
0.138474
0.138807
0.139331
0.140001
0.140528
0.141549
0.14245
0.143696
0.14477
0.146541
0.148252
0.150361
0.152464
0.154864
0.15741
0.160107
0.163168
0.166193
0.169625
0.173204
0.177496
0.181826
0.187001
0.192218
0.198367
0.204608
0.211884
0.219003
0.227316
0.235519
0.244538
0.253675
0.263316
0.273289
0.28319
0.293588
0.303418
0.31365
0.322481
0.331455
0.338115
0.344582
0.347945
0.350555
0.351311
0.00184271
0.00183672
0.00183399
0.00183159
0.00183014
0.00182935
0.00182853
0.00182819
0.00182784
0.00182772
0.00182759
0.00182749
0.00182748
0.00182743
0.00182744
0.0018274
0.00182736
0.00182735
0.00182728
0.00182731
0.00182757
0.00182809
0.00182836
0.00182845
0.00182846
0.00182847
0.00182838
0.00182838
0.00182837
0.00182837
0.00182834
0.0018283
0.0018284
0.00182875
0.0018289
0.00182894
0.00182894
0.00182887
0.00182887
0.00182881
0.00182873
0.00182872
0.00182864
0.00182858
0.00182858
0.00182848
0.00182845
0.00182845
0.00182843
0.00182843
0.00182841
0.00182839
0.00182861
0.0018292
0.00182946
0.00182947
0.00182947
0.00182947
0.00182939
0.00182939
0.00182937
0.00182932
0.00182931
0.00182927
0.00182929
0.00182959
0.00182982
0.00182987
0.00182986
0.00182987
0.00183007
0.00183064
0.00183183
0.00183381
0.00183695
0.00184169
0.00184881
0.00185928
0.00187545
0.00190156
0.00194866
0.00203807
0.00222423
0.00261223
0.00344936
0.0051717
0.00867378
0.0152423
0.0267649
0.0457324
0.0731301
0.111168
0.155518
0.2111
0.266275
0.326018
0.371393
0.425094
0.46041
0.503989
0.512442
0.510899
0.480905
0.438413
0.368592
0.305538
0.230237
0.1805
0.135955
0.107092
0.092016
0.0866774
0.086863
0.0892227
0.0984565
0.108778
0.125088
0.141813
0.148063
0.144049
0.125577
0.0953827
0.0689624
0.0616854
0.0605019
0.0631913
0.0734756
0.0907201
0.111595
0.132748
0.150042
0.156739
0.158677
0.158937
0.158822
0.157945
0.156989
0.155628
0.154504
0.152443
0.150552
0.147921
0.145886
0.144468
0.14371
0.143305
0.142784
0.142627
0.142513
0.142681
0.143043
0.143809
0.144154
0.145189
0.146111
0.147824
0.149143
0.151333
0.153127
0.155436
0.157701
0.160219
0.162791
0.165294
0.168295
0.171319
0.175284
0.179195
0.184001
0.188701
0.194676
0.20045
0.207316
0.213879
0.221956
0.229683
0.239028
0.248065
0.258493
0.26889
0.280205
0.291852
0.303757
0.316048
0.327959
0.340262
0.351139
0.362075
0.370317
0.378247
0.382233
0.385355
0.386207
0.00184298
0.00183654
0.00183366
0.00183088
0.00182917
0.00182827
0.00182727
0.00182689
0.00182641
0.00182623
0.00182605
0.001826
0.00182596
0.00182592
0.00182576
0.00182571
0.00182571
0.00182563
0.00182558
0.0018256
0.0018256
0.00182555
0.00182556
0.00182552
0.00182552
0.00182581
0.00182672
0.00182793
0.00182833
0.00182837
0.00182834
0.00182836
0.00182836
0.0018283
0.0018283
0.00182831
0.00182829
0.0018282
0.0018282
0.00182819
0.00182817
0.00182814
0.00182804
0.00182807
0.00182829
0.00182842
0.00182862
0.00182908
0.00182933
0.00182938
0.00182937
0.0018293
0.00182929
0.00182924
0.00182917
0.00182917
0.00182916
0.00182917
0.00182907
0.00182907
0.00182903
0.001829
0.00182905
0.00182918
0.00182955
0.00183004
0.00183015
0.00183014
0.00183014
0.00183024
0.00183061
0.00183135
0.0018326
0.00183444
0.00183706
0.00184074
0.00184596
0.00185346
0.0018644
0.00188035
0.00190454
0.00194249
0.00200745
0.00212394
0.00235083
0.00279299
0.00367583
0.00534106
0.00833653
0.0134864
0.0213241
0.0328679
0.0473561
0.0656912
0.0846142
0.106509
0.123766
0.143762
0.15566
0.166059
0.16495
0.1615
0.146952
0.131546
0.10697
0.0884297
0.0651162
0.052063
0.0388714
0.0310054
0.0278339
0.0268699
0.0273146
0.028238
0.031333
0.0357105
0.0455957
0.0588295
0.0770924
0.0963884
0.122325
0.148511
0.164433
0.166355
0.160992
0.14245
0.123712
0.118227
0.11898
0.126038
0.142699
0.161974
0.173058
0.176251
0.177292
0.177278
0.177231
0.176147
0.175004
0.171875
0.169104
0.164654
0.161013
0.15825
0.156392
0.155622
0.154363
0.15388
0.152923
0.152714
0.15252
0.152791
0.153157
0.154374
0.15511
0.156968
0.158237
0.160589
0.162198
0.164442
0.166478
0.168656
0.171246
0.17373
0.177182
0.180304
0.184682
0.188714
0.194337
0.19927
0.205687
0.211387
0.218894
0.22566
0.2345
0.242612
0.253274
0.263245
0.275335
0.287263
0.300517
0.314012
0.328173
0.342658
0.356884
0.371748
0.385014
0.398682
0.408904
0.419173
0.424074
0.428001
0.429058
0.00184962
0.00184059
0.00183719
0.00183383
0.00183211
0.00183052
0.00182946
0.00182895
0.00182839
0.00182818
0.00182799
0.00182793
0.00182772
0.00182768
0.00182767
0.00182759
0.00182752
0.00182751
0.00182752
0.00182749
0.00182748
0.00182762
0.00182819
0.00182866
0.00182876
0.00182878
0.0018288
0.0018288
0.00182879
0.00182867
0.00182867
0.00182865
0.00182854
0.00182854
0.00182851
0.0018284
0.00182839
0.00182831
0.00182823
0.00182822
0.00182812
0.00182808
0.00182805
0.00182793
0.00182793
0.00182787
0.00182779
0.0018278
0.0018278
0.00182774
0.00182771
0.00182771
0.00182769
0.00182767
0.0018279
0.00182838
0.00182852
0.00182856
0.00182856
0.00182849
0.00182849
0.00182847
0.00182835
0.00182835
0.00182834
0.00182825
0.00182827
0.00182825
0.00182818
0.00182817
0.00182815
0.00182822
0.00182863
0.00182954
0.00183127
0.00183393
0.001838
0.00184373
0.00185192
0.00186299
0.00187876
0.00190052
0.00193282
0.0019805
0.00205798
0.00218566
0.00241419
0.00281672
0.0035241
0.00474483
0.00664743
0.00955509
0.0133615
0.0183633
0.0236321
0.0298637
0.0347563
0.0404417
0.0434443
0.0452749
0.0442105
0.0426885
0.0381026
0.0340559
0.0276319
0.023412
0.0176724
0.0149223
0.0117559
0.00991046
0.00915337
0.00890934
0.00904452
0.00927787