/*--------------------------------*- C++ -*----------------------------------*\
| =========                 |                                                 |
| \\      /  F ield         | OpenFOAM: The Open Source CFD Toolbox           |
|  \\    /   O peration     | Version:  4.1                                   |
|   \\  /    A nd           | Web:      www.OpenFOAM.org                      |
|    \\/     M anipulation  |                                                 |
\*---------------------------------------------------------------------------*/
FoamFile
{
    version     2.0;
    format      ascii;
    class       volScalarField;
    location    "5";
    object      k;
}
// * * * * * * * * * * * * * * * * * * * * * * * * * * * * * * * * * * * * * //

dimensions      [0 2 -2 0 0 0 0];

internalField   nonuniform List<scalar> 
204246
(
0.822149
0.905912
0.90776
0.90653
0.908717
0.907461
0.909261
0.908523
0.910638
0.91005
0.911728
0.910491
0.911428
0.909533
0.91076
0.908475
0.909819
0.906943
0.905605
0.90642
0.904468
0.906554
0.90504
0.906876
0.905961
0.908061
0.907373
0.910065
0.909234
0.911414
0.90954
0.910974
0.908707
0.909931
0.907447
0.908278
0.90564
0.904483
0.906484
0.904948
0.906757
0.905855
0.907967
0.90729
0.910038
0.909243
0.911491
0.909631
0.911082
0.908831
0.90958
0.908026
0.909348
0.908264
0.907873
0.910371
0.909183
0.911187
0.910486
0.912855
0.91235
0.915434
0.914985
0.919176
0.918773
0.923282
0.923066
0.927242
0.927786
0.933
0.934107
0.939257
0.943539
0.948808
0.955612
0.963724
0.975314
0.99006
1.01434
1.05112
1.11583
1.22297
1.40157
1.66446
1.98689
2.13436
2.17226
2.17734
2.17222
2.15432
2.13538
2.1202
2.10107
2.07704
2.05812
2.03972
2.01895
2.00405
1.99525
1.99742
1.99459
1.99987
1.99908
2.01043
2.01275
2.03527
2.04236
2.06871
2.09484
2.11941
2.16261
2.18836
2.24801
2.27542
2.34615
2.37726
2.4541
2.48854
2.56791
2.60338
2.68135
2.71641
2.79185
2.82564
2.89337
2.92925
2.98985
3.028
3.08115
3.12326
3.17019
3.21574
3.25781
3.3058
3.34391
3.39301
3.42709
3.47516
3.50497
3.55056
3.57569
3.61696
3.6395
3.6773
3.69746
3.73308
3.75197
3.78633
3.80477
3.8392
3.85877
3.89367
3.91435
3.94902
3.96965
4.0038
4.02515
4.05972
4.08164
4.11611
4.13916
4.17239
4.19736
4.22945
4.25628
4.28708
4.31615
4.34516
4.37686
4.40431
4.4391
4.46478
4.50314
4.52775
4.57103
4.59357
4.64212
4.66855
4.71339
4.74877
4.79205
4.8372
4.88176
4.93795
4.9874
5.05608
5.11493
5.19716
5.26988
5.35749
5.43037
5.47568
5.49356
0.137899
0.224059
0.218472
0.215808
0.218628
0.216728
0.220048
0.219071
0.222302
0.220854
0.222582
0.220416
0.22183
0.217834
0.219587
0.215269
0.21699
0.212961
0.211352
0.213532
0.211152
0.214271
0.212276
0.215807
0.214917
0.219277
0.218618
0.222355
0.220258
0.222665
0.219325
0.221295
0.216731
0.218314
0.213473
0.214741
0.212504
0.211604
0.214711
0.212749
0.216171
0.21529
0.219453
0.218747
0.222755
0.220995
0.22358
0.220502
0.222571
0.218488
0.219921
0.217776
0.219958
0.218681
0.218043
0.221616
0.219762
0.223629
0.222865
0.227576
0.227051
0.232231
0.231207
0.237236
0.235975
0.242201
0.240973
0.247338
0.247248
0.256065
0.257605
0.264539
0.279512
0.287474
0.317125
0.333782
0.384365
0.42691
0.525591
0.64471
0.881802
1.20385
1.65608
1.83528
1.8589
1.74849
1.40656
0.981344
0.808353
0.743609
0.697093
0.665354
0.625168
0.618301
0.601779
0.602673
0.588782
0.592979
0.588645
0.597569
0.595795
0.611226
0.615668
0.641352
0.653262
0.689403
0.709524
0.754617
0.792502
0.840884
0.898842
0.951037
1.03214
1.09032
1.19525
1.26206
1.38739
1.46341
1.59904
1.68074
1.81742
1.89839
2.0259
2.09755
2.20726
2.26805
2.36208
2.41354
2.49474
2.54244
2.61611
2.66333
2.73266
2.78142
2.84803
2.8974
2.95952
3.00761
3.06382
3.10769
3.15486
3.18613
3.22548
3.25254
3.28311
3.31684
3.34231
3.38403
3.40794
3.45895
3.48895
3.55207
3.59217
3.66455
3.70544
3.77951
3.82203
3.9013
3.94209
4.02881
4.07846
4.15662
4.22105
4.29259
4.36963
4.43429
4.52279
4.58096
4.67658
4.73161
4.83054
4.88587
4.97944
5.03815
5.13589
5.19477
5.29087
5.3366
5.44262
5.48546
5.58734
5.62726
5.72545
5.76247
5.85823
5.89277
5.99544
6.03501
6.21284
6.36955
6.79202
7.06129
7.17498
0.0129213
0.0286617
0.0268476
0.0259575
0.0265888
0.0262192
0.0270292
0.0267655
0.027143
0.0266422
0.0269053
0.0262588
0.0264618
0.0254375
0.0256944
0.0245837
0.0248311
0.0240757
0.023871
0.0244268
0.0241683
0.024984
0.0247306
0.0257397
0.0256939
0.0267356
0.0265872
0.0270084
0.026386
0.0267116
0.0257751
0.0260539
0.0248916
0.0251026
0.0241771
0.0245697
0.0243137
0.0242729
0.0251003
0.0248521
0.025844
0.0257888
0.0268031
0.0266397
0.0270545
0.0264338
0.0267657
0.0258275
0.0261161
0.0253523
0.025808
0.0255118
0.0260865
0.0259027
0.0259277
0.0268295
0.026534
0.0274916
0.0273881
0.0284767
0.0284007
0.0295995
0.0294298
0.0308257
0.0306099
0.0321472
0.031975
0.0340858
0.0345338
0.0382726
0.0398016
0.0448658
0.051735
0.0602083
0.0760939
0.0955624
0.132519
0.18437
0.279675
0.42852
0.688901
1.08707
1.53785
1.66164
1.62362
1.28588
0.753357
0.483139
0.393052
0.360479
0.34249
0.328158
0.303502
0.293251
0.28491
0.281681
0.27545
0.275649
0.274342
0.278678
0.281493
0.29577
0.305486
0.326404
0.340347
0.369738
0.389769
0.426445
0.461175
0.504111
0.557356
0.609869
0.685522
0.749252
0.8502
0.928635
1.05477
1.15075
1.29935
1.41122
1.57667
1.69697
1.86674
1.98304
2.13728
2.24511
2.36988
2.4633
2.56125
2.64071
2.72065
2.79148
2.86197
2.92785
2.99368
3.05668
3.11848
3.17679
3.23255
3.28105
3.32312
3.35501
3.37122
3.37798
3.38083
3.37997
3.37336
3.35658
3.32831
3.2943
3.26226
3.23693
3.23049
3.22478
3.22644
3.21818
3.21897
3.19948
3.18612
3.17644
3.14835
3.14211
3.10582
3.09771
3.05436
3.04334
2.99272
2.97921
2.92353
2.9081
2.84739
2.83035
2.7644
2.74597
2.6784
2.66019
2.5864
2.55186
2.51933
2.4605
2.4469
2.38019
2.3676
2.30293
2.29254
2.23552
2.23034
2.19195
2.19747
2.17459
2.18077
2.04282
1.98889
0.00879224
0.00932002
0.00910926
0.00900882
0.00904478
0.00900199
0.00906316
0.009031
0.00906
0.00901443
0.0090359
0.00898117
0.00899765
0.00891412
0.00893415
0.00884756
0.00886555
0.00881097
0.00879711
0.00882923
0.00881736
0.00887575
0.00886129
0.00894691
0.00895152
0.0090396
0.00902459
0.00905603
0.00900016
0.00902326
0.0089422
0.0089633
0.0088706
0.00888668
0.00881632
0.00884438
0.00882518
0.00882409
0.00888469
0.0088723
0.00896054
0.00896487
0.00905211
0.00903567
0.00906663
0.0090093
0.00903285
0.00894861
0.00896895
0.00890087
0.00893601
0.00891268
0.00895791
0.00894599
0.0089536
0.00903362
0.00901281
0.00910528
0.0090997
0.00920684
0.00920248
0.00932333
0.00930909
0.00945527
0.00943834
0.00963507
0.00964084
0.0099966
0.0101387
0.0108029
0.0113224
0.0126167
0.0146659
0.0180167
0.0244929
0.0354782
0.0570365
0.0955848
0.168765
0.297983
0.525174
0.887094
1.30276
1.42031
1.39566
1.11807
0.611781
0.299424
0.201786
0.162962
0.143894
0.132445
0.115336
0.100942
0.0923718
0.089602
0.0864253
0.0862638
0.0855164
0.0865539
0.0869016
0.0904475
0.0931333
0.098651
0.102511
0.110364
0.116682
0.127855
0.139666
0.155533
0.176085
0.200124
0.233738
0.270458
0.322226
0.376447
0.452038
0.53012
0.633131
0.737185
0.868694
0.995445
1.15049
1.29141
1.45185
1.60186
1.74562
1.88702
2.00221
2.12305
2.20929
2.30985
2.37366
2.46089
2.50998
2.59134
2.63118
2.70538
2.7374
2.7968
2.81762
2.83545
2.84305
2.83814
2.83639
2.80699
2.78038
2.71163
2.65799
2.55834
2.49156
2.38178
2.32316
2.23312
2.1979
2.12874
2.10211
2.03076
1.99523
1.93644
1.88063
1.83334
1.76912
1.73155
1.65898
1.62956
1.55466
1.52625
1.45493
1.42813
1.36249
1.33813
1.2785
1.25685
1.20335
1.18436
1.13596
1.11376
1.08126
1.05473
1.03269
1.00222
0.987605
0.955827
0.945092
0.921762
0.917054
0.911766
0.924566
0.943501
0.974829
0.984846
0.992452
0.00845111
0.00848439
0.00845943
0.00845104
0.00844999
0.0084477
0.00844987
0.00844947
0.00845192
0.00845079
0.00845163
0.00845002
0.00845052
0.00844795
0.00844846
0.00844586
0.00844615
0.00844429
0.00844368
0.00844361
0.00844319
0.0084444
0.00844397
0.00844613
0.00844695
0.0084499
0.00844935
0.00845019
0.00844814
0.00844873
0.00844574
0.00844616
0.008443
0.00844326
0.00844062
0.00844074
0.00843976
0.00843941
0.00844019
0.00844004
0.0084422
0.00844297
0.00844593
0.00844541
0.0084466
0.00844499
0.00844625
0.00844454
0.0084458
0.00844454
0.00844582
0.00844528
0.00844706
0.00844713
0.00844945
0.00845362
0.00845429
0.00845851
0.00845859
0.00846265
0.00846249
0.0084674
0.00846681
0.00847401
0.00847388
0.00848853
0.00849395
0.00852729
0.00856125
0.00865662
0.00880556
0.00913206
0.00979236
0.0111311
0.0139808
0.0198309
0.0321681
0.0571592
0.107501
0.203427
0.37909
0.668746
1.06241
1.216
1.22135
1.05318
0.655928
0.266871
0.129542
0.0833426
0.0665379
0.0595668
0.0554982
0.0530553
0.049621
0.0475031
0.0450248
0.0442843
0.043694
0.0438892
0.0442217
0.0463017
0.0486894
0.0522803
0.0550208
0.0596477
0.0641468
0.0715195
0.0800099
0.0906321
0.104492
0.120713
0.143581
0.168454
0.203328
0.239971
0.290199
0.342284
0.410608
0.480321
0.567806
0.654025
0.759453
0.858867
0.972377
1.08305
1.19158
1.30123
1.39363
1.49067
1.56029
1.64037
1.68871
1.75402
1.78646
1.83864
1.85912
1.89829
1.91058
1.92969
1.93002
1.92873
1.92628
1.90194
1.88063
1.8283
1.79117
1.7188
1.67001
1.57978
1.52401
1.42751
1.37824
1.29838
1.26546
1.20344
1.17915
1.12652
1.10158
1.06279
1.03154
1.00053
0.969491
0.946665
0.913777
0.900246
0.869486
0.858288
0.832061
0.822775
0.80132
0.79402
0.777022
0.771632
0.758681
0.75501
0.745218
0.741172
0.738258
0.73453
0.734428
0.731341
0.731646
0.728411
0.728442
0.725104
0.725392
0.724994
0.733916
0.739523
0.752977
0.757787
0.761788
0.00845214
0.00844103
0.00843671
0.00843526
0.00843622
0.00843806
0.00843824
0.00843814
0.00843816
0.00843816
0.00843816
0.00843785
0.00843786
0.00843778
0.00843756
0.00843756
0.00843755
0.00843734
0.00843735
0.00843734
0.00843715
0.00843723
0.00843722
0.00843698
0.00843698
0.00843698
0.00843663
0.00843663
0.00843649
0.00843628
0.00843628
0.00843615
0.0084359
0.00843598
0.00843595
0.00843568
0.00843571
0.0084357
0.00843544
0.00843544
0.00843543
0.00843522
0.0084353
0.00843529
0.00843506
0.00843506
0.00843506
0.00843487
0.00843498
0.00843498
0.00843477
0.00843478
0.00843479
0.0084347
0.00843479
0.00843476
0.00843463
0.00843469
0.0084347
0.00843465
0.00843453
0.00843481
0.00843511
0.0084356
0.00843617
0.00843855
0.00844278
0.00845221
0.0084685
0.00850061
0.00856182
0.00868876
0.00896449
0.00957267
0.0109569
0.014054
0.0210074
0.0361151
0.0683549
0.133709
0.260836
0.487
0.846096
1.08646
1.1203
1.02828
0.742068
0.33957
0.138764
0.0698975
0.0438418
0.0343203
0.0304744
0.028786
0.02762
0.0267256
0.0255264
0.0252654
0.0251508
0.0255673
0.0266116
0.0284609
0.0299998
0.0313967
0.0326616
0.034634
0.0368432
0.0398137
0.0431456
0.0470624
0.0527521
0.0604227
0.0713613
0.08473
0.103044
0.125246
0.154684
0.189257
0.232902
0.282507
0.342415
0.407797
0.483615
0.562165
0.647272
0.73382
0.81742
0.901347
0.972787
1.044
1.09526
1.14757
1.17737
1.20936
1.22114
1.23832
1.24247
1.25028
1.24902
1.25031
1.24058
1.22591
1.2095
1.1786
1.15879
1.11758
1.09324
1.04349
1.01776
0.965435
0.942403
0.893749
0.873177
0.833042
0.816876
0.786017
0.773826
0.748391
0.736553
0.718807
0.705845
0.691853
0.679144
0.668645
0.656729
0.649419
0.638079
0.633522
0.623932
0.620481
0.613416
0.611061
0.606295
0.604968
0.602275
0.601892
0.601146
0.601118
0.602984
0.603997
0.607687
0.609706
0.61509
0.6181
0.625156
0.62932
0.6381
0.643366
0.653763
0.659677
0.667635
0.670614
0.672626
0.00846671
0.00845627
0.00844966
0.00844444
0.00844215
0.00844015
0.00843938
0.00843873
0.00843855
0.00843833
0.00843814
0.00843782
0.00843782
0.00843746
0.00843732
0.00843731
0.00843728
0.00843706
0.00843706
0.00843705
0.00843663
0.00843664
0.00843643
0.0084363
0.0084363
0.00843618
0.00843593
0.00843592
0.00843561
0.00843562
0.00843551
0.00843541
0.0084354
0.00843536
0.00843504
0.00843503
0.00843494
0.00843486
0.00843484
0.00843483
0.00843561
0.00843696
0.00843734
0.00843732
0.00843731
0.00843723
0.00843705
0.00843706
0.00843703
0.00843677
0.00843676
0.00843665
0.00843664
0.00843661
0.00843632
0.00843633
0.0084362
0.00843601
0.008436
0.00843578
0.0084357
0.00843569
0.00843567
0.00843563
0.00843557
0.00843571
0.00843675
0.00843965
0.00844583
0.00845819
0.00848339
0.00853707
0.00865582
0.00892499
0.00955463
0.0110171
0.0144322
0.0221963
0.0395979
0.076826
0.153871
0.301067
0.56007
0.914281
1.04912
1.03893
0.867019
0.537269
0.212645
0.0920564
0.0495486
0.0326442
0.0255266
0.0224187
0.0211629
0.0206894
0.0206176
0.0207531
0.0214571
0.0230665
0.0257535
0.0277876
0.0284738
0.0283482
0.0278989
0.0275639
0.0283267
0.0305108
0.0337658
0.0374649
0.0424897
0.0491527
0.058436
0.0700058
0.0858958
0.104882
0.129386
0.158068
0.193789
0.23441
0.282759
0.335215
0.394641
0.455932
0.52123
0.586317
0.648753
0.708963
0.759357
0.806867
0.839477
0.867979
0.879212
0.886502
0.887747
0.889446
0.887549
0.886685
0.8778
0.870354
0.853137
0.838697
0.822091
0.800403
0.785182
0.759729
0.746025
0.721022
0.710273
0.687722
0.678258
0.659034
0.651196
0.635819
0.629659
0.617354
0.612438
0.601995
0.597122
0.589703
0.584642
0.579142
0.574276
0.57034
0.565922
0.563356
0.559694
0.558401
0.555951
0.555344
0.554477
0.554599
0.554717
0.556295
0.5568
0.559444
0.56054
0.563622
0.566036
0.569148
0.572592
0.575924
0.580421
0.584367
0.590282
0.595018
0.602064
0.607767
0.615771
0.621406
0.627284
0.629777
0.631211
0.00845267
0.00844271
0.00843427
0.00843022
0.00842762
0.00842615
0.00842552
0.00842503
0.00842487
0.00842475
0.00842463
0.00842437
0.00842437
0.00842415
0.00842396
0.00842395
0.00842384
0.0084236
0.00842361
0.00842358
0.00842327
0.00842327
0.00842307
0.00842291
0.00842287
0.00842269
0.00842262
0.00842259
0.00842246
0.00842243
0.00842234
0.00842232
0.00842226
0.00842279
0.00842458
0.00842768
0.00842917
0.00842952
0.00842964
0.00842968
0.00842971
0.00842971
0.00842962
0.00842936
0.00842936
0.00842925
0.00842916
0.00842907
0.00842907
0.00842896
0.00842883
0.00842881
0.00842872
0.00842873
0.00842869
0.00842862
0.00842913
0.0084306
0.0084329
0.00843536
0.00843792
0.00844068
0.00844312
0.00844383
0.00844415
0.00844434
0.00844527
0.00844737
0.00845227
0.00846085
0.00847682
0.00850628
0.0085661
0.00869432
0.00898629
0.00966194
0.0112569
0.0149631
0.0235178
0.0424997
0.0836106
0.166786
0.325938
0.595022
0.914086
1.00493
0.976257
0.797949
0.488411
0.201281
0.0942589
0.0560266
0.0441105
0.040862
0.0405966
0.0406784
0.0429844
0.0473958
0.0575178
0.0709735
0.089984
0.0979128
0.100533
0.0929781
0.0693167
0.0388931
0.0297043
0.0266255
0.0258894
0.026093
0.0278933
0.032023
0.0380118
0.0458116
0.0557904
0.0688195
0.0859938
0.107887
0.135297
0.168424
0.20796
0.253329
0.305157
0.36141
0.420903
0.481029
0.538687
0.592966
0.639341
0.679908
0.704129
0.714413
0.717521
0.719131
0.718604
0.718325
0.714551
0.710387
0.700792
0.692332
0.67851
0.667031
0.654553
0.641032
0.630737
0.61646
0.608317
0.59507
0.589219
0.577527
0.572424
0.562175
0.557828
0.549348
0.545808
0.538814
0.535896
0.529727
0.526807
0.522255
0.519311
0.516052
0.513514
0.511523
0.509555
0.508858
0.508038
0.507994
0.507954
0.509193
0.510073
0.512467
0.5145
0.518016
0.52074
0.525548
0.528955
0.534598
0.539022
0.545026
0.550146
0.556271
0.561993
0.56799
0.574309
0.580334
0.586962
0.592983
0.599508
0.604689
0.609342
0.611529
0.612669
0.00847045
0.00845481
0.00844708
0.00844099
0.0084381
0.00843531
0.00843416
0.00843307
0.00843259
0.00843228
0.00843218
0.00843181
0.00843154
0.00843153
0.00843129
0.00843106
0.00843102
0.00843096
0.00843086
0.0084308
0.00843078
0.00843032
0.00843026
0.00843025
0.00843011
0.00842992
0.00842992
0.00842985
0.00842975
0.0084296
0.00842958
0.00842924
0.00842925
0.00842895
0.00842884
0.00842884
0.00842878
0.00842859
0.00842859
0.00842854
0.00842836
0.00842833
0.00842825
0.00842847
0.00842979
0.00843305
0.00843846
0.00844209
0.00844276
0.00844274
0.00844256
0.00844253
0.00844239
0.00844232
0.00844221
0.00844202
0.00844225
0.00844314
0.00844405
0.00844448
0.00844535
0.00844696
0.00844846
0.00844901
0.00844924
0.00844943
0.00844977
0.00845055
0.0084524
0.00845643
0.00846427
0.00847867
0.00850682
0.00856425
0.00868886
0.00896923
0.0096266
0.0111663
0.0147995
0.0231083
0.0418706
0.0818154
0.163773
0.316337
0.57536
0.875825
0.963565
0.944185
0.814441
0.570206
0.299749
0.154476
0.112591
0.104577
0.108787
0.124475
0.16085
0.218011
0.309772
0.419622
0.509885
0.53499
0.542471
0.51839
0.429269
0.255867
0.115298
0.0610835
0.0384611
0.0319084
0.0303
0.0306239
0.0336693
0.0409939
0.0516481
0.0651867
0.0815945
0.101872
0.127453
0.158932
0.196797
0.240129
0.288558
0.340489
0.39471
0.449765
0.502806
0.552271
0.594542
0.623658
0.633999
0.637832
0.63844
0.638686
0.637497
0.635587
0.630751
0.625188
0.616267
0.607876
0.596765
0.587267
0.577484
0.567704
0.559665
0.550035
0.543823
0.535397
0.531107
0.524021
0.520838
0.514989
0.512514
0.50791
0.505953
0.502087
0.500447
0.49713
0.495561
0.493221
0.491805
0.49012
0.489009
0.488299
0.487787
0.487703
0.487668
0.48857
0.489574
0.49141
0.49314
0.49599
0.498725
0.502867
0.506342
0.511795
0.516141
0.522341
0.527708
0.534456
0.540513
0.547633
0.554201
0.561359
0.568235
0.575219
0.581918
0.588401
0.594282
0.599317
0.603251
0.605286
0.606231
0.00846083
0.00845239
0.00844228
0.00843838
0.00843487
0.00843315
0.00843227
0.00843163
0.00843134
0.00843119
0.00843115
0.00843114
0.00843107
0.00843101
0.00843139
0.00843314
0.00843592
0.00843682
0.00843689
0.00843674
0.00843674
0.00843671
0.00843647
0.00843647
0.00843636
0.00843614
0.00843614
0.00843603
0.00843579
0.0084358
0.00843577
0.00843555
0.00843562
0.00843561
0.00843536
0.00843537
0.00843533
0.0084351
0.00843511
0.00843509
0.00843474
0.00843474
0.00843472
0.0084345
0.0084345
0.00843447
0.0084342
0.0084342
0.00843419
0.00843386
0.00843386
0.00843372
0.00843355
0.00843355
0.00843344
0.00843338
0.00843338
0.00843338
0.00843315
0.00843312
0.00843297
0.00843301
0.00843351
0.00843473
0.00843543
0.00843685
0.00843868
0.00844221
0.00844607
0.00845183
0.00845928
0.00847094
0.00848893
0.0085206
0.00858075
0.00870406
0.00897574
0.00959323
0.0110401
0.0143789
0.0220891
0.0390498
0.0755372
0.148095
0.28427
0.507212
0.802348
0.920415
0.927448
0.872759
0.735611
0.542304
0.364461
0.294252
0.289757
0.312837
0.385446
0.505843
0.692006
0.905749
1.12533
1.20732
1.22805
1.22184
1.16835
1.0235
0.784881
0.441488
0.173352
0.0828441
0.048381
0.0378087
0.0345147
0.0343648
0.0359164
0.0423715
0.0539812
0.0712011
0.0930131
0.119779
0.152177
0.190349
0.235407
0.28575
0.340847
0.397622
0.453192
0.50612
0.552075
0.579014
0.587763
0.590612
0.590959
0.590858
0.58932
0.586685
0.581874
0.576128
0.568227
0.560323
0.550966
0.54265
0.534672
0.526984
0.520415
0.513151
0.508091
0.501989
0.498339
0.493104
0.490543
0.48626
0.484307
0.480686
0.479089
0.476126
0.474833
0.472432
0.471298
0.469757
0.468916
0.468436
0.468202
0.468403
0.469289
0.470646
0.47221
0.474552
0.476775
0.479957
0.482951
0.486712
0.490501
0.495226
0.499769
0.505399
0.51092
0.517246
0.523517
0.530605
0.537334
0.544992
0.552083
0.559887
0.567151
0.57468
0.581563
0.588343
0.594086
0.599098
0.602723
0.604756
0.605609
0.00847562
0.00846054
0.00845281
0.00844654
0.00844213
0.0084399
0.00843794
0.00843703
0.00843646
0.008436
0.00843571
0.00843535
0.00843525
0.00843516
0.0084348
0.00843478
0.00843472
0.00843446
0.00843439
0.00843436
0.00843414
0.00843403
0.00843404
0.00843392
0.00843393
0.00843389
0.00843382
0.00843417
0.00843552
0.0084366
0.00843677
0.00843676
0.0084367
0.00843659
0.00843653
0.00843628
0.00843623
0.00843611
0.00843585
0.00843586
0.00843577
0.00843557
0.00843558
0.00843554
0.00843523
0.00843523
0.00843515
0.00843491
0.00843491
0.00843475
0.00843453
0.00843452
0.00843426
0.00843412
0.00843411
0.00843391
0.00843383
0.00843381
0.00843375
0.00843371
0.00843366
0.00843381
0.00843492
0.0084372
0.0084406
0.00844442
0.00844806
0.00845059
0.00845252
0.00845465
0.00845922
0.00846705
0.00847961
0.00849902
0.00853097
0.00858735
0.00869846
0.00893175
0.00945688
0.0106517
0.013435
0.0196874
0.0336282
0.0626934
0.121131
0.227356
0.404529
0.65294
0.849377
0.906175
0.911118
0.886838
0.830325
0.775059
0.766236
0.780385
0.840801
0.929738
1.0585
1.19591
1.35764
1.43931
1.46115
1.459
1.4252
1.32682
1.17156
0.973259
0.761916
0.527901
0.27609
0.140641
0.0862364
0.064239
0.0541533
0.0527397
0.0540788
0.0632101
0.0814339
0.10811
0.140513
0.178142
0.220753
0.269065
0.322119
0.379241
0.436776
0.492547
0.539852
0.561249
0.567938
0.569786
0.569942
0.569486
0.567616
0.564236
0.559021
0.552385
0.544342
0.535828
0.526917
0.518679
0.511323
0.504297
0.498229
0.491766
0.486864
0.482279
0.479329
0.475599
0.473164
0.470094
0.468736
0.466728
0.465573
0.463715
0.462894
0.461655
0.461095
0.460643
0.460442
0.460465
0.460908
0.461984
0.463094
0.464957
0.467147
0.469827
0.472664
0.476321
0.480136
0.484651
0.489288
0.494859
0.500494
0.507261
0.514031
0.521685
0.529292
0.537707
0.545862
0.55473
0.563191
0.572131
0.58055
0.588917
0.596488
0.603838
0.609684
0.614941
0.618228
0.620449
0.62125
0.00847135
0.00845764
0.00845024
0.00844461
0.0084414
0.00844028
0.00843998
0.00844081
0.00844095
0.0084409
0.0084408
0.00844051
0.00844051
0.00844043
0.00844025
0.00844032
0.00844032
0.00844007
0.00844011
0.00844006
0.00843979
0.00843978
0.0084396
0.00843938
0.00843933
0.00843906
0.00843896
0.00843881
0.00843858
0.00843857
0.00843845
0.00843821
0.00843821
0.00843813
0.00843788
0.0084379
0.00843791
0.00843765
0.00843767
0.00843762
0.00843736
0.00843736
0.00843716
0.00843696
0.00843691
0.00843668
0.00843656
0.00843653
0.00843625
0.00843626
0.0084362
0.00843607
0.00843608
0.00843606
0.00843589
0.00843589
0.00843587
0.00843558
0.00843557
0.00843541
0.00843533
0.00843527
0.00843528
0.00843517
0.00843515
0.00843564
0.00843713
0.0084399
0.0084434
0.00844749
0.00845166
0.00845695
0.00846509
0.00847869
0.00850094
0.00853563
0.00859322
0.00869584
0.00889975
0.00932671
0.0102818
0.012399
0.0171677
0.027356
0.048728
0.0900004
0.165482
0.288235
0.46816
0.677876
0.824591
0.894814
0.931589
0.965518
1.00485
1.06309
1.13705
1.23611
1.35169
1.48652
1.62103
1.67064
1.67304
1.63962
1.55699
1.43166
1.28111
1.13038
0.995578
0.879542
0.784683
0.682449
0.539557
0.32358
0.146221
0.0916073
0.0750996
0.0716876
0.0719462
0.0799659
0.0997794
0.131842
0.173844
0.223288
0.277743
0.33553
0.393823
0.453606
0.509466
0.544009
0.555004
0.558201
0.558738
0.558395
0.556569
0.552938
0.547781
0.541143
0.533383
0.5246
0.515504
0.506605
0.499035
0.492489
0.487061
0.481752
0.477234
0.473171
0.470198
0.467672
0.465508
0.463507
0.461457
0.459641
0.457753
0.456427
0.45509
0.454294
0.453907
0.453803
0.453966
0.455062
0.456472
0.457948
0.459956
0.462476
0.465082
0.467997
0.471356
0.474716
0.479047
0.483834
0.489262
0.495198
0.50209
0.509247
0.517396
0.525776
0.534652
0.543723
0.553164
0.562673
0.572082
0.581761
0.590957
0.600098
0.608177
0.616084
0.622163
0.627743
0.63085
0.633132
0.633888
0.00848242
0.0084638
0.0084557
0.00844874
0.00844459
0.00844209
0.00843983
0.00843881
0.00843799
0.0084377
0.00843745
0.00843734
0.00843795
0.00843829
0.00843832
0.0084382
0.00843821
0.00843817
0.00843791
0.00843791
0.00843774
0.00843755
0.00843755
0.00843737
0.00843715
0.00843711
0.00843686
0.00843676
0.00843666
0.00843645
0.00843645
0.00843629
0.00843611
0.00843611
0.00843589
0.00843573
0.00843574
0.00843567
0.00843551
0.00843551
0.00843545
0.00843542
0.00843595
0.00843796
0.00844059
0.00844128
0.00844135
0.00844127
0.00844114
0.00844113
0.00844085
0.00844079
0.00844078
0.00844052
0.0084404
0.00844041
0.00844042
0.00844023
0.00844021
0.00844013
0.00844017
0.008441
0.00844288
0.00844358
0.00844374
0.0084437
0.00844368
0.0084439
0.008445
0.00844718
0.00845078
0.00845567
0.00846245
0.00847161
0.00848488
0.00850438
0.0085356
0.00858609
0.00867444
0.0088367
0.00916402
0.00984234
0.0113264
0.0144845
0.02124
0.0347663
0.0609497
0.106938
0.181078
0.290784
0.43488
0.605495
0.748289
0.858256
0.934304
1.01745
1.0939
1.19492
1.29275
1.41613
1.52076
1.55855
1.5514
1.50467
1.39778
1.25396
1.07358
0.903472
0.748326
0.625641
0.539273
0.472925
0.428145
0.368033
0.316412
0.251819
0.21525
0.168713
0.146679
0.132589
0.129173
0.131264
0.14595
0.181278
0.232741
0.295349
0.36023
0.425643
0.488477
0.540124
0.559346
0.565076
0.566377
0.566281
0.565102
0.561507
0.55625
0.548604
0.540421
0.530472
0.52117
0.51119
0.502809
0.49535
0.489429
0.484221
0.479169
0.475378
0.471675
0.469077
0.465988
0.463957
0.46109
0.459475
0.457204
0.456209
0.455219
0.454919
0.454847
0.455096
0.456306
0.457807
0.459314
0.460917
0.463362
0.465532
0.467972
0.470835
0.474722
0.478731
0.483968
0.48959
0.496138
0.503239
0.511463
0.519518
0.528698
0.538019
0.547884
0.55788
0.568338
0.57913
0.58965
0.600636
0.611043
0.621677
0.630912
0.64006
0.646983
0.653354
0.656851
0.659313
0.660085
0.00847975
0.00846216
0.00845357
0.00844598
0.00844112
0.00843864
0.00843609
0.00843507
0.00843408
0.00843371
0.00843342
0.00843304
0.00843296
0.00843292
0.00843287
0.00843255
0.00843258
0.00843247
0.00843237
0.00843287
0.00843439
0.00843721
0.00843823
0.00843858
0.00843865
0.00843873
0.00843871
0.00843866
0.00843854
0.00843849
0.00843841
0.00843869
0.00843954
0.00843976
0.00843974
0.00843967
0.00843968
0.00843957
0.00843937
0.00843938
0.0084393
0.00843925
0.00843926
0.00843914
0.00843918
0.00843912
0.00843895
0.00843895
0.00843887
0.00843871
0.00843868
0.0084386
0.00843893
0.00844024
0.00844155
0.0084418
0.00844182
0.00844182
0.00844154
0.00844155
0.0084414
0.00844118
0.00844117
0.00844093
0.00844079
0.00844077
0.00844072
0.0084407
0.00844062
0.00844087
0.00844202
0.00844435
0.00844856
0.00845542
0.00846587
0.00848143
0.00850454
0.00853798
0.00858829
0.00866628
0.00879999
0.00903957
0.0095119
0.0104513
0.0124072
0.0163199
0.0240923
0.0383492
0.0628221
0.102235
0.15808
0.234067
0.321771
0.430859
0.534519
0.643638
0.724958
0.818784
0.878418
0.957121
0.979757
0.983301
0.945984
0.886349
0.780315
0.676706
0.546403
0.450465
0.363451
0.303394
0.267437
0.24478
0.237251
0.233337
0.233466
0.231479
0.234752
0.245367
0.253531
0.251262
0.236022
0.211583
0.198733
0.197036
0.202605
0.229719
0.283614
0.355855
0.433156
0.508299
0.562577
0.582146
0.587609
0.588248
0.587563
0.583907
0.578993
0.57169
0.563961
0.552661
0.541505
0.528235
0.516955
0.507662
0.500542
0.495782
0.490226
0.486279
0.480641
0.47805
0.473617
0.471466
0.467819
0.466277
0.464167
0.463435
0.462859
0.462802
0.462994
0.463722
0.465319
0.46611
0.467185
0.46776
0.46945
0.47054
0.473567
0.476705
0.481115
0.485314
0.491642
0.497675
0.50478
0.511444
0.519986
0.527894
0.537477
0.546748
0.557606
0.568156
0.579859
0.591783
0.604068
0.616428
0.628599
0.640797
0.651712
0.662364
0.670516
0.678002
0.681871
0.684713
0.685529
0.00847717
0.00845866
0.00844954
0.00844102
0.00843516
0.00843229
0.00842891
0.00842759
0.00842594
0.00842534
0.00842471
0.00842447
0.0084243
0.00842426
0.00842388
0.00842376
0.00842375
0.00842366
0.00842355
0.0084236
0.0084236
0.00842338
0.00842339
0.00842331
0.0084233
0.00842393
0.00842605
0.00842987
0.00843485
0.00843718
0.00843801
0.00843847
0.00843867
0.00843872
0.00843867
0.00843868
0.00843859
0.00843829
0.00843829
0.00843804
0.00843789
0.00843783
0.00843763
0.00843757
0.0084375
0.00843709
0.00843702
0.00843699
0.0084367
0.00843658
0.00843657
0.00843629
0.00843622
0.00843617
0.0084359
0.0084359
0.00843585
0.00843582
0.00843578
0.00843573
0.00843586
0.00843688
0.00843835
0.00843945
0.00843987
0.00844027
0.00844096
0.00844225
0.00844383
0.00844571
0.00844788
0.00845064
0.00845424
0.00845931
0.00846647
0.00847737
0.00849387
0.00851849
0.00855448
0.00860606
0.00868192
0.0087961
0.00898162
0.00929559
0.00987405
0.0109512
0.0130292
0.0168524
0.0236037
0.0350288
0.0522001
0.0772033
0.108375
0.147626
0.188023
0.234229
0.270968
0.312726
0.33809
0.364133
0.365285
0.362216
0.33909
0.312463
0.266901
0.22979
0.181202
0.150904
0.121128
0.101344
0.0926791
0.0896046
0.0903127
0.0914841
0.0968626
0.104119
0.119642
0.135695
0.158752
0.182511
0.215437
0.245051
0.283271
0.316766
0.347866
0.360929
0.368994
0.375202
0.402236
0.452888
0.527256
0.595531
0.627249
0.636901
0.639601
0.639346
0.638228
0.632756
0.625706
0.611693
0.597672
0.578377
0.561141
0.546616
0.534586
0.52854
0.521375
0.516899
0.508035
0.503523
0.497032
0.494271
0.489549
0.487809
0.485128
0.484314
0.483021
0.482791
0.482431
0.481938
0.481921
0.481617
0.481764
0.481886
0.483465
0.484798
0.488086
0.491305
0.496646
0.500925
0.507059
0.512127
0.519228
0.525205
0.533801
0.541416
0.552098
0.561894
0.574387
0.586401
0.599914
0.613404
0.627737
0.641887
0.655904
0.670201
0.682843
0.695732
0.705254
0.714682
0.719181
0.722666
0.723648
0.0085048
0.00847519
0.0084642
0.00845342
0.0084479
0.00844283
0.00843933
0.00843765
0.00843562
0.00843486
0.00843399
0.00843373
0.00843345
0.00843342
0.00843321
0.00843321
0.00843303
0.00843303
0.00843292
0.00843291
0.00843371
0.00843512
0.00843601
0.00843628
0.00843647
0.0084366
0.00843674
0.00843683
0.00843688
0.00843689
0.00843689
0.00843663
0.00843662
0.00843658
0.00843626
0.00843627
0.00843616
0.00843587
0.00843587
0.00843562
0.00843547
0.00843547
0.00843523
0.00843507
0.00843506
0.00843484
0.00843467
0.00843467
0.00843451
0.0084343
0.0084343
0.00843414
0.00843392
0.00843392
0.00843374
0.00843352
0.00843352
0.00843345
0.00843317
0.00843317
0.00843312
0.00843286
0.00843288
0.00843287
0.0084326
0.00843265
0.00843266
0.0084325
0.0084325
0.00843246
0.00843246
0.00843317
0.00843511
0.00843848
0.00844456
0.00845341
0.00846717
0.00848616
0.00851367
0.00855029
0.00860195
0.00867175
0.00877291
0.00891685
0.00914021
0.00948861
0.0100809
0.0110785
0.0127781
0.0156453
0.0200583
0.0267465
0.0354881
0.046971
0.0591806
0.0736392
0.0853169
0.0987518
0.106521
0.112719
0.11163
0.109557
0.100946
0.0928435
0.0790958
0.0694931
0.0559726
0.0488159
0.0408161
0.0357522
0.0339774
0.0334513
0.0340167
0.0347563
0.0370075
0.0390914
0.043401
0.0478342
0.0557603
0.0654585
0.084828
0.113725
0.160938
0.221952
0.304232
0.384623
0.459812
0.526453
0.577275
0.608889
0.631018
0.647229
0.6824
0.723973
0.750557
0.755663
0.757299
0.755442
0.753975
0.744401
0.734301
0.713848
0.688516
0.662995
0.635077
0.619105
0.605233
0.599426
0.587354
0.581095
0.57042
0.566842
0.559537
0.557358
0.551494
0.549836
0.543955
0.542216
0.537421
0.53423
0.531251
0.527399
0.526393
0.524349
0.524361
0.524079
0.526039
0.527542