/*--------------------------------*- C++ -*----------------------------------*\
| =========                 |                                                 |
| \\      /  F ield         | OpenFOAM: The Open Source CFD Toolbox           |
|  \\    /   O peration     | Version:  4.1                                   |
|   \\  /    A nd           | Web:      www.OpenFOAM.org                      |
|    \\/     M anipulation  |                                                 |
\*---------------------------------------------------------------------------*/
FoamFile
{
    version     2.0;
    format      ascii;
    class       volScalarField;
    location    "5";
    object      p;
}
// * * * * * * * * * * * * * * * * * * * * * * * * * * * * * * * * * * * * * //

dimensions      [0 2 -2 0 0 0 0];

internalField   nonuniform List<scalar> 
204246
(
-19.4916
-30.9444
-31.6849
-31.9502
-32.1749
-32.3078
-32.4268
-32.479
-32.5154
-32.5137
-32.4851
-32.3983
-32.2932
-32.1486
-32.1003
-32.1659
-32.4756
-32.589
-32.2794
-32.2615
-32.2107
-32.1913
-32.141
-32.111
-32.0677
-32.0517
-32.0294
-32.0222
-31.9687
-31.914
-31.7988
-31.6952
-31.5753
-31.5558
-31.6173
-31.853
-31.9233
-31.7082
-31.709
-31.6389
-31.6037
-31.5616
-31.5399
-31.5157
-31.5044
-31.4568
-31.4109
-31.3146
-31.2253
-31.0971
-31.0521
-31.0718
-31.2814
-31.3583
-31.2233
-31.1536
-31.0799
-31.0315
-30.9714
-30.9383
-30.8924
-30.8522
-30.7679
-30.6886
-30.5731
-30.4722
-30.3115
-30.2431
-30.0985
-30.2669
-30.2819
-30.0781
-29.9687
-29.7954
-29.6687
-29.5247
-29.4039
-29.2636
-29.1157
-28.9032
-28.6965
-28.4276
-28.3559
-28.7345
-30.4192
-35.5236
-45.4256
-56.0097
-62.0342
-65.3492
-69.2962
-71.9394
-73.7468
-74.7234
-75.3651
-75.7769
-75.875
-75.6818
-75.1807
-74.5215
-73.6134
-72.5844
-71.4208
-70.5782
-70.1944
-70.4889
-70.2826
-69.4868
-69.5826
-68.8951
-68.8952
-68.9242
-69.2689
-68.89
-69.3791
-69.0356
-69.5868
-69.2533
-69.7382
-69.1471
-69.3724
-69.7294
-70.6154
-71.1172
-70.8312
-71.1869
-71.3909
-71.7153
-71.9507
-72.2986
-72.6286
-73.0549
-73.4211
-73.805
-73.8983
-74.6709
-74.5393
-75.1712
-75.1413
-76.511
-77.3257
-77.4588
-78.1603
-78.1037
-78.9519
-78.927
-79.7975
-79.805
-80.4881
-80.5739
-81.3518
-81.1997
-81.9763
-81.9369
-81.939
-81.7303
-83.0837
-83.5263
-83.0989
-83.4062
-82.9485
-82.5375
-81.9287
-81.3113
-80.3881
-79.282
-77.7854
-76.0413
-73.7987
-71.2745
-68.3363
-65.2115
-60.6807
-56.1158
-50.7736
-44.9718
-38.2092
-30.3285
-21.7661
-11.9845
-1.01099
11.6207
25.9668
42.5003
61.1931
82.3099
105.731
132.025
162.137
201.649
261.655
357.317
485.982
-27.2409
-28.5366
-30.1271
-31.2473
-31.9307
-32.2487
-32.4238
-32.4858
-32.5353
-32.5333
-32.5604
-32.4914
-32.4007
-32.2734
-32.1999
-32.1967
-32.3693
-32.4406
-32.3791
-32.3151
-32.2581
-32.2275
-32.1827
-32.1484
-32.1062
-32.0812
-32.0555
-32.0435
-32.0081
-31.9768
-31.8936
-31.797
-31.6899
-31.6336
-31.6374
-31.7605
-31.8158
-31.7751
-31.7444
-31.6794
-31.6513
-31.5986
-31.5782
-31.5461
-31.5294
-31.4894
-31.4657
-31.3988
-31.3266
-31.2135
-31.1371
-31.1265
-31.221
-31.2698
-31.2424
-31.198
-31.1359
-31.0923
-31.0341
-30.9939
-30.9491
-30.9031
-30.8446
-30.7706
-30.6709
-30.5559
-30.4582
-30.3893
-30.3231
-30.2713
-30.2246
-30.1577
-30.0522
-29.9445
-29.8306
-29.7097
-29.6059
-29.4883
-29.3663
-29.2265
-29.0457
-28.7911
-28.6002
-28.8732
-30.0361
-33.1946
-41.7745
-53.0836
-60.6799
-64.7548
-68.4824
-71.1127
-73.2629
-74.5026
-75.4134
-75.9706
-76.3576
-76.2814
-75.8703
-75.1845
-74.3041
-73.2906
-72.2866
-71.4129
-70.7517
-70.2952
-69.9396
-69.6212
-69.314
-69.093
-68.9393
-68.9143
-68.9421
-69.0129
-69.064
-69.2061
-69.3267
-69.4299
-69.4377
-69.4546
-69.4921
-69.7486
-70.0326
-70.471
-70.7624
-70.9556
-71.2494
-71.5108
-71.8257
-72.1279
-72.4863
-72.8581
-73.2669
-73.6274
-73.9632
-74.3291
-74.5938
-74.9271
-75.3644
-75.958
-76.617
-77.1785
-77.6666
-78.1013
-78.5691
-79.0357
-79.4773
-79.9334
-80.3474
-80.8232
-81.2282
-81.6375
-81.9762
-82.3194
-82.4339
-82.7562
-83.1052
-83.4751
-83.7332
-83.8921
-83.9989
-83.7359
-83.5749
-83.0606
-82.5717
-81.7253
-80.7047
-79.3376
-77.6586
-75.6584
-73.2739
-70.4954
-67.1004
-63.2364
-58.7187
-53.6667
-47.7401
-40.9455
-33.402
-24.8951
-15.4764
-4.81447
7.15732
20.8862
36.4244
54.0407
73.3491
94.1194
115.977
141.016
176.952
242.417
339.184
-34.3621
-32.4278
-31.7735
-31.8174
-32.0354
-32.2424
-32.3956
-32.4845
-32.5273
-32.5296
-32.5229
-32.4883
-32.4329
-32.3648
-32.3035
-32.276
-32.3006
-32.3295
-32.3241
-32.2946
-32.2564
-32.217
-32.1749
-32.1423
-32.1058
-32.0702
-32.039
-32.017
-31.9833
-31.9461
-31.8946
-31.8327
-31.7695
-31.7164
-31.6899
-31.7024
-31.7319
-31.7288
-31.7053
-31.6756
-31.6419
-31.6011
-31.5653
-31.5327
-31.5079
-31.4768
-31.4426
-31.3963
-31.3384
-31.2658
-31.2123
-31.1842
-31.189
-31.2002
-31.193
-31.1669
-31.1271
-31.0808
-31.0305
-30.9847
-30.937
-30.8967
-30.8438
-30.7696
-30.6677
-30.5788
-30.5162
-30.4516
-30.3818
-30.2971
-30.2004
-30.1034
-29.9865
-29.8677
-29.7475
-29.6365
-29.5291
-29.4324
-29.3485
-29.3064
-29.3134
-29.3766
-29.6195
-30.8018
-34.1892
-38.1449
-45.2793
-54.9328
-61.3241
-66.0088
-69.1926
-71.8119
-73.5487
-74.6047
-75.6005
-76.2799
-76.6306
-76.6198
-76.2799
-75.645
-74.7913
-73.7771
-72.809
-71.9103
-71.1561
-70.5352
-70.0114
-69.5877
-69.2841
-69.098
-68.9866
-68.9374
-69.0017
-69.0448
-69.2321
-69.2662
-69.3743
-69.4564
-69.5553
-69.6069
-69.7307
-69.8622
-70.1342
-70.3887
-70.5737
-70.7438
-70.9948
-71.2562
-71.564
-71.866
-72.2119
-72.5704
-72.9615
-73.3404
-73.7143
-74.0685
-74.403
-74.7761
-75.1845
-75.6707
-76.178
-76.6976
-77.2061
-77.6968
-78.1569
-78.5974
-79.0478
-79.4672
-79.8891
-80.3029
-80.7252
-81.1109
-81.4669
-81.7472
-82.0229
-82.2984
-82.6453
-82.9126
-83.0531
-83.1351
-83.048
-82.9106
-82.6076
-82.2078
-81.6006
-80.7837
-79.6884
-78.2672
-76.576
-74.517
-72.1534
-69.3196
-66.1171
-62.3726
-58.0764
-53.0757
-47.3364
-40.8631
-33.4845
-25.1956
-15.8804
-5.5021
6.17
19.3232
34.3146
51.2422
70.0463
90.0874
111.038
133.474
162.139
205.273
262.452
-37.615
-35.3419
-33.8871
-33.1203
-32.7692
-32.6727
-32.6367
-32.6443
-32.6367
-32.6265
-32.5955
-32.5509
-32.4923
-32.4389
-32.4041
-32.3788
-32.3662
-32.3552
-32.3347
-32.312
-32.282
-32.2518
-32.2231
-32.1913
-32.1608
-32.1275
-32.0899
-32.0552
-32.0273
-31.9929
-31.9376
-31.8759
-31.8326
-31.8008
-31.7761
-31.7721
-31.7663
-31.749
-31.7279
-31.7076
-31.6819
-31.6535
-31.6202
-31.5887
-31.5531
-31.5204
-31.4785
-31.4264
-31.381
-31.3415
-31.299
-31.2691
-31.2644
-31.2502
-31.225
-31.1977
-31.1695
-31.1344
-31.0962
-31.0513
-31.0155
-30.9648
-30.9114
-30.8318
-30.7531
-30.6841
-30.6236
-30.5608
-30.4919
-30.4178
-30.3274
-30.2262
-30.1144
-29.9916
-29.864
-29.7315
-29.5813
-29.4257
-29.2893
-29.2047
-29.2047
-29.3325
-29.6925
-31.1215
-35.3876
-40.8474
-48.2604
-57.4993
-63.8588
-67.7188
-70.1551
-72.0111
-73.2931
-74.6049
-75.6459
-76.3659
-76.8934
-76.9933
-76.7027
-76.206
-75.3505
-74.3203
-73.2748
-72.2565
-71.3632
-70.5888
-69.9413
-69.4084
-69.0159
-68.8063
-68.6161
-68.594
-68.4726
-68.5691
-68.6044
-68.766
-68.8177
-68.9003
-68.9781
-69.1206
-69.2373
-69.4013
-69.5531
-69.8211
-70.0725
-70.3677
-70.654
-70.9781
-71.2946
-71.6342
-71.9992
-72.3633
-72.7518
-73.125
-73.5123
-73.8791
-74.2631
-74.6522
-75.0777
-75.5206
-76.0044
-76.5035
-77.0085
-77.5412
-78.0125
-78.5311
-78.9845
-79.4943
-79.9067
-80.4004
-80.7738
-81.2479
-81.5662
-81.9792
-82.2488
-82.7106
-82.96
-83.3123
-83.6613
-83.8952
-84.091
-84.0822
-84.0498
-83.8578
-83.5877
-83.1733
-82.5889
-81.7824
-80.5536
-78.9685
-76.9477
-74.5278
-71.6577
-68.3394
-64.4873
-60.065
-54.9289
-49.061
-42.4134
-34.8921
-26.4715
-17.0416
-6.53892
5.21271
18.3015
32.8377
48.7947
66.2021
85.24
107.015
134.257
168.989
207.369
-39.1819
-37.0659
-35.4592
-34.3222
-33.5883
-33.1779
-32.9367
-32.7973
-32.7152
-32.6562
-32.6033
-32.5474
-32.4877
-32.4405
-32.4031
-32.3748
-32.351
-32.3316
-32.3091
-32.2808
-32.2481
-32.2125
-32.1783
-32.1504
-32.1193
-32.0904
-32.0562
-32.0249
-31.9942
-31.9577
-31.9122
-31.8636
-31.8229
-31.7848
-31.7522
-31.7261
-31.7142
-31.706
-31.6833
-31.6584
-31.6349
-31.6057
-31.5798
-31.5498
-31.5263
-31.4931
-31.4532
-31.4046
-31.3584
-31.3236
-31.285
-31.2448
-31.2143
-31.2027
-31.1868
-31.1613
-31.1266
-31.0938
-31.0511
-31.0132
-30.9632
-30.937
-30.8767
-30.8136
-30.7397
-30.6794
-30.6314
-30.5693
-30.5046
-30.4263
-30.3351
-30.2361
-30.1242
-30.0107
-29.8932
-29.7721
-29.6315
-29.4741
-29.3246
-29.2245
-29.2288
-29.4357
-29.8959
-31.1201
-34.7622
-40.3384
-47.6598
-56.6431
-63.9172
-67.9442
-70.986
-72.3348
-73.4535
-74.5578
-75.5363
-76.4709
-77.1295
-77.3122
-77.1691
-76.4669
-75.8115
-74.8164
-73.7174
-72.6104
-71.601
-70.7236
-70.0108
-69.4453
-69.0222
-68.7616
-68.6265
-68.5724
-68.6015
-68.6384
-68.7867
-68.9052
-69.0452
-69.1643
-69.2988
-69.4199
-69.543
-69.6902
-69.8319
-69.9893
-70.1661
-70.3427
-70.6
-70.84
-71.136
-71.4549
-71.8092
-72.1765
-72.5611
-72.9337
-73.322
-73.6985
-74.0955
-74.4871
-74.9063
-75.3315
-75.7949
-76.2784
-76.7656
-77.2889
-77.7598
-78.2685
-78.7415
-79.2216
-79.6815
-80.1415
-80.5645
-80.9853
-81.36
-81.7139
-82.0555
-82.3868
-82.7331
-83.0288
-83.2509
-83.4389
-83.5474
-83.5831
-83.4897
-83.239
-82.8004
-82.1741
-81.4376
-80.5075
-79.4379
-78.0889
-76.44
-74.3991
-71.9564
-69.0413
-65.6257
-61.6441
-57.031
-51.7796
-45.7615
-38.9091
-31.1254
-22.3488
-12.5362
-1.70022
10.0991
22.7386
36.1889
50.5511
66.4178
85.1438
108.487
136.488
164.434
-40.2206
-38.2145
-36.5947
-35.3568
-34.452
-33.837
-33.4252
-33.178
-32.9958
-32.8759
-32.776
-32.6903
-32.6141
-32.5507
-32.501
-32.461
-32.4294
-32.3998
-32.368
-32.3376
-32.3063
-32.2765
-32.2505
-32.2231
-32.1977
-32.1611
-32.1323
-32.0982
-32.0628
-32.0233
-31.9817
-31.9414
-31.9026
-31.8695
-31.8385
-31.8233
-31.8011
-31.7741
-31.7521
-31.7299
-31.7065
-31.686
-31.6541
-31.6215
-31.592
-31.5637
-31.5193
-31.4766
-31.4441
-31.4119
-31.3807
-31.3462
-31.3205
-31.2928
-31.2628
-31.2349
-31.21
-31.1772
-31.1492
-31.1024
-31.0644
-31.0244
-30.9817
-30.919
-30.8574
-30.8021
-30.7377
-30.6779
-30.6157
-30.546
-30.4628
-30.3652
-30.2572
-30.1407
-30.024
-29.8953
-29.7509
-29.5922
-29.4426
-29.3297
-29.312
-29.5077
-30.0541
-31.2475
-34.1218
-39.7924
-46.4953
-54.963
-62.8507
-68.7449
-71.4139
-72.7336
-73.734
-74.8499
-75.8384
-76.702
-77.3731
-77.781
-77.8561
-77.5849
-76.6619
-75.6236
-74.412
-73.1991
-72.0494
-70.9851
-70.1136
-69.4225
-68.9018
-68.5744
-68.3802
-68.3055
-68.2594
-68.3331
-68.3786
-68.4839
-68.542
-68.6638
-68.7825
-68.9178
-69.0495
-69.1994
-69.3959
-69.5972
-69.7897
-70.0433
-70.307
-70.6034
-70.9196
-71.2485
-71.6154
-71.9827
-72.3694
-72.7458
-73.1401
-73.5243
-73.9228
-74.3149
-74.728
-75.1333
-75.591
-76.0683
-76.5457
-77.0618
-77.5433
-78.0638
-78.5398
-79.0444
-79.5141
-80.0105
-80.4521
-80.9176
-81.3104
-81.7492
-82.1253
-82.5743
-82.8976
-83.2663
-83.6836
-84.0248
-84.4142
-84.5813
-84.7931
-84.9005
-84.9641
-84.9494
-84.6306
-84.0531
-83.1653
-81.9884
-80.4766
-78.6247
-76.3848
-73.7383
-70.6339
-67.0463
-62.8803
-58.1285
-52.6979
-46.4769
-39.3766
-31.3007
-22.2414
-12.2229
-1.36538
10.1937
22.3951
35.2981
49.3833
65.8406
85.4901
108.183
129.703
-40.7298
-38.8291
-37.2726
-36.0247
-35.0521
-34.311
-33.7727
-33.3863
-33.1253
-32.9363
-32.7968
-32.6881
-32.6017
-32.5346
-32.4791
-32.4361
-32.3931
-32.356
-32.3278
-32.2954
-32.2592
-32.2226
-32.1875
-32.1601
-32.1273
-32.098
-32.0599
-32.0313
-32.0035
-31.9723
-31.9358
-31.8986
-31.8639
-31.8253
-31.7927
-31.7515
-31.727
-31.7175
-31.6924
-31.6652
-31.6414
-31.6114
-31.5888
-31.556
-31.5281
-31.4977
-31.4701
-31.4319
-31.3945
-31.3574
-31.3157
-31.2851
-31.2498
-31.2304
-31.2141
-31.1854
-31.1517
-31.1233
-31.0802
-31.0507
-31.0109
-30.982
-30.9468
-30.8826
-30.8322
-30.7871
-30.7434
-30.6917
-30.6396
-30.5777
-30.5071
-30.428
-30.3382
-30.2523
-30.1611
-30.0509
-29.9152
-29.7743
-29.6391
-29.5265
-29.4831
-29.6188
-30.0924
-31.1466
-33.2799
-38.2667
-44.6703
-52.4376
-60.2957
-66.7801
-70.294
-72.3085
-73.2348
-74.2904
-75.2095
-76.1394
-76.9986
-77.6376
-77.8828
-77.7408
-77.2404
-76.2358
-74.9286
-73.5507
-72.2385
-71.0261
-70.0804
-69.3543
-68.7897
-68.4107
-68.1755
-68.0881
-68.0948
-68.1956
-68.3465
-68.4634
-68.6181
-68.7625
-68.9311
-69.1065
-69.2742
-69.4554
-69.5741
-69.7252
-69.906
-70.0869
-70.2898
-70.547
-70.8262
-71.1378
-71.4842
-71.8474
-72.2302
-72.6083
-73.0002
-73.3838
-73.7781
-74.1658
-74.5684
-74.9671
-75.4074
-75.8655
-76.3374
-76.8225
-77.302
-77.7946
-78.2795
-78.764
-79.2374
-79.7046
-80.1567
-80.5922
-81.0052
-81.4056
-81.7979
-82.1843
-82.5774
-82.9507
-83.2764
-83.5599
-83.768
-83.9274
-83.9761
-83.9268
-83.7637
-83.5151
-83.263
-82.8927
-82.3967
-81.6699
-80.6698
-79.3298
-77.6171
-75.4783
-72.8992
-69.8461
-66.2737
-62.1723
-57.451
-52.0162
-45.7809
-38.6707
-30.6709
-21.8126
-12.1738
-1.85329
9.08841
20.7272
33.4466
48.0417
64.8561
83.629
100.863
-40.8049
-39.1089
-37.688
-36.5028
-35.5421
-34.7893
-34.2038
-33.7709
-33.4451
-33.2072
-33.0219
-32.8778
-32.7621
-32.6694
-32.5982
-32.5398
-32.4941
-32.4521
-32.4099
-32.3742
-32.3368
-32.3054
-32.2807
-32.2544
-32.2298
-32.1936
-32.1681
-32.1347
-32.0959
-32.054
-32.0203
-31.9868
-31.9504
-31.9192
-31.8893
-31.8749
-31.8448
-31.8073
-31.7798
-31.7579
-31.7356
-31.7168
-31.6845
-31.6621
-31.6316
-31.6034
-31.56
-31.5233
-31.4928
-31.461
-31.4332
-31.4026
-31.3798
-31.3434
-31.3053
-31.2756
-31.2535
-31.2243
-31.2034
-31.1581
-31.1248
-31.0828
-31.0329
-30.9949
-30.9468
-30.8975
-30.8404
-30.79
-30.7374
-30.6839
-30.6207
-30.5443
-30.4647
-30.3844
-30.3011
-30.2014
-30.096
-29.9913
-29.8936
-29.8165
-29.7992
-29.9179
-30.3087
-31.1586
-32.7766
-36.5881
-42.2513
-49.0794
-56.7429
-63.8045
-68.9059
-71.604
-73.6887
-75.0482
-75.7442
-76.5657
-77.4805
-78.2197
-78.6493
-78.6279
-78.02
-77.1935
-75.9814
-74.4606
-72.9369
-71.5234
-70.3068
-69.3639
-68.7535
-68.3461
-68.1393
-68.0159
-67.9736
-67.9928
-68.076
-68.2341
-68.3567
-68.5159
-68.6617
-68.804
-68.9738
-69.1283
-69.3436
-69.5423
-69.7315
-69.9354
-70.1715
-70.4339
-70.725
-71.0329
-71.373
-71.726
-72.0968
-72.4669
-72.8529
-73.2337
-73.6233
-74.0062
-74.4022
-74.7952
-75.2181
-75.6629
-76.1281
-76.6064
-77.0899
-77.5864
-78.0778
-78.5806
-79.0726
-79.5704
-80.0481
-80.526
-80.978
-81.4351
-81.8713
-82.3163
-82.7308
-83.1653
-83.6142
-84.0602
-84.4983
-84.8936
-85.2723
-85.5803
-85.8206
-85.9376
-85.8571
-85.5948
-85.1243
-84.4539
-83.5355
-82.342
-80.818
-78.9324
-76.645
-73.9381
-70.7516
-67.07
-62.8116
-57.9048
-52.2989
-45.9519
-38.8518
-31.012
-22.4856
-13.3276
-3.55067
6.94154
18.4579
31.4688
46.1081
62.0338
76.2989
-40.4687
-39.0105
-37.7304
-36.6327
-35.7172
-34.9639
-34.3592
-33.8838
-33.5202
-33.239
-33.0245
-32.8608
-32.7343
-32.6368
-32.5571
-32.4948
-32.4399
-32.3927
-32.3553
-32.318
-32.2804
-32.2414
-32.2054
-32.1752
-32.1381
-32.1119
-32.0751
-32.0496
-32.0228
-31.9944
-31.9606
-31.9267
-31.8928
-31.8542
-31.8239
-31.7829
-31.7582
-31.745
-31.7145
-31.6829
-31.6564
-31.6242
-31.6024
-31.5671
-31.5431
-31.5177
-31.4917
-31.4598
-31.4241
-31.3884
-31.3491
-31.3198
-31.2832
-31.2626
-31.2458
-31.217
-31.1833
-31.1567
-31.1152
-31.0927
-31.0506
-31.0293
-30.9999
-30.9515
-30.9156
-30.8791
-30.8453
-30.8047
-30.7655
-30.7209
-30.6703
-30.6145
-30.5559
-30.5014
-30.4376
-30.3664
-30.2881
-30.2146
-30.1506
-30.1127
-30.1323
-30.2707
-30.6354
-31.3855
-32.7445
-35.3635
-39.6511
-45.5322
-52.3484
-59.2205
-65.1416
-69.4103
-72.1904
-73.8314
-75.0368
-76.1064
-77.13
-78.1158
-78.8642
-79.0577
-78.2109
-77.6675
-76.4592
-74.894
-73.2909
-71.6948
-70.3359
-69.2895
-68.5557
-68.1226
-67.7642
-67.5573
-67.615
-67.7398
-67.8791
-68.0302
-68.196
-68.372
-68.5606
-68.7585
-68.952
-69.1864
-69.3525
-69.5367
-69.7406
-69.9291
-70.1359
-70.3694
-70.6389
-70.9319
-71.2602
-71.601
-71.9622
-72.3248
-72.7017
-73.0744
-73.4518
-73.8232
-74.202
-74.588
-74.9987
-75.4261
-75.8698
-76.3238
-76.7901
-77.2645
-77.7454
-78.2304
-78.7153
-79.1944
-79.6672
-80.1265
-80.5806
-81.0238
-81.4611
-81.8837
-82.309
-82.7321
-83.1511
-83.5606
-83.9292
-84.2533
-84.5143
-84.7465
-84.9172
-85.0583
-85.1814
-85.2303
-85.1889
-84.9841
-84.5766
-83.8944
-82.8916
-81.5275
-79.7697
-77.5868
-74.9237
-71.7575
-68.0337
-63.6995
-58.7286
-53.098
-46.8162
-39.8955
-32.3686
-24.2496
-15.5258
-6.07708
4.33277
15.9832
28.9134
42.7303
54.886
-39.8213
-38.5955
-37.4904
-36.5484
-35.7536
-35.0704
-34.5174
-34.0669
-33.7224
-33.4415
-33.2182
-33.0357
-32.8895
-32.7726
-32.6834
-32.6093
-32.5538
-32.5014
-32.4485
-32.4068
-32.3658
-32.3341
-32.3088
-32.282
-32.2588
-32.2254
-32.2008
-32.1644
-32.1264
-32.086
-32.0539
-32.0221
-31.9872
-31.9576
-31.9272
-31.9143
-31.881
-31.8393
-31.8114
-31.7887
-31.7649
-31.7466
-31.7152
-31.6945
-31.6583
-31.6237
-31.5827
-31.5549
-31.5282
-31.4986
-31.4746
-31.4453
-31.4207
-31.3831
-31.3444
-31.3157
-31.2958
-31.2694
-31.2534
-31.2149
-31.1889
-31.1368
-31.0874
-31.0599
-31.023
-30.9828
-30.9348
-30.8943
-30.8546
-30.8179
-30.7744
-30.7239
-30.6766
-30.6266
-30.5745
-30.5162
-30.4677
-30.4295
-30.4055
-30.4084
-30.4666
-30.6251
-30.9662
-31.616
-32.757
-34.7431
-37.8977
-42.3997
-48.0458
-54.3029
-60.3276
-65.4024
-69.3261
-72.1346
-74.0626
-75.5
-76.7146
-77.7976
-78.7677
-79.5137
-80.0305
-78.7177
-77.3412
-75.8619
-74.3791
-72.6185
-70.8876
-69.595
-68.7051
-68.1964
-67.9145
-67.8072
-67.7195
-67.6344
-67.7692
-67.9666
-68.1043
-68.2987
-68.4704
-68.6213
-68.8117
-69.0195
-69.2384
-69.4524
-69.6522
-69.8629
-70.0833
-70.3211
-70.5874
-70.87
-71.1852
-71.5143
-71.8681
-72.216
-72.5833
-72.9503
-73.3243
-73.6863
-74.0546
-74.4273
-74.825
-75.2388
-75.6738
-76.1251
-76.5902
-77.0717
-77.556
-78.0553
-78.5529
-79.0611
-79.5549
-80.0487
-80.5257
-81.0108
-81.4812
-81.9565
-82.4108
-82.8826
-83.3695
-83.8561
-84.3483
-84.8385
-85.318
-85.7434
-86.1075
-86.375
-86.5385
-86.6059
-86.557
-86.3955
-86.1044
-85.6392
-84.945
-83.9728
-82.6738
-80.9844
-78.8395
-76.2085
-73.0435
-69.3026
-64.9735
-60.0471
-54.5401
-48.4673
-41.8477
-34.6705
-26.8992
-18.4097
-9.01631
1.45783
13.012
25.2209
35.833
-38.7754
-37.8012
-36.9082
-36.1434
-35.4857
-34.9104
-34.4236
-34.0068
-33.6571
-33.3762
-33.1434
-32.9662
-32.8227
-32.7093
-32.6147
-32.5402
-32.4738
-32.4215
-32.3817
-32.3411
-32.3041
-32.2632
-32.2252
-32.1928
-32.1544
-32.1299
-32.0946
-32.069
-32.0441
-32.0186
-31.9857
-31.953
-31.9204
-31.8822
-31.8506
-31.8104
-31.7857
-31.7704
-31.7387
-31.7059
-31.6783
-31.6458
-31.6247
-31.5882
-31.5667
-31.5435
-31.5194
-31.4855
-31.4508
-31.4169
-31.3797
-31.353
-31.3217
-31.2981
-31.2774
-31.2489
-31.2165
-31.1932
-31.1603
-31.1494
-31.1218
-31.0896
-31.0415
-31.0112
-30.9838
-30.9548
-30.931
-30.9008
-30.8724
-30.8395
-30.8061
-30.776
-30.7475
-30.7257
-30.6975
-30.6698
-30.6447
-30.6321
-30.6368
-30.6755
-30.768
-30.9505
-31.2832
-31.8591
-32.8092
-34.3642
-36.7718
-40.2137
-44.6521
-49.8642
-55.3403
-60.4978
-64.9263
-68.4513
-71.1255
-73.1448
-74.7218
-75.9962
-77.026
-77.7741
-78.1432
-77.9049
-77.0574
-75.6536
-74.0756
-72.6255
-71.1488
-69.6923
-68.5064
-67.7241
-67.3517
-67.3057
-67.2778
-67.2858
-67.4925
-67.6799
-67.83
-68.0555
-68.2737
-68.4898
-68.7073
-68.9511
-69.1755
-69.3941
-69.6076
-69.8246
-70.0491
-70.2822
-70.5352
-70.8041
-71.0893
-71.3904
-71.7313
-72.0768
-72.4359
-72.7917
-73.1491
-73.4955
-73.8468
-74.2074
-74.5914
-74.9874
-75.4003
-75.8285
-76.2759
-76.7363
-77.2088
-77.6943
-78.186
-78.6815
-79.1749
-79.6601
-80.1377
-80.6079
-81.0762
-81.5408
-82.0112
-82.4868
-82.9577
-83.4318
-83.9126
-84.406
-84.8959
-85.3829
-85.8537
-86.3088
-86.7192
-87.059
-87.3124
-87.4397
-87.4205
-87.2418
-86.8671
-86.2589
-85.3719
-84.146
-82.5052
-80.4087
-77.806
-74.6622
-70.9726
-66.7379
-61.9756
-56.7016
-50.9263
-44.6258
-37.7416
-30.1478
-21.6893
-12.2392
-1.8176
9.133
18.5783
-37.4691
-36.7505
-36.1
-35.5427
-35.0575
-34.6222
-34.2479
-33.9185
-33.6456
-33.4109
-33.2278
-33.0626
-32.9262
-32.808
-32.7191
-32.6421
-32.5857
-32.5308
-32.4756
-32.432
-32.3878
-32.3566
-32.3307
-32.3039
-32.2835
-32.2489
-32.2256
-32.189
-32.1508
-32.1116
-32.0814
-32.0503
-32.0167
-31.9878
-31.9569
-31.9464
-31.9084
-31.8629
-31.8397
-31.8173
-31.7923
-31.7743
-31.7429
-31.7233
-31.6856
-31.6515
-31.6116
-31.5839
-31.5577
-31.5302
-31.5071
-31.4765
-31.4541
-31.4165
-31.3765
-31.3483
-31.3281
-31.3029
-31.2886
-31.2612
-31.2694
-31.2064
-31.1676
-31.1258
-31.0917
-31.0582
-31.0179
-30.9862
-30.9561
-30.9309
-30.9033
-30.8776
-30.8604
-30.8395
-30.8194
-30.7974
-30.7874
-30.7961
-30.8318
-30.9033
-31.0267
-31.2303
-31.5626
-32.0896
-32.9029
-34.1517
-36.018
-38.6739
-42.1468
-46.3486
-51.0189
-55.7724
-60.2255
-64.1205
-67.3471
-69.9503
-72.0333
-73.7125
-75.0564
-76.0716
-76.7356
-76.9429
-76.6076
-75.4794
-74.2407
-72.8901
-71.5518
-70.323
-69.2698
-68.4756
-68.063
-67.8104
-67.488
-67.318
-67.4358
-67.7896
-67.9707
-68.0996
-68.2899
-68.4156
-68.6259
-68.8687
-69.0945
-69.3268
-69.5392
-69.7511
-69.9808
-70.2253
-70.4954
-70.7697
-71.0431
-71.334
-71.6546
-71.9816
-72.3277
-72.678
-73.0381
-73.3826
-73.7214
-74.0565
-74.4207
-74.8005
-75.2006
-75.6202
-76.0597
-76.5175
-76.9887
-77.4796
-77.978
-78.4902
-78.999
-79.5085
-80.0015
-80.4937
-80.975
-81.4605
-81.9409
-82.4399
-82.9497
-83.4636
-83.9865
-84.5158
-85.0443
-85.5624
-86.0792
-86.5855
-87.0739
-87.5325
-87.9457
-88.2848
-88.5161
-88.6188
-88.5675
-88.3219
-87.8379
-87.0607
-85.9144
-84.3461
-82.3041
-79.7514
-76.6895
-73.1265
-69.0808
-64.5669
-59.5939
-54.1292
-48.0996
-41.3675
-33.7831
-25.2407
-15.7731
-5.82973
2.71756
-35.8973
-35.4439
-35.0484
-34.7053
-34.4009
-34.1151
-33.8574
-33.628
-33.4167
-33.2278
-33.0598
-32.9206
-32.801
-32.7013
-32.6142
-32.5447
-32.4782
-32.4245
-32.3887
-32.3519
-32.3201
-32.2803
-32.242
-32.2112
-32.1765
-32.1555
-32.1206
-32.0945
-32.0702
-32.0459
-32.0137
-31.9816
-31.9504
-31.9134
-31.8809
-31.837
-31.8122
-31.7947
-31.7653
-31.7344
-31.7068
-31.6747
-31.6547
-31.6201
-31.5971
-31.5751
-31.5518
-31.5165
-31.4819
-31.4489
-31.4138
-31.3878
-31.3561
-31.3335
-31.3119
-31.2815
-31.2497
-31.2267
-31.1954
-31.177
-31.1289
-31.1362
-31.1115
-31.0807
-31.0499
-31.0192
-31.0009
-30.9781
-30.9574
-30.9314
-30.9083
-30.8961
-30.8886
-30.8891
-30.8901
-30.905
-30.9307
-30.9635
-31.013
-31.0999
-31.2393
-31.4566
-31.7867
-32.278
-32.995
-34.0429
-35.5405
-37.6271
-40.3578
-43.7195
-47.5902
-51.7334
-55.869
-59.7476
-63.1932
-66.1406
-68.5943
-70.6032
-72.2151
-73.451
-74.2915
-74.67
-74.4132
-74.1437
-73.4517
-72.4835
-71.3853
-70.2671
-69.2632
-68.3614
-67.6147
-67.274
-67.1639
-67.0677
-67.057
-67.1797
-67.4543
-67.9507
-68.2447
-68.3022
-68.4807
-68.7183
-68.9688
-69.2174
-69.4795
-69.7207
-69.9512
-70.1901
-70.4483
-70.706
-70.9683
-71.2393
-71.5366
-71.8568
-72.1997
-72.5381
-72.8825
-73.2104
-73.5304
-73.8585
-74.2049
-74.5673
-74.9475
-75.3458
-75.7667
-76.2072
-76.6669
-77.1479
-77.641
-78.1493
-78.6627
-79.1763
-79.6806
-80.1773
-80.6636
-81.1435
-81.6275
-82.1283
-82.6473
-83.1893
-83.7461
-84.3171
-84.9044
-85.5033
-86.1063
-86.7041
-87.294
-87.8732
-88.4311
-88.9501
-89.4032
-89.7624
-90.0104
-90.1144
-90.0257
-89.6878
-89.0335
-87.9961
-86.5147
-84.5491
-82.1007
-79.1829
-75.8199
-72.0316
-67.8279
-63.176
-57.9891
-52.1121
-45.3756
-37.6704
-29.0351
-19.915
-12.0549
-34.1242
-33.9597
-33.8212
-33.706
-33.6039
-33.4896
-33.3816
-33.2753
-33.1615
-33.0548
-32.9652
-32.8863
-32.8157
-32.7344
-32.672
-32.6064
-32.565
-32.519
-32.4632
-32.428
-32.3898
-32.3631
-32.3411
-32.3158
-32.2968
-32.2654
-32.2435
-32.2114
-32.1798
-32.1431
-32.109
-32.0756
-32.0421
-32.0146
-31.9846
-31.972
-31.9422
-31.8974
-31.8674
-31.8421
-31.8163
-31.7975
-31.7668
-31.746
-31.7112
-31.6766
-31.6377
-31.6105
-31.5819
-31.555
-31.5318
-31.5007
-31.4803
-31.4418
-31.4001
-31.3745
-31.3534
-31.3293
-31.3148
-31.2853
-31.269
-31.2259
-31.2041
-31.1631
-31.1358
-31.1168
-31.0858
-31.0612
-31.0363
-31.0176
-31.0016
-30.9906
-30.9933
-30.9956
-31.0028
-31.0161
-31.0433
-31.0804
-31.1416
-31.2435
-31.4006
-31.6306
-31.9596
-32.421
-33.0673
-33.9718
-35.2199
-36.9159
-39.1063
-41.8163
-45.0034
-48.5326
-52.2121
-55.8456
-59.2613
-62.3503
-65.0498
-67.3543
-69.2688
-70.8156
-71.9851
-72.7592
-73.1023
-73.1738
-72.6944
-72.0986
-71.3581
-70.5226
-69.7075
-68.984
-68.3803
-67.8815
-67.6327
-67.503
-67.5023
-67.5984
-67.7259
-67.9038
-68.0958
-68.2797
-68.5214
-68.8636
-69.0614
-69.168
-69.3959
-69.6327
-69.8666
-70.1242
-70.404
-70.6733
-70.9335
-71.1923
-71.4601
-71.7555
-72.0876
-72.4231
-72.768
-73.096
-73.4086
-73.713
-74.0367
-74.3773
-74.7349
-75.1138
-75.5197
-75.9458
-76.3946
-76.8719
-77.3658
-77.8816
-78.4008
-78.9255
-79.4402
-79.9476
-80.4366
-80.9193
-81.3988
-81.8907
-82.3975
-82.9294
-83.4915
-84.0847
-84.7089
-85.3562
-86.0189
-86.6932
-87.38
-88.0704
-88.7568
-89.4321
-90.0792
-90.6682
-91.1797
-91.5961
-91.8828
-91.9778
-91.8127
-91.3093
-90.3962
-89.021
-87.1763
-84.878
-82.1628
-79.0608
-75.5927
-71.7356
-67.3941
-62.3862
-56.5094
-49.6228
-41.754
-33.3284
-25.9666
-32.1397
-32.2732
-32.3992
-32.5161
-32.6281
-32.6963
-32.7433
-32.7655
-32.7517
-32.7367
-32.7048
-32.6628
-32.6108
-32.5618
-32.5247
-32.4859
-32.4394
-32.3956
-32.3708
-32.3408
-32.317
-32.2847
-32.2534
-32.2265
-32.1955
-32.1775
-32.1469
-32.1228
-32.0987
-32.0767
-32.047
-32.0142
-31.9827
-31.9477
-31.9163
-31.8694
-31.8436
-31.8282
-31.7985
-31.7678
-31.7392
-31.7072
-31.6866
-31.6558
-31.6342
-31.6139
-31.5907
-31.5541
-31.5182
-31.4847
-31.4509
-31.4269
-31.3899
-31.3648
-31.3454
-31.3167
-31.287
-31.2642
-31.2375
-31.2234
-31.1921
-31.18
-31.1504
-31.1318
-31.0984
-31.0727
-31.0567
-31.038
-31.0212
-31.0006
-30.9832
-30.9772
-30.9779
-30.993
-31.0142
-31.0502
-31.0984
-31.1676
-31.2562
-31.3738
-31.5373
-31.7679
-32.083
-32.5178
-33.1069
-33.9062
-34.9791
-36.4006
-38.2111
-40.4447
-43.0947
-46.086
-49.3047
-52.6014
-55.8371
-58.8892
-61.6746
-64.1472
-66.2748
-68.0558
-69.4769
-70.5271
-71.1892
-71.5273
-71.5263
-71.236
-70.8281
-70.265
-69.6515
-69.032
-68.4956
-68.0038
-67.6315
-67.4255
-67.3338
-67.356
-67.4781
-67.6825
-67.9051
-68.0945
-68.2753
-68.5097
-68.7989
-69.1826
-69.4817
-69.6375
-69.8161
-70.0576
-70.314
-70.5739
-70.8399
-71.117
-71.3855
-71.6675
-71.994
-72.3143
-72.6435
-72.9616
-73.267
-73.5582
-73.8616
-74.1835
-74.5253
-74.8841
-75.2692
-75.6771
-76.1097
-76.5748
-77.0621
-77.5766
-78.1034
-78.6421
-79.1709
-79.6897
-80.1907
-80.6809
-81.1576
-81.6387
-82.134
-82.6591
-83.2221
-83.8197
-84.4557
-85.1308
-85.8361
-86.566
-87.3293
-88.1166
-88.9207
-89.7316
-90.538
-91.3201
-92.0599
-92.749
-93.3749
-93.8814
-94.1937
-94.223
-93.8876
-93.1134
-91.8755
-90.1875
-88.0896
-85.6272
-82.8443
-79.7445
-76.2482
-72.1497
-67.1854
-61.1504
-54.0418
-46.2409
-39.2497
-29.9815
-30.3978
-30.8082
-31.1847
-31.5278
-31.7969
-32.0203
-32.1943
-32.3115
-32.4005
-32.4561
-32.4925
-32.5183
-32.5163
-32.5041
-32.4852
-32.4769
-32.4598
-32.423
-32.3945
-32.362
-32.3448
-32.3296
-32.3109
-32.295
-32.2699
-32.2536
-32.2286
-32.2053
-32.173
-32.1359
-32.0986
-32.0634
-32.0357
-32.0052
-31.9795
-31.9469
-31.9063
-31.8805
-31.8573
-31.8337
-31.8142
-31.7857
-31.7661
-31.7352
-31.7061
-31.6728
-31.6397
-31.6078
-31.5784
-31.5516
-31.5172
-31.4972
-31.4692
-31.4294
-31.3975
-31.3736
-31.35
-31.3335
-31.3072
-31.2899
-31.2564
-31.2319
-31.1978
-31.1778
-31.1519
-31.1304
-31.1129
-31.093
-31.0773
-31.0652
-31.0595
-31.0712
-31.0902
-31.1192
-31.1521
-31.1975
-31.2581
-31.3409
-31.4551
-31.619
-31.8432
-32.1503
-32.5619
-33.1076
-33.8278
-34.7691
-35.992
-37.5271
-39.4136
-41.6589
-44.2201
-47.0316
-49.9921
-52.991
-55.9206
-58.6884
-61.2317
-63.4965
-65.4619
-67.1073
-68.4243
-69.4023
-70.0696
-70.4571
-70.5336
-70.31
-69.974
-69.5861
-69.1537
-68.7343
-68.3365
-68.0045
-67.7534
-67.6048
-67.5513
-67.5812
-67.6881
-67.8501
-68.0415
-68.2571
-68.4967
-68.7236
-68.9569
-69.2015
-69.4814
-69.7647
-70.0475
-70.3317
-70.5435
-70.7481
-70.9987
-71.2606
-71.528
-71.8298
-72.1639
-72.5067
-72.8238
-73.1353
-73.4166
-73.7058
-74.007
-74.324
-74.656
-75.0152
-75.4025
-75.8164
-76.268
-76.749
-77.2642
-77.7954
-78.3471
-78.8884
-79.4208
-79.9297
-80.4194
-80.8924
-81.3709
-81.8591
-82.3704
-82.9184
-83.5102
-84.1479
-84.8305
-85.5585
-86.3279
-87.1501
-88.0151
-88.9142
-89.8316
-90.7624
-91.7019
-92.6433
-93.5748
-94.5034
-95.3748
-96.1279
-96.6692
-96.9104
-96.7553
-96.1499
-95.0853
-93.5939
-91.7256
-89.5511
-87.1264
-84.4318
-81.2799
-77.3381
-72.266
-66.0066
-58.8389
-52.2407
-27.6213
-28.3279
-29.0459
-29.7004
-30.2824
-30.7711
-31.1765
-31.509
-31.7594
-31.9574
-32.0993
-32.1931
-32.2566
-32.3024
-32.3226
-32.334
-32.325
-32.3208
-32.3213
-32.3087
-32.2932
-32.2696
-32.2485
-32.2309
-32.208
-32.1916
-32.172
-32.156
-32.1334
-32.1159
-32.0903
-32.0554
-32.0198
-31.9827
-31.9493
-31.9075
-31.8794
-31.8575
-31.827
-31.7977
-31.7695
-31.7402
-31.7192
-31.6946
-31.6773
-31.6513
-31.6307
-31.5994
-31.5635
-31.5282
-31.4927
-31.4624
-31.4256
-31.3978
-31.3781
-31.3532
-31.3263
-31.3019
-31.2756
-31.259
-31.2378
-31.2276
-31.2053
-31.1855
-31.1539
-31.1282
-31.1021
-31.0823
-31.0651
-31.0529
-31.038
-31.0284
-31.0279
-31.0478
-31.0798
-31.1265
-31.1832
-31.256
-31.3544
-31.4929
-31.6693
-31.8971
-32.1943
-32.5823
-33.0825
-33.7338
-34.573
-35.6449
-36.9782
-38.6075
-40.5478
-42.7748
-45.2516
-47.9103
-50.6743
-53.4444
-56.1376
-58.6838
-61.0209
-63.1095
-64.9202
-66.4345
-67.6409
-68.5449
-69.1737
-69.5249
-69.651
-69.5627
-69.4272
-69.1229
-68.7883
-68.4594
-68.1644
-67.917
-67.7458
-67.6506
-67.6272
-67.6659
-67.7577
-67.8899
-68.0594
-68.2659
-68.5002
-68.7635
-69.0339
-69.3088
-69.5634
-69.8188
-70.1026
-70.3878
-70.6892
-70.981
-71.2933
-71.5491
-71.8132
-72.0915
-72.4161
-72.7062
-73.0197
-73.2954
-73.5859
-73.8714
-74.1693
-74.4842
-74.8173
-75.176
-75.5609
-75.9848
-76.4441
-76.9464
-77.4714
-78.0337
-78.5927
-79.1388
-79.6559
-80.1575
-80.6258
-81.0997
-81.5709
-82.0636
-82.5932
-83.1721
-83.8011
-84.4792
-85.2184
-86.0087
-86.8674
-87.7819
-88.7498
-89.7505
-90.7862
-91.8594
-92.9807
-94.133
-95.2878
-96.4406
-97.556
-98.5496
-99.3453
-99.8344
-99.9197
-99.5312
-98.6697
-97.3688
-95.7123
-93.8277
-91.8072
-89.5776
-86.7998
-82.9409
-77.7762
-71.4207
-65.2732
-25.0522
-26.1016