/*--------------------------------*- C++ -*----------------------------------*\
| =========                 |                                                 |
| \\      /  F ield         | OpenFOAM: The Open Source CFD Toolbox           |
|  \\    /   O peration     | Version:  4.1                                   |
|   \\  /    A nd           | Web:      www.OpenFOAM.org                      |
|    \\/     M anipulation  |                                                 |
\*---------------------------------------------------------------------------*/
FoamFile
{
    version     2.0;
    format      ascii;
    class       volScalarField;
    location    "1353";
    object      p;
}
// * * * * * * * * * * * * * * * * * * * * * * * * * * * * * * * * * * * * * //

dimensions      [0 2 -2 0 0 0 0];

internalField   nonuniform List<scalar> 
204246
(
134.143
-13.2058
38.2365
15.7165
13.0067
14.7013
5.72271
8.78189
-1.2302
2.96008
-8.53275
-2.93527
-17.2274
-8.66375
-23.1567
-15.5741
-21.739
-31.8388
-17.7376
-32.4886
-17.433
-27.4897
-15.3338
-20.7125
-8.98332
-12.9876
-0.249847
-6.27011
8.16712
0.587829
15.3976
6.77297
20.357
13.0271
21.3225
22.1833
15.7269
29.8718
16.4683
30.5007
18.3362
31.6551
18.6797
33.1373
17.2365
34.2791
17.228
34.079
18.4004
31.7916
20.5802
29.0789
26.1317
18.8709
31.3894
17.331
30.6884
17.3798
30.4202
16.6944
30.908
14.4444
31.2325
13.8339
30.1581
14.7186
26.9867
15.7967
23.8452
19.9012
13.4441
22.6097
10.6628
21.8444
8.39877
20.027
5.74731
18.1723
1.82525
15.1771
-0.806466
10.8345
-3.33621
5.09423
-6.31682
-0.960724
-5.71254
-14.2457
-8.0427
-19.2451
-11.0338
-25.1199
-12.9973
-30.5927
-14.3356
-33.3564
-15.5879
-34.4026
-16.174
-33.1473
-17.4731
-30.4726
-17.1516
-26.9256
-16.4848
-20.8831
-23.2524
-12.7881
-23.7558
-8.59853
-24.3282
-6.08628
-22.5167
-5.35604
-21.2734
-4.46399
-20.46
-3.81698
-19.5406
-3.77537
-17.5156
-5.92
-11.1906
-15.9233
-4.48345
-18.1761
-2.71349
-18.5351
-2.13438
-18.4777
-1.86608
-18.3328
-1.69302
-18.1734
-1.56135
-17.5976
-1.99267
-15.8979
-4.41807
-9.70191
-14.706
-3.21714
-16.9224
-1.55712
-17.1452
-0.825703
-17.0185
-0.359887
-16.6236
0.115511
-15.9998
0.636829
-14.9313
0.936545
-12.4085
-0.591434
-5.2247
-9.35119
2.66283
-9.91367
6.12407
-7.87104
8.54134
-4.21737
11.2052
0.441116
15.0823
6.19386
20.189
13.178
26.4963
22.1559
34.4775
33.7116
43.9669
50.4914
52.729
66.5881
71.1216
84.4321
94.1771
107.551
121.89
136.794
156.731
174.561
202.848
225.506
269.408
298.351
386.084
402.007
609.048
44.442
19.7922
18.8358
20.8972
14.3244
15.0072
9.64163
8.52108
3.92664
2.45614
-2.60776
-4.20442
-9.99373
-11.4308
-15.4136
-19.7921
-16.5947
-27.3836
-23.6789
-27.6636
-23.4309
-26.2471
-21.0947
-20.5306
-15.5778
-12.9829
-7.51342
-5.05316
0.394334
2.38799
7.54149
9.13375
12.7138
15.3443
14.9918
21.2212
17.5077
24.5595
20.7659
25.5238
22.0788
26.7916
22.6927
27.9628
22.7723
28.081
23.2162
27.6482
24.072
26.5389
25.0559
24.6725
27.718
22.1412
26.9781
22.3943
26.2779
21.9849
26.1293
21.2881
26.1998
20.5016
25.4535
20.2598
24.2735
20.3075
22.8271
20.4676
20.3057
22.1711
17.0699
20.2227
15.6259
18.5997
13.8522
16.7133
11.471
14.5574
8.51933
11.4772
5.67625
7.73645
2.87725
2.95836
-0.362017
-3.17493
-1.67159
-9.22903
-8.66434
-14.281
-12.7358
-19.0585
-16.6383
-23.308
-20.0553
-26.1238
-22.2597
-27.6106
-23.4071
-27.3403
-23.5631
-26.2379
-22.5706
-24.014
-21.9341
-19.4109
-22.4372
-16.8492
-20.5801
-14.3411
-18.9693
-12.9663
-17.1464
-11.7706
-16.0045
-10.7032
-15.1432
-10.0408
-14.1202
-10.1249
-12.29
-11.5513
-8.99294
-13.8774
-8.54524
-13.5826
-8.22056
-13.2741
-7.95488
-13.0285
-7.74819
-12.8105
-7.60478
-12.5527
-7.64723
-11.9567
-8.17607
-10.4862
-9.93443
-7.40403
-12.4398
-7.19807
-12.2381
-6.97195
-11.9637
-6.64363
-11.6492
-6.33383
-11.2571
-5.97856
-10.6883
-5.63985
-9.68742
-5.6221
-7.55246
-6.54076
-3.714
-7.89705
-2.23424
-6.23391
-0.432739
-3.91844
1.84639
-1.19071
4.75259
2.2308
8.44792
6.74158
13.183
12.5485
18.5807
20.2913
25.5237
30.0589
33.695
42.4469
46.134
55.2106
61.77
71.2925
80.9754
91.4353
104.472
116.057
133.235
146.049
169.257
182.682
217.937
224.577
299.301
264.74
399.42
17.0311
26.051
21.0692
20.4277
16.4244
15.3542
10.783
10.0336
4.99791
3.63725
-1.36519
-3.40129
-8.5338
-11.1452
-14.8221
-18.944
-20.4725
-25.7149
-24.5519
-27.6387
-25.0151
-26.4484
-22.617
-21.6374
-16.7051
-14.2634
-8.83914
-5.46589
-0.573302
2.80647
6.79341
9.97199
12.5752
15.8506
16.3131
20.4513
19.2596
23.7522
21.3922
25.4223
22.7141
26.9008
23.1555
27.8928
23.3227
28.2055
23.5923
27.9541
24.1256
27.0622
24.9622
25.4563
26.3425
23.5344
26.5926
22.7132
26.4292
22.1213
26.1981
21.4834
25.9687
20.7812
25.4201
20.394
24.4464
20.317
22.818
20.4369
20.6051
20.7573
18.0102
19.9086
16.0312
18.6195
14.102
16.8422
11.8425
14.596
9.24265
11.4385
6.6589
7.40808
3.81787
2.79367
0.610922
-2.57119
-3.48103
-7.96885
-8.4241
-13.007
-13.4455
-18.0265
-17.2407
-22.4741
-20.2953
-25.7427
-22.3831
-27.6031
-23.4767
-27.7862
-23.6513
-26.6418
-23.1152
-23.9612
-22.5376
-20.339
-21.3509
-17.4777
-20.0715
-14.8507
-18.6262
-12.9745
-17.0742
-11.6113
-15.8959
-10.5129
-15.0006
-9.85709
-13.9405
-9.86993
-12.3699
-10.7995
-10.1747
-12.3905
-8.97832
-12.9158
-8.22206
-12.966
-7.8272
-12.8432
-7.60444
-12.6661
-7.48283
-12.4085
-7.52806
-11.8736
-7.99145
-10.727
-9.29525
-8.7721
-11.1167
-7.74779
-11.7349
-7.06116
-11.7829
-6.61445
-11.5698
-6.25282
-11.1998
-5.88598
-10.621
-5.5502
-9.63922
-5.47168
-7.80848
-5.99646
-4.92818
-6.66546
-2.75079
-5.84014
-0.477449
-3.99125
1.76342
-1.08514
4.33013
2.80133
7.80881
7.57329
12.4519
13.5356
18.4814
20.9915
25.9833
30.5056
35.5949
42.1148
47.1342
56.1402
62.7496
72.9847
82.654
93.9117
107.459
119.984
138.565
152.442
178.098
192.776
232.482
240.403
316.563
295.293
384.073
3.39394
18.3893
14.7807
17.8765
15.0737
15.483
11.856
11.0497
7.16959
5.47905
1.1696
-1.20609
-5.72964
-9.24758
-12.5965
-17.4904
-18.916
-24.2748
-25.8219
-28.142
-28.0133
-28.3489
-26.0563
-24.6643
-20.6524
-17.5468
-12.7551
-8.80001
-4.2454
0.0303189
3.58339
7.88676
10.0358
14.2408
14.5464
19.1249
18.4593
21.7971
21.8608
23.7334
23.39
25.0692
24.2495
25.8994
24.711
26.0723
25.128
25.8587
25.5808
25.327
26.0513
24.5107
26.571
24.062
25.7639
24.0178
25.2002
23.6635
24.8729
23.2066
24.5379
22.8185
23.8318
22.5658
22.9619
22.3883
21.8925
22.0671
20.5558
21.8425
19.3867
20.0658
18.1345
18.3497
16.5292
16.5422
14.5273
14.3364
12.2323
11.414
9.49145
7.9926
6.27047
3.99268
2.72124
-0.762479
-1.30007
-5.72827
-6.91619
-10.7352
-12.3375
-15.6399
-17.5305
-20.0665
-21.8425
-23.5288
-24.8371
-25.7559
-26.2835
-26.5073
-26.2218
-25.999
-25.3334
-23.956
-24.0106
-21.3597
-21.919
-19.1526
-19.3812
-17.1016
-17.3915
-15.4766
-15.7193
-14.057
-14.5191
-12.8981
-13.5691
-12.2289
-12.5538
-12.108
-11.3593
-12.3897
-10.0978
-12.4244
-10.1123
-12.0186
-10.0408
-11.6432
-9.89254
-11.3401
-9.73304
-11.0748
-9.62498
-10.7692
-9.66634
-10.2694
-9.98293
-9.41422
-10.6618
-8.44526
-10.9262
-8.693
-10.6668
-8.75624
-10.3788
-8.64542
-10.0746
-8.45025
-9.72471
-8.20189
-9.23281
-7.96197
-8.43252
-7.90568
-7.03056
-7.88364
-5.53462
-7.18497
-4.76448
-5.77874
-3.49534
-3.93714
-1.62514
-1.7227
0.709984
1.11584
3.82253
4.73732
7.85258
9.39196
12.7765
15.572
19.0359
23.2922
26.8651
33.0735
37.211
44.1459
50.2622
57.5958
66.2595
74.0871
85.6738
93.983
109.193
117.978
138.544
145.633
178.681
173.564
231.052
217.917
289.013
4.80382
19.1616
14.8758
17.9792
16.1965
15.9765
13.2003
12.2781
8.6393
7.02497
2.86321
0.313765
-3.94964
-7.77533
-11.5519
-16.3173
-19.3879
-23.7712
-26.1025
-29.1342
-29.5133
-30.2945
-28.4903
-26.9817
-23.0109
-19.6904
-14.4683
-10.1996
-5.1343
-0.707452
3.41849
7.64992
10.3258
14.3334
15.5153
18.9922
19.5191
22.224
22.1506
24.1281
23.9313
25.4222
24.7981
26.2272
25.3544
26.407
25.6604
26.2811
25.8886
25.8658
26.0768
25.2054
26.0819
24.8996
25.6241
24.4426
25.2858
23.9201
24.9356
23.4132
24.4916
22.9834
23.8707
22.6269
23.047
22.4065
21.9581
21.9854
20.7686
21.1815
19.7003
20.1234
18.4833
18.5476
16.9181
16.7925
15.0325
14.6328
12.8128
11.9135
10.17
8.55485
6.9578
4.66269
3.21761
0.161527
-1.18019
-4.59796
-6.21255
-9.79018
-11.5693
-14.8511
-16.7772
-19.4088
-21.3497
-23.1827
-24.7255
-25.8675
-26.513
-27.0502
-26.8813
-26.5584
-26.1282
-24.6273
-24.3519
-22.158
-21.9456
-19.5887
-19.354
-17.2813
-17.1138
-15.4373
-15.4375
-13.8791
-14.2023
-12.6775
-13.2057
-11.9293
-12.2109
-11.6744
-11.1499
-11.6143
-10.3996
-11.3838
-10.2049
-11.2439
-9.92968
-11.1163
-9.7036
-10.9563
-9.54322
-10.7674
-9.45845
-10.5191
-9.50122
-10.1293
-9.7402
-9.5368
-10.1398
-9.03276
-10.1711
-9.02609
-10.1469
-8.83935
-10.0578
-8.60853
-9.85169
-8.35656
-9.54187
-8.08337
-9.06034
-7.82363
-8.29359
-7.74466
-7.19584
-7.35409
-5.94084
-6.63475
-4.92857
-5.4101
-3.511
-3.72596
-1.62871
-1.43288
0.892294
1.47959
4.16565
5.20922
8.32817
10.081
13.5487
16.2916
20.1696
24.1868
28.5022
33.9376
39.1619
45.8923
52.7677
60.51
69.7949
78.4273
90.8771
100.248
116.685
126.339
148.847
156.594
190.948
187.884
237.172
225.812
270.909
3.34111
15.2279
12.1771
16.1359
15.0172
15.7027
13.6215
13.2252
10.2305
8.72099
5.11813
2.44751
-1.53148
-5.48774
-9.47765
-14.4713
-18.2104
-23.3459
-26.6223
-30.2619
-31.9756
-33.3013
-32.3941
-31.1695
-27.6771
-24.1413
-19.1225
-14.2269
-9.06916
-3.80908
0.429546
5.42053
8.25779
12.7311
14.1752
17.9331
18.5875
21.3016
21.7937
23.4051
23.8024
24.657
24.9043
25.3073
25.4786
25.5311
25.7992
25.4804
25.9992
25.2573
26.0979
25.0018
25.9767
24.9346
25.4044
24.8406
24.8945
24.4985
24.5429
24.1665
24.1144
23.8682
23.559
23.5176
22.9335
23.1377
22.2462
22.6777
21.4013
21.9425
20.5007
20.751
19.4701
19.3465
18.1039
17.6723
16.4268
15.6248
14.3457
13.1214
11.8021
10.0778
8.70532
6.37451
5.04992
2.00669
0.657922
-2.9061
-4.59342
-8.16084
-10.2622
-13.591
-15.96
-18.7914
-21.1181
-23.199
-25.1751
-26.3694
-27.687
-27.9334
-28.3897
-27.6998
-27.6012
-25.9795
-25.6214
-23.4013
-22.8442
-20.7185
-19.9535
-18.2314
-17.5325
-16.26
-15.6301
-14.7019
-14.2646
-13.5885
-13.1891
-12.9018
-12.3055
-12.5248
-11.5053
-12.3253
-10.9598
-11.7936
-10.8773
-11.3925
-10.7878
-11.0445
-10.6513
-10.7376
-10.5078
-10.4581
-10.4004
-10.1673
-10.3796
-9.81918
-10.4478
-9.43446
-10.5552
-9.21535
-10.2946
-9.44571
-10.0446
-9.52606
-9.82971
-9.49129
-9.59113
-9.37453
-9.32153
-9.20761
-8.95801
-8.96088
-8.43312
-8.76306
-7.69142
-8.37854
-7.01723
-7.48398
-6.29834
-6.48082
-5.26386
-5.14706
-3.86185
-3.44206
-1.94499
-1.2728
0.560834
1.55887
3.75831
5.31986
7.82561
10.1897
12.9869
16.3788
19.612
24.0601
28.2005
33.322
39.0225
44.6009
52.4485
58.3942
68.8679
75.1312
88.9167
94.8878
113.725
116.949
147.376
140.926
182.107
179.598
220.191
7.4591
17.2224
13.8502
17.1604
15.9206
16.6321
14.9151
14.5236
11.9371
10.4973
7.20742
4.58358
0.756402
-3.2021
-7.43999
-12.4552
-16.983
-22.2142
-26.5674
-30.9928
-33.673
-35.9288
-35.7363
-34.9104
-31.5034
-27.6005
-22.036
-16.6124
-10.9046
-5.23032
-0.340836
4.85682
8.33087
12.774
14.8391
18.2021
19.4485
21.8305
22.4739
24.0791
24.4794
25.4373
25.6232
26.0929
26.2621
26.2715
26.5161
26.174
26.5622
25.9015
26.4245
25.6101
26.0859
25.4442
25.6137
25.1563
25.1166
24.7052
24.6505
24.3018
24.1678
23.9371
23.6275
23.5562
22.9996
23.1184
22.2609
22.5803
21.482
21.8381
20.731
20.8488
19.7562
19.5915
18.5068
18.0466
16.9522
16.1523
14.9947
13.8194
12.5614
10.9372
9.59791
7.40784
5.99297
3.259
1.62513
-1.43614
-3.4801
-6.72984
-9.09201
-12.3104
-14.8791
-17.798
-20.3517
-22.7043
-24.9
-26.4385
-27.9887
-28.4734
-29.2304
-28.6807
-28.6726
-27.1631
-26.5892
-24.3638
-23.5352
-21.141
-20.2916
-18.1785
-17.5297
-15.8957
-15.4662
-14.3105
-13.9245
-13.2263
-12.746
-12.4501
-11.8084
-11.8956
-11.0303
-11.4603
-10.566
-10.986
-10.5646
-10.6668
-10.4746
-10.4691
-10.356
-10.2903
-10.2472
-10.1062
-10.1727
-9.90664
-10.1544
-9.67474
-10.1945
-9.41287
-10.1766
-9.31736
-9.9005
-9.48681
-9.67976
-9.47608
-9.53298
-9.37153
-9.35373
-9.19699
-9.13569
-8.98688
-8.82915
-8.76589
-8.30662
-8.46644
-7.64992
-7.99943
-6.90768
-7.34038
-6.1152
-6.29211
-5.04206
-4.89586
-3.53483
-3.10944
-1.49003
-0.823765
1.17945
2.14115
4.51554
6.06029
8.76853
11.0947
14.2168
17.4559
21.183
25.3773
30.1282
35.1437
41.4885
47.1465
55.5943
61.793
72.8838
79.3924
93.8409
99.9485
119.584
121.8
149.744
146.394
177.605
173.763
202.565
7.25961
16.4563
12.9829
16.9774
15.6774
16.7952
15.4737
15.4773
13.3276
12.164
9.28012
6.81795
3.20493
-0.668285
-5.06318
-10.2137
-15.3332
-21.2054
-26.4507
-31.8966
-35.9727
-39.3948
-40.5151
-40.3353
-37.7105
-33.9174
-28.3517
-22.0381
-15.7306
-9.00837
-3.61233
2.41086
6.27229
11.307
13.7109
17.3563
18.7486
21.3237
22.1092
23.5547
24.1722
24.9729
25.3285
25.5902
25.9463
25.8016
26.1857
25.7402
26.2986
25.5464
26.2443
25.3292
26.0016
25.293
25.5174
25.1308
25.1454
24.879
24.7065
24.6256
24.2388
24.3467
23.758
23.9967
23.2776
23.6151
22.7071
23.1558
22.0518
22.4374
21.3824
21.4859
20.5565
20.3425
19.444
18.9439
18.0304
17.2253
16.2448
15.066
13.9991
12.3617
11.1837
9.02355
7.67341
4.98884
3.34325
0.217287
-1.82999
-5.20855
-7.69553
-11.1274
-13.937
-17.1771
-20.0354
-22.7986
-25.3441
-27.3073
-29.1684
-30.0365
-30.9207
-30.5279
-30.4846
-28.9273
-28.2103
-25.9201
-24.7588
-22.3585
-21.1107
-19.0612
-17.9959
-16.5313
-15.7083
-14.8023
-14.1551
-13.69
-13.0958
-12.9878
-12.3214
-12.526
-11.7271
-12.133
-11.3579
-11.5822
-11.2098
-11.1861
-11.0768
-10.8516
-10.9324
-10.5347
-10.7973
-10.2532
-10.6668
-10.006
-10.5786
-9.77883
-10.5488
-9.54628
-10.4519
-9.56331
-10.0909
-9.80606
-9.83885
-9.87178
-9.68684
-9.87741
-9.50494
-9.78611
-9.35172
-9.63071
-9.12813
-9.46542
-8.77155
-9.26062
-8.32922
-8.90792
-7.87305
-8.20651
-7.42201
-7.42759
-6.66307
-6.48415
-5.56764
-5.27198
-4.10979
-3.64325
-2.22178
-1.43796
0.227326
1.4743
3.42047
5.25704
7.57318
10.0882
12.9743
16.1389
19.9879
23.6641
28.8901
32.9552
40.0637
44.4089
53.865
58.3828
70.8509
74.6734
92.358
93.0594
117.656
115.741
144.19
144.098
171.118
10.9767
18.5445
14.9957
18.5551
17.1298
18.1001
16.9948
16.9609
15.1942
14.1138
11.6202
9.32989
6.00973
2.31568
-2.04178
-7.17254
-12.6971
-18.9804
-25.2872
-31.8518
-37.4121
-42.2618
-44.8143
-45.7738
-43.7411
-39.8863
-33.7516
-26.5156
-19.4168
-11.7728
-5.40826
1.27043
5.85112
11.1834
14.2501
17.7849
19.6166
21.9238
23.189
24.3516
25.2034
25.9252
26.3074
26.5955
26.9225
26.8443
27.0938
26.6547
27.0398
26.3583
26.7149
26.0339
26.2653
25.7918
25.7928
25.4804
25.3214
25.1102
24.8145
24.7533
24.3096
24.3992
23.8042
24.0164
23.2735
23.5934
22.7194
23.1082
22.1686
22.4358
21.6139
21.5989
20.8675
20.6078
19.872
19.3721
18.6041
17.8288
16.9976
15.8801
14.9397
13.4196
12.3198
10.3378
8.99178
6.5528
4.8226
2.00057
-0.23476
-3.36237
-6.07774
-9.39322
-12.4765
-15.7661
-18.9668
-21.9349
-24.8795
-27.1458
-29.4418
-30.6415
-31.9879
-31.8989
-32.2032
-30.8305
-30.0633
-27.5772
-26.1821
-23.3093
-21.7961
-19.2964
-18.0982
-16.34
-15.5117
-14.4456
-13.7746
-13.237
-12.5547
-12.3843
-11.5911
-11.7551
-10.8553
-11.2584
-10.52
-10.7784
-10.5787
-10.4751
-10.569
-10.3092
-10.5413
-10.1378
-10.467
-9.96315
-10.3856
-9.81563
-10.3227
-9.64068
-10.2898
-9.46546
-10.1614
-9.51155
-9.83635
-9.70401
-9.60655
-9.72385
-9.47407
-9.69325
-9.3252
-9.58609
-9.17631
-9.44404
-8.95193
-9.25161
-8.62943
-9.01111
-8.20124
-8.63651
-7.76494
-8.02179
-7.21083
-7.25412
-6.37138
-6.25472
-5.2494
-4.93171
-3.74472
-3.21372
-1.75871
-0.969005
0.767954
1.99569
4.04048
5.82353
8.29306
10.6888
13.7963
16.8079
20.886
24.4094
29.9353
33.8155
41.1882
45.3354
54.9562
59.1624
71.746
74.9609
91.8904
92.2133
113.905
111.549
134.325
133.174
154.598
11.233
18.8446
15.3123
18.8209
17.4959
18.6445
17.7829
17.9425
16.5083
15.7251
13.5714
11.5877
8.51764
5.09922
0.786458
-4.2657
-10.1123
-16.7838
-23.9187
-31.5147
-38.8047
-45.5385
-50.3325
-52.9528
-52.0197
-48.3973
-42.4756
-34.1643
-25.8634
-16.9685
-9.59425
-1.80938
3.53109
9.60795
13.3025
17.2157
19.1874
21.7458
22.9107
23.9473
24.9149
25.4338
26.0052
26.0335
26.4761
26.2721
26.6265
26.1468
26.6173
25.9517
26.4875
25.6887
26.2015
25.5913
25.7325
25.4288
25.3528
25.2092
24.9285
24.9603
24.492
24.6893
24.0617
24.3717
23.618
24.0182
23.1266
23.5708
22.6455
22.9261
22.1697
22.1501
21.5133
21.2557
20.6309
20.1423
19.5006
18.7433
18.0468
16.9635
16.1548
14.6861
13.7
11.7979
10.5305
8.18337
6.49745
3.70467
1.50582
-1.69272
-4.43517
-7.94953
-11.1673
-14.8136
-18.2846
-21.7707
-25.1174
-27.9912
-30.7098
-32.444
-34.0364
-34.2113
-34.4137
-33.005
-32.0435
-29.4975
-27.6795
-24.6906
-22.6674
-20.0043
-18.3454
-16.5282
-15.4255
-14.5187
-13.7272
-13.4662
-12.8247
-12.8777
-12.2264
-12.4374
-11.7633
-12.0287
-11.4052
-11.487
-11.2428
-11.1031
-11.1085
-10.7969
-10.9786
-10.512
-10.8218
-10.221
-10.6761
-9.98088
-10.5738
-9.77912
-10.5209
-9.62692
-10.3511
-9.72127
-10.0219
-9.94285
-9.79923
-10.0137
-9.67613
-10.0196
-9.55914
-9.98278
-9.44643
-9.8847
-9.31019
-9.77361
-9.08421
-9.61183
-8.83457
-9.30069
-8.6183
-8.8123
-8.2515
-8.31218
-7.70013
-7.6502
-6.94988
-6.76898
-5.92182
-5.58492
-4.53343
-3.97378
-2.71529
-1.83061
-0.300151
0.987432
2.90777
4.6265
7.12926
9.2565
12.6538
15.1247
19.767
22.4952
28.7963
31.699
40.0883
42.9864
54.2192
56.3585
71.9119
71.6926
91.1856
91.6049
112.017
112.514
132.551
14.0243
20.7372
17.5176
20.5357
19.2351
20.2796
19.4969
19.6128
18.4525
17.7741
16.0129
14.2965
11.6563
8.56792
4.59556
-0.230162
-6.05514
-12.9861
-20.9431
-29.9227
-39.0975
-48.2112
-55.5761
-60.5652
-61.9255
-59.1105
-52.6753
-42.8118
-32.8016
-21.9882
-13.1063
-4.05945
2.29262
8.95225
13.5989
17.7369
20.2369
22.5199
24.0978
25.1037
26.0883
26.7789
27.2929
27.3722
27.7973
27.5281
27.7792
27.2684
27.5183
26.8145
27.1368
26.3745
26.5741
26.0572
26.0026
25.7918
25.4948
25.4354
24.9929
25.0807
24.5134
24.728
24.0578
24.378
23.6014
24.0121
23.1509
23.5588
22.7737
22.957
22.4114
22.2879
21.838
21.5367
21.0858
20.5908
20.1209
19.3927
18.873
17.8634
17.2233
15.88
15.0346
13.3076
12.1295
9.98508
8.33575
5.75373
3.50564
0.480101
-2.40132
-5.83971
-9.30907
-13.0102
-16.8595
-20.5569
-24.4098
-27.655
-31.0066
-33.238
-35.5355
-36.2352
-37.1005
-36.0924
-35.3957
-32.5809
-30.5598
-26.8538
-24.3385
-20.9941
-18.9032
-16.7654
-15.3289
-14.3694
-13.3073
-13.0163
-12.1241
-12.1365
-11.2133
-11.4644
-10.5415
-10.9859
-10.3415
-10.5876
-10.4807
-10.3577
-10.5701
-10.2604
-10.6398
-10.1185
-10.6162
-9.93946
-10.5075
-9.80567
-10.4276
-9.64576
-10.3465
-9.53587
-10.1695
-9.61433
-9.85432
-9.83047
-9.62197
-9.89383
-9.51792
-9.88813
-9.41982
-9.85469
-9.29572
-9.7727
-9.1517
-9.66202
-8.97438
-9.48869
-8.74889
-9.18565
-8.52581
-8.70453
-8.17143
-8.18848
-7.62523
-7.51159
-6.87878
-6.62972
-5.86253
-5.47685
-4.51419
-3.933
-2.74725
-1.88389
-0.419874
0.796662
2.66503
4.24598
6.72738
8.64291
12.0287
14.1843
18.8476
21.1851
27.4355
29.8987
38.1253
40.4173
51.3927
52.4538
66.9846
66.7906
83.1714
83.1034
100.286
100.443
117.432
14.7768
20.9845
17.7739
21.1244
19.5927
21.013
20.1976
20.5219
19.5658
19.1542
17.6553
16.2725
13.9454
11.2693
7.58935
3.12206
-2.60814
-9.45009
-17.6734
-27.2189
-38.1853
-49.6191
-60.4651
-69.0316
-73.4505
-72.4537
-65.954
-54.9839
-43.0828
-30.2947
-19.4327
-8.55766
-0.736898
6.88803
12.5397
17.4762
20.299
22.4375
24.1147
24.8368
25.7582
26.3269
26.7489
26.6742
27.156
26.8256
27.1943
26.6444
27.0786
26.3857
26.8456
26.0855
26.4868
25.8994
25.9629
25.7624
25.5464
25.5571
25.1226
25.2903
24.7099
25.0048
24.3091
24.6918
23.9074
24.3649
23.5025
23.9106
23.1788
23.3305
22.8629
22.7291
22.3319
22.0467
21.6695
21.1944
20.8153
20.117
19.6927
18.7413
18.1963
16.9442
16.1936
14.5962
13.5156
11.5275
9.97057
7.53653
5.37746
2.4289
-0.403179
-3.88105
-7.39655
-11.3303
-15.3909
-19.5619
-23.8418
-27.7672
-31.6929
-34.666
-37.4889
-38.7251
-39.7463
-38.7252
-37.7821
-34.9393
-32.3897
-28.4704
-25.2008
-21.4289
-18.6199
-16.1653
-14.5456
-13.6959
-12.7892
-12.8041
-12.3432
-12.6219
-12.0742
-12.3482
-11.6188
-11.8851
-11.2612
-11.349
-11.1173
-10.9489
-11.0323
-10.6922
-10.9752
-10.4648
-10.8323
-10.1671
-10.6496
-9.94081
-10.5392
-9.77008
-10.4625
-9.64947
-10.2945
-9.74589
-9.98238
-9.98172
-9.76833
-10.0731
-9.67944
-10.0969
-9.58332
-10.1145
-9.5082
-10.0641
-9.42687
-10.0131
-9.30944
-9.9072
-9.19858
-9.69327
-9.13504
-9.32551
-8.899
-8.99602
-8.53371
-8.57056
-8.03962
-7.9886
-7.36077
-7.21311
-6.40983
-6.12667
-5.16073
-4.63665
-3.45086
-2.66785
-1.1098
-0.0862348
2.01105
3.27396
6.11909
7.5753
11.517
13.0736
18.4647
20.0082
27.3096
28.6549
38.5753
39.0863
51.5658
52.651
66.8484
68.3663
83.5192
84.6543
100.513
17.0623
23.5015
19.5884
23.1457
21.1403
22.7214
21.7519
22.0916
21.3341
21.0182
19.9205
18.8187
17.0209
14.7951
11.746
7.82697
2.63609
-4.00609
-12.5707
-22.9304
-35.2165
-49.3786
-64.2715
-77.692
-86.9874
-89.7845
-85.1968
-71.0848
-55.6263
-39.3594
-26.0518
-13.2032
-3.52574
4.80419
11.9634
17.4383
22.0345
23.2091
25.8185
26.3579
27.2623
28.0982
28.2954
28.4878
28.7565
28.386
28.5818
27.8914
28.1222
27.2811
27.5795
26.728
26.9395
26.2771
26.2347
26.0065
25.6426
25.7246
25.1491
25.37
24.6979
25.0154
24.283
24.6992
23.8667
24.3651
23.5216
23.9408
23.2553
23.4053
23.0587
22.8867
22.6379
22.3226
22.1104
21.6276
21.4231
20.7531
20.5079
19.6327
19.2705
18.1415
17.5629
16.1304
15.1966
13.3943
11.9512
9.68953
7.59558
4.7754
1.906
-1.55201
-5.26223
-9.31633
-13.7383
-18.1945
-23.0333
-27.4451
-32.1325
-35.7691
-39.5268
-41.5289
-43.5878
-43.2893
-43.2054
-40.3106
-37.7399
-32.9062
-28.8413
-23.8852
-20.1116
-16.9143
-14.4898
-13.6677
-12.1219
-12.0903
-11.1766
-11.4838
-10.545
-10.9719
-10.0454
-10.5551
-10.0613
-10.3718
-10.2884
-10.1601
-10.4935
-10.2267
-10.7602
-10.1383
-10.7672
-9.95838
-10.6248
-9.77475
-10.494
-9.64176
-10.3733
-9.53834
-10.1946
-9.63065
-9.87921
-9.8811
-9.66505
-9.98729
-9.5783
-10.0306
-9.4952
-10.0666
-9.40007
-10.0628
-9.29472
-9.99305
-9.24184
-9.90599
-9.14494
-9.70553
-9.10197
-9.31134
-8.96691
-8.97676
-8.65911
-8.56095
-8.23943
-8.03474
-7.64387
-7.35139
-6.81542
-6.44011
-5.70721
-5.18855
-4.20427
-3.50168
-2.14968
-1.26596
0.630007
1.64413
4.36931
5.3546
9.16767
10.2134
15.3642
16.386
23.0788
23.9627
32.7045
33.6231
44.0555
45.1671
57.0444
58.3642
71.5018
72.5935
86.6955
17.0348
24.4416
19.9803
23.8751
21.7118
23.4891
22.5109
23.0129
22.3619
22.195
21.292
20.4562
18.9508
17.1367
14.5108
11.177
6.58686
0.72843
-7.20401
-17.3179
-30.5739
-46.7478
-65.6603
-84.0088
-99.3892
-108.842
-108.184
-94.3826
-74.4504
-53.8155
-36.36
-20.4281
-7.82211
1.88052
9.79249
17.9312
21.386
23.9887
25.4374
26.118
26.6126
27.4228
27.5482
27.4839
28.0825
27.4023
27.9933
27.1936
27.7149
26.843
27.3478
26.5036
26.8462
26.2483
26.2385
26.1204
25.7147
25.9099
25.2895
25.6109
24.9079
25.3112
24.4982
25.0246
24.1146
24.7055
23.7761
24.2825
23.5534
23.7277
23.4001
23.226
23.0301
22.7154
22.5806
22.1027
21.9867
21.3424
21.1811
20.3688
20.0987
19.0769
18.6048
17.3271
16.5184
14.917
13.6234
11.6061
9.65545
7.06387
4.32639
1.03092
-2.59457
-6.65447
-11.1638
-15.8939
-21.0714
-26.0729
-31.4323
-35.9587
-40.5894
-43.4973
-46.1948
-46.356
-46.1147
-43.3139
-40.1868
-35.2342
-30.1437
-24.579
-19.4224
-15.6127
-12.8029
-11.9772
-10.9804
-11.4707
-11.5192
-12.378
-12.0665
-12.3909
-11.3916
-11.5728
-10.9973
-11.1595
-10.9594
-10.6065
-10.8083
-10.4411
-11.0004
-10.4645
-10.9065
-10.1206
-10.6351
-9.89286
-10.515
-9.78406
-10.4468
-9.63114
-10.2712
-9.70817
-9.95107
-9.96277
-9.74142
-10.0942
-9.66956
-10.1516
-9.60601
-10.2152
-9.52277
-10.2425
-9.48246
-10.1896
-9.45281
-10.1718
-9.43893
-10.0653
-9.4957
-9.72564
-9.45661
-9.49601
-9.26093
-9.23088
-9.00431
-8.89425
-8.63745
-8.48227
-8.04473
-7.86601
-7.27734
-7.01603
-6.20703
-5.86766
-4.67227
-4.31332
-2.60198
-2.24868
0.165538
0.578474
3.75396
4.21128
8.55312
9.01321
14.8507
15.2837
22.8202
23.4981
32.6693
33.8272
44.3831
45.956
57.8397
59.115
72.5909
18.8935
26.5142
21.5863
25.5587
23.0683
24.8913
23.7373
24.2883
23.7248
23.5791
22.9911
22.3536
21.2952
19.8646
17.8452
15.1169
11.3134
6.27965
-0.760665
-10.1079
-23.1439
-40.414
-62.1352
-85.3445
-108.531
-127.29
-136.191
-119.831
-96.2196
-69.3462
-47.7916
-29.7094
-13.9774
-2.65011
6.6905
15.3001
22.1083
24.99
28.1274
28.1984
28.4333
29.4602
29.7703
29.5766
30.0465
29.1938
29.4583
28.5472
28.7457
27.682
28.002
27.0937
27.2526
26.5202
26.3807
26.2874
25.7634
25.976
25.2822
25.6063
24.847
25.3204
24.4071
25.049
24.0088
24.738
23.7149
24.3217
23.5525
23.8223
23.489
23.3461
23.2544
22.9172
22.9213
22.4354
22.4612
21.8536
21.8359
21.098
20.9835
20.0847
19.7726
18.6686
18.0216
16.6339
15.4991
13.7177
11.9318
9.5507
6.92711
3.74492
0.0938183
-4.05171
-8.82255
-13.8963
-19.6974
-25.3787
-31.6578
-37.0815
-42.9242
-46.886
-51.0697
-52.3462
-53.7225
-51.4093
-48.7101
-42.8303
-36.9012
-29.4349
-22.5338
-17.1299
-12.4594
-11.8885
-9.70977
-9.7249
-9.15291
-10.1302
-9.57261
-10.628
-9.58467
-9.99437
-9.56518
-10.2131
-10.1244
-9.91219
-10.2599
-10.0368
-10.8865
-10.1788
-11.0893
-9.98652
-10.7582
-9.6947
-10.5136
-9.60658
-10.3811
-9.49607
-10.2145
-9.57972
-9.89177
-9.86442
-9.67269
-10.0205
-9.6
-10.1135
-9.53852
-10.2159
-9.46757
-10.2608
-9.43672
-10.2116
-9.42217
-10.198
-9.42039
-10.1506
-9.50716
-9.79726
-9.56781
-9.56117
-9.4199
-9.32632
-9.25172
-9.06838
-8.99015
-8.75259
-8.5517
-8.3247
-7.99045
-7.71428
-7.18016
-6.82395
-5.94425
-5.59229
-4.2013
-3.94052
-1.84498
-1.67178
1.19769
1.30153
5.28258
5.33275
10.3452
10.4033
16.9953
17.056
25.2644
25.3876
34.9775
35.4001
46.4239
46.7786
59.5868
18.6591
27.4287
21.8415
26.2313
23.542
25.6503
24.341
25.0564
24.456
24.4192
23.9004
23.4262
22.5738
21.4578
19.8404
17.6853
14.612
10.5153
4.59008
-3.5254
-15.296
-31.6502
-53.7311
-79.2444
-107.718
-135.981
-156.923
-153.705
-123.964
-91.5176
-61.2886
-39.0901
-19.0424
-6.91509
4.47445
13.0828
20.1992
25.8149
25.5788
28.6111
27.2828
27.6469
27.8947
28.0717
28.9226
28.3903
28.8614
27.8741
28.4213
27.3802
27.7925
27.0367
27.2233
26.6469
26.4674
26.4589
25.8509
26.2265
25.4116
25.8975
25.033
25.6262
24.6172
25.3597
24.2184
25.0414
23.9179
24.6064
23.7627
24.109
23.7189
23.56
23.5624
23.1817
23.2829
22.778
22.8917
22.2965
22.3465
21.6655
21.627
20.8289
20.6195
19.6652
19.1463
17.962
16.989
15.4651
13.8873
11.8005
9.40604
6.50781
3.07808
-0.856639
-5.5228
-10.6127
-16.4787
-22.4839
-29.286
-35.5227
-42.3813
-47.5138
-52.8243
-55.1779
-57.3587
-55.8687
-53.1216
-47.6249
-40.3568
-32.2267
-22.4695
-15.2857
-9.33868
-8.32718
-8.01667
-8.96523
-9.95268
-12.0306
-12.7533
-12.4398
-11.34
-10.8579
-10.3956
-11.0654
-10.995
-10.1462
-10.2401
-9.73146
-10.9886
-10.714
-11.1561
-10.2132
-10.6121
-9.83458
-10.5097
-9.80807
-10.5051
-9.59892
-10.2879
-9.61696
-9.91682
-9.9358
-9.69697
-10.099
-9.6191
-10.2216
-9.56122
-10.3313
-9.50721
-10.398
-9.49437
-10.3662
-9.52511
-10.3496
-9.56799
-10.3916
-9.75556
-10.089
-9.89811
-9.86321
-9.81851
-9.71686
-9.75145
-9.58821
-9.68475
-9.48262
-9.37023
-9.19638
-9.05634
-8.8333
-8.61482
-8.34835
-7.80398
-7.60541
-6.56833
-6.5906
-4.85997
-5.07989
-2.82612
-3.11529
0.0655781
-0.158612
3.73495
3.56944
8.87505
8.84611
15.7023
16.1949
23.9866
24.9103
34.3733
34.9453
46.9359
20.3995
29.136
23.0477
27.504
24.4609
26.5741
25.1596
25.8162
25.3054
25.1899
24.9061
24.4842
23.9342
23.0285
21.824
20.1221
17.6879
14.4753
9.62698
3.11086
-6.90814
-20.8317
-41.1497
-65.8995
-95.838
-128.044
-157.224
-162.818
-141.898
-109.983
-77.5712
-52.0371
-28.859
-13.0724
-2.62401
9.56734
17.8308
26.7581
26.7819
30.2856
29.8257
30.1787
30.8148
30.3344
30.8393
29.983
30.4161
29.1522
29.2323
28.1069
28.3222
27.4398
27.5035
26.8598
26.543
26.5859
25.8689
26.2157
25.3872
25.8519
24.9498
25.631
24.5104
25.3969
24.1192
25.0723
23.8726
24.6524
23.7669
24.1892
23.806
23.658
23.7621
23.3094
23.5509
23.0008
23.2858
22.6571
22.8693
22.2132
22.3215
21.6173
21.5478
20.7561
20.3853
19.4223
18.617
17.3629
15.9967
14.2062
12.051
9.40506
6.15799
2.36117
-2.27852
-7.44631
-13.7028
-20.0851
-27.8034
-34.9578
-43.3004
-49.638
-56.8195
-60.6045
-65.043
-65.0838
-63.4745
-58.1702
-50.9577
-41.515
-30.2713
-19.7162
-8.94477
-8.37076
-5.51176
-4.67085
-4.75905
-6.86349
-8.49363
-12.3242
-9.685
-9.67289
-8.45428
-9.63782
-10.6459
-10.0601
-10.1265
-9.12057
-10.4694
-10.2819
-11.9078
-10.2854
-10.938
-9.5385
-10.3626
-9.52251
-10.3836
-9.49624
-10.2499
-9.52201
-9.84112
-9.79106
-9.67652
-9.99516
-9.58299
-10.1492
-9.53735
-10.2957
-9.52457
-10.3838
-9.5277
-10.3766
-9.53024
-10.3564
-9.54912
-10.4552
-9.76285
-10.2497
-9.94168
-9.96406
-9.93241
-9.78873
-9.90848
-9.71519
-9.94471
-9.68498
-9.7736
-9.54911
-9.63328
-9.41012
-9.42485
-9.14113
-8.90397
-8.64816
-7.99069
-8.00396
-6.62843
-6.93719
-5.01795
-5.74848
-2.79519
-3.38762
-0.124166
-0.935205
3.81344
2.6526
8.97291
8.03635
15.3478
14.4585
23.2869
22.2792
34.2814
19.926
30.2013
23.3222
28.1048
24.9056
27.2997
25.6085
26.4867
25.848
25.7656
25.4782
25.1027
24.6444
23.914
22.9191
21.5908
19.6052
17.0935
13.1595
8.02833
0.00800104
-10.9439
-27.3853
-47.9194
-73.5351
-101.082
-130.654
-146.913
-141.502
-113.078
-86.1734
-57.5282
-34.4657
-15.7418
-6.83019
5.37
14.0133
22.9643
26.7117
25.5764
28.0047
26.9439
28.4282
28.2507
29.5355
29.0314
29.7819
28.6466
29.1286
27.8359
28.1857
27.5281
27.5624
27.0651
26.6041
26.8234
25.9563
26.4868
25.5019
26.1708
25.079
25.9394
24.6735
25.6595
24.3004
25.31
24.022
24.8596
23.8894
24.3754
23.9326
23.8439
23.9118
23.4699
23.7857
23.2214
23.5993
22.9174
23.2454
22.547
22.776
22.1113
22.1526
21.4835
21.2222
20.4556
19.7902
18.7947
17.6472
16.1753
14.3045
12.0204
9.10262
5.66817
1.29857
-3.67714
-9.72459
-16.2442
-24.037
-31.5306
-40.5052
-47.7112
-55.8288
-60.251
-65.9549
-68.1417
-67.8351
-64.0851
-56.8658
-47.3139
-32.6142
-20.2254
-3.52244
-3.04142
-4.43678
-6.8367
-7.38624
-10.4553
-12.6195
-13.6802
-12.393
-10.0872
-8.9134
-10.6265
-11.4667
-10.0982
-9.17423
-8.66041
-10.3166
-11.218
-11.7829
-10.728
-10.6017
-9.80731
-10.4185
-9.89016
-10.559
-9.60523
-10.2628
-9.55715
-9.85725
-9.84672
-9.66833
-10.0908
-9.53389
-10.2459
-9.49224
-10.3604
-9.50333
-10.438
-9.52608
-10.4385
-9.54119
-10.4265
-9.61258
-10.4659
-9.91976
-10.396
-10.1145
-10.1647
-10.0991
-9.93118
-10.1471
-9.96576
-10.2928
-10.0686
-10.1774
-9.91684
-10.0936
-9.89287
-10.1275
-9.94218
-9.90852
-9.75456
-9.31854
-9.47683
-8.29022
-8.80013