/*--------------------------------*- C++ -*----------------------------------*\
| =========                 |                                                 |
| \\      /  F ield         | OpenFOAM: The Open Source CFD Toolbox           |
|  \\    /   O peration     | Version:  4.1                                   |
|   \\  /    A nd           | Web:      www.OpenFOAM.org                      |
|    \\/     M anipulation  |                                                 |
\*---------------------------------------------------------------------------*/
FoamFile
{
    version     2.0;
    format      ascii;
    class       volScalarField;
    location    "8.5";
    object      p;
}
// * * * * * * * * * * * * * * * * * * * * * * * * * * * * * * * * * * * * * //

dimensions      [0 2 -2 0 0 0 0];

internalField   nonuniform List<scalar> 
204246
(
-5.657
-12.6152
-15.8659
-18.3882
-22.2001
-29.7313
-42.7675
-55.6136
-61.859
-64.8567
-68.3573
-70.5266
-72.4656
-72.5645
-73.8423
-74.789
-76.4969
-77.945
-78.6188
-79.973
-80.6745
-81.6168
-82.1314
-82.3016
-81.9041
-80.7629
-79.0691
-76.6657
-73.4427
-69.8427
-66.0953
-62.6689
-59.5162
-57.2266
-55.3486
-54.1387
-53.1747
-51.9522
-51.5993
-51.414
-51.455
-51.6311
-52.008
-52.5375
-53.1422
-53.5884
-54.0122
-54.4479
-54.9534
-55.4428
-55.9034
-56.2324
-57.9046
-58.8301
-58.6012
-59.6763
-59.9111
-60.0639
-60.3914
-61.0049
-61.5225
-61.9278
-62.2085
-62.3333
-62.207
-63.1387
-63.0985
-63.0436
-62.9466
-64.3146
-65.2546
-65.2655
-65.1939
-64.9868
-65.522
-65.2716
-66.0311
-66.2015
-66.1826
-65.8861
-66.7568
-66.7754
-66.8205
-66.7783
-66.6817
-66.5089
-67.7356
-68.63
-68.5448
-68.3808
-68.0879
-68.5951
-68.4002
-69.1158
-68.5775
-69.1971
-68.6393
-69.4594
-69.4608
-69.4287
-69.2496
-69.9541
-69.1009
-69.7469
-68.9574
-70.4879
-71.0463
-70.5187
-70.6291
-70.5149
-71.172
-70.5551
-71.1485
-70.7412
-71.3286
-70.8958
-71.4684
-71.0034
-71.6263
-71.3437
-71.0922
-70.8302
-72.2702
-72.9415
-72.4176
-72.9157
-72.4985
-73.1312
-72.8118
-73.738
-73.958
-74.0961
-74.0596
-74.9502
-74.7821
-75.808
-75.9998
-76.2486
-76.5047
-78.3923
-79.6013
-79.9537
-81.1988
-81.5933
-83.0618
-83.6593
-85.5852
-86.9725
-88.4372
-89.8646
-91.2524
-92.498
-94.7157
-95.9548
-97.0279
-97.8965
-100.486
-101.713
-101.486
-102.007
-101.515
-101.213
-99.681
-98.79
-96.598
-94.8445
-91.8989
-89.401
-85.7477
-82.3319
-77.8698
-73.3204
-68.242
-62.6742
-56.5162
-49.8379
-42.3798
-34.0735
-25.0464
-14.7744
-3.24292
9.88982
24.66
41.4
60.1031
81.0004
104.075
129.937
159.359
198.36
257.321
350.589
475.61
-10.4834
-11.6046
-13.1949
-15.19
-18.7096
-24.418
-39.2476
-54.141
-62.8295
-65.8188
-67.7264
-70.0188
-71.9371
-73.0446
-73.6574
-74.3399
-75.4368
-76.6418
-77.8794
-79.1765
-80.5034
-81.5792
-82.5446
-83.1219
-83.1721
-82.936
-81.5299
-79.4556
-76.5612
-72.9383
-69.003
-65.1119
-61.6723
-58.7631
-56.4454
-54.6774
-53.3076
-52.2686
-51.5366
-51.2726
-51.1806
-51.3573
-51.5965
-52.1386
-52.6815
-53.3005
-53.7423
-54.2649
-54.7051
-55.2222
-55.6945
-56.2262
-56.9614
-57.7051
-58.3447
-58.96
-59.5228
-59.7938
-60.209
-60.6452
-61.1437
-61.563
-62.015
-62.1774
-62.4134
-62.7506
-63.0754
-63.0803
-63.2608
-63.823
-64.4201
-64.821
-64.9818
-65.0995
-65.239
-65.4023
-65.6884
-66.0353
-66.0682
-66.1669
-66.4081
-66.7464
-66.8168
-66.9266
-66.8108
-66.8894
-67.3441
-67.8804
-68.2058
-68.2525
-68.29
-68.3877
-68.561
-68.7366
-68.8428
-68.9106
-68.9924
-69.1751
-69.4132
-69.4008
-69.5523
-69.6625
-69.6755
-69.6276
-69.6429
-70.0082
-70.4302
-70.5461
-70.5524
-70.6972
-70.8328
-70.8953
-70.9506
-71.0641
-71.1364
-71.2482
-71.3145
-71.4462
-71.5578
-71.6044
-71.3688
-71.4376
-71.8363
-72.2899
-72.4582
-72.623
-72.7679
-72.8991
-73.1278
-73.448
-73.8437
-74.0043
-74.3316
-74.649
-75.0871
-75.5251
-76.0244
-76.2431
-76.7791
-77.6048
-78.521
-79.4186
-80.3384
-81.2815
-82.1988
-83.3498
-84.6343
-86.1184
-87.5521
-89.0857
-90.5435
-92.207
-93.8689
-95.5263
-96.9343
-98.4686
-99.938
-101.253
-102.189
-102.752
-103.198
-103.039
-102.527
-101.876
-100.575
-98.9754
-96.8983
-94.4979
-91.6478
-88.4287
-84.7483
-80.661
-76.1187
-71.1488
-65.6823
-59.6934
-53.0162
-45.6672
-37.5931
-28.626
-18.6924
-7.50678
5.04181
19.2387
35.1065
52.7247
71.872
92.5143
114.58
140.089
175.915
242.095
340.116
-16.0745
-15.2045
-15.2547
-17.2581
-23.1404
-30.1254
-40.8988
-54.1868
-61.7203
-65.1753
-67.2039
-69.3956
-71.2701
-72.8095
-73.7867
-74.4005
-75.0383
-75.8793
-76.9666
-78.1836
-79.4762
-80.7928
-81.996
-82.9142
-83.2957
-82.97
-82.2424
-80.5049
-77.8035
-74.4558
-70.6462
-66.7585
-63.0245
-59.7027
-57.0759
-55.0109
-53.4465
-52.3124
-51.5255
-51.1264
-50.8804
-50.9846
-51.2663
-51.705
-52.2548
-52.8267
-53.412
-53.999
-54.5435
-55.1399
-55.6966
-56.2887
-56.8651
-57.4878
-58.1238
-58.7088
-59.2255
-59.6501
-60.0951
-60.5255
-60.9545
-61.3553
-61.7802
-62.0475
-62.3866
-62.6527
-62.9769
-63.1645
-63.4279
-63.7559
-64.1141
-64.4511
-64.728
-64.973
-65.1078
-65.3233
-65.5225
-65.786
-65.9153
-66.1097
-66.26
-66.531
-66.6589
-66.8361
-66.8911
-67.0416
-67.2518
-67.5543
-67.8316
-68.0026
-68.1545
-68.2419
-68.4067
-68.5209
-68.6944
-68.7506
-68.9047
-68.9994
-69.1854
-69.2383
-69.3852
-69.4461
-69.5453
-69.5727
-69.6856
-69.8279
-70.0589
-70.2326
-70.3238
-70.4543
-70.5334
-70.6674
-70.713
-70.8475
-70.8839
-70.9825
-71.0197
-71.1445
-71.2232
-71.3007
-71.2733
-71.368
-71.5184
-71.7578
-71.9807
-72.1358
-72.3161
-72.4411
-72.6532
-72.8931
-73.1741
-73.3977
-73.6729
-73.9852
-74.3527
-74.7503
-75.1395
-75.589
-76.1518
-76.8609
-77.6259
-78.4108
-79.2393
-80.1117
-81.0903
-82.1493
-83.3485
-84.6367
-86.0345
-87.5012
-89.0608
-90.6843
-92.3593
-94.0351
-95.7086
-97.3424
-98.8736
-100.131
-100.953
-101.477
-101.529
-101.119
-100.331
-99.1746
-97.7308
-95.9305
-93.8432
-91.3958
-88.6098
-85.4396
-81.9002
-77.9448
-73.5585
-68.6828
-63.2845
-57.2996
-50.6605
-43.3936
-35.3402
-26.4466
-16.5722
-5.6329
6.61785
20.2965
35.6625
52.6831
71.3287
90.9306
111.461
133.326
162.388
205.808
263.411
-19.3386
-18.245
-17.6893
-18.594
-23.4961
-32.0528
-42.1592
-54.2407
-61.6867
-65.6744
-67.9139
-69.7285
-71.3879
-72.9386
-73.7566
-74.2494
-74.8639
-75.6925
-76.7172
-77.9585
-79.3464
-80.8049
-82.2348
-83.5017
-84.3778
-84.5964
-84.0706
-82.7903
-80.397
-77.0331
-73.0623
-68.8909
-64.863
-61.1515
-58.1088
-55.7099
-53.9179
-52.5855
-51.6788
-51.1845
-50.9543
-50.9942
-51.1457
-51.6714
-52.1342
-52.7266
-53.287
-53.8465
-54.3749
-54.9188
-55.4812
-56.0687
-56.6398
-57.2307
-57.8276
-58.4193
-58.9421
-59.4227
-59.9095
-60.3657
-60.8197
-61.2227
-61.6189
-61.9555
-62.2899
-62.5852
-62.8906
-63.1648
-63.4715
-63.7575
-64.0499
-64.3465
-64.6331
-64.9054
-65.1213
-65.3708
-65.5624
-65.8184
-65.9603
-66.1766
-66.3205
-66.5514
-66.6815
-66.8971
-67.0093
-67.2168
-67.3788
-67.5867
-67.8071
-68.0054
-68.2224
-68.3504
-68.5336
-68.6347
-68.8029
-68.8792
-69.042
-69.1322
-69.2978
-69.3736
-69.5492
-69.6295
-69.7576
-69.8149
-69.9475
-70.0492
-70.2247
-70.3674
-70.5037
-70.6687
-70.7442
-70.8846
-70.9432
-71.0813
-71.1392
-71.2921
-71.366
-71.5083
-71.5714
-71.6577
-71.6724
-71.8004
-71.9184
-72.1069
-72.2779
-72.4482
-72.6725
-72.8312
-73.1095
-73.3328
-73.643
-73.8853
-74.243
-74.5466
-74.9534
-75.3317
-75.7878
-76.2341
-76.7887
-77.3425
-78.0049
-78.7602
-79.5969
-80.5165
-81.5137
-82.5934
-83.7547
-85.0211
-86.3607
-87.8028
-89.3277
-90.9633
-92.6794
-94.4814
-96.2969
-98.094
-99.7262
-101.202
-102.494
-103.579
-104.424
-104.971
-105.191
-105.069
-104.15
-102.771
-100.899
-98.664
-96.0288
-93.0669
-89.7356
-86.0783
-82.0353
-77.6114
-72.713
-67.32
-61.2727
-54.61
-47.2341
-39.0796
-30.0681
-20.0934
-9.05107
3.18789
16.6587
31.3902
47.3051
64.4636
83.2484
105.37
133.529
168.87
207.609
-21.3412
-20.6407
-20.1817
-20.5226
-23.2402
-30.5278
-39.5455
-50.2301
-59.1794
-64.3324
-67.3015
-69.1698
-70.7246
-72.2828
-73.2499
-73.7746
-74.2906
-74.922
-75.7411
-76.8163
-78.1476
-79.6622
-81.2525
-82.8606
-84.2933
-85.322
-85.6095
-84.8899
-82.9071
-79.7563
-75.7098
-71.2398
-66.7642
-62.6265
-59.1052
-56.1966
-54.1793
-52.7597
-51.708
-50.9491
-50.5657
-50.5288
-50.5488
-50.8095
-51.467
-52.1024
-52.7031
-53.3379
-53.9273
-54.5095
-55.0986
-55.716
-56.3229
-56.9295
-57.5335
-58.1089
-58.6331
-59.1245
-59.6074
-60.0796
-60.5267
-60.9451
-61.3172
-61.6851
-62.0256
-62.3427
-62.6422
-62.9319
-63.2052
-63.5078
-63.809
-64.0809
-64.3419
-64.5885
-64.8129
-65.0379
-65.2594
-65.4765
-65.6812
-65.8823
-66.0588
-66.2658
-66.4122
-66.5651
-66.7078
-66.8763
-67.0852
-67.3036
-67.5091
-67.6974
-67.8696
-68.0137
-68.1698
-68.3114
-68.473
-68.5805
-68.7278
-68.8347
-68.9824
-69.0728
-69.1945
-69.2814
-69.3817
-69.4562
-69.5629
-69.6815
-69.8383
-69.9669
-70.0752
-70.1942
-70.3028
-70.4414
-70.5303
-70.659
-70.7239
-70.8123
-70.8732
-70.9662
-71.0241
-71.0841
-71.107
-71.174
-71.2616
-71.4124
-71.5507
-71.6859
-71.8311
-71.978
-72.1477
-72.3548
-72.5492
-72.7979
-73.008
-73.3334
-73.5798
-73.9639
-74.1905
-74.616
-75.0698
-75.6275
-76.2356
-76.8979
-77.6302
-78.4406
-79.3348
-80.3269
-81.4307
-82.6361
-83.9528
-85.3743
-86.9017
-88.534
-90.2621
-92.0781
-93.9629
-95.8909
-97.8015
-99.5842
-101.013
-101.942
-102.248
-102.128
-101.689
-100.981
-100.131
-98.9899
-97.4852
-95.6026
-93.3801
-90.7845
-87.8431
-84.5298
-80.857
-76.7815
-72.2946
-67.3324
-61.8484
-55.8186
-49.1218
-41.6538
-33.316
-24.0423
-13.8017
-2.62969
9.3941
22.1124
35.5144
49.6852
65.4004
84.2163
107.791
136.158
164.292
-23.0369
-22.516
-22.3142
-22.7321
-24.6263
-29.7685
-37.409
-46.6891
-55.9189
-62.7624
-67.5476
-70.6371
-71.092
-72.3479
-73.3694
-73.9193
-74.4165
-74.9294
-75.6552
-76.7178
-78.0869
-79.7455
-81.5425
-83.3292
-84.9271
-86.2064
-86.95
-86.8157
-85.5645
-82.9204
-79.0055
-74.2953
-69.3791
-64.7725
-60.834
-57.502
-55.0173
-53.2305
-52.0335
-51.2014
-50.8528
-50.8231
-51.0353
-51.3366
-51.5906
-52.1533
-52.8236
-53.4361
-53.9983
-54.5001
-55.021
-55.5822
-56.1973
-56.812
-57.4065
-57.9944
-58.5281
-59.0258
-59.5219
-60.0057
-60.4881
-60.9276
-61.3453
-61.7164
-62.0876
-62.4092
-62.7361
-63.0377
-63.3392
-63.592
-63.861
-64.1473
-64.4275
-64.7014
-64.9484
-65.1889
-65.4049
-65.6459
-65.8507
-66.0603
-66.2241
-66.4435
-66.5954
-66.8576
-66.9962
-67.1717
-67.3101
-67.4741
-67.6623
-67.8649
-68.0704
-68.2473
-68.4169
-68.5403
-68.7132
-68.8169
-68.9836
-69.0741
-69.2284
-69.3255
-69.5059
-69.6054
-69.7609
-69.8459
-69.9798
-70.0329
-70.1539
-70.2887
-70.4236
-70.5802
-70.6617
-70.8018
-70.883
-71.024
-71.1118
-71.28
-71.3698
-71.5081
-71.5778
-71.6939
-71.7563
-71.8601
-71.8993
-72.0156
-72.1619
-72.3102
-72.5018
-72.6688
-72.9127
-73.1337
-73.4133
-73.6765
-74.0196
-74.3197
-74.7219
-75.0612
-75.5205
-75.8933
-76.3819
-76.7937
-77.3075
-77.9215
-78.6206
-79.3983
-80.2523
-81.1879
-82.2047
-83.332
-84.5625
-85.9261
-87.4038
-89.0151
-90.7412
-92.6101
-94.5977
-96.6877
-98.732
-100.667
-102.394
-103.961
-105.399
-106.609
-107.437
-107.591
-106.878
-105.613
-103.937
-101.91
-99.537
-96.8791
-93.9053
-90.639
-87.0393
-83.1184
-78.8214
-74.1432
-68.9709
-63.3179
-57.0569
-50.0654
-42.2576
-33.588
-24.0624
-13.7028
-2.62124
9.08094
21.3916
34.4025
48.6297
65.294
85.0551
107.852
129.353
-24.4672
-23.9978
-23.8826
-24.3499
-25.9171
-29.4501
-35.2911
-42.9776
-51.5336
-59.213
-64.9709
-67.7956
-70.463
-72.3691
-72.7167
-73.0115
-73.6075
-74.1931
-74.8287
-75.6868
-76.8185
-78.2876
-80.1089
-82.2176
-84.3983
-86.3676
-87.8413
-88.4454
-87.8578
-85.7219
-82.2464
-77.6268
-72.3818
-67.1248
-62.284
-58.5664
-56.116
-54.1409
-52.4283
-51.3468
-50.6766
-50.2592
-50.2282
-50.4635
-51.0333
-51.5219
-52.1189
-52.8009
-53.4462
-54.0093
-54.5314
-55.0896
-55.7051
-56.3451
-56.9823
-57.5867
-58.1443
-58.6471
-59.1137
-59.5867
-60.058
-60.4922
-60.8885
-61.2814
-61.6497
-62.0004
-62.3291
-62.6455
-62.9417
-63.2381
-63.5191
-63.7769
-64.0292
-64.2719
-64.5167
-64.7479
-64.9869
-65.2254
-65.4506
-65.6457
-65.8384
-66.0266
-66.1977
-66.3227
-66.5065
-66.6833
-66.8896
-67.1006
-67.2925
-67.4642
-67.634
-67.8034
-67.9708
-68.1409
-68.296
-68.4296
-68.5637
-68.6903
-68.8222
-68.9284
-69.0248
-69.1353
-69.2327
-69.3419
-69.4408
-69.5716
-69.7074
-69.8093
-69.9137
-70.0134
-70.135
-70.2633
-70.3805
-70.505
-70.5989
-70.6773
-70.7625
-70.8397
-70.9064
-70.9572
-70.9921
-71.0441
-71.1258
-71.2092
-71.276
-71.3712
-71.4616
-71.6173
-71.7222
-71.9187
-72.0063
-72.232
-72.416
-72.6635
-72.9034
-73.2145
-73.5413
-73.9296
-74.3395
-74.8155
-75.3292
-75.893
-76.5259
-77.2406
-78.0419
-78.933
-79.9236
-81.0131
-82.2214
-83.5516
-85.0204
-86.6248
-88.3787
-90.2745
-92.3065
-94.4339
-96.608
-98.7542
-100.752
-102.498
-103.767
-104.411
-104.443
-104.228
-103.966
-103.355
-102.295
-100.824
-98.978
-96.7953
-94.2946
-91.4694
-88.3324
-84.8552
-81.0346
-76.8305
-72.1817
-67.0909
-61.4603
-55.2125
-48.2861
-40.6447
-32.2864
-23.2083
-13.4484
-3.02415
8.0582
19.8943
32.8662
47.7157
64.6262
83.3683
100.493
-25.6631
-25.2146
-25.1138
-25.528
-26.7556
-29.3211
-33.5993
-39.5916
-46.8496
-54.3431
-61.0463
-65.9384
-69.3836
-71.2705
-72.5332
-73.5484
-74.1578
-74.543
-75.0548
-75.8177
-76.8722
-78.2793
-79.9495
-81.8684
-83.946
-85.9788
-87.7144
-88.8548
-88.8937
-87.5454
-84.5043
-80.1107
-74.9788
-69.7543
-64.821
-60.7562
-57.5114
-54.9735
-53.2458
-52.1589
-51.3561
-50.8271
-50.8248
-50.9393
-51.2048
-51.8721
-52.518
-53.0101
-53.5797
-54.1342
-54.6221
-55.1095
-55.6763
-56.3027
-56.9504
-57.5775
-58.1472
-58.6687
-59.1482
-59.6341
-60.1481
-60.6183
-61.0336
-61.4182
-61.8005
-62.1467
-62.4814
-62.8076
-63.1337
-63.4201
-63.7035
-63.9894
-64.258
-64.5151
-64.7523
-64.9877
-65.2138
-65.4502
-65.6769
-65.9216
-66.1263
-66.3387
-66.5152
-66.7083
-66.8618
-67.0387
-67.1724
-67.3328
-67.5231
-67.721
-67.9127
-68.0792
-68.2595
-68.4146
-68.5832
-68.7112
-68.8909
-68.9804
-69.1313
-69.2332
-69.4348
-69.527
-69.6941
-69.7786
-69.9268
-69.9593
-70.0571
-70.1914
-70.3193
-70.446
-70.5285
-70.6691
-70.7594
-70.9128
-71.0241
-71.2247
-71.3202
-71.4686
-71.5435
-71.6585
-71.7183
-71.7982
-71.798
-71.8806
-72.0032
-72.1256
-72.2907
-72.435
-72.6797
-72.8716
-73.1496
-73.3502
-73.6757
-73.9097
-74.2689
-74.5189
-74.8912
-75.1938
-75.583
-75.9124
-76.3206
-76.7989
-77.3479
-77.9694
-78.6718
-79.4586
-80.3308
-81.3043
-82.3855
-83.6012
-84.9638
-86.4982
-88.2065
-90.0987
-92.1632
-94.3989
-96.7592
-99.2141
-101.615
-103.858
-105.858
-107.571
-108.963
-109.721
-109.539
-108.598
-107.192
-105.407
-103.307
-100.978
-98.4258
-95.6506
-92.6111
-89.2855
-85.6423
-81.6575
-77.2591
-72.4478
-67.1551
-61.3428
-54.9717
-48.0266
-40.507
-32.4103
-23.7207
-14.4218
-4.48141
6.23401
18.0519
31.3081
46.0295
61.8734
75.9477
-26.5948
-26.1899
-26.1004
-26.4609
-27.4366
-29.3439
-32.4962
-37.0029
-42.7412
-49.1682
-55.5579
-61.1528
-65.673
-68.9536
-71.05
-72.3233
-73.139
-73.8139
-74.4365
-75.2047
-76.1943
-77.4298
-78.8854
-80.6156
-82.6262
-84.7577
-86.6984
-88.138
-88.814
-88.0729
-85.6349
-81.9079
-77.2763
-72.1958
-67.2431
-62.9507
-59.4561
-56.6886
-54.6913
-53.0722
-51.9199
-51.1914
-50.734
-50.5649
-50.844
-51.3046
-52.0216
-52.7908
-53.2602
-53.6986
-54.1342
-54.6092
-55.1419
-55.7131
-56.3567
-57.0914
-57.7225
-58.2359
-58.6713
-59.1092
-59.5742
-60.0458
-60.5062
-60.9281
-61.3324
-61.6941
-62.0382
-62.3652
-62.6717
-62.9729
-63.2647
-63.5326
-63.7873
-64.0346
-64.2775
-64.5135
-64.7475
-64.981
-65.2175
-65.4307
-65.6505
-65.8186
-66.0186
-66.1795
-66.3557
-66.5199
-66.7153
-66.9106
-67.0963
-67.2828
-67.4763
-67.666
-67.846
-68.0229
-68.1608
-68.3083
-68.4351
-68.5814
-68.7036
-68.8224
-68.8867
-69.0206
-69.1239
-69.2515
-69.3647
-69.5102
-69.6378
-69.7301
-69.8306
-69.8943
-70.0151
-70.1269
-70.2608
-70.3787
-70.5017
-70.571
-70.7
-70.7944
-70.8888
-70.9266
-70.9712
-70.9993
-71.0687
-71.105
-71.1159
-71.1492
-71.1744
-71.2931
-71.3695
-71.5152
-71.6235
-71.8063
-72.0121
-72.2717
-72.5406
-72.851
-73.1694
-73.524
-73.8944
-74.3045
-74.7377
-75.2034
-75.718
-76.2982
-76.9616
-77.7168
-78.5671
-79.514
-80.5694
-81.7463
-83.0699
-84.5587
-86.2324
-88.097
-90.1638
-92.4224
-94.8391
-97.3688
-99.9199
-102.436
-104.796
-106.816
-108.186
-108.804
-108.915
-108.572
-107.685
-106.327
-104.619
-102.608
-100.362
-97.9054
-95.2291
-92.3072
-89.1003
-85.5648
-81.6361
-77.3113
-72.5336
-67.2734
-61.531
-55.2893
-48.5468
-41.3009
-33.5484
-25.2363
-16.3008
-6.58752
4.12076
15.975
28.9562
42.6884
54.6017
-27.2506
-26.9239
-26.8483
-27.1686
-27.9667
-29.459
-31.8431
-35.2646
-39.7095
-44.9543
-50.5425
-55.9735
-60.8314
-64.8763
-67.9945
-70.2866
-71.9262
-73.09
-73.9237
-74.6293
-75.7339
-77.0441
-78.2251
-79.7867
-81.7681
-83.8057
-85.7433
-87.3504
-87.9703
-87.6278
-85.8446
-82.7181
-78.5881
-73.928
-69.2479
-64.9678
-61.3127
-58.4071
-56.2738
-54.6669
-53.4566
-52.7124
-52.1556
-51.95
-51.7074
-51.9583
-52.3212
-52.844
-53.3483
-53.7966
-54.1916
-54.6254
-55.197
-55.9233
-56.4382
-56.9875
-57.653
-58.2746
-58.8264
-59.2916
-59.7408
-60.1898
-60.6256
-61.0449
-61.4335
-61.793
-62.1578
-62.5053
-62.8483
-63.1568
-63.4936
-63.7849
-64.0396
-64.2844
-64.5166
-64.7445
-64.9768
-65.2231
-65.4666
-65.7085
-65.9345
-66.1654
-66.348
-66.532
-66.6872
-66.857
-66.9969
-67.1582
-67.3308
-67.5187
-67.7126
-67.8933
-68.0868
-68.2568
-68.4445
-68.5911
-68.7584
-68.8791
-69.0433
-69.15
-69.3267
-69.4096
-69.5617
-69.6573
-69.8149
-69.8428
-69.9304
-70.0659
-70.1867
-70.318
-70.3709
-70.4898
-70.5889
-70.7672
-70.8991
-71.1094
-71.2242
-71.3654
-71.4768
-71.581
-71.6509
-71.7122
-71.6935
-71.7527
-71.8522
-71.9136
-72.0523
-72.1215
-72.3248
-72.465
-72.7207
-72.8679
-73.138
-73.3117
-73.5972
-73.8101
-74.0992
-74.3564
-74.6613
-74.9486
-75.2895
-75.6702
-76.0971
-76.5767
-77.1249
-77.7531
-78.4754
-79.3019
-80.2405
-81.3069
-82.5219
-83.9078
-85.4922
-87.2993
-89.3489
-91.6457
-94.1677
-96.891
-99.7441
-102.652
-105.503
-108.108
-110.302
-111.898
-112.717
-112.564
-111.513
-109.884
-107.866
-105.627
-103.256
-100.787
-98.2134
-95.4764
-92.5351
-89.3234
-85.7925
-81.9261
-77.6656
-72.9792
-67.8636
-62.3078
-56.3019
-49.8453
-42.9466
-35.5327
-27.4965
-18.7037
-9.03485
1.60324
13.1901
25.2896
35.6913
-27.6361
-27.3905
-27.3678
-27.6685
-28.353
-29.5664
-31.4396
-34.1004
-37.5716
-41.7794
-46.4768
-51.344
-56.0254
-60.2613
-63.8557
-66.7721
-69.0622
-70.8608
-72.272
-73.4567
-74.6573
-75.8641
-77.1528
-78.6182
-80.2885
-82.0769
-83.7625
-85.1111
-85.9538
-85.8254
-84.5315
-82.1006
-78.745
-74.8163
-70.7225
-66.8242
-63.3301
-60.3832
-57.9896
-56.1284
-54.6835
-53.6011
-52.8173
-52.3008
-52.053
-52.1567
-52.4162
-52.8092
-53.2222
-53.616
-53.9863
-54.3447
-54.7736
-55.4638
-56.1885
-56.7299
-57.2334
-57.7119
-58.1757
-58.6536
-59.1411
-59.6407
-60.1451
-60.6206
-61.0371
-61.4079
-61.741
-62.0697
-62.3735
-62.6891
-63.0071
-63.3085
-63.5809
-63.8354
-64.0736
-64.3061
-64.5437
-64.7914
-65.0354
-65.2661
-65.4871
-65.6737
-65.8775
-66.0555
-66.2268
-66.3772
-66.557
-66.7476
-66.9354
-67.1212
-67.3161
-67.5151
-67.7068
-67.8907
-68.034
-68.2007
-68.3203
-68.4608
-68.5387
-68.6872
-68.7961
-68.9404
-69.0421
-69.1868
-69.3147
-69.4707
-69.6068
-69.6834
-69.7846
-69.8158
-69.9243
-70.0025
-70.1184
-70.2044
-70.3579
-70.4975
-70.6613
-70.7936
-70.9464
-71.0035
-71.0495
-71.0566
-71.0799
-71.0657
-71.038
-71.0353
-71.0405
-71.1067
-71.1381
-71.2389
-71.3317
-71.5318
-71.769
-72.0449
-72.3311
-72.6384
-72.9389
-73.246
-73.5518
-73.8837
-74.2392
-74.6211
-75.0294
-75.4727
-75.9632
-76.528
-77.1819
-77.9418
-78.814
-79.8122
-80.9492
-82.2463
-83.7319
-85.4424
-87.4115
-89.6592
-92.1959
-95.0235
-98.0648
-101.251
-104.482
-107.618
-110.458
-112.742
-114.159
-114.614
-114.164
-112.836
-110.894
-108.607
-106.151
-103.658
-101.142
-98.5574
-95.8374
-92.9204
-89.7412
-86.3009
-82.5384
-78.4111
-73.8999
-69.001
-63.7093
-58.01
-51.9056
-45.3329
-38.144
-30.2267
-21.5099
-11.9144
-1.4683
9.3551
18.5726
-27.7924
-27.6248
-27.6761
-27.9789
-28.5989
-29.621
-31.1557
-33.2782
-36.0438
-39.4263
-43.3137
-47.5137
-51.7704
-55.8615
-59.5886
-62.8448
-65.5959
-67.8902
-69.775
-71.3749
-72.8413
-74.2531
-75.6453
-77.0602
-78.591
-80.1744
-81.6866
-82.9564
-83.6561
-83.7007
-82.8394
-81.0312
-78.3924
-75.1663
-71.6565
-68.1653
-64.9065
-62.0608
-59.678
-57.7479
-56.218
-55.0581
-54.2942
-53.7529
-53.5
-53.1935
-53.1104
-53.2673
-53.5462
-53.8571
-54.1911
-54.5174
-54.8776
-55.2924
-55.8516
-56.4982
-57.1674
-57.8222
-58.4287
-58.9208
-59.3202
-59.7001
-60.111
-60.5557
-60.9942
-61.4201
-61.8359
-62.2342
-62.5916
-62.9113
-63.2113
-63.5222
-63.8003
-64.0492
-64.2531
-64.4624
-64.6855
-64.9368
-65.1823
-65.4519
-65.7032
-65.9692
-66.1634
-66.3563
-66.5199
-66.6796
-66.7975
-66.9415
-67.1038
-67.2917
-67.4896
-67.6959
-67.9119
-68.1039
-68.296
-68.4575
-68.6359
-68.7679
-68.954
-69.0176
-69.167
-69.2533
-69.3986
-69.4931
-69.6453
-69.7189
-69.835
-69.9633
-70.0678
-70.1837
-70.2131
-70.3046
-70.4008
-70.561
-70.6984
-70.9057
-71.0851
-71.2625
-71.3953
-71.5182
-71.6025
-71.6349
-71.6373
-71.6595
-71.6925
-71.7225
-71.7609
-71.7753
-71.9285
-72.018
-72.1997
-72.3
-72.4955
-72.668
-72.8832
-73.1074
-73.3593
-73.602
-73.8573
-74.1046
-74.3804
-74.6846
-75.0213
-75.3869
-75.7897
-76.2411
-76.7645
-77.3861
-78.1249
-78.9933
-80.0089
-81.1919
-82.5641
-84.1627
-86.0251
-88.1894
-90.6958
-93.5787
-96.7788
-100.234
-103.855
-107.513
-111.028
-114.13
-116.435
-117.599
-117.496
-116.318
-114.348
-111.879
-109.212
-106.552
-103.974
-101.465
-98.951
-96.3194
-93.4735
-90.4281
-87.1353
-83.5451
-79.6205
-75.3517
-70.7436
-65.7709
-60.414
-54.6338
-48.2919
-41.2269
-33.3813
-24.7021
-15.2215
-5.41869
2.87818
-27.7455
-27.6651
-27.7748
-28.1114
-28.6986
-29.6094
-30.9179
-32.6752
-34.9365
-37.7052
-40.9319
-44.513
-48.27
-52.0386
-55.655
-58.9904
-61.9735
-64.5921
-66.8396
-68.7842
-70.517
-72.1092
-73.6108
-75.054
-76.4817
-77.88
-79.1635
-80.2184
-80.9894
-81.1293
-80.5663
-79.2606
-77.2662
-74.7371
-71.8845
-68.944
-66.0877
-63.4785
-61.2035
-59.2586
-57.6588
-56.3703
-55.3701
-54.6004
-54.0501
-53.6752
-53.6531
-53.6375
-53.7652
-53.9685
-54.221
-54.5163
-54.8534
-55.2556
-55.7335
-56.2491
-56.7655
-57.2747
-57.791
-58.3304
-58.8786
-59.4056
-59.8554
-60.2601
-60.6375
-60.992
-61.3136
-61.6385
-61.9807
-62.3494
-62.7081
-63.0431
-63.3865
-63.6623
-63.9037
-64.1271
-64.3535
-64.5943
-64.8363
-65.057
-65.2819
-65.4903
-65.7133
-65.916
-66.0886
-66.2521
-66.4262
-66.5898
-66.7693
-66.9548
-67.1495
-67.3537
-67.5627
-67.7608
-67.9264
-68.093
-68.2183
-68.3596
-68.4798
-68.6186
-68.7344
-68.8558
-68.9546
-69.0992
-69.2485
-69.3999
-69.5616
-69.6989
-69.8016
-69.8144
-69.8703
-69.9149
-69.9839
-70.0256
-70.1499
-70.3385
-70.5586
-70.7889
-70.9946
-71.1281
-71.2212
-71.244
-71.2005
-71.1396
-71.0793
-71.0412
-71.0142
-71.0167
-71.0035
-71.0599
-71.1344
-71.3229
-71.5767
-71.8553
-72.1368
-72.4194
-72.7077
-72.9928
-73.268
-73.5408
-73.8231
-74.126
-74.4522
-74.8007
-75.163
-75.5574
-76.0078
-76.5404
-77.1794
-77.9492
-78.862
-79.9398
-81.2032
-82.6811
-84.4186
-86.4623
-88.8719
-91.7143
-94.9638
-98.6022
-102.555
-106.716
-110.934
-114.946
-118.344
-120.573
-121.229
-120.397
-118.422
-115.679
-112.58
-109.519
-106.711
-104.187
-101.818
-99.438
-96.933
-94.2702
-91.413
-88.3342
-84.9861
-81.3228
-77.3629
-73.0815
-68.438
-63.4248
-57.9363
-51.7252
-44.715
-36.8842
-28.262
-19.3037
-11.6628
-27.4459
-27.5012
-27.6915
-28.0796
-28.6786
-29.5158
-30.6749
-32.186
-34.0864
-36.4096
-39.1307
-42.1938
-45.4862
-48.8845
-52.2729
-55.5221
-58.5556
-61.3309
-63.8035
-66.0062
-67.9752
-69.7597
-71.3967
-72.9165
-74.3453
-75.6855
-76.8934
-77.8934
-78.5972
-78.8383
-78.5404
-77.6602
-76.2057
-74.2661
-71.9808
-69.5202
-67.0319
-64.6617
-62.5062
-60.6064
-58.9806
-57.6373
-56.5725
-55.7508
-55.1392
-54.6848
-54.3991
-54.2381
-54.2332
-54.3171
-54.4711
-54.6813
-54.9389
-55.2658
-55.6631
-56.1264
-56.6298
-57.1537
-57.6822
-58.1799
-58.6315
-59.0722
-59.5505
-60.0369
-60.5124
-60.9846
-61.4462
-61.8626
-62.2452
-62.5664
-62.8766
-63.1877
-63.4695
-63.6883
-63.9302
-64.1639
-64.3989
-64.6733
-64.9651
-65.2491
-65.4942
-65.7485
-65.985
-66.2059
-66.3434
-66.4639
-66.59
-66.7298
-66.8603
-67.0301
-67.2288
-67.4505
-67.6833
-67.9114
-68.1405
-68.3236
-68.5053
-68.6457
-68.786
-68.8747
-69.0105
-69.0952
-69.2112
-69.3081
-69.4392
-69.5577
-69.7011
-69.8549
-69.9881
-70.1087
-70.1232
-70.1606
-70.1854
-70.3322
-70.4354
-70.5874
-70.8131
-71.0691
-71.2892
-71.4513
-71.5676
-71.6645
-71.6792
-71.6415
-71.5735
-71.532
-71.5
-71.4552
-71.4749
-71.5154
-71.6056
-71.6831
-71.8281
-72.0034
-72.2237
-72.4585
-72.7003
-72.9402
-73.1814
-73.408
-73.631
-73.8607
-74.1041
-74.372
-74.6705
-74.9906
-75.3439
-75.7472
-76.2416
-76.8532
-77.6027
-78.5194
-79.6274
-80.9547
-82.5393
-84.4339
-86.7034
-89.4329
-92.6431
-96.3844
-100.635
-105.29
-110.21
-115.161
-119.737
-123.326
-125.224
-125.171
-123.388
-120.289
-116.513
-112.744
-109.431
-106.694
-104.345
-102.192
-100.032
-97.7596
-95.3308
-92.7339
-89.9306
-86.8724
-83.5089
-79.8757
-75.9303
-71.6686
-67.0464
-61.7151
-55.5497
-48.5432
-40.7149
-32.4747
-25.2462
-26.9723
-27.161
-27.4631
-27.8994
-28.522
-29.3319
-30.3937
-31.7359
-33.3895
-35.3873
-37.7299
-40.3807
-43.2782
-46.328
-49.4518
-52.5436
-55.5172
-58.3348
-60.919
-63.28
-65.4243
-67.3703
-69.1405
-70.7534
-72.2249
-73.5576
-74.7303
-75.6992
-76.4606
-76.7569
-76.6234
-76.037
-74.9786
-73.4943
-71.6787
-69.6581
-67.5457
-65.4676
-63.5071
-61.7217
-60.1415
-58.7805
-57.6445
-56.7155
-55.9757
-55.3981
-54.9538
-54.7543
-54.6628
-54.6573
-54.7294
-54.8628
-55.0534
-55.3059
-55.6149
-55.9797
-56.3909
-56.8354
-57.3093
-57.7952
-58.2778
-58.7576
-59.2298
-59.6865
-60.1168
-60.5111
-60.8885
-61.2776
-61.6654
-62.055
-62.4553
-62.8246
-63.1588
-63.432
-63.6668
-63.8969
-64.1086
-64.3151
-64.5425
-64.7457
-64.9758
-65.2198
-65.4733
-65.7321
-65.9479
-66.1243
-66.2837
-66.4469
-66.6122
-66.7789
-66.9618
-67.1686
-67.3869
-67.5906
-67.7828
-67.9667
-68.1129
-68.2748
-68.4212
-68.5536
-68.6745
-68.7791
-68.872
-68.9974
-69.1427
-69.3087
-69.4819
-69.6687
-69.8384
-69.9205
-69.9186
-69.8969
-69.8607
-69.8509
-69.9417
-70.0965
-70.3451
-70.6769
-70.9919
-71.2447
-71.4087
-71.437
-71.43
-71.3536
-71.2595
-71.1627
-71.095
-71.044
-70.9854
-70.9642
-70.9778
-71.116
-71.3387
-71.6121
-71.8994
-72.1766
-72.459
-72.7324
-73.0046
-73.2479
-73.4708
-73.6922
-73.9127
-74.1375
-74.3834
-74.6524
-74.9429
-75.2697
-75.6558
-76.1363
-76.7356
-77.4872
-78.4247
-79.5844
-81.0044
-82.735
-84.832
-87.389
-90.4624
-94.1517
-98.5164
-103.494
-108.961
-114.733
-120.51
-125.736
-129.511
-130.827
-129.368
-125.99
-121.439
-116.555
-112.292
-108.943
-106.416
-104.443
-102.652
-100.819
-98.8507
-96.7098
-94.4194
-91.9393
-89.129
-86.103
-82.8321
-79.3178
-75.5277
-71.1394
-65.8783
-59.7214
-52.6482
-45.0361
-38.1958
-26.3356
-26.6407
-27.0598
-27.5733
-28.2435
-29.0575
-30.0675
-31.2963
-32.777
-34.5363
-36.591
-38.9212
-41.4915
-44.2383
-47.1045
-50.0087
-52.8704
-55.6544
-58.2741
-60.7228
-62.984
-65.0547
-66.9469
-68.6604
-70.205
-71.5789
-72.767
-73.7305
-74.3648
-74.8897
-74.9396
-74.6109
-73.8908
-72.7957
-71.3864
-69.749
-67.9689
-66.1502
-64.3767
-62.7087
-61.1899
-59.8421
-58.6826
-57.7059
-56.9086
-56.2731
-55.7859
-55.4362
-55.173
-55.0675
-55.0496
-55.1025
-55.2215
-55.4051
-55.6449
-55.9391
-56.2831
-56.6674
-57.0849
-57.5253
-57.9724
-58.4277
-58.8862
-59.3503
-59.8118
-60.2625
-60.702
-61.1356
-61.5539
-61.9407
-62.297
-62.6366
-62.9793
-63.2969
-63.5834
-63.8503
-64.1044
-64.3783
-64.6748
-64.9935
-65.262
-65.5183
-65.7559
-66.0056
-66.1608
-66.2605
-66.3638
-66.477
-66.6256
-66.7901
-66.9817
-67.2076
-67.4556
-67.7004
-67.9562
-68.178
-68.3848
-68.5339
-68.6912
-68.7784
-68.8674
-68.9371
-69.0272
-69.101
-69.2074
-69.3446
-69.5097
-69.705
-69.914
-70.08
-70.146
-70.0906
-70.0453
-70.0382
-70.0648
-70.1627
-70.3866
-70.7073
-71.0585
-71.3831
-71.6325
-71.7794
-71.7884
-71.7493
-71.564
-71.4312
-71.3285
-71.2318
-71.1538
-71.0995
-71.0866
-71.0761
-71.1618
-71.3669
-71.6329
-71.9154
-72.2071
-72.4877
-72.7536
-72.9919
-73.2095
-73.4117
-73.5986
-73.7774
-73.9672
-74.1681
-74.3874
-74.6306
-74.9128
-75.2591
-75.6994
-76.2697
-77.0091
-77.9557
-79.1558
-80.6595
-82.5224
-84.8375
-87.6755
-91.1736
-95.4424
-100.518
-106.369
-112.884
-119.87
-126.892
-132.934
-136.331
-136.109
-133.287
-128.096
-121.504
-115.542
-110.874
-107.863
-106.06
-104.689
-103.336
-101.868
-100.237
-98.4138
-96.4301
-94.2235
-91.7403
-89.137
-86.3139
-83.2769
-79.8615
-75.6141
-70.424
-64.1987
-57.2255
-50.871
-25.4747
-25.9372
-26.5062
-27.1262
-27.8564
-28.6958
-29.688
-30.845
-32.2031
-33.7942
-35.6334
-37.719
-40.03
-42.5236
-45.1591
-47.876
-50.6058
-53.3187
-55.9304
-58.4152
-60.7505
-62.9185
-64.918
-66.7351
-68.3741
-69.8276
-71.0965
-72.1562
-73.0275
-73.5596
-73.6597
-73.482
-72.9719
-72.1336
-71.0075
-69.6575
-68.1506
-66.5742
-64.9936
-63.4665
-62.0369
-60.7317
-59.5744
-58.5671
-57.7139
-57.0098
-56.4446
-56.0142
-55.699
-55.4934
-55.3865
-55.3622
-55.4079
-55.522
-55.694
-55.9229
-56.2035
-56.5265
-56.8892
-57.2845
-57.6997
-58.1252
-58.5557
-58.9903
-59.424
-59.8512
-60.271
-60.6895
-61.0999
-61.503
-61.8951
-62.2716
-62.6383
-62.9774
-63.2898
-63.5661
-63.8165
-64.0413
-64.2681
-64.5045
-64.7595
-65.0185
-65.2808
-65.5482
-65.7943
-66.0097
-66.1687
-66.3154
-66.4616
-66.6048
-66.753
-66.9457
-67.1473
-67.3494
-67.5326
-67.7303
-67.9181
-68.1299
-68.3649
-68.5197
-68.6193
-68.7049
-68.7881
-68.8952
-69.0121
-69.1517
-69.3314
-69.5533
-69.8002
-69.9849
-70.0533
-70.016
-69.8794
-69.776
-69.7725
-69.8151
-69.9871
-70.3298
-70.7559
-71.2032
-71.5599
-71.774
-71.8311
-71.7253
-71.5698
-71.3868
-71.255
-71.1576
-71.0458
-70.9082
-70.8404
-70.8634
-70.9612
-71.1538
-71.4517
-71.753
-72.0532
-72.3365
-72.6028
-72.8504
-73.0939
-73.307
-73.4749
-73.6315
-73.773
-73.9188
-74.0731
-74.2352
-74.4229
-74.6569
-74.9576
-75.3576
-75.8967
-76.6266
-77.5892
-78.8535
-80.4663
-82.5246
-85.1116
-88.3818
-92.5008
-97.5671
-103.63
-110.685
-118.625
-127.128
-135.523
-142.393
-145.751
-143.633
-137.003
-128.208
-119.467
-112.523
-108.766
-106.823
-105.869
-105.087
-104.293
-103.228
-101.807
-100.344
-98.7606
-96.8429
-94.8354
-92.601
-90.2117
-87.6621
-84.5866
-80.6169
-75.5313
-69.4107
-63.4625
-24.4637
-25.1043
-25.818
-26.5474
-27.3567
-28.2423