/*--------------------------------*- C++ -*----------------------------------*\
| =========                 |                                                 |
| \\      /  F ield         | OpenFOAM: The Open Source CFD Toolbox           |
|  \\    /   O peration     | Version:  4.1                                   |
|   \\  /    A nd           | Web:      www.OpenFOAM.org                      |
|    \\/     M anipulation  |                                                 |
\*---------------------------------------------------------------------------*/
FoamFile
{
    version     2.0;
    format      ascii;
    class       volScalarField;
    location    "25";
    object      p;
}
// * * * * * * * * * * * * * * * * * * * * * * * * * * * * * * * * * * * * * //

dimensions      [0 2 -2 0 0 0 0];

internalField   nonuniform List<scalar> 
6750
(
-117.507
-56.948
-130.39
-130.603
-150.631
-157.465
-163.662
-167.557
-169.641
-168.518
-169.909
-163.819
-170.289
-85.9511
-186.648
-117.327
-56.3621
-130.004
-130.502
-150.943
-157.846
-164.138
-167.629
-169.628
-168.524
-169.989
-164.094
-170.159
-85.397
-186.684
-117.167
-55.8284
-129.728
-130.506
-151.219
-158.147
-164.511
-167.631
-169.612
-168.541
-170.084
-164.139
-170.061
-84.8694
-186.76
-116.969
-55.1186
-129.359
-130.503
-151.567
-158.516
-164.906
-167.708
-169.614
-168.611
-170.188
-164.046
-170.065
-84.5188
-186.666
-116.802
-54.3587
-129.017
-130.536
-151.898
-158.842
-165.267
-167.925
-169.775
-168.84
-170.25
-163.327
-169.977
-84.2314
-186.576
-116.681
-53.6002
-128.687
-130.566
-152.208
-159.178
-165.801
-168.311
-169.792
-168.967
-170.177
-163.667
-170.059
-83.9183
-186.483
-116.652
-52.9895
-128.425
-130.58
-152.413
-159.439
-166.112
-168.246
-169.758
-169.038
-169.925
-164.217
-170.066
-83.6
-186.4
-116.704
-52.8277
-128.371
-130.606
-152.511
-159.578
-166.338
-168.42
-169.813
-168.968
-170.131
-164.593
-170.121
-83.3556
-186.409
-116.807
-53.1587
-128.571
-130.676
-152.504
-159.58
-166.339
-168.495
-169.905
-168.983
-170.17
-164.33
-170.134
-83.5361
-186.23
-116.988
-53.8549
-128.944
-130.75
-152.387
-159.437
-166.052
-168.464
-169.961
-169.065
-170.296
-163.614
-170.115
-83.8309
-186.108
-117.236
-54.6773
-129.377
-130.81
-152.178
-159.185
-165.64
-168.28
-170.069
-169.12
-170.679
-163.642
-170.093
-84.0664
-186.015
-117.504
-55.4748
-129.798
-130.852
-151.925
-158.935
-165.333
-168.211
-170.16
-169.185
-170.726
-164.373
-170.201
-84.3085
-185.954
-117.779
-56.2073
-130.235
-130.927
-151.65
-158.646
-165.051
-168.306
-170.39
-169.488
-170.794
-164.985
-170.306
-84.6485
-185.952
-117.989
-56.7531
-130.557
-130.971
-151.424
-158.399
-164.772
-168.435
-170.473
-169.694
-170.78
-165.129
-170.45
-85.179
-185.815
-118.209
-57.347
-130.987
-131.125
-151.166
-158.074
-164.356
-168.463
-170.624
-169.814
-170.724
-164.963
-170.621
-85.7405
-185.722
-161.545
-41.1623
-133.715
-130.438
-151.286
-157.873
-163.986
-167.658
-169.949
-168.545
-170.502
-163.147
-177.251
-65.5664
-261.996
-161.334
-40.6037
-133.271
-130.267
-151.632
-158.29
-164.544
-167.764
-169.944
-168.545
-170.558
-163.367
-177.038
-64.994
-262.084
-161.167
-40.1916
-133.02
-130.245
-151.904
-158.551
-164.909
-167.758
-169.933
-168.555
-170.65
-163.292
-176.824
-64.4911
-262.31
-160.962
-39.5924
-132.624
-130.187
-152.262
-158.913
-165.331
-167.84
-169.928
-168.579
-170.766
-163.196
-176.782
-64.0954
-262.07
-160.82
-38.9759
-132.258
-130.187
-152.589
-159.204
-165.673
-167.999
-170.118
-168.715
-170.889
-162.451
-176.564
-63.7924
-261.899
-160.757
-38.3527
-131.866
-130.184
-152.899
-159.514
-166.195
-168.383
-170.135
-168.785
-170.856
-162.814
-176.674
-63.4604
-261.723
-160.817
-37.8417
-131.523
-130.181
-153.096
-159.743
-166.502
-168.296
-170.243
-168.867
-170.77
-163.234
-176.711
-63.1672
-261.615
-160.925
-37.6963
-131.442
-130.2
-153.189
-159.869
-166.712
-168.48
-170.187
-168.835
-170.748
-163.544
-176.75
-62.915
-261.741
-161.019
-37.9549
-131.706
-130.274
-153.189
-159.878
-166.712
-168.532
-170.248
-168.875
-170.825
-163.417
-176.804
-63.0745
-261.38
-161.192
-38.5147
-132.164
-130.365
-153.082
-159.768
-166.446
-168.533
-170.315
-168.95
-170.888
-162.812
-176.708
-63.3224
-261.145
-161.452
-39.1793
-132.663
-130.461
-152.88
-159.549
-166.054
-168.368
-170.439
-169.018
-171.256
-162.719
-176.647
-63.5575
-261.013
-161.743
-39.8161
-133.105
-130.539
-152.633
-159.336
-165.765
-168.3
-170.478
-169.039
-171.231
-163.387
-176.833
-63.7867
-260.936
-162.056
-40.436
-133.57
-130.676
-152.359
-159.061
-165.47
-168.357
-170.679
-169.252
-171.313
-163.937
-177.018
-64.1312
-261.056
-162.289
-40.8594
-133.863
-130.749
-152.139
-158.855
-165.201
-168.48
-170.769
-169.379
-171.292
-164.117
-177.274
-64.5973
-260.755
-162.555
-41.4339
-134.357
-130.986
-151.863
-158.511
-164.732
-168.487
-171.029
-169.55
-171.311
-164.089
-177.53
-65.1556
-260.595
-235.689
-8.60236
-136.745
-130.703
-152.328
-158.948
-165.003
-168.111
-170.516
-168.751
-171.507
-160.946
-188.265
-18.7132
-394.217
-235.426
-8.21963
-136.287
-130.413
-152.672
-159.379
-165.619
-168.266
-170.551
-168.755
-171.512
-161.127
-187.88
-18.2833
-394.45
-235.252
-8.05839
-136.083
-130.343
-152.912
-159.572
-165.925
-168.245
-170.534
-168.766
-171.557
-160.987
-187.332
-17.8498
-394.955
-235.057
-7.72251
-135.657
-130.187
-153.249
-159.914
-166.352
-168.337
-170.534
-168.768
-171.643
-160.973
-187.268
-17.6179
-394.511
-234.995
-7.41321
-135.245
-130.131
-153.543
-160.146
-166.639
-168.41
-170.691
-168.799
-171.748
-160.301
-186.871
-17.4636
-394.24
-235.078
-7.0331
-134.744
-130.073
-153.824
-160.415
-167.08
-168.726
-170.676
-168.796
-171.695
-160.631
-186.992
-17.2019
-393.924
-235.29
-6.67094
-134.247
-130.054
-153.994
-160.596
-167.35
-168.645
-170.824
-168.837
-171.616
-160.795
-186.986
-16.9075
-393.686
-235.437
-6.55386
-134.101
-130.069
-154.077
-160.707
-167.518
-168.82
-170.778
-168.903
-171.615
-161.037
-186.882
-16.5461
-393.969
-235.475
-6.70303
-134.479
-130.146
-154.098
-160.723
-167.532
-168.851
-170.837
-168.948
-171.74
-160.994
-187.112
-16.6694
-393.227
-235.601
-7.01109
-135.091
-130.255
-154.023
-160.665
-167.34
-168.92
-170.936
-169.018
-171.746
-160.632
-186.975
-16.8374
-392.727
-235.862
-7.35645
-135.712
-130.412
-153.862
-160.496
-167.033
-168.796
-171.069
-169.101
-172.065
-160.464
-186.838
-16.9297
-392.365
-236.184
-7.6524
-136.193
-130.548
-153.65
-160.344
-166.798
-168.748
-171.006
-169.103
-172.026
-160.969
-187.094
-16.9223
-392.088
-236.562
-7.99925
-136.688
-130.798
-153.413
-160.099
-166.502
-168.751
-171.054
-169.19
-172.136
-161.331
-187.313
-16.9738
-392.241
-236.838
-8.17186
-136.924
-130.919
-153.224
-159.957
-166.276
-168.853
-171.06
-169.227
-172.13
-161.469
-187.893
-17.2752
-391.531
-237.191
-8.58965
-137.436
-131.296
-152.973
-159.625
-165.778
-168.813
-171.214
-169.43
-172.253
-161.541
-188.302
-17.5934
-391.108
-311.86
19.2568
-133.552
-134.106
-153.686
-161.332
-166.991
-169.305
-171.06
-169.448
-172.937
-160.072
-196.359
34.0777
-542.571
-311.617
19.4125
-133.211
-133.757
-153.947
-161.715
-167.553
-169.513
-171.18
-169.525
-172.903
-160.239
-195.684
34.3991
-542.776
-311.511
19.3576
-133.061
-133.67
-154.131
-161.855
-167.771
-169.493
-171.197
-169.558
-172.893
-160.235
-194.595
34.7664
-543.444
-311.422
19.3683
-132.684
-133.46
-154.392
-162.158
-168.156
-169.612
-171.307
-169.649
-173
-160.336
-194.519
34.8046
-542.699
-311.584
19.3544
-132.269
-133.388
-154.622
-162.343
-168.384
-169.656
-171.467
-169.675
-173.07
-159.881
-193.981
34.7086
-542.234
-311.87
19.4251
-131.707
-133.311
-154.831
-162.575
-168.714
-169.854
-171.423
-169.635
-173.026
-160.109
-194.008
34.781
-541.55
-312.175
19.4283
-131.1
-133.31
-154.955
-162.725
-168.927
-169.821
-171.509
-169.644
-172.977
-160.105
-193.851
34.9601
-541.055
-312.323
19.377
-130.899
-133.332
-155.019
-162.824
-169.047
-169.908
-171.409
-169.759
-172.971
-160.359
-193.364
35.4923
-541.282
-312.264
19.3935
-131.362
-133.409
-155.082
-162.857
-169.103
-169.951
-171.56
-169.826
-173.121
-160.226
-193.958
35.4408
-540.196
-312.29
19.5173
-132.072
-133.511
-155.071
-162.844
-169.017
-170.109
-171.768
-169.943
-173.078
-160.094
-193.95
35.3736
-539.3
-312.491
19.6692
-132.761
-133.699
-154.999
-162.73
-168.831
-170.056
-171.895
-170.003
-173.33
-160.006
-193.853
35.3404
-538.718
-312.778
19.821
-133.25
-133.856
-154.861
-162.637
-168.685
-170.051
-171.808
-170.009
-173.308
-160.344
-194.202
35.5524
-538.174
-313.156
19.8016
-133.707
-134.176
-154.723
-162.452
-168.448
-170.007
-171.721
-169.968
-173.434
-160.504
-194.37
35.8035
-538.437
-313.428
19.8257
-133.881
-134.32
-154.594
-162.367
-168.305
-170.085
-171.688
-169.918
-173.474
-160.456
-195.465
35.6806
-537.418
-313.804
19.5765
-134.281
-134.779
-154.455
-162.113
-167.905
-170.024
-171.776
-170.026
-173.623
-160.51
-196.132
35.5958
-536.873
-399.51
20.9083
-128.479
-143.108
-156.939
-165.851
-170.982
-172.069
-173.511
-171.278
-175.323
-163.835
-206.219
73.7975
-716.178
-399.367
21.1103
-128.319
-142.784
-157.099
-166.16
-171.398
-172.26
-173.512
-171.477
-175.399
-164.127
-205.337
72.8391
-716.804
-399.385
21.1101
-128.262
-142.705
-157.226
-166.263
-171.517
-172.214
-173.454
-171.522
-175.334
-164.327
-203.659
72.156
-717.785
-399.528
21.1941
-128.038
-142.514
-157.388
-166.512
-171.796
-172.339
-173.467
-171.716
-175.49
-164.541
-203.525
71.6214
-716.992
-399.863
21.1322
-127.731
-142.46
-157.546
-166.669
-171.964
-172.398
-173.612
-171.824
-175.568
-164.323
-202.866
71.259
-716.434
-400.178
20.9301
-127.289
-142.404
-157.676
-166.871
-172.214
-172.49
-173.555
-171.732
-175.424
-164.464
-202.641
70.938
-715.345
-400.508
20.4755
-126.79
-142.427
-157.759
-167.009
-172.384
-172.484
-173.582
-171.716
-175.35
-164.518
-202.287
70.9466
-714.284
-400.635
20.1249
-126.623
-142.474
-157.814
-167.102
-172.489
-172.441
-173.509
-171.719
-175.325
-164.777
-201.488
71.2881
-713.993
-400.561
20.2713
-127.038
-142.577
-157.934
-167.176
-172.609
-172.585
-173.735
-171.85
-175.534
-164.531
-202.338
72.2049
-712.255
-400.563
20.7827
-127.645
-142.68
-158.004
-167.212
-172.625
-172.853
-174.075
-172.099
-175.628
-164.376
-202.575
72.571
-710.64
-400.73
21.2879
-128.222
-142.872
-158.048
-167.166
-172.563
-172.885
-174.24
-172.169
-175.913
-164.38
-202.681
73.0205
-709.388
-400.961
21.6683
-128.614
-143.023
-158.008
-167.132
-172.534
-172.917
-174.272
-172.161
-175.964
-164.553
-203.145
73.8314
-708.252
-401.289
21.7025
-128.951
-143.35
-158.005
-167.044
-172.453
-172.871
-174.374
-172.015
-176.023
-164.578
-203.271
75.1429
-708.037
-401.514
21.6778
-129.051
-143.497
-157.949
-167.018
-172.444
-173.009
-174.548
-171.95
-176.012
-164.319
-204.879
76.2224
-706.162
-401.851
21.3055
-129.293
-143.965
-157.954
-166.891
-172.258
-173.087
-174.832
-171.966
-175.956
-164.171
-205.585
77.7596
-704.755
-503.281
-4.1281
-127.088
-159.827
-163.754
-173.668
-178.489
-177.871
-180.584
-175.6
-180.268
-174.931
-230.854
78.8725
-929.937
-503.318
-3.69116
-127.053
-159.559
-163.845
-173.914
-178.747
-177.927
-180.366
-175.783
-180.821
-175.732
-229.298
78.1886
-930.271
-503.513
-3.42272
-127.075
-159.476
-163.934
-173.988
-178.779
-177.778
-180.21
-175.759
-181.048
-176.567
-227.315
77.3358
-931.164
-503.706
-3.11385
-127.013
-159.322
-164.032
-174.188
-178.935
-177.814
-179.978
-176.04
-181.53
-176.994
-226.135
77.3719
-930.777
-504.008
-3.10141
-126.908
-159.276
-164.147
-174.329
-179.038
-177.875
-179.919
-176.206
-181.677
-177.053
-224.701
77.0406
-930.179
-504.3
-3.31624
-126.712
-159.251
-164.242
-174.524
-179.26
-177.991
-179.823
-176.108
-181.436
-177.39
-223.864
76.6336
-928.432
-504.614
-3.8582
-126.471
-159.312
-164.319
-174.677
-179.431
-178.038
-179.822
-176.007
-181.168
-177.393
-222.897
76.3122
-927.368
-504.791
-4.22295
-126.411
-159.409
-164.393
-174.792
-179.569
-178.002
-179.855
-175.894
-181.272
-177.976
-222.344
76.2533
-925.23
-504.855
-4.05092
-126.693
-159.553
-164.572
-174.94
-179.771
-178.286
-180.105
-176.152
-181.435
-177.445
-222.985
77.5346
-923.508
-504.947
-3.60241
-127.041
-159.687
-164.716
-175.038
-179.883
-178.603
-180.627
-176.632
-181.992
-177.406
-223.887
78.4723
-920.696
-505.131
-3.28198
-127.374
-159.907
-164.864
-175.077
-179.946
-178.669
-180.966
-176.701
-182.419
-177.258
-224.741
79.1076
-919.06
-505.333
-3.08923
-127.602
-160.082
-164.92
-175.113
-180.052
-178.749
-181.31
-176.821
-182.662
-177.376
-226.217
80.075
-917.256
-505.619
-3.27727
-127.826
-160.415
-165.046
-175.151
-180.188
-178.902
-181.808
-176.581
-182.291
-177.133
-227.428
80.8224
-915.804
-505.802
-3.43678
-127.882
-160.584
-165.061
-175.193
-180.319
-179.241
-182.15
-176.743
-181.995
-176.341
-229.501
81.87
-913.495
-506.103
-3.99103
-128.052
-161.042
-165.197
-175.206
-180.369
-179.58
-182.619
-176.838
-181.533
-175.789
-231.071
83.1689
-911.774
-620.935
-37.9393
-133.303
-184.82
-176.299
-186.648
-191.563
-189.123
-194.552
-186.174
-197.023
-196.261
-290.682
79.5831
-1199.13
-620.969
-37.5409
-133.287
-184.604
-176.352
-186.874
-191.723
-189.009
-194.008
-186.024
-196.939
-196.665
-285.131
75.5621
-1202.78
-621.171
-37.2877
-133.31
-184.512
-176.412
-186.939
-191.695
-188.731
-193.685
-185.668
-196.461
-197.767
-279.648
74.0871
-1205.68
-621.357
-36.9845
-133.316
-184.388
-176.495
-187.121
-191.768
-188.58
-193.354
-185.615
-196.593
-199.116
-275.193
73.1299
-1203.5
-621.663
-36.9464
-133.338
-184.348
-176.6
-187.267
-191.839
-188.62
-193.245
-185.864
-196.788
-199.826
-271.451
72.0605
-1201.26
-621.95
-37.0293
-133.339
-184.362
-176.713
-187.492
-192.067
-188.899
-192.933
-185.817
-196.029
-200.4
-268.949
71.2863
-1196.65
-622.292
-37.2806
-133.367
-184.466
-176.825
-187.688
-192.294
-189.118
-192.886
-185.876
-195.77
-200.982
-267.747
70.6672
-1192.75
-622.572
-37.4084
-133.43
-184.626
-176.957
-187.861
-192.493
-189.191
-192.798
-185.827
-195.845
-201.607
-267.645
69.7992
-1188.01
-622.815
-37.3288
-133.579
-184.819
-177.205
-188.114
-192.831
-189.638
-193.309
-186.221
-196.313
-201.153
-268.576
71.0354
-1183
-623.025
-37.1935
-133.719
-185.017
-177.435
-188.309
-193.081
-189.953
-194.16
-186.697
-197.246
-200.561
-270.56
71.8719
-1177.69
-623.259
-37.2438
-133.903
-185.307
-177.689
-188.465
-193.323
-190.076
-195.03
-186.832
-198.431
-200.327
-273.606
73.788
-1175.56
-623.453
-37.339
-134.049
-185.555
-177.856
-188.591
-193.595
-190.25
-195.648
-186.999
-199.016
-199.515
-277.655
77.5351
-1173.66
-623.719
-37.72
-134.258
-185.941
-178.113
-188.777
-193.974
-190.762
-196.382
-187.337
-199.344
-198.78
-282.995
82.1414
-1173.47
-623.869
-37.9315
-134.34
-186.161
-178.219
-188.89
-194.252
-191.328
-196.977
-187.971
-199.904
-197.955
-288.851
85.7965
-1168.04
-624.152
-38.4994
-134.548
-186.638
-178.493
-189.039
-194.517
-191.924
-197.865
-188.49
-200.343
-197.833
-293.962
92.5997
-1162.12
-750.897
-72.0972
-146.469
-216.866
-196.953
-206.538
-212.085
-206.656
-217.039
-203.921
-231.665
-219.132
-405.821
77.6348
-1522.25
-751.028
-71.791
-146.45
-216.712
-196.978
-206.794
-212.286
-206.659
-216.228
-203.959
-231.089
-222.845
-393.338
76.5814
-1526.98
-751.371
-71.5442
-146.449
-216.627
-197.011
-206.887
-212.277
-206.487
-215.769
-203.847
-229.934
-226.525
-382.423
77.0885
-1540.81
-751.649
-71.2878
-146.484
-216.55
-197.098
-207.115
-212.371
-206.387
-215.34
-203.465
-228.268
-227.576
-366.714
76.4464
-1542.65
-752.04
-71.2352
-146.561
-216.543
-197.207
-207.292
-212.445
-206.402
-215.171
-203.694
-227.278
-231.123
-355.865
73.4476
-1537.47
-752.39
-71.2123
-146.671
-216.615
-197.365
-207.577
-212.721
-206.954
-214.828
-204.192
-226.109
-233.917
-349.083
71.0403
-1530.06
-752.807
-71.2821
-146.841
-216.78
-197.541
-207.821
-213.025
-207.29
-214.536
-204.571
-225.368
-234.231
-342.078
71.2087
-1527.96
-753.175
-71.3054
-146.984
-217
-197.776
-208.08
-213.334
-207.466
-214.278
-204.959
-226.551
-236.795
-346.153
67.5489
-1514.02
-753.526
-71.381
-147.1
-217.257
-198.129
-208.469
-213.907
-208.097
-215.313
-205.368
-227.037
-234.896
-345.498
69.0728
-1510.74
-753.812
-71.4978
-147.196
-217.541
-198.486
-208.822
-214.438
-208.59
-216.891
-205.848
-229.443
-235.106
-353.791
71.323
-1502.3
-754.114
-71.7803
-147.381
-217.928
-198.9
-209.15
-214.993
-208.888
-218.513
-205.718
-231.183
-231.706
-362.189
78.2907
-1501.94
-754.339
-72.0308
-147.533
-218.273
-199.229
-209.41
-215.536
-209.197
-219.845
-206.263
-234.044
-229.837
-375.528
85.8869
-1503.63
-754.646
-72.4828
-147.778
-218.743
-199.667
-209.757
-216.188
-209.959
-220.984
-206.844
-236.152
-228.946
-392.473
88.9833
-1490.86
-754.803
-72.6994
-147.893
-219.02
-199.898
-209.952
-216.608
-210.541
-221.921
-207.403
-237.751
-225.261
-403.381
87.3725
-1474.91
-755.115
-73.2252
-148.147
-219.536
-200.36
-210.244
-217.065
-211.211
-223.267
-208.043
-239.384
-223.005
-418.535
88.6574
-1465.41
-895.66
-107.94
-164.219
-255.688
-228.419
-236.328
-244.537
-232.133
-253.891
-229.738
-304.816
-234.599
-667.685
89.7705
-1994.22
-895.913
-107.682
-164.228
-255.614
-228.421
-236.609
-244.706
-232.346
-252.117
-229.437
-298.543
-234.392
-588.759
92.1026
-2014.84
-896.415
-107.407
-164.228
-255.568
-228.444
-236.772
-244.768
-232.477
-251.359
-229.398
-291.654
-242.235
-525.013
96.3852
-2019.71
-896.804
-107.181
-164.309
-255.573
-228.546
-237.104
-244.996
-232.849
-250.859
-229.778
-286.12
-255.469
-489.94
98.1051
-2001.86
-897.318
-107.125
-164.425
-255.651
-228.677
-237.342
-245.14
-233.052
-250.391
-230.222
-281.921
-259.571
-471.17
92.8183
-1986.72
-897.773
-107.077
-164.598
-255.817
-228.89
-237.677
-245.437
-233.712
-249.702
-231.553
-280.065
-267.547
-460.359
93.6858
-1962.84
-898.3
-107.138
-164.828
-256.073
-229.175
-237.98
-245.82
-234.098
-249.334
-233.261
-280.531
-271.759
-452.637
88.5099
-1956.38
-898.759
-107.21
-165.03
-256.373
-229.57
-238.386
-246.329
-234.244
-249.033
-233.609
-282.27
-273.678
-456.536
84.5809
-1924.26
-899.217
-107.422
-165.212
-256.715
-230.085
-238.934
-247.298
-235.111
-251.205
-234.806
-285.079
-272.691
-463.879
79.0279
-1914.81
-899.597
-107.667
-165.369
-257.096
-230.635
-239.52
-248.323
-235.931
-253.752
-234.81
-287.773
-268.083
-475.532
86.8482
-1898.94
-900.012
-108.06
-165.608
-257.603
-231.304
-240.173
-249.505
-236.78
-256.715
-234.268
-292.153
-262.727
-489.838
97.5905
-1919.48
-900.324
-108.365
-165.793
-258.046
-231.862
-240.669
-250.497
-237.358
-258.992
-234.011
-297.483
-254.34
-514.736
113.889
-1922.54
-900.721
-108.858
-166.078
-258.618
-232.567
-241.249
-251.588
-238.238
-261.096
-234.325
-305.387
-242.241
-574.542
119.937
-1933.58
-900.915
-109.093
-166.208
-258.946
-232.956
-241.541
-252.232
-238.75
-262.858
-235.231
-314.06
-238.969
-652.153
122.394
-1910.29
-901.286
-109.633
-166.499
-259.523
-233.678
-242.078
-253.12
-239.449
-265.629
-236.364
-322.215
-241.028
-731.394
135.225
-1881.7
-1053.75
-149.94
-185.23
-301.532
-270.612
-276.939
-293.647
-265.234
-314.767
-257.826
-435.548
-152.256
-1236.33
118.692
-2313.98
-1054.14
-149.718
-185.273
-301.546
-270.584
-277.229
-293.487
-266.15
-311.714
-259.608
-426.8
-181.964
-1190.68
77.4987
-2393.11
-1054.8
-149.427
-185.283
-301.572
-270.619
-277.505
-293.715
-266.988
-310.957
-261.674
-413.778
-217.999
-997.439
141.288
-2632.01
-1055.33
-149.225
-185.407
-301.685
-270.717
-277.95
-293.944
-268.23
-309.102
-262.898
-387.023
-240.397
-730.401
190.207
-2603.46
-1056
-149.185
-185.562
-301.878
-270.886
-278.274
-294.031
-269.014
-308.158
-265.791
-375.285
-283.758
-632.893
165.906
-2552.75
-1056.59
-149.168
-185.773
-302.158
-271.156
-278.616
-294.051
-269.454
-306.651
-268.245
-372.331
-299.485
-614.167
137.59
-2505.68
-1057.26
-149.313
-186.039
-302.539
-271.584
-278.982
-294.273
-269.471
-305.24
-270.359
-372.242
-302.471
-585.029
134.433
-2487.83
-1057.84
-149.489
-186.294
-302.962
-272.189
-279.621
-295.264
-269.654
-305.777
-271.017
-378.53
-309.007
-611.973
108.008
-2459.59
-1058.46
-149.82
-186.575
-303.435
-272.933
-280.348
-296.683
-270.613
-309.319
-272.467
-380.856
-301.822
-606.865
122.28
-2419.84
-1058.98
-150.14
-186.828
-303.938
-273.761
-281.252
-298.661
-272.242
-315.046
-274.423
-391.244
-303.831
-638.765
133.715
-2423.54
-1059.55
-150.618
-187.165
-304.597
-274.814
-282.413
-301.219
-274.013
-320.752
-272.371
-397.354
-272.87
-694.864
176.832
-2441.06
-1059.96
-150.995
-187.411
-305.15
-275.692
-283.308
-303.244
-275.537
-325.506
-270.77
-420.802
-238.552
-887.203
186.693
-2488.88
-1060.45
-151.594
-187.772
-305.863
-276.791
-284.282
-305.318
-276.613
-330.808
-271.295
-449.845
-219.072
-1195.04
108.425
-2389.09
-1060.69
-151.9
-187.928
-306.248
-277.374
-284.699
-306.253
-276.771
-333.505
-270.628
-461.158
-185.182
-1255.33
72.5187
-2167.12
-1061.11
-152.545
-188.295
-306.944
-278.463
-285.641
-308.147
-277.472
-338.769
-270.136
-473.736
-162.319
-1302.51
93.0485
-2087.99
-1222.84
-204.38
-211.157
-358.148
-327.417
-331.958
-366.685
-309.326
-408.883
-283.034
-569.937
-112.015
-1040.44
-15.6035
-2819.95
-1223.37
-204.212
-211.219
-358.28
-327.384
-332.366
-366.188
-310.891
-405.27
-287.996
-563.867
-119.459
-1148.8
-81.4986
-2811.13
-1224.21
-203.896
-211.249
-358.428
-327.486
-332.896
-366.794
-313.725
-404.317
-293.488
-563.022
-155.168
-1283.07
-148.775
-2941.33
-1224.91
-203.708
-211.419
-358.681
-327.624
-333.561
-367.071
-316.785
-402.25
-299.844
-538.127
-211.021
-1131.85
-37.8332
-3299.99
-1225.76
-203.696
-211.619
-359.024
-327.908
-334.098
-367.028
-318.171
-399.657
-303.95
-497.321
-241.567
-837.892
146.08
-3224.92
-1226.53
-203.729
-211.872
-359.451
-328.314
-334.6
-366.849
-318.454
-399.092
-311.385
-502.884
-318.596
-802.313
158.946
-3096.6
-1227.37
-203.967
-212.193
-359.998
-328.974
-335.207
-367.096
-318.16
-396.472
-312.624
-509.059
-316.284
-749.301
156.751
-3199.16
-1228.13
-204.241
-212.522
-360.593
-329.882
-336.229
-369.202
-319.465
-399.444
-314.73
-523.043
-312.111
-916.533
52.2681
-2994.45
-1228.93
-204.69
-212.923
-361.269
-330.97
-337.257
-371.214
-320.664
-404.503
-315.824
-521.322
-317.597
-751.929
150.601
-3075.72
-1229.62
-205.12
-213.294
-361.945
-332.183
-338.486
-374.357
-322.527
-414.408
-318.768
-531.844
-300.738
-889.231
188.755
-2966.31
-1230.33
-205.745
-213.769
-362.801
-333.756
-340.127
-378.841
-325.216
-424.2
-316.311
-552.533
-239.391
-1100.53
140.394
-3129.76
-1230.86
-206.256
-214.11
-363.486
-335.051
-341.405
-382.457
-328.25
-432.845
-314.14
-594.322
-203.49
-1456.61
-14.789
-2896.14
-1231.43
-207.024
-214.598
-364.38
-336.672
-342.802
-385.866
-329.217
-439.523
-309.789
-607.308
-149.731
-1282.37
-18.9353
-2657.9
-1231.72
-207.437
-214.802
-364.826
-337.487
-343.269
-387.04
-327.702
-443.346
-306.25
-610.148
-139.103
-1083.5
-30.0831
-2620.19
-1232.19
-208.236
-215.3
-365.687
-339.074
-344.643
-390.524
-328.395
-451.273
-304.069
-616.375
-151.854
-916.396
51.1432
-2697.33
-1397.61
-273.254
-240.554
-424.316
-396.429
-397.923
-460.211
-374.934
-530.255
-331.458
-663.038
-150.777
-684.245
274.56
-4287.2
-1398.29
-273.139
-240.632
-424.558
-396.371
-398.407
-459.567
-376.16
-530.014
-337.804
-696.462
-191.021
-868.64
-117.988
-4091.56
-1399.32
-272.793
-240.676
-424.823
-396.526
-399.145
-460.293
-380.709
-530.669
-343.399
-723.512
-202.449
-1092.94
-194.133
-3664.68
-1400.22
-272.627
-240.88
-425.211
-396.691
-399.955
-460.5
-384.816
-531.064
-355.483
-716.375
-225.362
-1384.05
-175.886
-3577.78
-1401.27
-272.655
-241.123
-425.712
-397.099
-400.717
-460.404
-386.147
-528.59
-362.578
-688.264
-286.232
-1385
-75.1241
-3976.68
-1402.26
-272.752
-241.424
-426.292
-397.658
-401.423
-460.34
-385.533
-527.085
-368.768
-666.536
-313.06
-1243.81
114.732
-3846.02
-1403.32
-273.087
-241.825
-427.03
-398.597
-402.408
-461.169
-385.632
-524.694
-372.73
-691.671
-358.17
-1107.8
88.4599
-3875.75
-1404.3
-273.473
-242.249
-427.818
-399.86
-403.836
-464.511
-389.177
-531.398
-376.152
-722.542
-294.257
-1537.06
-207.602
-3423.82
-1405.31
-274.076
-242.792
-428.746
-401.423
-405.265
-467.59
-390.48
-538.036
-377.047
-695.055
-332.338
-1104.77
146.109
-3699.14
-1406.19
-274.673
-243.299
-429.634
-403.145
-406.812
-472.246
-392.286
-553.791
-381.147
-736.418
-334.082
-1578.27
141.248
-3655.91
-1407.07
-275.502
-243.95
-430.743
-405.386
-408.946
-478.779
-396.938
-569.375
-382.469
-777.631
-271.739
-1820.02
-32.0298
-3450.63
-1407.74
-276.195
-244.422
-431.597
-407.237
-410.584
-484.251
-401.681
-582.335
-378.447
-812.421
-222.85
-1487.48
-3.37039
-3198.32
-1408.43
-277.173
-245.097
-432.732
-409.577
-412.564
-489.641
-403.906
-590.372
-373.395
-809.1
-215.942
-1200
-36.7342
-3445.16
-1408.8
-277.722
-245.383
-433.269
-410.761
-413.175
-491.871
-401.377
-595.26
-371.661
-787.234
-216.133
-901.717
201.523
-3805.92
-1409.34
-278.709
-246.078
-434.363
-413.04
-415.137
-497.254
-403.391
-604.114
-371.702
-771.525
-206.321
-876.494
626.263
-3724.95
-1572.2
-366.039
-281.263
-507.5
-493.497
-489.858
-594.793
-480.258
-706.414
-415.426
-868.424
-204.636
-1277.91
421.214
-4890.23
-1573.02
-366
-281.342
-507.905
-493.419
-490.695
-594.277
-482.308
-709.117
-424.082
-889.729
-187.922
-1349.65
157.417
-4982.82
-1574.2
-365.642
-281.385
-508.338
-493.61
-491.852
-594.892
-487.992
-713.201
-427.212
-952.875
-249.563
-1569.28
-335.299
-4780.08
-1575.3
-365.529
-281.606
-508.939
-493.829
-493.15
-595.39
-493.609
-720.317
-444.989
-1004.43
-298.914
-1684.62
-353.835
-4152.04
-1576.54
-365.617
-281.886
-509.683
-494.407
-494.562
-595.746
-496.804
-720.31
-460.904
-971.819
-318.179
-1905.31
-322.589
-4117.28
-1577.74
-365.803
-282.248
-510.502
-495.225
-495.854
-596.673
-497.454
-720.534
-470.805
-964.659
-429.979
-1867.64
-53.4332
-4491.79
-1579.02
-366.246
-282.756
-511.513
-496.593
-497.545
-598.72
-499.569
-719.041
-478.114
-965.726
-431.732
-1673.54
100.247
-4495.72
-1580.23
-366.762
-283.314
-512.541
-498.397
-499.442
-603.665
-504.665
-734.18
-480.399
-1044.99
-426.025
-2089.88
-99.8244
-3837.51
-1581.45
-367.526
-284.043
-513.75
-500.713
-501.341
-608.59
-505.959
-740.309
-483.679
-987.616
-431.522
-1943.45
143.276
-4423.41
-1582.53
-368.297
-284.744
-514.849
-503.244
-503.1
-615.631
-507.576
-763.147
-487.215
-1073.18
-437.728
-2567.62
107.316
-3877.26
-1583.59
-369.318
-285.64
-516.201
-506.441
-505.517
-624.387
-512.357
-783.839
-485.05
-1105.92
-321.101
-2180.43
53.1083
-3906.87
-1584.41
-370.189
-286.32
-517.195
-509.133
-507.162
-632.053
-515.924
-802.27
-475.881
-1144.11
-329.65
-1914.92
8.13105
-4179.37
-1585.23
-371.356
-287.263
-518.547
-512.493
-509.478
-640.119
-518.245
-813.071
-469.444
-1118.78
-254.844
-1720.91
288.747
-4594.24
-1585.68
-372.035
-287.691
-519.153
-514.283
-510.078
-644.288
-515.465
-820.623
-470.547
-1116.62
-252.477
-1811.85
656.773
-4372.93
-1586.3
-373.194
-288.658
-520.467
-517.511
-512.499
-652.204
-518.686
-836.753
-474.331
-1154.03
-269.499
-2044.52
654.231
-4235.1
-1734.91
-478.25
-327.266
-599.18
-602.111
-587.336
-746.891
-605.349
-966.247
-552.794
-1462.81
-468.124
-2941.81
198.234
-5886.76
-1735.85
-478.298
-327.294
-599.728
-601.642
-588.409
-744.336
-607.673
-956.556
-558.31
-1392.5
-443.604
-2498.34
332.139
-5990.59
-1737.19
-477.97
-327.294
-600.304
-601.529
-589.76
-742.804
-612.177
-948.827
-558.097
-1358.04
-397.456
-2326.22
157.041
-6134.72
-1738.47
-477.933
-327.472
-601.088
-601.382
-591.319
-741.394
-617.331
-948.869
-576.811
-1401.14
-504.348
-2523.53
-169.034
-5911.79
-1739.91
-478.112
-327.74
-602.052
-601.768
-593.143
-740.327
-621.021
-940.6
-588.218
-1370.26
-455.855
-2686.95
-113.164
-5389.78
-1741.34
-478.413
-328.12
-603.081
-602.548
-594.824
-741.015
-623.354
-938.979
-602.983
-1330.12
-507.831
-2935.6
-142.885
-5256.62
-1742.86
-479.001
-328.712
-604.339
-604.167
-596.947
-743.553
-626.794
-937.918
-613.87
-1301.17
-535.375
-2588.72
242.176
-5880.72
-1744.32
-479.679
-329.392
-605.567
-606.441
-598.988
-749.885
-631.59
-959.978
-620.581
-1402.81
-597.506
-2696.67
318.959
-5472.55
-1745.79
-480.645
-330.322
-607.014
-609.6
-601.158
-757.37
-633.378
-973.39
-626.292
-1394.12
-612.166
-3357.84
534.841
-5216.79
-1747.1
-481.626
-331.244
-608.274
-613.137
-602.923
-767.89
-634.551
-1006.65
-621.192
-1475
-522.899
-3327.56
341.62
-4998.08
-1748.38
-482.892
-332.441
-609.836
-617.631
-605.442
-781.012
-638.621
-1048.14
-618.422
-1630.22
-546.847
-3076.17
373.531
-5520.52
-1749.39
-483.984
-333.386
-610.941
-621.582
-606.96
-793.7
-641.074
-1092.59
-614.126
-1778.97
-580.55
-3464.08
497.781
-5299.16
-1750.38
-485.403
-334.687
-612.508
-626.479
-609.594
-807.613
-644.501
-1129.43
-613.111
-1859.49
-518.506
-3982.16
857.63
-4882.26
-1750.95
-486.245
-335.312
-613.18
-629.268
-610.257
-816.193
-643.508
-1157.89
-614.858
-1965.17
-558.8
-4515.41
767.251
-4560.08
-1751.68
-487.646
-336.649
-614.732
-633.972
-613.22
-829.492
-648.283
-1195.98
-618.143
-2102.84
-520.597
-5008.33
668.388
-4474.96
-1853.27
-656.666
-407.558
-707.376
-781.37
-736.364
-1010.02
-771.34
-1393.94
-664.156
-2244.44
-372.636
-4641.83
181.589
-7004.12
-1854.25
-656.863
-407.368
-708.254
-779.733
-738.65
-1002.53
-778.11
-1368.66
-682.277
-2177.57
-482.122
-4677.75
364.7
-6573.41
-1855.56
-656.649
-407.22
-709.18
-778.791
-741.31
-997.007
-786.678
-1346.83
-699.4
-2134.94
-532.143
-4636.49
544.066
-6269.86
-1856.92
-656.757
-407.172
-710.378
-777.58
-744.338
-990.669
-795.816
-1326.85
-719.726
-2110.75
-568.664
-4291.55
422.377
-6908.2
-1858.43
-657.103
-407.308
-711.803
-777.317
-747.846
-986.094
-805.477
-1305.3
-748.137
-2049.19
-562.514
-3793.97
155.078
-7032.9
-1859.98
-657.603
-407.617
-713.224
-777.776
-750.809
-984.815
-812.305
-1293.01
-764.092
-1916.39
-527.686
-4068.45
122.328
-6642.93
-1861.61
-658.391
-408.295
-714.85
-779.747
-753.972
-988.082
-818.163
-1293.55
-776.136
-1899.97
-611.671
-4075.61
700.768
-7404.91
-1863.19
-659.273
-409.173
-716.281
-782.9
-756.173
-996.86
-821.023
-1317.81
-774.691
-1939.56
-492.546
-3530.79
58.3252
-8378.07
-1864.77
-660.438
-410.47
-717.878
-787.711
-758.338
-1010.33
-821.86
-1354.45
-774.605
-2059.7
-520.536
-4738.6
-142.696
-6975.43
-1866.2
-661.626
-411.847
-719.097
-793.291
-759.276
-1028.08
-818.471
-1406.25
-746.131
-2105.07
-408.132
-4337.94
-118.933
-7544.02