/*--------------------------------*- C++ -*----------------------------------*\
| =========                 |                                                 |
| \\      /  F ield         | OpenFOAM: The Open Source CFD Toolbox           |
|  \\    /   O peration     | Version:  4.1                                   |
|   \\  /    A nd           | Web:      www.OpenFOAM.org                      |
|    \\/     M anipulation  |                                                 |
\*---------------------------------------------------------------------------*/
FoamFile
{
    version     2.0;
    format      ascii;
    class       surfaceScalarField;
    location    "25";
    object      phi;
}
// * * * * * * * * * * * * * * * * * * * * * * * * * * * * * * * * * * * * * //

dimensions      [0 3 -1 0 0 0 0];

internalField   nonuniform List<scalar> 
19125
(
89.9862
-1.50742
1479.52
91.0465
-5.04743
1482.33
68.3846
-3.49366
1263.64
55.7544
-0.648163
1016.16
46.9684
4.25829
902.309
33.8019
6.33128
728.823
26.6259
8.38956
687.626
16.9032
1.17892
530.81
-0.325916
-0.673287
250.515
-7.34479
1.67223
101.63
-22.1831
3.70454
320.883
-49.6817
4.68499
673.725
-83.2854
-1.02714
1277.5
-91.9275
-4.5037
1556.11
0.283504
1827.15
89.386
-1.92146
1478.06
90.3745
-6.62066
1484
68.2153
-3.98758
1280.31
55.736
-0.0136571
1043.77
46.9666
5.37179
920.614
34.2525
7.56549
734.556
26.5655
10.1901
659.386
16.7174
1.01953
494.658
0.364088
-0.62653
241.435
-7.16763
4.53157
113.62
-22.7392
6.01275
301.452
-50.1049
2.32026
650.563
-83.1822
-0.817417
1290.76
-92.5402
-5.18157
1545.74
0.299147
1807.77
88.8251
-2.06267
1477.32
89.8075
-7.73183
1489.65
68.1952
-4.20788
1296.97
56.0391
0.40407
1062.26
47.1402
5.89045
926.646
35.028
7.88974
737.926
26.6185
10.4098
618.709
15.8521
3.24005
470.248
1.26083
2.06028
269.744
-8.56215
10.9753
134.303
-25.4281
6.33204
270.65
-50.7987
-4.6652
636.5
-83.76
-0.242971
1290.71
-94.5148
-3.78619
1529.84
-0.30726
1767.37
88.3307
-1.89604
1472.18
89.5321
-8.4556
1491.76
68.5622
-4.13163
1311.62
56.6518
0.67585
1079.02
47.4974
5.89557
931.224
35.2925
7.80459
735.798
25.5669
11.4533
598.839
14.1208
8.11224
470.458
1.82628
6.44029
320.58
-9.32929
20.2782
164.963
-25.774
2.47454
278.224
-51.062
-8.16928
692.599
-83.8939
-0.155474
1293.02
-93.632
-2.99719
1549.76
-0.55393
1781.03
88.0731
-1.36423
1462.12
89.167
-8.19259
1495.21
68.803
-3.7062
1329.31
57.0995
0.670738
1097.24
47.8339
5.19624
935.743
35.5789
7.43144
730.859
25.3653
13.0177
590.508
15.6517
10.2072
460.502
2.46684
2.49033
238.087
-8.65933
24.3909
132.223
-23.9295
-4.39897
353.476
-51.1581
3.53764
835.851
-84.2246
0.569305
1281.62
-93.068
-3.0659
1558.68
-0.576808
1787.96
88.2477
-0.50098
1445.01
88.8122
-6.14332
1496.1
68.9495
-2.62677
1347.33
57.4023
0.487648
1116.84
48.2448
3.64219
942.474
36.7904
5.88045
731.009
28.0313
10.4253
570.662
17.7886
3.93291
354.788
2.08213
-0.507405
168.362
-6.06794
22.0386
72.3451
-23.6767
-5.45159
337.243
-51.2927
11.4215
782.185
-84.5973
0.578797
1286.79
-93.0404
-3.07588
1568.28
-0.441453
1787.84
89.085
0.414496
1419.95
88.6505
-1.7009
1490.36
68.9822
-0.463705
1360.47
57.3556
0.563014
1135.67
48.0971
1.76986
952.192
37.6506
3.176
740.627
26.9998
6.419
530.075
15.8874
5.31742
357.958
-4.91301
4.5002
205.238
4.96264
-5.08749
19.99
-26.7605
6.28722
264.187
-51.2519
7.3321
687.206
-84.6433
0.53958
1300.14
-93.7477
-1.74325
1565.93
-0.346532
1773.31
89.5419
1.2193
1409.56
88.7772
3.46232
1485.01
69.119
2.1159
1361.52
57.4052
0.857287
1140.53
48.0782
-0.107825
955.207
38.2429
0.00838582
748.656
28.6704
-0.2685
518.056
15.8151
4.32522
314.637
-2.08828
9.47119
192.537
-9.6664
-0.20955
52.9116
-29.1255
6.84621
227.245
-51.8971
-6.65687
613.918
-85.2824
0.185918
1301.3
-95.4538
1.20602
1551.55
-0.90718
1743.02
88.8695
2.02798
1426.74
88.6954
7.30891
1491.16
69.0259
4.0667
1358.12
57.437
0.880492
1132.64
48.2903
-1.96978
951.838
38.2934
-3.18383
743.132
29.8975
-7.80409
524.706
18.7551
-1.77969
298.923
-0.993042
9.96568
136.973
-9.66611
9.1289
103.244
-23.5531
7.36905
299.111
-51.2597
-11.7538
646.157
-84.5061
-0.199719
1307.05
-93.5696
2.64624
1569.59
-0.906263
1777.45
88.2067
2.64884
1450.9
88.9127
8.94909
1495.74
69.0027
4.97899
1344.21
57.483
0.660098
1113.37
48.4499
-3.50385
942.747
37.3004
-5.35497
731.142
27.7129
-10.699
553.361
17.3282
-5.21806
361.118
0.815139
8.49969
153.44
-5.89751
11.7922
107.821
-19.3571
11.3308
430.466
-51.1932
0.392612
768.19
-84.6488
0.00298902
1290.05
-92.7854
2.47882
1571.68
-0.703266
1794.02
88.1529
2.91901
1467.45
89.2992
8.95162
1494.74
68.8693
5.21077
1326.11
57.2333
0.546182
1093.69
48.1773
-4.40022
934.748
35.9303
-6.01095
728.008
25.36
-9.08891
586.491
14.7546
-2.01414
455.835
3.32434
7.75694
243.68
-5.22002
16.1031
97.2827
-24.6631
6.20239
347.351
-51.6711
12.4945
850.348
-84.5506
0.851745
1288.32
-93.0735
2.57247
1564.51
-0.511932
1791.24
88.5035
2.8357
1476.73
89.7141
8.03139
1491.09
68.6653
5.08647
1308.19
56.8381
0.667591
1075.2
47.8711
-4.6302
929.014
35.5734
-6.22428
732.025
25.8494
-7.73731
599.997
14.9038
2.46267
474.734
2.43065
10.8025
295.313
-8.79637
28.849
150.515
-25.4624
1.82971
298.87
-51.8277
13.3574
736.346
-84.3522
1.25807
1299.53
-93.7496
3.70029
1557.01
-0.461735
1783.48
89.0769
2.46213
1481.12
90.0376
6.79316
1489.05
68.3353
4.66506
1293.66
56.2676
0.880263
1058.43
47.532
-4.36839
923.67
35.6063
-6.21339
736.638
27.4223
-7.87728
614.856
18.3122
3.55215
475.391
2.98876
8.7998
240.71
-11.266
37.6801
119.928
-28.1699
-1.64222
251.96
-52.1888
4.42919
648.003
-84.5354
1.57596
1301.27
-94.6968
5.25421
1537.47
-0.838321
1770.3
89.6935
1.85122
1481.26
90.6434
5.13555
1483.46
68.3886
3.964
1277.09
55.9849
1.28904
1039.72
47.3997
-3.53156
917.486
34.9948
-5.36921
734.168
27.9226
-7.1364
654.502
19.5551
1.56202
481.538
3.37408
6.46518
227.08
-10.4842
42.846
72.146
-27.6981
-2.89319
252.606
-51.6904
-2.192
654.073
-84.1474
1.44639
1301.59
-92.7851
4.57213
1552.72
-0.651802
1810.46
90.3388
1482.24
91.3385
1482.06
68.5778
1260.96
56.0111
1012.43
47.41
899.358
34.5587
728.642
27.6809
683.508
19.6969
531.608
0.983048
233.486
-6.98721
32.3762
-24.5321
294.523
-51.2687
678.166
-84.3458
1288.71
-92.2115
1562.81
1830.08
273.843
-3.91308
1430.38
266.473
-13.9305
1494.93
214.849
-11.6763
1319.25
169.48
-3.72893
1062.33
142.189
11.8126
925.029
103.959
18.4913
760.484
80.4071
26.0269
701.289
51.9724
5.6497
557.714
9.82224
-1.67157
293.541
-15.3425
0.453142
124.84
-64.7795
9.39231
365.823
-151.894
9.51857
759.244
-235.729
-5.79619
1363.45
-274.207
-12.7879
1599.59
1.45196
1843.83
271.915
-4.88906
1430.03
264.457
-17.9762
1495.5
214.242
-13.5095
1332.36
169.518
-2.24068
1087
142.349
15.0198
944.575
104.98
21.7884
768.628
80.0296
31.2003
679.162
50.8032
5.52988
524.002
9.21784
-1.92737
283.273
-15.9908
6.66383
132.613
-66.7269
15.3126
346.266
-153.779
2.21065
744.922
-236.202
-5.84563
1373.23
-276.294
-14.9446
1587.99
1.51009
1825.58
270.245
-5.06384
1430.03
262.651
-20.6831
1499.95
213.862
-14.453
1346.7
170.093
-1.03975
1104.82
142.845
16.4613
952.452
106.925
22.5486
773.085
80.5832
31.3519
644.898
48.7573
10.8003
496.802
9.31417
6.32491
300.932
-20.3306
20.5668
150.04
-72.948
14.6511
323.926
-156.499
-15.2944
737.555
-239.297
-3.49926
1371.17
-283.117
-11.9991
1570.71
-1.7174
1786.67
268.695
-4.26796
1425.91
261.568
-22.3859
1500.58
214.711
-14.7847
1358.8
171.852
-0.163567
1121
144.039
16.5145
958.983
107.745
22.1189
772.521
77.8597
33.4973
626.578
43.4336
23.5543
492.129
8.21817
20.5105
341.607
-23.1376
39.1961
177.685
-73.2831
5.30034
337.718
-156.816
-21.93
782.766
-238.567
-2.85244
1374.12
-279.672
-9.86738
1588.73
-2.61026
1799.57
267.922
-2.43678
1416.79
260.517
-21.322
1501.54
215.125
-13.8042
1373.72
172.99
0.149958
1139.06
145.046
14.5006
965.7
108.519
20.6165
768.888
77.3116
37.0364
618.175
46.663
30.0419
484.661
9.50242
16.2012
279.552
-23.7538
47.6863
156.983
-70.0328
-7.89885
412.952
-155.501
8.24548
891.142
-238.501
-0.0711537
1361.84
-277.485
-9.48587
1597.28
-2.22762
1806.42
268.388
0.0493166
1400.8
259.9
-15.6547
1498.91
215.288
-10.1644
1388.3
173.758
0.232913
1158.28
146.24
10.0885
974.404
111.598
16.0383
770.229
84.3552
30.3779
604.561
53.0886
15.2089
400.885
13.344
9.46132
214.841
-16.5565
43.7889
106.133
-69.9629
-5.94838
388.696
-156.619
28.0367
849.048
-239.435
0.485141
1369.05
-277.253
-8.67761
1605.29
-0.959691
1805.66
270.99
1.97133
1376.79
260.389
-4.1875
1489.49
215.119
-2.13495
1397.7
173.601
1.28704
1176.14
145.749
4.93007
985.202
113.441
8.64601
780.327
83.2935
17.8756
572.723
50.0593
15.729
390.669
16.8394
6.5835
241.33
-6.39596
13.7009
73.3002
-76.2488
9.51438
318.574
-157.851
18.7061
778.137
-240.385
0.869018
1382.29
-279.637
-4.75812
1601.26
-0.354503
1791.19
272.58
3.20586
1366.65
261.15
9.03029
1483.22
215.45
7.54454
1397.54
173.798
3.01229
1180.45
145.628
-0.070767
988.377
114.797
0.214829
787.917
87.3617
-1.2464
564.612
50.4574
10.3156
356.951
9.62343
16.2173
223.73
-14.0282
9.48749
80.7662
-80.9567
13.5807
290.104
-161.031
-13.8442
726.542
-243.665
1.4036
1383.4
-285.604
2.8116
1585.92
-3.37987
1762.13
270.534
4.95562
1383.25
260.224
19.0787
1491.42
215.329
14.5401
1396.02
173.843
3.91134
1173.23
146.218
-5.12973
984.522
114.997
-8.22525
782.793
89.9074
-21.7945
570.342
57.8532
-7.80667
349.096
6.19219
21.5195
183.326
-22.5628
25.6216
115.857
-71.4945
15.7964
345.824
-158.64
-28.3997
747.856
-240.172
0.394777
1389.59
-279.184
6.97034
1604.45
-3.45773
1795.31
268.466
6.67527
1406.63
260.005
23.6453
1499.63
215.526
17.4274
1385.79
174.014
3.86629
1154.92
146.739
-9.41038
974.301
112.894
-14.3394
771.1
83.7969
-29.9231
590.586
51.9932
-17.0714
402.183
6.80068
20.3989
199.748
-17.9752
32.5098
125.702
-61.5942
28.7297
461.149
-156.548
-0.916068
835.658
-239.54
1.18987
1372.25
-276.402
7.39742
1608.12
-2.02656
1811.04
268.28
7.56349
1422.36
260.819
23.9634
1501.88
215.418
17.7679
1371.16
173.379
3.87242
1135.72
145.977
-11.966
964.705
109.602
-16.7322
766.774
77.4534
-26.41
615.125
44.8599
-8.58935
479.944
12.9361
18.7872
277.211
-15.735
36.7381
121.719
-70.7504
19.7652
411.328
-156.912
31.4849
904.107
-239.537
4.34161
1367.79
-277.394
8.16693
1601.59
-0.710191
1807.75
269.313
7.4661
1430.78
262.095
21.7457
1500.52
215.129
16.8635
1356.06
172.395
4.31462
1117.49
145.059
-12.5833
956.966
108.595
-17.642
769.398
78.471
-23.4539
627.163
45.0613
3.15551
496.397
10.523
27.8309
320.804
-21.5028
57.0359
162.239
-73.1479
10.0182
360.26
-158.447
35.1419
817.987
-239.946
6.18067
1379.19
-279.886
11.1764
1593.94
-0.265064
1799.32
271.071
6.53791
1434.13
263.347
18.6698
1499.84
214.391
15.361
1344.12
170.766
4.92719
1101.44
143.922
-11.8804
949.81
108.489
-17.7519
772.178
82.5127
-24.2822
641.659
53.878
6.51548
500.662
13.6795
27.266
281.468
-25.0157
76.5235
139.127
-78.5319
0.0259706
315.464
-160.475
14.3986
750.687
-241.596
7.8708
1380.7
-283.74
14.644
1576.15
-2.7122
1786.63
272.893
4.95016
1433.47
265.288
14.349
1495.38
214.873
12.9761
1329.89
170.269
5.75462
1083.49
143.554
-9.47481
941.794
106.963
-15.4924
768.497
83.5099
-21.9691
675.64
57.5775
1.90924
512.073
20.3125
21.5858
270.017
-19.2949
88.6413
99.6234
-76.5612
-3.02154
312.914
-158.327
-1.75554
751.991
-239.057
6.95643
1383.23
-277.28
12.7173
1592.87
-2.27397
1825.14
274.962
1433.28
267.405
1495.04
215.548
1317.33
170.27
1059.28
143.422
922.552
106.015
760.666
83.2174
698.471
58.9384
558.109
22.7392
278.85
-13.5328
73.0109
-70.5307
349.946
-156.586
766.569
-238.972
1373.67
-275.329
1604.09
1843.4
486.853
-5.5444
1262.55
458.173
-18.5978
1529.42
389.385
-20.5865
1393.92
298.129
-11.2163
1155.9
242.487
15.3224
975.076
179.332
28.6742
815.188
133.802
43.3355
733.239
87.0432
14.5987
601.089
34.1219
5.07011
346.202
-23.7838
-3.69111
180.85
-128.5
11.0652
465.905
-283.01
8.63667
914.404
-393.291
-13.7012
1478.71
-486.633
-14.4313
1697.86
5.07487
1766.36
483.235
-6.57864
1264.35
454.087
-23.5903
1529.64
387.824
-24.4369
1402.47
298.065
-10.0556
1175.59
243.025
20.1365
994.801
180.603
33.5607
826.163
133.332
51.0814
718.687
85.2036
15.2136
571.515
34.4274
2.94914
336.168
-21.4033
1.83448
182.915
-130.885
16.4021
450.409
-285.969
-1.81298
910.455
-396.01
-14.9561
1484.53
-491.425
-17.2584
1686.23
5.19774
1748.86
480.331
-6.1238
1265.64
450.452
-26.5889
1532.82
386.337
-26.8396
1413.21
298.123
-8.49004
1191.47
243.597
22.4318
1004.68
183.141
34.5811
832.521
135.042
50.3943
693.684
83.1781
20.8191
543.059
30.8204
12.5482
343.688
-29.1083
17.2084
194.591
-139.541
11.0838
439.676
-290.687
-23.4592
910.346
-405.74
-9.05964
1480.32
-505.766
-14.5274
1668
-2.68315
1709.76
477.437
-3.92955
1263.42
447.794
-28.3083
1531.94
386.966
-28.7161
1421.5
300.738
-7.2345
1205.97
245.863
22.7952
1013.49
184.71
33.742
834.512
131.753
51.6774
678.252
74.3589
37.2741
533.066
24.565
31.4592
372.487
-33.1578
38.2177
214.395
-136.942
-0.144346
452.729
-288.834
-29.3714
940.569
-401.413
-7.12886
1484.77
-498.274
-12.83
1683.89
-4.85041
1722.49
475.746
-0.144222
1256.32
445.763
-26.4644
1529.68
386.858
-27.8889
1431.79
301.999
-5.99288
1222.67
247.427
20.0651
1023
185.878
30.6332
833.545
130.86
54.679
670.19
77.6585
47.0499
528.085
26.3227
30.945
331.399
-34.8249
48.9199
207.424
-130.035
-8.07977
516.096
-283.165
8.76177
1006.14
-398.714
-2.56857
1472.83
-493.383
-13.0506
1692.17
-3.7655
1729.82
476.563
3.41878
1242.35
445.476
-18.9805
1522.51
386.533
-21.3912
1440.74
302.731
-4.02211
1240.11
249.157
13.9545
1034.09
189.837
23.2804
836.902
140.196
45.5006
663.379
88.0934
29.9574
470.078
38.9199
19.3366
275.62
-21.3189
47.123
168.164
-130.607
0.887514
489.014
-286.216
33.5762
979.841
-399.522
-1.82789
1481.61
-492.709
-12.2966
1697.72
-0.79618
1728.17
481.661
4.20396
1219.53
448.8
-4.60096
1507.96
386.021
-5.20116
1444.29
302.085
0.691317
1255.36
248.199
7.09549
1045.95
191.669
12.4229
847.714
141.032
25.9286
642.93
85.6413
25.1919
450.823
49.9107
10.3711
286.023
-7.17564
31.254
146.25
-139.043
16.3155
435.011
-290.672
23.5794
939.76
-402.861
-0.725972
1493.37
-497.626
-7.55559
1691.28
0.1994
1712.92
484.691
3.77312
1209.24
451.343
11.7251
1500.24
386.577
14.7234
1442.37
302.375
6.75545
1258.59
247.906
0.770669
1049.17
193.102
0.597114
854.546
146.13
-1.81892
639.33
89.1091
12.2761
426.886
39.8504
20.4711
262.885
-22.6524
23.4619
151.055
-150.545
9.35619
424.953
-298.551
-14.7274
912.854
-412.365
3.13508
1493.35
-510.232
1.29329
1674.94
-7.66789
1683.74
481.014
5.55454
1224.76
448.176
24.4308
1511.55
386.445
28.5893
1443.88
302.514
10.9945
1252.92
248.784
-5.87993
1044.9
193.514
-11.1931
849.852
148.849
-30.5496
643.735
99.3969
-16.2374
427.059
34.7592
26.0659
242.365
-30.0885
36.5798
167.581
-139.323
10.4694
453.943
-293.482
-34.5112
921.798
-402.48
1.34092
1500.38
-496.844
6.41687
1693.69
-8.76439
1717.46
477.306
8.44507
1246.93
445.747
30.5984
1525.02
387.087
33.5212
1439.52
303.211
12.5631
1237.23
249.805
-11.7341
1033.56
191.62
-20.4406
838.532
140.273
-42.9309
654.313
88.1548
-29.8774
467.938
30.7412
20.2149
263.008
-24.5098
42.4487
175.078
-123.352
36.4993
533.959
-286.76
-3.81357
968.367
-399.197
1.60726
1484.42
-490.667
6.7288
1699.27
-5.79869
1732.85
477.037
10.3459
1261.33
446.423
31.4546
1531.63
387.534
33.1403
1430.43
302.665
13.2405
1219.91
248.745
-15.2438
1022.13
187.553
-25.0121
832.537
131.373
-40.4487
668.821
76.1332
-19.0747
524.379
33.1071
15.0179
325.43
-24.2498
40.1511
181.369
-130.86
36.2821
518.153
-285.567
38.2655
1016.73
-400.286
6.99902
1477.12
-492.275
7.15946
1693.15
-2.78095
1728.54
478.861
10.6785
1268.29
448.822
28.871
1533.14
387.89
30.2631
1419.87
301.676
13.7784
1203.16
247.319
-15.8878
1011.97
185.924
-26.8056
832.585
132.012
-38.2289
678.853
75.5725
-4.06845
537.827
27.5559
24.8184
359.015
-31.7645
54.5022
207.201
-137.257
27.1832
474.848
-290.642
44.9883
964.647
-403.52
11.6016
1487.47
-497.353
10.3901
1684.54
-2.15504
1718.6
482.045
9.59726
1269.73
451.894
25.224
1533.64
387.498
27.0459
1411.73
299.284
14.449
1188.98
245.119
-14.7189
1002.8
185.087
-27.0855
832.489
136.659
-40.3498
692.206
87.1902
-0.0318712
546.091
33.0511
27.2207
333.199
-35.5031
75.4435
186.733
-147.181
11.6964
442.624
-297.147
21.6953
923.945
-409.23
17.1686
1487.22
-505.645
14.5094
1668.44
-8.42384
1705.65
485.126
7.42067
1267.66
455.788
19.703
1530.23
389.158
22.4446
1401.12
299.359
14.5811
1173.16
244.706
-11.1546
992.881
182.96
-23.6435
826.798
136.71
-36.3961
717.934
90.9142
-4.96259
562.795
41.6143
21.2009
325.33
-27.1252
83.8633
159.934
-144.042
3.06889
438.453
-294.096
2.31715
921.421
-400.467
14.7578
1492.01
-492.103
12.7681
1686.24
-7.32288
1743.83
488.968
1265.15
460.108
1530.14
390.871
1393.13
299.515
1154.1
244.215
973.644
181.751
816.333
136.242
733.215
92.321
603.104
39.2502
338.729
-27.8905
150.983
-138.256
461.285
-291.554
924.587
-398.546
1486.06
-487.535
1697.19
1760.88
695.592
-5.54766
1001.21
694.338
-17.5342
1535.27
604.762
-26.286
1490.27
461.409
-22.1413
1303.8
355.922
10.3382
1076.02
262.778
33.4806
899.432
186.491
55.9962
794.56
112.869
28.6514
668.629
29.2193
12.4303
427.576
-73.1566
11.5536
279.463
-233.391
15.6023
622.849
-447.32
1.40639
1132.17
-604.429
-27.3188
1645.98
-724.38
-14.1729
1821.91
7.82502
1589.14
691.272
-5.89115
1005.05
687.67
-21.1569
1536.86
600.907
-31.9777
1494.92
460.194
-22.9735
1317.14
356.436
15.4196
1093.48
263.926
39.6224
912.531
185.732
65.3131
787.563
111.317
31.2556
643.325
36.1995
11.0341
412.68
-65.8269
16.7421
279.751
-238.616
18.3955
620.404
-453.835
-8.96333
1136.04
-611.838
-31.789
1647
-731.108
-17.9651
1809.29
7.83156
1572.49
687.815
-4.0025
1007.57
682.021
-22.1932
1539.65
597.291
-35.8891
1501.85
458.619
-22.2538
1329.42
356.392
18.3657
1103.96
266.412
41.3118
920.812
188.659
64.0088
772.741
111.051
35.5977
616.324
31.9922
22.5849
411.194
-75.2929
30.6489
287.968
-249.193
8.24461
623.726
-462.456
-27.3047
1141.95
-633.58
-20.1053
1639.76
-751.36
-17.036
1784.85
-5.16351
1533.33
683.412
0.679468
1008.14
676.753
-22.0468
1538.45
596.164
-39.7871
1505.99
461.082
-21.775
1340.57
359.653
19.2534
1114.03
269.114
40.5673
925.795
186.197
63.5779
761.599
101.808
50.4206
602.631
28.4775
42.4233
425.977
-70.9638
45.2027
299.281
-241.61
-4.34238
635.961
-457.538
-31.0945
1160.29
-622.109
-14.8075
1644.04
-739.362
-15.129
1799.24
-8.93838
1546.54
681.14
5.879
1004.29
673.365
-18.66
1534.06
594.55
-39.8063
1510.62
461.452
-19.7497
1353.74
361.308
17.0591
1125.34
270.737
36.1981
928.485
185.35
64.2369
754.918
105.272
59.9232
598.659
36.6688
42.0444
400.38
-62.4626
47.9953
303.761
-227.569
-2.39563
679.254
-447.86
5.08181
1190.25
-614.719
-9.2492
1634.13
-731.528
-14.8371
1808.68
-7.38733
1554.87
682.377
8.26705
994.009
674.151
-11.2485
1523.32
593.681
-31.1457
1512.54
461.332
-14.3135
1367.02
362.845
11.844
1137.79
274.57
26.9507
934.424
194.996
53.4119
753.777
118.113
43.1897
563.694
54.4969
23.3367
357.941
-48.0598
42.5615
276.151
-231.336
12.4282
657.466
-453.235
28.3977
1178.42
-613.693
-9.31862
1642.14
-728.964
-13.5423
1811.7
-1.77705
1552.61
687.606
5.75961
975.409
681.635
-0.900771
1503.58
594.221
-7.88977
1508.44
459.92
-2.03442
1377.38
360.903
7.15561
1149.65
275.453
14.2758
945.838
197.341
30.1174
744.336
117.155
30.6496
543.548
59.1589
14.1337
353.219
-46.0151
33.7739
260.208
-245.212
18.3781
628.256
-461.139
20.6553
1163.43
-621.113
-6.20753
1650.24
-735.828
-9.65751
1802.11
-0.122772
1537.31
690.315
2.06911
966.424
686.374
9.34832
1493.93
595.841
20.8624
1504.15
460.424
13.0448
1378.92
360.365
3.72897
1152.66
276.084
1.39827
951.704
201.798
-0.89222
744.625
120.37
11.2023
527.759
34.9099
33.7309
328.745
-81.0978
26.3302
274.504
-263.949
-5.1289
631.31
-474.069
-11.1682
1154.8
-641.693
6.49745
1648.27
-754.728
-3.02468
1781.34
-13.0226
1507.17
686.348
3.10033
978.661
680.226
18.5601
1508.46
594.666
40.4877
1509.81
460.632
23.9797
1376.02
361.611
-0.857686
1148.51
276.918
-11.5305
947.474
204.952
-32.601
747.408
132.252
-22.5589
533.519
45.8971
34.3271
328.121
-69.1417
36.0326
272.915
-249.235
-5.72956
634.636
-464.642
-29.1903
1155.23
-620.593
6.49756
1656.33
-736.27
2.10467
1804.23
-15.9793
1541.28
683.116
7.06731
996.352
674.779
24.7099
1527.2
594.738
46.8304
1513.22
462.214
28.4009
1365.33
363.642
-5.86284
1137.14
276.507
-22.4671
936.604
196.207
-47.9389
749.949
119.864
-39.3836
561.105
52.4017
13.3708
351.425
-46.2457
34.0323
275.723
-225.623
32.4419
675.164
-453.572
-2.94238
1170.07
-612.541
5.30073
1644.58
-726.847
3.79994
1811.88
-10.914
1555.3
683.934
10.1912
1007.25
675.275
27.3209
1537.67
595.998
45.3689
1511.16
462.549
29.5066
1352.26
362.898
-8.99661
1124.92
272.741
-28.6344
928.86
186.136
-48.2994
755.786
104.443
-30.7971
597.485
44.4064
3.6665
395.168
-52.2085
20.1271
291.886
-228.352
41.938
684.799
-449.94
37.1778
1198.2
-615.63
11.7555
1636.36
-728.826
5.04924
1805.1
-5.52383
1550.06
686.709
11.3409
1011.69
679.109
26.752
1541.31
597.985
40.2345
1506.12
462.602
28.9489
1339.1
361.525
-9.36333
1113.41
270.645
-30.7683
925.6
185.938
-47.9551
763.216
102.259
-17.6985
608.407
30.1294
15.4721
419.339
-68.8867
22.2011
304.144
-240.06
32.4607
655.499
-457.999
45.1582
1174.61
-623.334
20.027
1644.53
-735.791
8.61982
1793.43
-3.35699
1538.28
690.804
10.5254
1010.9
684.702
24.7805
1541.71
599.491
35.2415
1501.93
460.511
28.5167
1328.39
358.383
-7.8204
1103.39
268.473
-30.6585
922.288
189.551
-50.9693
774.14
111.577
-14.0949
620.46
24.1722
28.8342
407.24
-86.4233
32.0535
287.473
-257.004
11.4289
634.235
-468.986
26.7768
1154.31
-637.192
31.8834
1643.56
-749.733
11.3178
1778.28
-13.3572
1524.31
694.129
8.33339
1007.75
690.677
20.1278
1538.33
603.391
28.6328
1495.01
462.308
26.4326
1316.32
358.627
-4.31375
1093.05
266.313
-26.1963
914.649
188.353
-45.658
790.581
113.298
-16.6938
640.447
28.1135
30.0358
409.31
-80.9885
29.3022
271.783
-252.949
-2.32743
624.168
-463.047
9.57167
1148.72
-617.354
26.7755
1651.43
-731.264
9.70611
1801.76
-11.8902
1561.48
698.561
1003.2
697.661
1536.6
607.492
1490.82
463.712
1303.75
358.257
1076.34
265.373
902.363
188.673
798.252
115.483
674.92
22.8585
436.411
-83.5515
268.982
-244.464
623.366
-457.332
1144.04
-611.348
1650.16
-725.017
1813
1576.61
839.156
-3.34632
753.573
918.658
-13.9719
1458.99
846.77
-25.7614
1568.21
666.946
-31.1801
1490.02
494.533
-2.97552
1246.86
357.606
29.1018
1028.67
247.04
59.8152
891.063
138.455
40.5103
769.68
-2.93156
-4.29535
571.439
-151.876
38.6421
422.786
-362.231
27.0494
830.714
-635.249
-7.27206
1412.22
-844.125
-24.5937
1865.9
-923.341
13.9738
1894.24
14.2139
1385.27
836.096
-2.22338
757.458
911.205
-14.897
1462.67
840.126
-31.2926
1571.52
662.953
-34.5923
1497.72
493.654
0.285675
1259.51
357.903
35.5016
1041.88
244.343
69.5824
891.356
133.678
44.9402
749.559
0.313219
-5.20919
546.957
-148.665
42.6748
424.695
-369.447
25.6293
842.605
-643.513
-16.7012
1419.54
-854.571
-29.3088
1862.77
-930.051
13.8937
1884.85
13.0646
1374.57
833.248
1.5525
760.152
904.772
-12.5389
1465.76
834.052
-34.831
1576.1
658.53
-35.5755
1505.92
491.649
2.81687
1268.31
359.086
38.1564
1050.72
247.073
68.5709
885.765
133.278
48.3698
726.688
-6.85858
12.3575
533.763
-161.823
51.1535
434.452
-384.456
13.0627
858.925
-661.658
-25.2659
1427.71
-887.087
-14.6596
1850.54
-947.124
2.27692
1856.51
-6.39454
1345.68
830.06
6.64676
762.201
898.048
-8.02177
1465.94
829.909
-38.3883
1577.68
658.979
-36.8638
1512.79
494.889
3.51497
1277.43
362.635
38.2266
1057.98
245.126
67.6001
880.079
124.37
59.9281
711.828
-6.95203
39.5467
530.11
-155.583
51.8696
447.195
-379.635
-1.73003
874.805
-654.962
-25.8014
1436.15
-868.602
-10.9784
1854
-934.94
-5.06992
1872.92
-13.08
1356.12
829.165
9.91894
761.068
894.636
-1.08686
1461.65
826.529
-37.4187
1577.76
657.321
-34.6413
1520.73
495.526
2.67001
1287.98
364.314
34.0107
1063.91
244.179
66.3868
876.266
127.919
67.4559
707.39
9.94436
45.1618
512.738
-135.059
38.1288
462.503
-361.97
1.18281
903.252
-642.914
0.803231
1444.59
-855.231
-11.609
1847.07
-927.881
-8.63261
1884.9
-12.9969
1362.32
829.625
9.80531
755.944
896.024
5.53434
1450.3
825.809
-27.8734
1573.21
656.156
-25.5857
1527.62
495.946
1.34661
1299.32
367.188
25.0377
1072.16
252.966
55.0322
879.353
141.842
51.6909
690.582
28.3627
26.842
489.739
-124.02
28.8907
437.771
-367.238
16.2309
885.635
-647.15
17.0309
1442.11
-852.217
-16.3671
1851.96
-925.155
-9.66078
1885.66
-7.04758
1358.08
831.063
4.97776
746.045
904.194
6.53251
1429.45
829.216
-5.56202
1561.11
655.379
-4.92876
1530.56
492.866
4.43536
1309.07
366.211
14.0055
1083.52
255.51
31.4173
878.651
141.383
33.378
675.988
19.1842
22.0128
480.245
-139.38
22.7408
424.921
-383.994
16.1823
872.917
-657.451
11.7004
1442.22
-863.605
-13.7341
1853.76
-930.7
-11.9391
1871.49
-4.56016
1344.16
830.54
0.264316
741.376
908.466
3.027
1419.5
832.33
20.703
1554.02
656.91
19.8934
1529.52
492.466
10.1737
1311.36
365.624
4.1139
1088.44
258.608
1.39709
881.661
140.07
11.6769
667.998
-16.2792
47.0091
460.097
-181.117
21.1878
440.893
-404.398
-10.2345
881.007
-676.832
-6.11358
1445.04
-894.362
4.33244
1847.73
-949.505
-19.9744
1844.52
-20.3525
1316.75
828.36
1.20803
747.997
901.458
3.84495
1434.54
828.742
38.9622
1564.27
656.084
37.7194
1530.85
493.894
12.5459
1308.33
367.301
-6.59776
1084.78
262.435
-29.0206
882.692
155.573
-23.8783
675.935
14.0817
43.3441
473.276
-152.713
33.8457
427.05
-387.916
-11.371
870.975
-660.846
-19.3256
1441.37
-865.103
5.76043
1859.16
-935.653
-17.8481
1872.66
-24.9069
1342.67
828.704
5.22059
757.199
895.974
9.37457
1454.4
826.929
45.5613
1575.66
657.497
44.7215
1527.76
497.123
10.903
1299.15
369.218
-16.8329
1074.74
255.327
-45.1821
880.001
145.102
-43.2099
690.66
34.9283
13.4425
491.498
-113.477
26.0452
431.927
-362.489
24.7193
888.085
-648.552
-2.23012
1439.04
-852.757
-0.330004
1854.88
-926.078
-15.6497
1883.01
-18.744
1352.33
831.66
8.21985
762.3
897.57
15.4928
1465.64
829.067
45.0402
1580.19
659.134
45.6562
1521.25
497.481
8.88708
1288.59
366.624
-22.9879
1065.87
245.307
-47.7958
879.716
126.787
-37.6817
710.476
12.9682
9.12445
513.304
-128.911
-2.74603
462.555
-363.212
33.086
910.733
-646.491
27.701
1451.55
-857.649
-0.378571
1847.56
-925.046
-17.7088
1874.55
-11.3938
1348.87
834.797
9.37507
763.721
902.493
19.5123
1469.59
833.273
40.6072
1579.77
661.412
43.2241
1513.39
497.319
8.09358
1278.29
364.67
-24.6182
1059.88
244.819
-48.5109
883.78
122.517
-26.48
719.505
-10.8005
32.8503
528.926
-154.784
-19.3992
464.776
-377.341
17.2018
893.939
-657.427
36.7814
1445.61
-871.966
6.34119
1852.35
-931.141
-22.5446
1857.44
-10.4418
1339.48
838.122
8.6005
761.792
909.372
21.1548
1468.81
837.836
36.1406
1577.93
661.547
40.9833
1506.92
494.403
8.98665
1269.64
361.581
-23.7449
1054.23
248.187
-51.7142
890.736
129.564
-21.8239
734.425
-23.318
58.731
534.237
-176.354
-23.9887
445.095
-392.982
-7.54784
875.611
-670.533
28.677
1439.96
-893.112
22.2802
1850.2
-945.205
-29.7432
1837.57
-26.5623
1327.75
839.833
6.89536
759.135
915.448
18.8126
1465.05
844.087
29.3919
1573.11
666.312
36.1603
1498.92
496.734
10.4301
1261.19
360.828
-19.2918
1046.1
247.484
-46.1421
898.351
134.103
-22.1947
754.195
-12.2017
60.9978
553.345
-165.133
-29.5174
430.239
-383.646
-19.5901
854.722
-654.881
15.2604
1433.37
-862.201
18.6187
1862.41
-928.066
-25.1164
1863
-23.7987
1353.43
842.529
754.975
923.068
1460.97
851.007
1570.05
670.645
1491.97
497.965
1249.52
361.133
1034.04
250.466
898.679
142.542
781.412
-1.41299
592.517
-155.105
426.88
-373.802
839.103
-648.632
1426.85
-853.943
1864.85
-921.296
1869.11
1361.72
913.398
0.837742
615.271
1056.63
-11.0335
1318.27
1057.14
-21.0177
1572.14
896.381
-33.9987
1657.75
668.983
-18.248
1476.17
468.386
16.0813
1224.26
316.793
55.831
1030.91
180.131
45.873
899.512
-1.23279
-24.9133
762.359
-192.733
55.3596
607.753
-480.698
41.8616
1112.33
-812.918
-11.8513
1749.37
-1059.23
-32.0278
2123.08
-1054.96
11.603
1882.24
6.76794
1268.81
912.298
3.1163
617.254
1050.89
-9.90829
1322.95
1049.52
-24.4252
1576.3
889.192
-38.7125
1662.76
664.915
-18.1138
1483.66
466.988
21.0208
1234.87
312.402
64.9896
1036.78
169.452
49.8692
888.512
-16.1992
-29.8272
737.521
-207.636
61.4922
609.999
-497.716
44.6344
1129.91
-827.433
-16.3406
1753.75
-1064.71
-38.1394
2106.16
-1054.84
10.7158
1875.87
7.21811
1264.6
911.891
5.50741
618.784
1046.33
-4.69359
1326.1
1042.71
-24.8757
1580.18
881.848
-40.2732
1668.34
659.434
-17.0308
1489.64
465.146
23.8859
1242.14
313.36
64.8793
1037.66
165.227
52.2183
872.471
-35.1189
-11.7697
716.051
-230.963
66.5325
625.255
-517.753
32.9773
1157.37
-847.213
-20.626
1761.46
-1083.14
-28.8473
2077.17
-1056.4
-4.2132
1844.7
-4.10184
1253.67
911.127
7.93305
620.27
1041.05
3.56493
1327.75
1036.68
-24.319
1581.5
878.947
-41.8176
1672.06
660.71
-17.3908
1496.02
468.304
24.5461
1249.73
311.318
64.2441
1037.7
152.231
64.0162
859.116
-47.8305
22.1081
696.293
-232.521
50.8358
647.581
-506.16
8.46585
1172.96
-828.782
-22.1978
1760.34
-1057.78
-22.956
2077.11
-1049.51
-7.50702
1867.94
-12.0516
1264.05
911.606
8.49522
620.376
1038.83
13.0478
1324.94
1032.77
-19.8836
1579.38
875.098
-38.4977
1675.09
659.015
-16.7344
1503.4
468.919
21.8091
1256.75
309.596
62.1064
1037.73
152.535
74.2409
854.226
-37.4709
43.272
681.579
-216.371
23.278
668.96
-490.65
0.563686
1185.43
-819.405
-5.47938
1756.63
-1046.89
-21.3934
2073
-1047.87
-6.16476
1884.53
-16.6898
1265.05
911.232
7.07712
619.43
1039.58
18.4686
1316.53
1032.64
-11.0434
1571.31
873.684
-27.0633
1675.14
658.044
-12.6097
1510.84
470.547
15.9938
1265.47
316.938
51.4541
1043.61
170.112
60.885
850.763
-11.3868
35.8073
678.701
-203.354
14.559
638.456
-497.35
11.2949
1168.9
-824.542
3.28243
1760.54
-1042.82
-24.09
2072.94
-1043.67
-5.33072
1885.68
-13.2902
1258.01
909.012
3.80663
617.702
1043.93
11.8704
1301.12
1037.49
1.72392
1554.78
875.358
-3.877
1669.5
655.208
0.927451
1515.69
467.77
11.713
1275.24
318.921
30.6566
1048.3
172.113
39.129
844.551
-17.8326
33.1901
672.806
-218.211
15.9082
623.95
-515.237
15.5479
1165.69
-839.067
3.5185
1765.81
-1056.05
-18.6589
2065.3
-1047.49
-14.5097
1872.11
-16.8208
1249.39
906.191
1.81506
617.404
1045.05
-1.62294
1294.14
1040.44
13.9633
1546.39
878.332
22.4635
1665.28
655.937
18.3852
1516.3
466.738
10.243
1279.11
320.89
5.47191
1052.69
170.713
14.3835
842.92
-43.551
50.4588
657.091
-250.802
26.9263
637.125
-541.007
-0.11048
1186.87
-866.564