/*--------------------------------*- C++ -*----------------------------------*\
| =========                 |                                                 |
| \\      /  F ield         | OpenFOAM: The Open Source CFD Toolbox           |
|  \\    /   O peration     | Version:  4.1                                   |
|   \\  /    A nd           | Web:      www.OpenFOAM.org                      |
|    \\/     M anipulation  |                                                 |
\*---------------------------------------------------------------------------*/
FoamFile
{
    version     2.0;
    format      ascii;
    class       volVectorField;
    location    "25";
    object      U;
}
// * * * * * * * * * * * * * * * * * * * * * * * * * * * * * * * * * * * * * //

dimensions      [0 1 -1 0 0 0 0];

internalField   nonuniform List<vector> 
6750
(
(2.64483 -0.00554331 16.7651)
(0.272673 -0.0184529 16.6305)
(1.31662 -0.0135597 13.9533)
(0.463992 -0.0035058 11.2878)
(0.684781 0.0158873 10.0747)
(0.414791 0.0239224 8.08278)
(0.338254 0.0307258 7.69805)
(0.260581 0.00551324 5.86662)
(0.0882654 -0.00202835 2.6244)
(0.0266872 0.00422643 1.07647)
(-0.346884 0.011598 3.47039)
(-0.0188449 0.0204823 7.28398)
(-1.3833 -0.00400725 14.0065)
(0.103027 -0.016232 17.3448)
(-3.34841 0.000792326 20.4487)
(2.63608 -0.0105942 16.7453)
(0.269436 -0.0356886 16.6558)
(1.30672 -0.0232991 14.1568)
(0.466142 -0.00252999 11.6085)
(0.683118 0.0296482 10.2731)
(0.416871 0.0433846 8.13655)
(0.343374 0.0584221 7.35385)
(0.258157 0.0060023 5.45306)
(0.0852467 -0.00526758 2.5371)
(0.0370241 0.0148119 1.2263)
(-0.348479 0.0288327 3.24802)
(-0.0266421 0.0274007 6.98101)
(-1.3822 -0.00674699 14.1686)
(0.105945 -0.0321191 17.2349)
(-3.37898 0.00242126 20.2237)
(2.62682 -0.0112601 16.7342)
(0.266686 -0.0397498 16.7247)
(1.29895 -0.0225488 14.3532)
(0.470003 0.00171202 11.8176)
(0.686563 0.0315231 10.3327)
(0.418081 0.0430096 8.17074)
(0.356294 0.0574391 6.87033)
(0.251414 0.00735555 5.19484)
(0.0763631 -0.00128511 2.90461)
(0.0485666 0.0381395 1.47327)
(-0.390324 0.0386865 2.86521)
(-0.0335557 -0.000428489 6.7925)
(-1.39248 -0.0021043 14.173)
(0.109517 -0.0255628 17.0631)
(-3.4522 0.000207473 19.7581)
(2.62219 -0.0116695 16.6728)
(0.263904 -0.0467248 16.7554)
(1.29639 -0.0242145 14.5284)
(0.477764 0.003095 12.0071)
(0.692649 0.0341563 10.3756)
(0.420942 0.0448229 8.14113)
(0.357041 0.0590989 6.64146)
(0.230991 0.0299633 5.21942)
(0.0639007 0.0272274 3.5207)
(0.0529629 0.0887165 1.83447)
(-0.400229 0.0314378 2.90823)
(-0.0339318 -0.0563948 7.46408)
(-1.39491 -0.00158054 14.1948)
(0.106246 -0.0174947 17.2923)
(-3.41945 -0.00304151 19.9152)
(2.62577 -0.00959289 16.5564)
(0.260695 -0.0482017 16.8048)
(1.29235 -0.0223511 14.7383)
(0.483837 0.00428975 12.2114)
(0.697017 0.0321581 10.4174)
(0.425125 0.0434424 8.08174)
(0.357996 0.071966 6.54814)
(0.227153 0.0617438 5.09537)
(0.0922819 0.0381879 2.49056)
(0.0545566 0.129093 1.40587)
(-0.379531 -0.00496486 3.73325)
(-0.0313298 -0.0218076 9.22574)
(-1.39874 0.00111619 14.0711)
(0.105284 -0.0165794 17.3935)
(-3.40144 -0.00321084 19.9945)
(2.64304 -0.00556357 16.3601)
(0.257449 -0.0433762 16.829)
(1.28779 -0.0190724 14.9534)
(0.488307 0.00319454 12.4314)
(0.699987 0.0257656 10.4845)
(0.432667 0.0394575 8.07897)
(0.374367 0.0702574 6.29438)
(0.269666 0.0427403 3.80608)
(0.0937769 -0.00832331 1.69059)
(0.0835559 0.145196 0.688381)
(-0.379076 -0.0455339 3.59037)
(-0.0278565 0.0553497 8.57433)
(-1.40572 0.00408862 14.1183)
(0.102289 -0.0178288 17.5066)
(-3.39674 -0.00322534 19.9949)
(2.67925 -0.000115427 16.0731)
(0.255088 -0.0244997 16.7802)
(1.28495 -0.0098496 15.1154)
(0.489284 0.00245523 12.6453)
(0.699073 0.0152142 10.5891)
(0.430262 0.0263274 8.18537)
(0.391762 0.0485006 5.80076)
(0.237166 0.0137516 3.91792)
(0.0902362 0.00746486 2.1391)
(0.153955 0.0518701 -0.00292133)
(-0.443781 -0.000815679 2.75758)
(-0.0240016 0.0698781 7.40514)
(-1.40722 0.0030516 14.2669)
(0.101476 -0.0164621 17.4879)
(-3.42009 -0.00144492 19.8302)
(2.69704 0.00465534 15.9536)
(0.254485 0.00555089 16.7246)
(1.28684 0.00484672 15.1322)
(0.490138 0.00406028 12.7015)
(0.699617 0.004715 10.6223)
(0.429517 0.00930366 8.27743)
(0.404008 0.0219774 5.64756)
(0.2627 0.0399109 3.38445)
(0.0627346 0.0416056 2.02691)
(0.042494 -0.0436978 0.557337)
(-0.470612 0.0552628 2.35257)
(-0.0320061 0.0075503 6.48777)
(-1.41803 0.00258891 14.2767)
(0.101969 -0.00174572 17.3322)
(-3.4779 -0.00343411 19.4818)
(2.67168 0.00918267 16.1491)
(0.254986 0.0328715 16.7854)
(1.28609 0.0185894 15.0867)
(0.489657 0.00536071 12.611)
(0.700409 -0.00595629 10.5865)
(0.433298 -0.0092884 8.2131)
(0.402267 -0.0256747 5.72595)
(0.290144 0.0085084 3.16917)
(0.0833041 0.0621532 1.33276)
(0.0123169 0.0357068 1.16592)
(-0.366121 0.028425 3.22144)
(-0.0320167 -0.0802772 6.89586)
(-1.40268 -0.000456833 14.3423)
(0.0983574 0.0140657 17.5308)
(-3.40942 -0.00589822 19.8775)
(2.64122 0.0135735 16.4246)
(0.257188 0.0483796 16.8218)
(1.28969 0.0266579 14.916)
(0.488462 0.00444523 12.3922)
(0.701556 -0.0161014 10.4892)
(0.435082 -0.0262373 8.0769)
(0.382515 -0.0601291 6.0871)
(0.256812 -0.0289442 3.90757)
(0.0897584 0.0538394 1.53162)
(0.0405225 0.0613738 1.16424)
(-0.292193 0.0563431 4.73998)
(-0.0313545 -0.0413968 8.41751)
(-1.40225 -0.00166481 14.1554)
(0.0967156 0.0150168 17.5466)
(-3.37965 -0.00438385 20.0687)
(2.62811 0.0160436 16.6144)
(0.260221 0.0516922 16.7969)
(1.29477 0.0290227 14.6994)
(0.484004 0.00296611 12.171)
(0.699532 -0.0229905 10.4063)
(0.430072 -0.0330762 8.0466)
(0.360686 -0.0577021 6.49951)
(0.224379 -0.0254929 5.04542)
(0.0776699 0.039222 2.60944)
(0.109878 0.0734937 1.04375)
(-0.385303 0.0611016 3.63656)
(-0.0394055 0.0449023 9.39565)
(-1.3999 0.00235676 14.1498)
(0.0963831 0.0131259 17.4645)
(-3.38664 -0.00351516 20.0398)
(2.62804 0.0167392 16.7219)
(0.263202 0.0488643 16.7455)
(1.29973 0.0297389 14.4868)
(0.478048 0.00345486 11.9633)
(0.696116 -0.0263866 10.3502)
(0.425606 -0.0348988 8.09624)
(0.359307 -0.0454343 6.65801)
(0.234521 0.00341749 5.26842)
(0.0757015 0.0514435 3.21971)
(0.0582925 0.116285 1.70768)
(-0.390489 0.0153624 3.13097)
(-0.0444694 0.0894907 7.99294)
(-1.39697 0.00657703 14.2748)
(0.0949018 0.016179 17.3815)
(-3.40376 -0.00214427 19.9537)
(2.63546 0.0148684 16.7751)
(0.265944 0.0410014 16.7159)
(1.3031 0.0268579 14.3128)
(0.470413 0.0036855 11.7732)
(0.690846 -0.0252275 10.2983)
(0.422471 -0.0344447 8.15488)
(0.365388 -0.0418433 6.82561)
(0.259949 0.0225892 5.2581)
(0.119758 0.0631582 2.51705)
(0.0395362 0.194809 1.28276)
(-0.437526 0.00259061 2.61194)
(-0.0496159 0.0572171 6.91437)
(-1.40039 0.00779675 14.2956)
(0.095345 0.0258285 17.1574)
(-3.43414 -0.00372424 19.8032)
(2.64665 0.0131576 16.7796)
(0.268698 0.0364055 16.648)
(1.31152 0.0267183 14.1173)
(0.466768 0.00704901 11.5614)
(0.687643 -0.0244745 10.237)
(0.422105 -0.0364861 8.13138)
(0.355135 -0.0481114 7.29408)
(0.275501 0.0156257 5.30101)
(0.134784 0.0418458 2.35074)
(0.0491967 0.227358 0.702631)
(-0.439994 -0.0199965 2.64061)
(-0.0432883 -0.00578291 7.00924)
(-1.39343 0.00988442 14.2933)
(0.0906955 0.0326416 17.3214)
(-3.36132 -0.00508111 20.2663)
(2.65694 0.00671005 16.7942)
(0.271959 0.018713 16.6259)
(1.32177 0.0152172 13.9196)
(0.464724 0.0058517 11.2433)
(0.689385 -0.0132631 10.0401)
(0.420121 -0.0204925 8.07946)
(0.350421 -0.0271208 7.64737)
(0.270852 0.00292425 5.87834)
(0.141671 0.0245418 2.38975)
(0.0416794 0.24375 0.228062)
(-0.391824 -0.0101903 3.13687)
(-0.0338557 -0.0143252 7.32374)
(-1.39555 0.00541913 14.1359)
(0.0865185 0.0164443 17.4283)
(-3.33004 -0.00208522 20.4946)
(7.65783 -0.0146992 16.5505)
(1.02731 -0.0531127 16.6913)
(3.75492 -0.0471079 14.4692)
(1.62367 -0.0183466 11.5788)
(1.97279 0.0449698 10.2272)
(1.31069 0.0732788 8.31903)
(1.01247 0.0997911 7.77774)
(0.801826 0.0254567 6.07945)
(0.301402 -0.00470458 3.01401)
(0.176837 -0.00838694 1.21883)
(-0.856309 0.0294521 3.75031)
(-0.274205 0.0480543 7.86634)
(-3.86596 -0.0225364 14.7384)
(0.225959 -0.0479093 17.6108)
(-9.76541 0.00374514 20.714)
(7.63426 -0.0273595 16.5376)
(1.00793 -0.0983307 16.7045)
(3.73406 -0.0787762 14.6414)
(1.62448 -0.020176 11.8791)
(1.97276 0.0828349 10.4405)
(1.31633 0.126243 8.39402)
(1.02349 0.180792 7.4862)
(0.79104 0.0332603 5.67984)
(0.282941 -0.0140753 2.89772)
(0.169012 0.0143528 1.33867)
(-0.855896 0.0754979 3.53524)
(-0.31193 0.0507505 7.64837)
(-3.86633 -0.0408117 14.8748)
(0.217705 -0.0913128 17.4881)
(-9.83197 0.0129254 20.5033)
(7.61212 -0.0282841 16.5316)
(0.991319 -0.106409 16.7627)
(3.71586 -0.0760715 14.8196)
(1.62833 -0.00694403 12.0858)
(1.98209 0.0880699 10.5163)
(1.32004 0.122728 8.43542)
(1.05733 0.174484 7.05403)
(0.778781 0.0335783 5.38883)
(0.252174 -0.00704686 3.16685)
(0.16721 0.0609881 1.55596)
(-0.936873 0.0964626 3.22384)
(-0.356875 -0.0213904 7.52141)
(-3.88387 -0.0234673 14.8683)
(0.177117 -0.0765428 17.3016)
(-9.99658 0.000191113 20.0596)
(7.59912 -0.0279101 16.4776)
(0.976186 -0.125028 16.7796)
(3.70953 -0.0850721 14.9742)
(1.64842 -0.00379296 12.2733)
(2.00101 0.0957596 10.5762)
(1.33022 0.128428 8.41708)
(1.06081 0.175823 6.83558)
(0.721433 0.0876595 5.36898)
(0.199266 0.0850234 3.6947)
(0.155641 0.176026 1.88452)
(-0.963233 0.0676486 3.35023)
(-0.345967 -0.160266 8.11316)
(-3.89333 -0.0189323 14.8987)
(0.197491 -0.0585508 17.5217)
(-9.91902 -0.0160843 20.2101)
(7.60604 -0.0199851 16.3684)
(0.965542 -0.126749 16.8087)
(3.69906 -0.0817134 15.163)
(1.66191 0.00136319 12.4793)
(2.01346 0.090217 10.6363)
(1.34278 0.12177 8.36555)
(1.0627 0.205805 6.74144)
(0.712165 0.180848 5.26922)
(0.263647 0.131271 2.86691)
(0.143248 0.254093 1.57881)
(-0.956998 -0.0129102 4.21707)
(-0.305209 -0.061723 9.57631)
(-3.90209 -0.00880661 14.7664)
(0.212419 -0.0533391 17.6224)
(-9.87495 -0.0137597 20.2872)
(7.6438 -0.00708746 16.1797)
(0.962853 -0.112251 16.8039)
(3.68692 -0.0729743 15.3527)
(1.67138 0.000367018 12.6999)
(2.02206 0.0718129 10.7201)
(1.36396 0.108697 8.37147)
(1.10527 0.20366 6.54789)
(0.828261 0.1385 4.1796)
(0.285973 0.063803 2.0965)
(0.253602 0.287629 0.95548)
(-0.943566 -0.0730821 3.99313)
(-0.312959 0.14049 9.01929)
(-3.9207 0.00451711 14.8349)
(0.205709 -0.052886 17.7253)
(-9.86084 -0.010837 20.2838)
(7.72557 0.00706932 15.9028)
(0.975154 -0.0619569 16.7232)
(3.67824 -0.0396271 15.4864)
(1.67183 0.00248753 12.9098)
(2.01989 0.0418286 10.8341)
(1.35599 0.071479 8.48148)
(1.14689 0.140184 6.12814)
(0.778582 0.0537644 4.13976)
(0.262501 0.0292693 2.47374)
(0.448614 0.186757 0.497173)
(-1.02917 0.0101741 3.17543)
(-0.340251 0.172445 8.05074)
(-3.92189 0.00163 14.9863)
(0.184095 -0.0447293 17.6909)
(-9.9117 0.00114848 20.1214)
(7.76729 0.014607 15.7886)
(0.983968 0.0151496 16.6589)
(3.68185 0.0162878 15.4936)
(1.67498 0.0123276 12.9631)
(2.02149 0.013763 10.869)
(1.35249 0.0255865 8.57037)
(1.17781 0.0586184 6.01102)
(0.83878 0.111158 3.69859)
(0.216388 0.0594625 2.3051)
(0.318335 -0.00488263 0.655172)
(-1.06412 0.098911 2.75655)
(-0.397377 0.0325104 7.31933)
(-3.94277 0.00830593 15.0026)
(0.13979 -0.0061161 17.523)
(-10.0408 -0.00976517 19.7885)
(7.71138 0.0222138 15.979)
(0.969594 0.0856522 16.7363)
(3.68194 0.0673648 15.4623)
(1.67323 0.0211778 12.8759)
(2.02331 -0.014716 10.8288)
(1.36356 -0.0231773 8.51015)
(1.17267 -0.0737227 6.08219)
(0.899119 0.00745627 3.56055)
(0.307052 0.117002 1.74876)
(0.0852304 0.104262 1.16849)
(-0.911799 0.0493598 3.50567)
(-0.368321 -0.188779 7.63541)
(-3.91517 0.00605751 15.0663)
(0.179237 0.0353904 17.7301)
(-9.88717 -0.0242668 20.1664)
(7.64358 0.0335984 16.2469)
(0.958878 0.127517 16.8031)
(3.69245 0.094961 15.3198)
(1.67246 0.0227183 12.6609)
(2.0262 -0.0428495 10.7216)
(1.37048 -0.0692475 8.37657)
(1.12616 -0.168496 6.36609)
(0.798866 -0.098342 4.22127)
(0.283366 0.128231 1.92128)
(0.100991 0.180144 1.27267)
(-0.776915 0.136807 4.94411)
(-0.319568 -0.115733 8.86051)
(-3.91602 -6.30879e-05 14.8711)
(0.196692 0.0423001 17.7614)
(-9.81964 -0.014767 20.348)
(7.61533 0.0410892 16.4296)
(0.962837 0.137527 16.8058)
(3.70604 0.100313 15.1297)
(1.66341 0.020548 12.4399)
(2.01981 -0.0624365 10.6249)
(1.35745 -0.0903445 8.33658)
(1.07158 -0.163894 6.69971)
(0.706892 -0.0865714 5.21424)
(0.230516 0.0943061 2.87438)
(0.288465 0.182233 1.15594)
(-0.95708 0.166809 4.1766)
(-0.325602 0.108131 9.73247)
(-3.90776 0.0153056 14.8382)
(0.188659 0.0409668 17.6819)
(-9.8371 -0.00828973 20.3146)
(7.61698 0.0439223 16.5303)
(0.974839 0.132165 16.7742)
(3.71881 0.100249 14.9386)
(1.65086 0.0237949 12.2311)
(2.0098 -0.0719886 10.5519)
(1.34432 -0.0989254 8.3771)
(1.06602 -0.135233 6.84513)
(0.730848 -0.00935646 5.41648)
(0.22045 0.126729 3.42553)
(0.192706 0.246796 1.68799)
(-0.957405 0.0708538 3.59273)
(-0.364676 0.234366 8.56911)
(-3.90019 0.0314287 14.9648)
(0.165677 0.0517869 17.5949)
(-9.87791 0.00123379 20.2249)
(7.63674 0.0393058 16.5761)
(0.991047 0.111158 16.7575)
(3.727 0.0878343 14.7855)
(1.63167 0.0234591 12.0441)
(1.99292 -0.0686023 10.4838)
(1.33364 -0.0976067 8.4223)
(1.0785 -0.128048 7.01199)
(0.802844 0.0434146 5.44157)
(0.338784 0.175749 2.89708)
(0.154052 0.378093 1.42636)
(-1.01018 0.0342718 3.05619)
(-0.41038 0.156922 7.65886)
(-3.90453 0.0387596 14.9828)
(0.135095 0.0739995 17.3781)
(-9.95062 -0.00812266 20.0783)
(7.66353 0.0351435 16.5752)
(1.00869 0.101493 16.6998)
(3.74662 0.088156 14.6085)
(1.62899 0.034384 11.8353)
(1.9842 -0.0663906 10.4064)
(1.33244 -0.105159 8.39052)
(1.05127 -0.148999 7.43588)
(0.842426 0.0256633 5.53693)
(0.386226 0.14318 2.75458)
(0.266409 0.491126 0.937689)
(-1.00162 -0.0284954 3.04281)
(-0.374551 0.00757579 7.69972)
(-3.89363 0.0492132 14.9932)
(0.169876 0.0905302 17.5577)
(-9.78708 -0.0187748 20.5188)
(7.69089 0.0182283 16.5824)
(1.02911 0.054512 16.6894)
(3.76835 0.0518521 14.4423)
(1.62885 0.0260453 11.5391)
(1.98441 -0.0361434 10.1954)
(1.32734 -0.061994 8.31814)
(1.04143 -0.0871454 7.7353)
(0.838142 -0.00161421 6.08557)
(0.415513 0.0810021 2.85352)
(0.319271 0.488609 0.52486)
(-0.92531 -0.00749361 3.48962)
(-0.335282 -0.0235297 7.92622)
(-3.89826 0.0268474 14.8604)
(0.173999 0.0478682 17.6767)
(-9.71869 -0.00668942 20.7307)
(12.2439 -0.0213955 15.5252)
(2.53323 -0.0744518 17.0227)
(6.09886 -0.0860589 15.1921)
(3.28567 -0.0526672 12.3356)
(3.21645 0.0583992 10.5852)
(2.31667 0.119249 8.79537)
(1.70129 0.1761 8.00263)
(1.32382 0.0659928 6.47199)
(0.569675 0.0282234 3.58452)
(0.430738 -0.0311208 1.59902)
(-1.30154 0.0363315 4.47908)
(-1.17827 0.0545092 9.23732)
(-6.16823 -0.051954 15.9112)
(-0.214631 -0.0562212 18.4543)
(-15.8811 0.0147769 20.6435)
(12.216 -0.0383314 15.5307)
(2.47682 -0.13077 17.0221)
(6.06885 -0.14028 15.3154)
(3.27641 -0.06888 12.591)
(3.22215 0.109218 10.8116)
(2.32566 0.19484 8.90352)
(1.71468 0.298165 7.79584)
(1.30844 0.0918291 6.11323)
(0.539294 0.0260434 3.46982)
(0.469033 -0.0102234 1.65659)
(-1.29052 0.0890287 4.25471)
(-1.23868 0.0363375 9.13374)
(-6.16653 -0.100502 15.9952)
(-0.27976 -0.103375 18.3157)
(-15.9554 0.0425936 20.442)
(12.1936 -0.0365179 15.5364)
(2.43041 -0.137249 17.0627)
(6.04037 -0.138133 15.4597)
(3.2667 -0.046993 12.7852)
(3.23251 0.119454 10.9128)
(2.33019 0.187658 8.9625)
(1.76213 0.282962 7.4571)
(1.30672 0.0851511 5.79252)
(0.495221 0.00970299 3.59944)
(0.411374 0.0297584 1.83104)
(-1.39484 0.0956033 4.06386)
(-1.32674 -0.051072 9.09552)
(-6.17813 -0.0629635 15.955)
(-0.482375 -0.0894356 18.1135)
(-16.135 0.00858317 20.0067)
(12.1776 -0.0312399 15.4976)
(2.38928 -0.160548 17.0596)
(6.02555 -0.162094 15.5779)
(3.29106 -0.0468475 12.962)
(3.2655 0.131471 10.9998)
(2.35048 0.198125 8.9681)
(1.77277 0.279981 7.26314)
(1.22844 0.146352 5.70739)
(0.380816 0.13587 3.989)
(0.355691 0.165923 2.12533)
(-1.40962 0.0284266 4.24931)
(-1.26315 -0.22234 9.51937)
(-6.19172 -0.0450649 15.9912)
(-0.37705 -0.0747336 18.2975)
(-16.0487 -0.0320428 20.1473)
(12.1828 -0.0128728 15.4019)
(2.36536 -0.158567 17.0521)
(6.00677 -0.161712 15.7256)
(3.30131 -0.035433 13.1628)
(3.28354 0.125304 11.0912)
(2.37003 0.183368 8.93838)
(1.7765 0.306013 7.16873)
(1.20996 0.2783 5.64009)
(0.460704 0.207441 3.4218)
(0.328583 0.260962 1.96755)
(-1.41188 -0.0342562 5.07643)
(-1.12497 -0.0888243 10.4934)
(-6.20279 -0.0287858 15.8475)
(-0.301402 -0.0707323 18.3891)
(-16.0011 -0.0238146 20.225)
(12.2223 0.0111411 15.2291)
(2.37408 -0.138568 16.9971)
(5.98884 -0.151378 15.8638)
(3.30596 -0.0316241 13.3746)
(3.29572 0.0994495 11.2029)
(2.3992 0.15967 8.96251)
(1.83258 0.304089 7.0561)
(1.36476 0.237115 4.84516)
(0.537558 0.153172 2.73619)
(0.562394 0.293915 1.45016)
(-1.3694 -0.0534973 4.7561)
(-1.17279 0.174165 10.1036)
(-6.22348 -0.00494606 15.9406)
(-0.305457 -0.0755784 18.4656)
(-15.9807 -0.0178089 20.2102)
(12.3098 0.0258148 14.9637)
(2.44473 -0.0734299 16.867)
(5.98159 -0.0867777 15.9422)
(3.29811 -0.013654 13.5663)
(3.29064 0.0577973 11.3318)
(2.38387 0.10251 9.07993)
(1.88311 0.208816 6.75964)
(1.34557 0.114895 4.65559)
(0.490838 0.0505714 2.95605)
(0.890707 0.235344 1.17367)
(-1.42856 0.0663862 4.00011)
(-1.27939 0.206427 9.47921)
(-6.21685 -0.0153633 16.0873)
(-0.389046 -0.0629863 18.41)
(-16.0307 0.011614 20.046)
(12.3536 0.021151 14.8499)
(2.48913 0.0218173 16.7916)
(5.989 0.0295058 15.9318)
(3.30257 0.0216819 13.6105)
(3.29322 0.0223158 11.3687)
(2.3754 0.0369447 9.16215)
(1.92189 0.0819738 6.69467)
(1.42116 0.158824 4.33777)
(0.496321 0.077556 2.72392)
(0.653025 0.11303 1.17834)
(-1.52938 0.118839 3.7729)
(-1.43754 0.054396 9.05176)
(-6.23603 0.0104754 16.0963)
(-0.577128 -0.0185213 18.2341)
(-16.169 -0.0186363 19.7232)
(12.2987 0.0228379 15.0335)
(2.42995 0.109357 16.8975)
(5.98687 0.134049 15.9284)
(3.30209 0.054067 13.5348)
(3.29555 -0.0140018 11.3219)
(2.39277 -0.0299671 9.10687)
(1.91439 -0.103241 6.75234)
(1.48925 -0.0160773 4.29926)
(0.65373 0.150512 2.37141)
(0.365611 0.154153 1.45684)
(-1.37728 -0.0205333 4.27704)
(-1.34774 -0.220553 9.21386)
(-6.21349 0.019561 16.1714)
(-0.383057 0.0302549 18.4426)
(-16.0029 -0.0599481 20.094)
(12.2313 0.0400246 15.2931)
(2.37103 0.164676 17.0147)
(5.9984 0.185996 15.8403)
(3.30997 0.0697623 13.3379)
(3.30168 -0.052035 11.1991)
(2.40794 -0.0964049 8.97721)
(1.86247 -0.238839 6.92367)
(1.33994 -0.171974 4.83243)
(0.555233 0.14246 2.56985)
(0.362706 0.256484 1.57499)
(-1.21261 0.148332 5.43312)
(-1.1868 -0.16144 9.96168)
(-6.22552 -0.00175899 15.9766)
(-0.293332 0.0411564 18.4937)
(-15.9274 -0.0392328 20.2675)
(12.2043 0.0544165 15.4657)
(2.36504 0.178987 17.0629)
(6.01896 0.190064 15.7012)
(3.30657 0.0709718 13.1272)
(3.29205 -0.0796223 11.0802)
(2.39181 -0.131914 8.92003)
(1.7914 -0.241116 7.14215)
(1.20769 -0.158025 5.58906)
(0.424424 0.0767059 3.36113)
(0.544641 0.215456 1.60043)
(-1.40672 0.247162 5.07984)
(-1.15814 0.123743 10.6294)
(-6.21899 0.022769 15.9103)
(-0.322372 0.0343526 18.4279)
(-15.9414 -0.0262575 20.2279)
(12.2077 0.0619651 15.5542)
(2.3913 0.175548 17.0638)
(6.04122 0.183879 15.5517)
(3.29895 0.0791802 12.9252)
(3.27752 -0.0915974 10.9789)
(2.37168 -0.150876 8.93811)
(1.77819 -0.216052 7.26733)
(1.23068 -0.0570251 5.75689)
(0.398971 0.10275 3.7933)
(0.411455 0.245455 1.97805)
(-1.42338 0.173077 4.51413)
(-1.27554 0.297631 9.85656)
(-6.21074 0.0528164 16.0402)
(-0.409743 0.0471613 18.3433)
(-15.9797 -0.00291918 20.1271)
(12.2316 0.0569922 15.5837)
(2.4373 0.147776 17.0658)
(6.05916 0.154622 15.4357)
(3.277 0.0736747 12.7508)
(3.24718 -0.0863785 10.886)
(2.35044 -0.148193 8.95554)
(1.78421 -0.211988 7.42698)
(1.32322 0.012228 5.82803)
(0.56712 0.171272 3.43915)
(0.370553 0.360965 1.72074)
(-1.47899 0.125984 4.0423)
(-1.42277 0.207416 9.25493)
(-6.21338 0.0806855 16.0562)
(-0.534304 0.0709031 18.1614)
(-16.0571 -0.0290411 19.988)
(12.2591 0.0523492 15.57)
(2.48695 0.138778 17.0245)
(6.08944 0.153559 15.2929)
(3.28899 0.0923257 12.5561)
(3.23767 -0.0803774 10.7834)
(2.34876 -0.160272 8.90455)
(1.743 -0.247044 7.76794)
(1.35722 -0.0174759 5.98959)
(0.62237 0.141542 3.32665)
(0.514846 0.499481 1.32216)
(-1.44836 0.0125748 3.99879)
(-1.37006 0.0386001 9.24385)
(-6.20758 0.108577 16.1029)
(-0.348454 0.09081 18.3582)
(-15.875 -0.058822 20.4181)
(12.2917 0.027897 15.5576)
(2.54684 0.0785 17.0273)
(6.12087 0.0931392 15.1757)
(3.30005 0.0659812 12.3068)
(3.23217 -0.041773 10.5613)
(2.34076 -0.0990277 8.80067)
(1.7298 -0.151294 7.98263)
(1.35214 -0.0347081 6.47668)
(0.65927 0.0862781 3.43145)
(0.435129 0.423017 1.1344)
(-1.38469 0.0150817 4.3837)
(-1.31004 -0.0126176 9.34446)
(-6.2205 0.0556781 16.02)
(-0.290886 0.050687 18.4918)
(-15.7963 -0.0227829 20.6184)
(15.6014 -0.0223228 12.9206)
(5.20754 -0.0736421 17.4509)
(8.50207 -0.111939 16.1883)
(5.65618 -0.101571 13.679)
(4.59992 0.0350187 11.361)
(3.45274 0.142438 9.54986)
(2.45014 0.237747 8.50091)
(1.76224 0.130289 7.05786)
(0.733975 0.0604972 4.23182)
(0.0829099 0.0471563 2.47723)
(-1.98962 0.0686172 6.00695)
(-2.87476 0.031122 11.3514)
(-8.27055 -0.100805 17.3772)
(-2.28366 -0.0583858 19.8002)
(-20.9681 0.0219509 19.1265)
(15.5926 -0.0371543 12.9558)
(5.11323 -0.121449 17.4558)
(8.44921 -0.180429 16.2569)
(5.62174 -0.142957 13.867)
(4.60385 0.0781934 11.5788)
(3.46229 0.227418 9.68902)
(2.46198 0.380879 8.38079)
(1.73954 0.184829 6.75101)
(0.718426 0.0728884 4.11794)
(0.25704 0.0779122 2.46565)
(-2.00018 0.1081 5.88407)
(-2.98596 -0.0184905 11.3666)
(-8.28978 -0.20488 17.4249)
(-2.44072 -0.0995137 19.6807)
(-20.9945 0.0675736 18.9364)
(15.5884 -0.0300691 12.9786)
(5.03786 -0.118195 17.4857)
(8.40171 -0.181943 16.354)
(5.58518 -0.118334 14.0297)
(4.60367 0.0966879 11.6997)
(3.46307 0.222753 9.77285)
(2.51394 0.360477 8.15691)
(1.75809 0.17309 6.43106)
(0.69191 0.0570105 4.15487)
(0.179683 0.114958 2.55361)
(-2.12595 0.100543 5.83325)
(-3.10856 -0.0797233 11.4009)
(-8.34368 -0.143892 17.3706)
(-2.88415 -0.10053 19.4752)
(-21.0692 0.00960171 18.4925)
(15.5806 -0.0131474 12.9677)
(4.95904 -0.130926 17.4678)
(8.36302 -0.22063 16.4223)
(5.59591 -0.130113 14.1792)
(4.64639 0.108978 11.8112)
(3.49533 0.239001 9.81205)
(2.53955 0.355436 8.00366)
(1.68203 0.223692 6.29115)
(0.5607 0.195773 4.40761)
(0.22197 0.225134 2.70353)
(-2.06459 -0.0105807 5.94118)
(-3.00399 -0.233544 11.6569)
(-8.33635 -0.0915318 17.4345)
(-2.63313 -0.092168 19.6494)
(-21.0268 -0.0578744 18.6393)
(15.5898 0.0197792 12.9034)
(4.91601 -0.117733 17.4243)
(8.32969 -0.227665 16.5067)
(5.58855 -0.115875 14.3545)
(4.66179 0.107731 11.9341)
(3.51889 0.219175 9.82029)
(2.55041 0.363225 7.91696)
(1.65648 0.347562 6.24634)
(0.656546 0.274682 4.05002)
(0.317045 0.283863 2.70358)
(-1.96748 -0.0395572 6.54064)
(-2.78939 -0.104852 12.158)
(-8.33923 -0.0686168 17.3099)
(-2.46005 -0.0796494 19.7442)
(-21.0074 -0.0455835 18.7276)
(15.6168 0.0455619 12.7609)
(4.94321 -0.0912784 17.3175)
(8.31495 -0.219516 16.5696)
(5.57914 -0.105733 14.5348)
(4.6687 0.0836396 12.0716)
(3.54766 0.186686 9.87141)
(2.6058 0.356621 7.87655)
(1.81886 0.319631 5.73642)
(0.782602 0.208204 3.48198)
(0.60353 0.260608 2.33474)
(-1.94252 0.0146491 6.25025)
(-2.89638 0.153645 11.9563)
(-8.34983 -0.0401881 17.4139)
(-2.43249 -0.0869233 19.7921)
(-20.9819 -0.035206 18.7054)
(15.6511 0.0460552 12.513)
(5.07781 -0.0353356 17.1205)
(8.33782 -0.128074 16.5716)
(5.56545 -0.0556456 14.6859)
(4.65225 0.0498437 12.2096)
(3.52084 0.116876 9.99728)
(2.64913 0.24454 7.71328)
(1.83517 0.172803 5.49236)
(0.736703 0.04449 3.49877)
(0.768439 0.221037 2.11505)
(-2.0758 0.126194 5.79004)
(-3.07029 0.170397 11.6791)
(-8.34742 -0.0655496 17.5319)
(-2.60645 -0.0668083 19.7027)
(-20.9898 0.0184463 18.5261)
(15.6617 0.0183428 12.396)
(5.15606 0.0244621 17.0226)
(8.36342 0.0409447 16.5397)
(5.57532 0.0329777 14.7149)
(4.65457 0.0311848 12.2457)
(3.50649 0.0435659 10.0691)
(2.67653 0.0946728 7.6979)
(1.90825 0.168748 5.27239)
(0.739814 0.128859 3.2147)
(0.207002 0.15213 2.21593)
(-2.28551 0.0825866 5.79091)
(-3.29343 0.0559361 11.5007)
(-8.40448 0.00452708 17.5239)
(-3.01468 -0.0367603 19.5128)
(-21.0436 -0.0316902 18.1923)
(15.6447 0.00726797 12.5616)
(5.05198 0.0804682 17.1706)
(8.3394 0.191146 16.5761)
(5.573 0.11358 14.6626)
(4.65997 0.0101387 12.1961)
(3.5296 -0.0275879 10.0186)
(2.67189 -0.105708 7.73904)
(1.98487 -0.0394928 5.31495)
(0.928206 0.244486 3.10234)
(0.268014 0.14852 2.31317)
(-2.08304 -0.146803 5.94007)
(-3.15514 -0.178 11.5407)
(-8.34264 0.0580978 17.6054)
(-2.5937 -0.000389944 19.7232)
(-20.9799 -0.105925 18.5782)
(15.6265 0.0283531 12.8008)
(4.94717 0.128801 17.3566)
(8.32905 0.262698 16.5656)
(5.58927 0.156626 14.5066)
(4.67751 -0.0196559 12.0636)
(3.55722 -0.102724 9.89357)
(2.63853 -0.260427 7.80532)
(1.81612 -0.220456 5.70146)
(0.819427 0.137372 3.36677)
(0.522778 0.252311 2.36537)
(-1.81125 0.090902 6.58611)
(-2.90615 -0.149981 11.8399)
(-8.35175 0.0182231 17.441)
(-2.39515 0.0237473 19.797)
(-20.9412 -0.0730265 18.7504)
(15.6208 0.0504395 12.9527)
(4.93644 0.149345 17.4583)
(8.35175 0.263047 16.5004)
(5.60109 0.162058 14.3282)
(4.67269 -0.0463548 11.9257)
(3.54462 -0.148685 9.8162)
(2.56843 -0.276965 7.91321)
(1.65807 -0.21771 6.2148)
(0.629672 0.00900883 3.9803)
(0.538223 0.130885 2.48384)
(-1.96669 0.264355 6.58456)
(-2.81591 0.120362 12.2599)
(-8.35732 0.0448617 17.3438)
(-2.45748 0.0178217 19.7242)
(-20.9356 -0.0512183 18.6926)
(15.6232 0.0642878 13.0203)
(4.98077 0.159022 17.4916)
(8.38986 0.248402 16.4117)
(5.61299 0.171307 14.1529)
(4.66227 -0.0542552 11.7979)
(3.52238 -0.174671 9.79895)
(2.54548 -0.268135 8.01343)
(1.67294 -0.13028 6.34908)
(0.57288 0.0387882 4.3038)
(0.261695 0.0957736 2.68899)
(-2.05956 0.214597 6.17567)
(-2.98604 0.292421 11.8601)
(-8.35994 0.0834734 17.446)
(-2.63481 0.0400815 19.6135)
(-20.9329 -0.00634051 18.5685)
(15.6341 0.0617721 13.0233)
(5.06067 0.14067 17.5017)
(8.43256 0.202697 16.3447)
(5.60702 0.151894 14.0082)
(4.62318 -0.0510035 11.6845)
(3.48936 -0.169381 9.77941)
(2.53174 -0.268879 8.15434)
(1.76374 -0.0659976 6.46407)
(0.694868 0.13706 4.08162)
(0.0102263 0.15526 2.4867)
(-2.21442 0.146336 5.9217)
(-3.20316 0.215266 11.5461)
(-8.38608 0.14875 17.4246)
(-2.92619 0.0591458 19.4312)
(-20.9638 -0.0434864 18.4144)
(15.6406 0.0582918 12.9907)
(5.13952 0.139982 17.4675)
(8.48276 0.196943 16.2493)
(5.64725 0.172543 13.8474)
(4.62493 -0.0371296 11.5642)
(3.4916 -0.17846 9.70276)
(2.48397 -0.309061 8.39251)
(1.77935 -0.0971536 6.6791)
(0.723307 0.189353 4.01944)
(0.077697 0.212602 2.28365)
(-2.17624 -0.0142222 5.87016)
(-3.13336 0.0888424 11.5016)
(-8.34022 0.201597 17.4856)
(-2.5201 0.0659059 19.6326)
(-20.8832 -0.0964968 18.8418)
(15.6527 0.0317434 12.9465)
(5.23864 0.0833768 17.4629)
(8.5375 0.121263 16.1867)
(5.68485 0.119084 13.6674)
(4.62197 -0.0100355 11.3529)
(3.4845 -0.111593 9.57073)
(2.47396 -0.196227 8.52104)
(1.79109 -0.0871742 7.09947)
(0.762181 0.142869 4.21801)
(-0.0727891 0.104769 2.27296)
(-2.08924 -0.0168949 5.99782)
(-3.02367 0.0173285 11.4721)
(-8.33835 0.0981009 17.4332)
(-2.37885 0.0430318 19.741)
(-20.8485 -0.0368335 19.022)
(17.642 -0.0144413 9.63006)
(7.8955 -0.0615975 17.0895)
(10.8201 -0.111708 17.3587)
(8.59898 -0.141409 15.6595)
(6.39096 -0.0243834 12.8545)
(4.73758 0.123298 10.6914)
(3.3047 0.261817 9.3837)
(2.27748 0.188112 7.99428)
(0.794362 -0.010119 5.41733)
(-0.737272 0.191022 3.81925)
(-2.86328 0.139013 8.01332)
(-4.98456 0.000782142 14.1282)
(-10.3651 -0.0808945 19.6914)
(-5.19503 0.044395 21.2377)
(-24.4996 0.0441049 16.6723)
(17.6598 -0.0206661 9.68146)
(7.80274 -0.0933406 17.1209)
(10.7446 -0.176661 17.3946)
(8.5273 -0.205887 15.7717)
(6.36978 -0.010541 13.0298)
(4.73998 0.199318 10.8472)
(3.30671 0.403321 9.34712)
(2.21766 0.261464 7.732)
(0.749185 -0.0402141 5.19866)
(-0.621185 0.233918 3.83575)
(-2.90686 0.163155 8.08266)
(-5.11172 -0.085308 14.2008)
(-10.403 -0.195203 19.6655)
(-5.4051 0.107243 21.0669)
(-24.4775 0.114426 16.4849)
(17.6761 -0.00468534 9.71513)
(7.72345 -0.0758187 17.1536)
(10.6781 -0.176861 17.4528)
(8.45694 -0.185451 15.8849)
(6.33898 0.0142792 13.1446)
(4.72668 0.203324 10.9494)
(3.34512 0.384521 9.23734)
(2.24285 0.249915 7.44401)
(0.714805 -0.0153605 5.13001)
(-0.756286 0.254394 3.93169)
(-3.05622 0.130042 8.21026)
(-5.31552 -0.101798 14.3003)
(-10.5815 -0.122341 19.5572)
(-5.97074 0.0499245 20.7179)
(-24.3741 0.0202985 16.0463)
(17.6969 0.0227015 9.73741)
(7.63409 -0.063937 17.1454)
(10.6105 -0.214519 17.4774)
(8.43164 -0.213247 15.9862)
(6.37255 0.0171136 13.26)
(4.76673 0.223748 11.0224)
(3.38381 0.383841 9.14016)
(2.16202 0.290764 7.27547)
(0.598682 0.154907 5.21046)
(-0.650879 0.314972 4.03682)
(-3.01595 0.0132855 8.37932)
(-5.25034 -0.185624 14.4575)
(-10.4966 -0.0534769 19.5875)
(-5.63593 -0.024017 20.864)
(-24.4151 -0.0805578 16.1973)
(17.7234 0.0503341 9.71448)
(7.59552 -0.0263323 17.0912)
(10.5664 -0.217635 17.4977)
(8.39815 -0.202308 16.1076)
(6.36842 0.0222673 13.392)
(4.78612 0.20756 11.0749)
(3.40141 0.378822 9.07679)
(2.12545 0.3849 7.23064)
(0.711738 0.281904 4.98985)
(-0.380202 0.265707 4.1367)
(-2.82703 -0.0343736 8.75453)
(-5.04101 -0.0988267 14.6316)
(-10.4389 -0.0650008 19.4879)
(-5.39646 -0.0321691 20.9816)
(-24.4671 -0.0709696 16.2967)
(17.7292 0.0615565 9.62592)
(7.62417 0.0147436 16.9551)
(10.5643 -0.202891 17.4773)
(8.38129 -0.186907 16.2256)
(6.35915 0.00764285 13.5343)
(4.80489 0.174091 11.1571)
(3.44612 0.366217 9.09128)
(2.27965 0.371954 6.95423)
(0.870768 0.233319 4.60246)
(-0.119798 0.170636 3.88477)
(-2.84359 0.0513011 8.55536)
(-5.1453 0.1046 14.5676)
(-10.4223 -0.068607 19.5631)
(-5.35702 -0.0662505 20.9996)
(-24.4479 -0.0719708 16.267)
(17.6959 0.0469321 9.45552)
(7.74003 0.0455033 16.7065)
(10.6279 -0.108549 17.3829)
(8.39161 -0.101258 16.3076)
(6.33286 0.00766886 13.6633)
(4.76164 0.107758 11.2881)
(3.4658 0.253077 9.04231)
(2.32076 0.210456 6.74558)
(0.814997 0.0640398 4.48161)
(-0.264823 0.15273 3.74377)
(-3.04606 0.131012 8.35732)
(-5.32427 0.0891069 14.5057)
(-10.4645 -0.117232 19.6261)
(-5.58093 -0.04247 20.8736)
(-24.377 -0.00284611 16.105)
(17.6679 0.00908529 9.37121)
(7.79293 0.0257442 16.5864)
(10.6684 0.0473766 17.3187)
(8.41961 0.0460181 16.3139)
(6.34034 0.0429305 13.6952)
(4.74494 0.0500748 11.3487)
(3.46807 0.101332 9.06458)
(2.39099 0.168542 6.61213)
(0.71517 0.19443 4.21433)
(-0.971647 0.105732 3.96609)
(-3.26595 0.0532644 8.42602)
(-5.57431 0.0373929 14.491)
(-10.636 -0.02628 19.5915)