/*--------------------------------*- C++ -*----------------------------------*\
| =========                 |                                                 |
| \\      /  F ield         | OpenFOAM: The Open Source CFD Toolbox           |
|  \\    /   O peration     | Version:  4.1                                   |
|   \\  /    A nd           | Web:      www.OpenFOAM.org                      |
|    \\/     M anipulation  |                                                 |
\*---------------------------------------------------------------------------*/
FoamFile
{
    version     2.0;
    format      ascii;
    class       volScalarField;
    location    "1123";
    object      p;
}
// * * * * * * * * * * * * * * * * * * * * * * * * * * * * * * * * * * * * * //

dimensions      [0 2 -2 0 0 0 0];

internalField   nonuniform List<scalar> 
204246
(
136.732
-9.94123
42.5697
21.8768
19.6689
26.0317
14.8116
26.3276
13.3894
26.2883
12.712
26.9731
11.1435
27.3146
12.4163
24.7055
18.9068
13.3691
25.7223
10.9191
27.0089
11.3285
25.6713
12.132
25.5777
11.9681
26.4873
10.2049
27.4193
9.93894
27.4199
10.3761
26.5085
12.8772
22.6055
19.1494
12.2808
24.8143
10.9001
24.3788
11.1537
24.319
10.6573
24.9587
8.55056
25.3329
8.0384
24.0672
9.13627
20.6384
9.69919
17.2393
13.1068
5.51373
15.2579
3.53115
11.3239
0.132776
7.23497
-4.3835
2.97109
-11.0905
-2.05349
-17.0082
-8.07342
-22.0857
-15.0385
-26.1981
-21.3132
-24.4423
-33.6029
-22.3881
-33.034
-21.5997
-29.4936
-17.5331
-24.4044
-11.012
-19.3145
-4.16197
-13.2009
1.64416
-7.01056
4.55498
-1.55182
6.01776
5.7672
-0.289139
10.7433
-1.09798
11.6026
-2.30376
11.735
-5.66747
10.9133
-7.95137
8.24136
-9.39108
4.19019
-10.8993
-0.601748
-13.6608
-4.45196
-15.8997
-8.62441
-14.9035
-20.799
-12.1625
-24.9602
-11.7186
-28.595
-11.7945
-28.9528
-12.6808
-29.0117
-12.62
-28.8223
-12.2588
-28.0587
-12.1781
-25.9059
-14.1416
-19.3409
-23.8781
-12.3076
-25.8437
-10.2347
-25.9218
-9.37544
-25.6073
-8.85557
-25.2309
-8.46237
-24.8645
-8.1389
-24.1037
-8.40545
-22.2345
-10.7008
-15.9096
-20.8494
-9.305
-22.9691
-7.55074
-23.1086
-6.74567
-22.9147
-6.22351
-22.4683
-5.70639
-21.8064
-5.15441
-20.7101
-4.83238
-18.1658
-6.34643
-10.9715
-15.0901
-3.07586
-15.6483
0.390154
-13.6043
2.81136
-9.95171
5.4741
-5.2922
9.3494
0.460839
14.4558
7.44527
20.7627
16.4241
28.7456
27.9805
38.2371
44.761
47
60.8583
65.3921
78.7026
88.4466
101.821
116.158
131.063
150.999
168.831
197.116
219.776
263.676
292.621
380.352
396.277
603.317
44.8348
21.8678
21.4601
25.5027
18.7588
23.2996
17.9168
22.2482
17.3667
21.8467
16.963
21.9128
16.9055
20.9952
18.3314
18.8495
21.5507
15.9815
21.4667
16.2271
21.1892
16.8186
20.8504
16.7238
21.0756
16.3961
21.5943
15.9994
21.4419
16.1205
21.089
16.6395
20.0552
18.1801
18.0138
21.0308
15.5171
20.4921
15.947
19.9966
15.7501
20.0477
15.2528
20.29
14.6254
19.6351
14.4941
18.4088
14.4451
17.0356
14.3941
13.9755
16.0985
10.5323
12.2142
8.28421
9.88812
4.96333
6.42549
0.839225
1.99994
-4.4206
-3.69797
-9.78406
-10.3407
-15.0469
-17.3775
-19.9495
-24.4098
-21.2995
-29.7469
-26.9158
-29.9144
-25.7654
-28.6983
-22.6996
-23.8111
-17.3199
-17.5485
-11.4811
-10.9424
-5.90877
-4.64757
-1.71628
0.572803
0.463192
5.4795
1.74217
7.38423
3.01155
7.63998
2.58093
7.4191
1.06402
5.66287
-0.656323
3.0287
-2.88527
0.18344
-5.24757
-3.25485
-8.18943
-7.27239
-10.4419
-12.123
-10.8979
-17.3163
-14.7229
-20.1906
-16.2462
-22.2313
-17.8842
-22.9529
-18.6477
-23.4055
-18.6491
-23.3596
-18.4176
-22.5896
-18.5384
-20.6702
-19.7895
-17.157
-21.8462
-16.4177
-21.2649
-15.7992
-20.6927
-15.2652
-20.2146
-14.8253
-19.7884
-14.4789
-19.3411
-14.3396
-18.5688
-14.7033
-16.9332
-16.3064
-13.7162
-18.676
-13.3717
-18.359
-13.0362
-17.9866
-12.6207
-17.5923
-12.2426
-17.1382
-11.8354
-16.5232
-11.458
-15.489
-11.4112
-13.3284
-12.3063
-9.47592
-13.6472
-7.98248
-11.9767
-6.17408
-9.65691
-3.8917
-6.92603
-0.983614
-3.50419
2.714
1.00631
7.44965
6.81406
12.8475
14.558
19.7918
24.3273
27.9648
36.7163
40.4046
49.481
56.0403
65.5635
75.2449
85.7058
98.7408
110.327
127.503
140.318
163.525
176.952
212.204
218.848
293.569
259.009
393.689
19.8709
27.8691
23.8116
24.9542
20.9109
23.059
18.7992
22.3045
17.7999
21.9275
17.3155
21.6834
17.2499
20.9923
18.1365
19.4385
19.9633
17.4315
20.7342
16.7346
21.0347
16.7087
20.9769
16.6668
21.0462
16.4895
21.2524
16.2277
21.2624
16.2457
21.0167
16.6651
20.2178
17.7703
18.5451
19.3856
16.7254
19.8676
16.1151
19.9414
15.7556
19.9372
15.3507
19.9037
14.862
19.4762
14.6199
18.5309
14.5755
16.7867
14.6659
14.2451
14.3187
11.4123
12.7506
9.19309
9.58402
6.22589
5.90662
2.29906
1.37347
-2.63494
-4.22511
-8.08065
-10.6168
-13.8996
-17.2707
-19.4919
-23.7157
-24.3394
-29.021
-27.4757
-30.2952
-27.3056
-28.8988
-24.558
-24.1262
-19.3532
-17.2342
-12.8482
-10.163
-6.58701
-3.80134
-1.59417
1.1598
1.58534
5.02036
3.48432
6.838
3.86303
7.67515
3.19471
7.47303
1.77043
6.06511
-0.122769
3.80543
-2.04532
0.377218
-4.2828
-3.48461
-7.12233
-7.47883
-9.61127
-11.8407
-12.0159
-16.1483
-14.846
-19.4631
-16.4938
-21.7371
-17.8043
-22.8814
-18.5272
-23.408
-18.5874
-23.3965
-18.4259
-22.6332
-18.4968
-21.0265
-19.2727
-18.5768
-20.5765
-17.061
-20.7803
-15.9614
-20.5106
-15.2345
-20.0864
-14.7137
-19.6384
-14.3381
-19.1456
-14.1701
-18.4091
-14.4519
-17.0962
-15.5973
-14.9977
-17.2915
-13.8587
-17.8018
-13.0749
-17.7591
-12.5505
-17.4737
-12.1275
-17.0482
-11.7153
-16.4288
-11.3456
-15.4179
-11.2429
-13.5648
-11.7499
-10.6741
-12.4015
-8.48654
-11.5721
-6.2088
-9.72046
-3.9656
-6.81618
-1.40007
-2.93179
2.07725
1.8401
6.71948
7.8013
12.7484
15.2576
20.2517
24.7725
29.8654
36.3837
41.4052
50.4108
57.0202
67.2563
76.9239
88.1828
101.728
114.253
132.833
146.71
172.366
187.046
226.75
234.673
310.833
289.562
378.343
3.85571
19.1595
15.1415
21.58
17.6783
21.3175
18.3504
20.726
18.4123
20.2233
18.5023
19.9003
18.8154
19.1872
19.6057
18.2274
20.4862
17.8228
19.9651
18.0748
19.5975
18.3307
19.4788
18.2636
19.5617
18.1241
19.6593
18.0853
19.4561
18.2181
19.1089
18.5905
18.4763
19.3087
17.6828
19.9082
17.3615
19.2323
17.5263
18.8516
17.3991
18.7182
17.1593
18.5771
16.9618
18.0322
16.8589
17.2168
16.705
16.1205
16.3094
14.7577
15.6884
13.1335
13.4048
11.269
10.8121
8.42751
7.6325
4.75046
3.40651
0.137322
-2.09892
-5.37112
-8.54856
-11.5837
-15.5753
-17.9257
-22.5322
-23.5019
-27.9529
-28.7868
-30.7731
-29.9642
-30.3616
-27.729
-26.5107
-22.7587
-20.1169
-16.1418
-12.7636
-9.47673
-5.78816
-3.74244
-0.121297
0.361909
3.99275
3.49768
5.93496
5.15692
6.83546
5.10089
6.42847
4.22163
4.93453
2.63081
2.76559
0.58093
-0.103656
-1.96707
-3.43829
-5.11599
-7.15878
-8.14314
-11.1877
-11.119
-14.7719
-15.1232
-17.9051
-18.0385
-19.9254
-19.9404
-21.2126
-20.8023
-21.9255
-20.8723
-21.9415
-20.696
-21.2067
-20.6081
-19.8385
-20.7128
-18.397
-20.4389
-18.1049
-19.7391
-17.722
-19.1227
-17.3031
-18.6131
-16.9185
-18.1516
-16.6148
-17.6628
-16.4724
-16.9885
-16.6113
-15.9619
-17.1292
-14.8307
-17.2333
-14.9314
-16.845
-14.8737
-16.4449
-14.6644
-16.0492
-14.391
-15.6274
-14.083
-15.0839
-13.7977
-14.2485
-13.7091
-12.8168
-13.6522
-11.3099
-12.9397
-10.5162
-11.5256
-9.242
-9.67655
-7.36455
-7.46021
-5.02428
-4.6235
-1.91022
-0.999535
2.11925
3.65692
7.04412
9.83663
13.3049
17.5586
21.1348
27.3428
31.481
38.4169
44.532
51.8678
60.5293
68.3585
79.9431
88.2522
103.462
112.246
132.811
139.903
172.949
167.832
225.321
212.185
283.282
5.57796
19.4763
15.6425
20.5527
18.4716
20.7532
18.971
20.5429
18.9146
20.2125
18.8095
19.8387
18.9666
19.2761
19.3682
18.6611
19.6964
18.5196
19.4516
18.447
19.3867
18.3847
19.4278
18.2651
19.4705
18.177
19.4631
18.1879
19.3142
18.2783
19.0409
18.506
18.5681
18.8619
18.0313
19.0451
17.8872
18.7187
17.7097
18.6236
17.432
18.5277
17.1881
18.33
17.036
17.8823
16.8927
17.2147
16.7457
16.19
16.2232
14.9639
15.2975
13.6099
13.7788
11.7364
11.3931
9.11323
8.32851
5.69201
4.31661
1.3217
-0.853074
-4.08553
-7.13008
-10.3826
-14.2915
-17.1991
-21.7123
-23.9246
-27.9697
-29.2358
-31.9315
-31.4896
-32.125
-29.8385
-28.439
-24.5596
-21.5886
-17.136
-13.4458
-9.55147
-5.87495
-3.20555
0.0990209
1.37289
4.15432
4.44442
6.5185
5.83232
7.33555
5.9748
7.042
5.20651
5.75364
3.72024
3.62541
1.67248
0.727506
-0.97339
-2.61068
-4.17555
-6.35497
-7.57516
-10.2627
-11.0635
-13.8499
-14.6043
-17.0613
-17.7794
-19.3548
-19.8053
-20.9533
-20.7397
-21.8704
-20.9749
-21.9547
-20.8669
-21.2895
-20.6947
-20.2299
-20.3389
-19.1591
-19.7963
-18.567
-19.3019
-17.854
-18.801
-17.2262
-18.2837
-16.7281
-17.784
-16.3673
-17.2806
-16.1903
-16.678
-16.2457
-15.927
-16.4713
-15.28
-16.3763
-15.1616
-16.2385
-14.8741
-16.049
-14.5624
-15.7639
-14.2426
-15.3926
-13.9197
-14.8685
-13.6201
-14.0703
-13.5197
-12.9512
-13.1046
-11.6727
-12.3791
-10.6616
-11.1383
-9.24093
-9.45265
-7.35624
-7.16332
-4.83301
-4.25642
-1.56219
-0.526575
2.59656
4.34443
7.81619
10.5549
14.437
18.4526
22.7711
28.2068
33.432
40.1632
47.0375
54.782
64.0653
72.6993
85.1478
94.5168
110.957
120.607
143.114
150.864
185.216
182.155
231.444
220.081
265.18
2.84952
14.7066
11.9662
17.1688
16.0855
18.6977
17.7751
19.2639
18.5502
19.2736
18.9605
19.0916
19.3065
18.7198
19.6572
18.4293
19.7482
18.6072
19.3078
18.8287
19.0579
18.9275
18.9891
18.8963
18.9817
18.8632
18.9289
18.9084
18.7474
19.0023
18.5198
19.1666
18.2039
19.3593
17.9851
19.2639
18.137
18.7436
18.2312
18.4671
18.1541
18.2857
18.0498
18.0689
17.9747
17.6992
17.7736
17.324
17.5773
16.717
17.1466
15.8752
16.3279
14.7493
14.8137
13.2256
12.8331
10.9275
10.085
7.79359
6.31967
3.65303
1.30734
-1.65589
-4.98909
-8.12741
-12.3934
-15.5017
-20.3576
-23.1713
-27.82
-30.0237
-33.1933
-33.8556
-34.9143
-33.3784
-32.1199
-28.6696
-25.4143
-21.0584
-16.7283
-12.674
-8.14519
-5.21501
-1.14106
0.40883
3.65982
4.2289
6.29258
6.39891
7.46173
6.88499
7.31941
6.32912
6.16566
4.96867
4.19832
2.91352
1.56146
0.149724
-1.60374
-3.10191
-5.39716
-6.65793
-9.49386
-10.4427
-13.4733
-14.4272
-16.9643
-17.9882
-19.5791
-20.5923
-21.3207
-21.8665
-22.1678
-22.1957
-22.0722
-21.9524
-21.3114
-21.4466
-20.34
-20.8442
-19.5145
-19.9117
-19.0705
-19.1567
-18.6152
-18.6027
-18.1877
-18.1216
-17.8185
-17.6435
-17.5151
-17.1671
-17.3012
-16.6521
-17.148
-16.0924
-17.1143
-15.6661
-16.6437
-15.731
-16.2708
-15.6863
-15.9261
-15.5416
-15.5867
-15.3392
-15.2301
-15.1053
-14.815
-14.8048
-14.2556
-14.5714
-13.4769
-14.1646
-12.7818
-13.2455
-12.0534
-12.2297
-11.0087
-10.8888
-9.59729
-9.18153
-7.67553
-7.01361
-5.17022
-4.17597
-1.97331
-0.416587
2.09296
4.45288
7.25396
10.6441
13.8802
18.3294
22.4699
27.5942
33.2919
38.874
46.7189
52.6662
63.1401
69.3973
83.1881
89.1562
107.989
111.219
141.64
135.193
176.373
173.867
214.458
6.06843
16.4882
13.2724
17.3245
16.6427
18.5597
18.0852
19.1566
18.7723
19.2446
19.0874
19.1214
19.2894
18.8476
19.4623
18.6609
19.3997
18.8574
19.0464
18.9697
18.9093
18.9553
18.9017
18.8823
18.8982
18.8495
18.836
18.878
18.7017
18.95
18.478
19.0397
18.2304
19.0519
18.1102
18.8397
18.2662
18.4276
18.2562
18.2569
18.1069
18.1114
17.9536
17.9368
17.8824
17.6696
17.7196
17.2689
17.4647
16.7434
17.0458
16.0341
16.3406
15.1536
15.1561
13.7477
13.4516
11.7476
11.0071
8.98285
7.60951
5.22646
3.0137
0.215099
-2.9689
-6.18831
-10.3516
-13.8963
-18.7597
-22.3988
-27.2128
-30.3481
-34.1264
-35.6032
-37.276
-36.3157
-35.1882
-31.6816
-27.9483
-22.9856
-18.0592
-13.3451
-8.54643
-4.97808
-1.00736
1.14912
4.08062
5.15404
7.05173
7.27264
8.37702
7.95811
8.38942
7.51789
7.37101
6.25814
5.50243
4.20914
2.91736
1.48297
-0.304143
-1.78745
-4.10505
-5.51914
-8.20629
-9.5538
-12.2436
-13.6322
-15.991
-17.3962
-18.9815
-20.2007
-21.0727
-21.8299
-22.1055
-22.4073
-22.2261
-22.2193
-21.6705
-21.607
-20.7952
-20.7758
-19.8809
-19.8726
-19.1853
-19.0054
-18.4903
-18.303
-17.9174
-17.6644
-17.4723
-17.1181
-17.1065
-16.6569
-16.8755
-16.2389
-16.7381
-15.829
-16.5424
-15.5766
-16.1409
-15.6327
-15.7943
-15.5346
-15.5335
-15.3476
-15.2677
-15.0984
-14.9808
-14.8254
-14.6374
-14.5647
-14.0825
-14.2356
-13.3976
-13.7459
-12.6405
-13.0754
-11.8402
-12.0192
-10.7577
-10.6286
-9.24872
-8.84645
-7.20354
-6.56488
-4.54836
-3.59367
-1.21645
0.323925
3.03518
5.35739
8.48203
11.7208
15.4499
19.6479
24.3974
29.4166
35.7572
41.4183
49.8653
56.0643
67.1596
73.6595
88.1142
94.2216
113.852
116.07
144.012
140.666
171.875
168.039
196.839
4.9539
14.632
11.5377
15.7563
15.123
17.2698
17.0914
18.2328
18.2075
18.6525
18.8569
18.7152
19.2589
18.638
19.4461
18.6077
19.386
18.9032
19.0363
19.1149
18.8773
19.1756
18.8157
19.1758
18.7751
19.1838
18.7012
19.2244
18.5744
19.252
18.4318
19.2932
18.2724
19.288
18.2387
19.0118
18.4637
18.5808
18.5457
18.3517
18.5289
18.1967
18.4494
18.038
18.3321
17.9112
18.2294
17.6949
18.0781
17.319
17.7866
16.7992
17.1576
16.0891
16.1623
14.9709
14.6983
13.2789
12.5355
10.8148
9.43223
7.33533
5.11087
2.54339
-0.695652
-3.81947
-8.12984
-11.8408
-17.0269
-21.1755
-26.6687
-30.6783
-35.4153
-38.13
-40.7104
-40.7862
-40.1248
-37.2159
-33.4434
-28.3982
-22.7177
-17.3501
-11.4226
-7.16593
-2.136
0.419669
3.99709
5.14378
7.41467
7.70252
8.87703
8.64781
8.97444
8.3821
8.05634
7.1781
6.31372
5.26994
3.81037
2.55845
0.667256
-0.785515
-3.1491
-4.66368
-7.47128
-8.96664
-11.9622
-13.5177
-16.0924
-17.6918
-19.6305
-20.9113
-22.1231
-22.8389
-23.304
-23.4414
-23.2194
-23.0557
-22.3183
-22.1742
-21.2112
-21.1451
-20.2174
-20.0321
-19.5072
-19.2444
-18.9531
-18.651
-18.5475
-18.1229
-18.181
-17.6197
-17.8436
-17.1568
-17.5519
-16.7316
-17.3241
-16.3185
-17.0485
-16.061
-16.4963
-16.1165
-16.1128
-16.0803
-15.7953
-15.9478
-15.5182
-15.774
-15.2463
-15.5517
-14.9709
-15.3233
-14.5883
-15.0665
-14.1169
-14.6807
-13.6351
-13.964
-13.1716
-13.1775
-12.3957
-12.2274
-11.2912
-11.012
-9.83527
-9.37607
-7.95179
-7.17031
-5.5032
-4.26303
-2.31259
-0.482918
1.83699
4.34947
7.23807
10.4062
14.2538
17.9357
23.1572
27.2271
34.3331
38.6785
48.1412
52.6478
65.1231
68.9452
86.623
87.3249
111.913
110.006
138.453
138.368
165.386
8.01238
16.4879
13.0984
16.7611
15.9111
17.6051
17.5184
18.3116
18.4237
18.6446
18.9602
18.7063
19.2453
18.6616
19.3417
18.6612
19.2059
18.9444
18.8982
19.0962
18.7889
19.1459
18.731
19.1191
18.7162
19.1101
18.6611
19.1306
18.5548
19.1608
18.3935
19.1822
18.2418
19.0676
18.2514
18.7689
18.4248
18.3883
18.4374
18.1924
18.37
18.0746
18.2818
17.9293
18.2129
17.7617
18.1175
17.5543
17.9684
17.2973
17.7061
16.9498
17.2149
16.4078
16.4623
15.5101
15.2998
14.1429
13.5196
12.0994
10.8859
9.10786
7.09875
4.79956
1.8
-1.20832
-5.32996
-9.21174
-14.4224
-19.1788
-25.1063
-30.1537
-35.7457
-39.7182
-43.3551
-44.6049
-44.731
-42.2344
-38.1817
-32.452
-25.7067
-19.4602
-12.8407
-7.78214
-2.52644
0.804448
4.40394
6.14134
8.23402
8.93821
9.97415
10.0136
10.3089
9.82462
9.54653
8.75335
7.89142
6.87393
5.53818
4.21686
2.39966
0.923716
-1.43656
-3.04097
-5.80892
-7.56905
-10.377
-12.3658
-14.8706
-16.8656
-18.8326
-20.5145
-21.7632
-22.9066
-23.3226
-23.8772
-23.6004
-23.644
-22.9445
-22.7
-21.7812
-21.506
-20.6135
-20.2774
-19.5663
-19.2016
-18.6873
-18.3105
-18.0647
-17.5936
-17.5938
-17.0045
-17.2517
-16.5376
-17.0152
-16.217
-16.8266
-15.9203
-16.5741
-15.786
-16.1256
-15.8448
-15.7717
-15.793
-15.5029
-15.6727
-15.252
-15.4995
-15.0075
-15.2864
-14.7513
-15.0287
-14.4058
-14.7638
-13.9514
-14.3729
-13.4818
-13.7567
-12.9193
-12.9854
-12.0786
-11.9856
-10.9582
-10.6642
-9.45701
-8.94932
-7.48435
-6.70225
-4.96251
-3.74021
-1.69396
0.0858464
2.55407
4.95311
8.05908
11.0813
15.1555
18.6888
24.2083
28.0902
35.4641
39.6032
49.2388
53.4248
66.0177
69.2394
86.1504
86.4943
108.167
105.822
128.591
127.459
148.87
7.63761
15.9201
12.1927
16.3314
15.076
17.0944
16.8674
17.852
18.021
18.3044
18.7491
18.5064
19.1309
18.613
19.2947
18.692
19.2075
18.9904
18.9483
19.1755
18.8552
19.2597
18.787
19.2829
18.7329
19.3013
18.6818
19.3345
18.5913
19.3626
18.4814
19.366
18.3727
19.2421
18.4131
18.9503
18.6036
18.5787
18.6746
18.3889
18.6538
18.2413
18.6131
18.1396
18.5546
18.0669
18.5093
17.965
18.4126
17.7968
18.2284
17.549
17.8599
17.1391
17.26
16.4525
16.2928
15.3474
14.7723
13.608
12.4606
10.9538
9.04603
7.00305
4.11613
1.28259
-2.78137
-6.6701
-11.9986
-17.0587
-23.4658
-29.3586
-36.0892
-41.7144
-47.0134
-50.0415
-51.185
-49.3616
-45.4573
-39.677
-32.3047
-24.7734
-16.6323
-10.2016
-3.46349
0.446778
4.78053
6.55851
9.01507
9.55668
10.7164
10.729
10.9957
10.5824
10.2593
9.5449
8.67556
7.75288
6.37129
5.25066
3.32668
1.95158
-0.415114
-2.06137
-4.89475
-6.80739
-9.86764
-12.0306
-14.8959
-17.0843
-19.5729
-21.3575
-23.1178
-24.1982
-24.9747
-25.2148
-25.0197
-24.6449
-23.7437
-23.2215
-22.1784
-21.7452
-20.8039
-20.4214
-19.7778
-19.4619
-19.1309
-18.7828
-18.7354
-18.2591
-18.362
-17.7316
-17.9929
-17.2308
-17.6443
-16.8153
-17.362
-16.4523
-17.016
-16.257
-16.4701
-16.2765
-16.0969
-16.2263
-15.819
-16.1019
-15.5687
-15.9787
-15.3334
-15.8083
-15.1409
-15.6037
-14.9029
-15.391
-14.615
-15.0629
-14.3533
-14.5681
-13.9891
-14.0523
-13.4302
-13.3829
-12.6755
-12.4937
-11.637
-11.3106
-10.254
-9.70916
-8.44124
-7.56744
-6.02975
-4.75206
-2.82796
-1.11266
1.39135
3.52553
6.9192
9.39692
14.0334
16.7624
23.0624
25.9648
34.3682
37.2599
48.4902
50.6504
66.1756
65.9695
85.4372
85.8589
106.289
106.768
126.839
10.0019
17.9931
13.7483
17.6489
16.0442
17.8473
17.3973
18.2002
18.2563
18.4527
18.8054
18.5523
19.1177
18.5787
19.2163
18.6761
19.0994
18.9491
18.842
19.1197
18.74
19.1839
18.6894
19.215
18.6649
19.2135
18.6293
19.2395
18.5386
19.2671
18.4152
19.2672
18.325
19.1129
18.3574
18.7994
18.5196
18.4216
18.5514
18.2268
18.5052
18.0932
18.4413
17.9759
18.4005
17.859
18.3873
17.785
18.3274
17.7385
18.1805
17.6475
17.9208
17.4051
17.534
16.9651
16.8601
16.1926
15.734
14.8898
13.9337
12.7798
11.1419
9.45971
6.91403
4.39288
0.665068
-3.09336
-8.30796
-13.6781
-20.5328
-27.4475
-35.398
-42.6302
-49.6654
-54.7591
-57.946
-57.9706
-54.5236
-48.1856
-39.2868
-30.1372
-20.5825
-13.0412
-5.11883
0.20167
5.09878
7.66903
10.0479
11.2293
12.0208
12.446
12.5729
12.3484
11.9618
11.4529
10.5067
9.7631
8.35502
7.26539
5.43541
3.98904
1.6434
-0.0750392
-2.88754
-4.9902
-7.97093
-10.5128
-13.4259
-16.0261
-18.6364
-20.9671
-22.8164
-24.5336
-25.3633
-26.187
-25.9602
-25.981
-24.9595
-24.4163
-23.1386
-22.6433
-21.4884
-20.906
-20.0097
-19.4018
-18.8148
-18.2269
-18.1383
-17.4907
-17.6795
-16.9002
-17.3242
-16.4392
-17.0884
-16.2121
-16.9268
-15.993
-16.6337
-15.9158
-16.1667
-16.0025
-15.8121
-15.9797
-15.5497
-15.8962
-15.3288
-15.7753
-15.1211
-15.6285
-14.9201
-15.4006
-14.7482
-15.2225
-14.4697
-14.9137
-14.2184
-14.4338
-13.8772
-13.9169
-13.3271
-13.2416
-12.582
-12.3591
-11.5703
-11.2004
-10.2284
-9.66245
-8.47194
-7.61867
-6.15648
-4.94674
-3.0862
-1.49813
0.971675
2.90979
6.28707
8.46592
13.1249
15.4647
21.7223
24.1585
32.4237
34.6786
45.6582
46.739
61.234
61.0678
77.5139
77.2783
94.6288
94.6631
111.714
9.94032
17.978
13.4964
17.6261
15.6416
17.8887
17.0921
18.1896
18.0793
18.4186
18.7266
18.5331
19.0914
18.6307
19.2173
18.747
19.1435
19.019
18.9166
19.2129
18.8197
19.2987
18.7623
19.3374
18.7315
19.3689
18.6947
19.4164
18.6247
19.4512
18.5373
19.4312
18.4664
19.2752
18.52
18.9843
18.6874
18.6409
18.7373
18.426
18.743
18.2532
18.7187
18.1825
18.6928
18.1252
18.6743
18.0865
18.6388
18.0627
18.5618
18.0367
18.3766
17.9102
18.0656
17.6111
17.5411
17.0371
16.6362
15.9992
15.1415
14.2318
12.7558
11.3425
9.01469
6.7597
3.28212
-0.252947
-5.25049
-10.5601
-17.4406
-24.7708
-33.5681
-42.7104
-51.9775
-60.0239
-65.7456
-67.8612
-65.0574
-58.4794
-48.7957
-37.902
-25.7946
-15.6553
-6.39259
0.204496
5.85994
8.80988
11.1186
12.2336
12.9348
13.2344
13.3329
13.0235
12.5922
12.0567
11.1031
10.4247
9.07836
8.13945
6.34072
5.14079
2.79282
1.19146
-1.63193
-3.83642
-6.90494
-9.57422
-12.8751
-15.7048
-18.8639
-21.473
-23.9786
-25.8012
-27.1764
-27.7849
-27.7203
-27.2135
-25.9889
-24.8882
-23.4338
-22.5654
-21.4459
-20.826
-20.1301
-19.6608
-19.3088
-18.8426
-18.8999
-18.3614
-18.5575
-17.8309
-18.1373
-17.1795
-17.6367
-16.8194
-17.3396
-16.5328
-17.0183
-16.3373
-16.4733
-16.3388
-16.088
-16.2945
-15.8239
-16.1958
-15.5919
-16.1022
-15.3935
-15.9745
-15.2646
-15.7841
-15.1248
-15.6585
-14.9477
-15.4212
-14.8486
-15.0463
-14.6211
-14.7199
-14.2556
-14.2963
-13.7444
-13.7196
-13.0592
-12.9267
-12.1311
-11.8477
-10.883
-10.3698
-9.17523
-8.40733
-6.85144
-5.83021
-3.73826
-2.45982
0.378329
1.84521
5.79506
7.32962
12.7442
14.2594
21.5818
22.9434
32.8009
33.4202
45.8501
46.8767
61.1829
62.5737
77.8058
78.8883
94.7736
12.3751
20.0892
15.0506
19.0948
16.6519
18.7908
17.6865
18.6906
18.3584
18.6756
18.7972
18.6482
19.0568
18.6252
19.1548
18.6916
19.063
18.9361
18.8201
19.1259
18.706
19.2121
18.6539
19.2683
18.6329
19.3007
18.6044
19.3454
18.533
19.38
18.4578
19.3661
18.4033
19.2074
18.4367
18.8923
18.5881
18.519
18.6415
18.2902
18.6136
18.1054
18.5758
17.9773
18.5434
17.8915
18.5634
17.8871
18.5626
17.9597
18.5191
18.0474
18.4359
18.0901
18.2848
18.0319
18.0113
17.7626
17.46
17.1323
16.456
15.9094
14.7228
13.7421
11.8339
10.0555
7.06863
3.94747
-0.676781
-5.88346
-12.8907
-20.8759
-30.5765
-41.178
-53.0022
-64.5306
-74.3273
-80.4785
-81.0177
-75.4517
-64.3793
-51.3035
-36.0112
-22.7188
-10.4801
-1.54553
6.25748
10.147
12.8831
14.1566
14.7545
15.075
15.2847
15.1226
14.5353
14.2887
13.2157
12.6753
11.2541
10.3955
8.53868
7.3089
4.985
3.26091
0.546184
-1.86639
-4.99518
-7.92302
-11.3821
-14.6272
-18.0182
-21.2366
-24.0053
-26.6185
-28.2325
-29.6692
-29.6729
-29.8119
-28.2145
-27.2356
-25.1334
-24.2148
-22.6562
-21.6334
-20.459
-19.4676
-18.7309
-17.8503
-17.9614
-17.2496
-17.6907
-16.7524
-17.3764
-16.3211
-17.1401
-16.1545
-17.0165
-16.0278
-16.7265
-15.99
-16.2286
-16.102
-15.8523
-16.0966
-15.6056
-16.0435
-15.4
-15.9651
-15.2219
-15.8744
-15.0719
-15.7095
-14.9818
-15.6239
-14.839
-15.4087
-14.7563
-15.0069
-14.6533
-14.7034
-14.3515
-14.3056
-13.9356
-13.7716
-13.3331
-13.0762
-12.5172
-12.164
-11.4167
-10.9139
-9.92936
-9.23161
-7.90239
-7.00419
-5.1473
-4.09109
-1.38157
-0.368105
3.46657
4.49377
9.63596
10.6297
17.3753
18.2877
26.8783
27.99
38.2036
39.5343
51.2398
52.6478
65.815
66.776
80.932
12.3268
20.6662
15.0638
19.4788
16.7538
19.0995
17.7526
18.974
18.4142
18.9086
18.8794
18.8161
19.1746
18.7651
19.2573
18.7924
19.1696
19.0336
18.912
19.2379
18.7783
19.3494
18.7183
19.4087
18.6824
19.4694
18.6496
19.5298
18.6028
19.5665
18.5497
19.5449
18.5154
19.3815
18.5825
19.0727
18.7508
18.6906
18.83
18.4373
18.8373
18.225
18.8174
18.1334
18.78
18.0775
18.7829
18.0508
18.7802
18.1099
18.778
18.2408
18.7226
18.4104
18.5651
18.4364
18.4114
18.31
18.0448
17.8903
17.3063
16.9643
15.9432
15.205
13.5695
12.1153
9.54889
6.87256
2.82089
-1.88559
-8.34222
-16.2047
-26.2382
-38.3255
-52.0755
-67.0536
-80.843
-92.4748
-97.2702
-92.0368
-79.6019
-62.4945
-44.9362
-27.9303
-14.0574
-2.51826
6.3588
12.7708
13.6546
16.0383
15.7669
16.1383
15.7543
15.6809
14.9379
14.6567
13.4268
13.1666
11.7892
11.204
9.54633
8.61432
6.45248
4.94842
2.34717
0.063659
-3.07973
-6.02721
-9.70437
-13.2003
-17.1196
-20.7509
-24.3183
-27.3042
-29.772
-31.2614
-31.8806
-31.3115
-29.8019
-27.7295
-25.2826
-23.4825
-22.2383
-21.4338
-20.6659
-19.9999
-19.5071
-18.8091
-18.8525
-18.4114
-18.8177
-18.0153
-18.3038
-17.0269
-17.4155
-16.6935
-17.2838
-16.6101
-17.0423
-16.3775
-16.4584
-16.3479
-16.0666
-16.3152
-15.8324
-16.2438
-15.6156
-16.162
-15.4243
-16.0899
-15.3064
-15.9553
-15.2361
-15.8911
-15.1443
-15.7554
-15.1608
-15.3852
-15.1278
-15.2072
-14.9496
-14.9883
-14.6931
-14.636
-14.3127
-14.1732
-13.7689
-13.573
-13.0021
-12.7511
-11.9217
-11.5984
-10.4254
-10.0518
-8.36365
-8.01013
-5.56965
-5.19686
-1.93436
-1.52585
2.86718
3.21957
9.15403
9.59385
17.0702
17.8173
26.9456
28.0335
38.7679
40.0885
52.2667
53.3572
66.89
14.502
22.778
16.622
20.8513
17.8271
19.973
18.3989
19.4699
18.7616
19.1356
19.0381
18.8861
19.2011
18.7442
19.254
18.7135
19.1196
18.9388
18.8229
19.1491
18.6669
19.261
18.5978
19.3519
18.5638
19.426
18.5344
19.5018
18.4862
19.544
18.4542
19.5167
18.451
19.356
18.5176
19.0269
18.6911
18.5888
18.7649
18.3377
18.7308
18.1155
18.6807
17.9093
18.6813
17.8168
18.6822
17.8967
18.6566
18.0184
18.6778
18.2099
18.682
18.4744
18.6812
18.695
18.6899
18.7885
18.5717
18.6624
18.2054
18.1548
17.3708
16.9903
15.72
14.7065
12.6486
10.5137
7.12466
3.05695
-2.66698
-9.98195
-19.6228
-32.0291
-47.5364
-66.1453
-86.6308
-106.331
-118.859
-119.657
-108.485
-89.3814
-66.395
-42.8832
-22.9649
-8.8382
6.42928
12.0958
17.5876
17.6691
18.1355
18.1391
17.7948
17.9697
17.085
17.1531
15.7612
15.3874
13.9395
13.3291
11.5572
10.5925
8.60694
6.9607
4.48841
2.22625
-1.01996
-4.19009
-7.95979
-11.9
-16.105
-20.3983
-24.4668
-28.4613
-31.4349
-34.2358
-35.0709
-35.9016
-33.8269
-32.2394
-28.2238
-26.3936
-23.9198
-22.2714
-20.8497
-19.318
-18.3772
-16.9974
-17.087
-16.6684
-17.602
-16.614
-17.6431
-16.2516
-17.1617
-15.8159
-17.1355
-15.9728
-16.905
-16.0203
-16.3321
-16.1182
-15.8855
-16.1375
-15.6598
-16.1075
-15.4585
-16.0872
-15.2677
-16.0384
-15.1649
-15.9495
-15.1104
-15.8909
-15.0843
-15.815
-15.1035
-15.4631
-15.1647
-15.2841
-15.0871
-15.1026
-14.9597
-14.8204
-14.6743
-14.4486
-14.26
-14.0251
-13.6939
-13.4281
-12.8644
-12.5448
-11.6755
-11.3224
-10.0012
-9.70894
-7.61526
-7.4369
-4.48643
-4.38218
-0.415402
-0.514858
4.73839
4.69114
11.1739
11.4395
19.3854
19.7474
29.1661
29.625
40.6669
41.0765
53.8271
14.502
23.5093
16.8555
21.5378
18.2176
20.5064
18.8201
19.9069
19.1476
19.4795
19.3541
19.1432
19.4685
18.9029
19.4933
18.8412
19.2826
19.0685
18.9249
19.2868
18.7262
19.4095
18.6368
19.4866
18.5968
19.5767
18.5672
19.6662
18.5268
19.714
18.5105
19.6817
18.5333
19.5212
18.6368
19.1899
18.8424
18.7481
18.9391
18.4357
18.9436
18.1863
18.9145
18.0141
18.8924
17.9044
18.8721
17.9166
18.833
18.0319
18.8553
18.3022
18.8118
18.6606
18.7447
18.9029
18.849
19.0882
18.8855
19.1078
18.7235
18.8234
18.181
18.0026
16.9981
16.2949
14.6789
13.0126
10.2734
6.8643
1.97088
-4.58328
-13.4627
-25.3948
-40.8822
-61.033
-84.9065
-112.446
-135.148
-141.467
-132.505
-110.714
-83.7617
-56.0345
-32.4048
-13.8756
1.66217
14.2975
16.9489
21.5216
18.9926
19.1575
17.8778
17.9989
16.993
16.9174
15.6108
15.637
14.2724
14.0379
12.6627
11.8446
10.1172
8.83707
6.53606
4.44396
1.51517
-1.54743
-5.36278
-9.30858
-13.9245
-18.5498
-23.3425
-27.851
-31.9717
-35.172
-37.2668
-38.1042
-36.6965
-33.6287
-28.5973
-24.1979
-22.8708
-22.2704
-21.5973
-20.8353
-20.053
-18.5577
-18.19
-17.791
-19.1623
-18.5594
-18.58
-16.8796
-16.8187
-16.3176
-17.0901
-16.8795
-17.1661
-16.4585
-16.4037
-16.3297
-16.0062
-16.3774
-15.8126
-16.3354
-15.5702
-16.2528
-15.3662
-16.1951
-15.2869
-16.1272
-15.2495
-16.0787
-15.2464
-16.0438
-15.3302
-15.694
-15.4508
-15.5476
-15.4965
-15.5008
-15.4967
-15.325
-15.3727
-15.0859
-15.1248
-14.8625
-14.8029
-14.5821
-14.2674
-14.0716
-13.5105
-13.3483
-12.3534
-12.3265
-10.6691
-10.9167
-8.47787
-8.82218
-5.53846
-6.12162
-1.81767
-2.15796
3.029
3.29391
9.76433
10.5715
18.2299
19.1894
28.4608
29.4346
41.1978
16.6015
25.5801
18.2848
22.7303
19.1947
21.2333
19.4253
20.2898
19.4978
19.6293
19.5585
19.1516
19.5725
18.8577
19.5347
18.7481
19.2568
18.9851
18.8379
19.224
18.5961
19.3675
18.4861
19.4601
18.4546
19.5581
18.4342
19.6683
18.4023
19.7368
18.4032
19.7177
18.4537
19.5549
18.5826
19.1978
18.823
18.695
18.9404
18.3754
18.8986
18.0723
18.866
17.799
18.8594
17.6809
18.8049
17.746
18.7223
17.8927
18.7156
18.1658
18.7248
18.5738
18.8044
19.0313
18.9415
19.333
19.1268
19.5314
19.2148
19.5204
19.043
19.1067
18.3768
17.9879
16.8061
15.6044
13.5447
10.8523
7.00015
1.53647
-5.8063
-16.3744
-30.1255
-49.9901
-75.4724
-107.416
-139.294
-157.934
-157.278
-144.77
-109.505
-75.4836
-47.2812
-24.9797
-5.91134
9.43736
20.084
20.6533
23.1359
20.9534
19.8899
20.5805
19.295
19.842
17.7862
17.507
16.0407
15.653
14.2396
13.5321
11.9436
10.6657
8.67891
6.75226
3.91318
0.843428
-2.96152
-7.18321
-12.0509
-17.4105
-22.953
-28.6963
-33.556
-38.5097
-41.1374
-44.3724
-43.048
-42.2838
-34.5312
-29.9461
-23.3572
-22.513
-20.8073
-19.0532
-18.3461
-16.0296
-15.2582
-14.734
-16.8903
-16.8532
-19.2572
-16.7169
-17.0919
-14.8392
-16.7222
-15.6967
-17.3744
-16.3294
-16.5545
-16.0017
-15.8696
-16.083
-15.6767
-16.1945
-15.4882
-16.1833
-15.3049
-16.0804
-15.223
-16.0325
-15.193
-16.0647
-15.2072
-16.0887
-15.3417
-15.7458
-15.4309
-15.6342
-15.5617
-15.6397
-15.6793
-15.5204
-15.6438
-15.2866
-15.5018
-15.1923
-15.3828
-15.119
-15.0606
-14.8491
-14.5587
-14.3472
-13.842
-13.7864
-12.4587
-12.7852
-10.802
-11.2629
-8.31451
-9.4712
-5.65282
-6.54589
-2.20549
-2.82007
3.06881
2.29596
9.61112
8.61577
17.5452
16.5422
28.5458
16.6799
26.4142
18.8248
23.5968
19.8925
21.8572
20.1603
20.7765
20.1793
19.97
20.1224
19.4068
20.0254
19.0226
19.8187
18.9349
19.4266
19.1692
18.9055
19.4179
18.6027
19.5583
18.4725
19.6361
18.4199
19.7331
18.3904
19.8462
18.3622
19.9066
18.3892
19.8692
18.4836
19.6935
18.6734
19.3113
18.9842
18.7623
19.153
18.4211
19.1158
18.1325
19.0623
17.8787
19.0228
17.6947
18.9919
17.6775
18.921
17.8769
18.8151
18.2508
18.7008
18.6907
18.6284
19.0856
18.9149
19.4219
19.2328
19.6985
19.448
19.8176
19.4289
19.6069
19.0678
18.858
17.9949
17.0771
15.5137
13.3326
10.2684
5.73987
-0.286716
-9.10838
-20.7252
-37.9439
-61.5096
-91.4237
-126.097
-151.492
-159.421
-153.396
-123.214
-84.9701
-56.0856
-33.5526
-11.5241
5.57483
19.6501
19.8749
21.6542
22.2758
18.5569
18.8971
18.4099
18.5988
17.627
17.708
16.2309
16.2195
15.1917
14.577
13.303
12.3223
10.5009
8.85469
6.501
3.71542
0.068548
-3.9991
-8.97654
-14.2998
-20.3353
-26.4427
-32.3452
-37.7465
-41.8831
-46.1724
-47.02
-45.2872
-36.6227
-25.0515
-23.3795
-22.4577
-23.3332
-22.8371
-21.3667
-18.9823
-16.6239
-15.1643
-18.4618
-19.144
-19.6436
-17.6076
-16.151
-15.2409
-16.4107
-17.0975
-17.5677
-16.7058
-16.4911
-16.1906
-15.9475
-16.3781
-15.8235
-16.3978
-15.4972
-16.2967
-15.3385
-16.2289
-15.2604
-16.16
-15.217
-16.1498
-15.2794
-16.1519
-15.4278
-15.8438
-15.6005
-15.6356
-15.8055
-15.7298
-16.0393
-15.752
-16.0054
-15.6197
-15.8417
-15.5559
-15.9071
-15.6936
-15.7948
-15.6398
-15.4922
-15.4916
-15.0424
-15.1408
-14.2035
-14.8252
-13.3719
-13.8988
-11.3793
-13.136
-10.1924
-11.2561
-8.30715
-9.0933
-4.48121
-4.29481
0.185229
1.00947
6.21072
6.40861
15.6475
18.7812
28.2332
19.9272
24.4844
20.5759
22.34