/*--------------------------------*- C++ -*----------------------------------*\
| =========                 |                                                 |
| \\      /  F ield         | OpenFOAM: The Open Source CFD Toolbox           |
|  \\    /   O peration     | Version:  4.1                                   |
|   \\  /    A nd           | Web:      www.OpenFOAM.org                      |
|    \\/     M anipulation  |                                                 |
\*---------------------------------------------------------------------------*/
FoamFile
{
    version     2.0;
    format      ascii;
    class       volScalarField;
    location    "1";
    object      p;
}
// * * * * * * * * * * * * * * * * * * * * * * * * * * * * * * * * * * * * * //

dimensions      [0 2 -2 0 0 0 0];

internalField   nonuniform List<scalar> 
6750
(
-176.606
-36.8552
-58.9315
-70.7188
-70.5079
-76.3776
-79.0312
-81.5643
-84.0775
-87.0715
-86.6122
-91.5022
-87.9962
-51.7682
-243.695
-174.562
-35.8184
-59.3496
-70.4174
-70.7858
-77.037
-79.7661
-82.2948
-84.664
-87.5142
-86.852
-91.0825
-88.2381
-51.0926
-240.607
-173.896
-35.8912
-59.5813
-70.2693
-70.5152
-76.7727
-79.7095
-82.3281
-84.581
-87.1997
-86.5582
-90.8493
-88.2997
-51.3539
-239.447
-172.425
-35.3695
-59.9134
-70.409
-70.6901
-77.0044
-80.01
-82.5919
-84.7797
-87.3602
-86.6729
-90.879
-88.4731
-51.0714
-237.183
-171.426
-35.5373
-60.3608
-70.5944
-70.7437
-76.9899
-80.0639
-82.6268
-84.779
-87.3141
-86.6646
-90.9555
-88.7606
-51.4604
-235.558
-170.211
-35.5902
-60.6382
-70.7393
-70.8629
-77.0724
-80.1797
-82.7074
-84.8386
-87.3655
-86.7374
-91.0233
-88.9307
-51.7126
-233.709
-168.889
-36.144
-61.0563
-70.9168
-70.949
-77.0941
-80.2122
-82.7181
-84.8409
-87.3703
-86.7814
-91.1204
-89.264
-52.3807
-231.951
-168.006
-36.4234
-61.21
-70.9452
-70.9804
-77.1166
-80.2361
-82.7307
-84.8509
-87.3847
-86.8031
-91.1243
-89.3858
-52.6899
-230.911
-168.886
-36.1438
-61.0558
-70.9162
-70.9483
-77.0932
-80.2113
-82.7172
-84.84
-87.3694
-86.7803
-91.1195
-89.263
-52.3807
-231.947
-170.207
-35.5894
-60.6371
-70.738
-70.8614
-77.0708
-80.1779
-82.7055
-84.8368
-87.3636
-86.7354
-91.0213
-88.9286
-51.7118
-233.702
-171.422
-35.5359
-60.3592
-70.5925
-70.7416
-76.9875
-80.0613
-82.6241
-84.7763
-87.3113
-86.6617
-90.9526
-88.7575
-51.4587
-235.55
-172.42
-35.3675
-59.9114
-70.4065
-70.6875
-77.0013
-80.0067
-82.5884
-84.7761
-87.3565
-86.6691
-90.8752
-88.4692
-51.0688
-237.174
-173.89
-35.8886
-59.5789
-70.2663
-70.5121
-76.7691
-79.7056
-82.3239
-84.5767
-87.1953
-86.5537
-90.8446
-88.2951
-51.3505
-239.437
-174.556
-35.8154
-59.3469
-70.4141
-70.7822
-77.0329
-79.7617
-82.2902
-84.6591
-87.5092
-86.847
-91.0773
-88.2331
-51.0886
-240.596
-176.599
-36.8516
-58.9283
-70.7151
-70.5041
-76.3732
-79.0264
-81.5592
-84.0723
-87.0661
-86.6068
-91.4966
-87.9909
-51.7636
-243.684
-239.816
-52.5585
-51.5035
-78.4988
-74.5567
-77.5871
-77.4073
-77.9192
-81.9234
-87.3305
-88.7772
-99.8144
-78.8866
-64.0274
-358.753
-238.46
-50.3895
-51.5392
-76.8668
-73.8075
-78.4528
-79.8471
-81.0631
-84.4625
-88.2007
-88.0157
-97.6379
-78.8836
-61.7244
-356.027
-238.43
-50.3832
-51.9882
-76.516
-73.0532
-77.4679
-79.3894
-81.2659
-83.9897
-86.9686
-86.8606
-97.0637
-79.2132
-62.0512
-355.407
-237.56
-49.1182
-52.0102
-76.169
-72.9407
-77.6334
-79.9562
-81.8606
-84.2646
-86.9238
-86.6591
-96.6375
-79.1953
-60.9899
-353.338
-237.25
-49.1794
-52.6193
-76.2956
-72.9326
-77.4366
-80.0704
-82.0708
-84.2779
-86.5795
-86.5275
-96.6662
-79.7267
-61.5223
-352.044
-236.625
-48.9593
-52.6809
-76.1691
-72.9484
-77.488
-80.2907
-82.2699
-84.3506
-86.5244
-86.5264
-96.5356
-79.7413
-61.724
-350.259
-235.728
-49.7232
-53.1715
-76.363
-73.0651
-77.4736
-80.362
-82.3385
-84.3544
-86.4445
-86.599
-96.6937
-80.2045
-62.9096
-348.317
-234.934
-50.1022
-53.2567
-76.2967
-73.0516
-77.4853
-80.4148
-82.3791
-84.3723
-86.4404
-86.6001
-96.6362
-80.2733
-63.4484
-346.999
-235.724
-49.7232
-53.1708
-76.362
-73.0641
-77.4723
-80.3607
-82.3373
-84.3531
-86.4432
-86.5979
-96.6921
-80.203
-62.9102
-348.309
-236.619
-48.9586
-52.6795
-76.1671
-72.9464
-77.4856
-80.2882
-82.2674
-84.3481
-86.5218
-86.5239
-96.5325
-79.7385
-61.7235
-350.246
-237.242
-49.1777
-52.6172
-76.2928
-72.9297
-77.4332
-80.0668
-82.0672
-84.2742
-86.5756
-86.5237
-96.6616
-79.7225
-61.5203
-352.029
-237.551
-49.1155
-52.0074
-76.1654
-72.937
-77.6291
-79.9517
-81.856
-84.2599
-86.9187
-86.6541
-96.6316
-79.19
-60.9863
-353.321
-238.42
-50.3796
-51.9848
-76.5116
-73.0488
-77.4629
-79.3842
-81.2604
-83.984
-86.9625
-86.8545
-97.0567
-79.2068
-62.0461
-355.389
-238.45
-50.3854
-51.5354
-76.8619
-73.8026
-78.4472
-79.8412
-81.0569
-84.4561
-88.1941
-88.0088
-97.6301
-78.8765
-61.7181
-356.008
-239.805
-52.5535
-51.499
-78.4934
-74.5512
-77.5811
-77.4007
-77.9122
-81.9161
-87.3231
-88.7696
-99.8059
-78.8788
-64.0201
-358.733
-256.905
-65.0927
-52.1308
-87.822
-81.0163
-82.5945
-81.1576
-80.8399
-85.9785
-93.6598
-96.6087
-113.866
-81.975
-73.6485
-416.174
-255.802
-62.7686
-51.7867
-85.8683
-79.6665
-83.4409
-84.295
-85.2491
-89.5263
-94.6211
-95.0828
-111.126
-81.7123
-71.0102
-413.727
-255.855
-62.6798
-52.1557
-85.6542
-79.1557
-82.4024
-83.6242
-85.1725
-88.4454
-92.9327
-93.9682
-110.72
-82.0117
-71.3775
-413.312
-255.165
-61.2459
-51.8239
-84.9822
-78.8073
-82.5484
-84.4581
-85.95
-88.8593
-92.851
-93.5117
-109.942
-81.6373
-70.1079
-411.436
-255.039
-61.194
-52.2888
-85.0795
-78.8423
-82.3209
-84.5691
-86.1266
-88.7799
-92.2857
-93.344
-109.964
-82.0683
-70.6982
-410.403
-254.645
-60.7983
-52.0712
-84.7563
-78.7328
-82.3268
-84.8734
-86.3526
-88.8628
-92.1524
-93.1994
-109.637
-81.773
-70.8141
-408.864
-254.02
-61.4309
-52.4194
-84.9309
-78.861
-82.2949
-84.9639
-86.4077
-88.8375
-91.9874
-93.2532
-109.799
-82.1213
-72.0068
-407.253
-253.391
-61.744
-52.3926
-84.7881
-78.7902
-82.2794
-85.0362
-86.4555
-88.858
-91.9548
-93.1937
-109.656
-82.0599
-72.5097
-406.129
-254.013
-61.4317
-52.4183
-84.9294
-78.8596
-82.2928
-84.9617
-86.4057
-88.8355
-91.9853
-93.2511
-109.796
-82.1189
-72.0082
-407.239
-254.635
-60.7982
-52.0691
-84.7532
-78.7298
-82.3229
-84.8693
-86.3486
-88.8587
-92.1481
-93.1951
-109.632
-81.7682
-70.814
-408.844
-255.027
-61.1926
-52.2857
-85.0751
-78.8379
-82.3154
-84.5633
-86.1208
-88.774
-92.2793
-93.3376
-109.956
-82.0613
-70.6957
-410.378
-255.151
-61.2431
-51.8197
-84.9765
-78.8015
-82.5415
-84.4507
-85.9426
-88.8516
-92.8427
-93.5032
-109.932
-81.6284
-70.1029
-411.409
-255.84
-62.6757
-52.1507
-85.6474
-79.1486
-82.3944
-83.6156
-85.1637
-88.4363
-92.9229
-93.958
-110.708
-82.0011
-71.3701
-413.283
-255.786
-62.7636
-51.7811
-85.8609
-79.6587
-83.432
-84.2855
-85.239
-89.5159
-94.61
-95.0714
-111.113
-81.7005
-71.0009
-413.696
-256.889
-65.0867
-52.1244
-87.8137
-81.0077
-82.5848
-81.147
-80.8286
-85.9667
-93.6476
-96.5959
-113.852
-81.9621
-73.6376
-416.142
-286.332
-79.6652
-57.2949
-97.4831
-88.9832
-90.9228
-90.1348
-90.1888
-96.0789
-105.258
-108.851
-131.362
-96.9128
-89.1391
-496.964
-284.959
-77.0847
-56.764
-95.3653
-87.5048
-91.546
-92.889
-94.3544
-99.4335
-106.174
-107.134
-128.441
-96.5156
-86.1199
-493.771
-284.911
-76.9451
-57.1335
-95.1852
-87.2234
-90.7494
-92.2857
-94.1553
-98.2612
-104.617
-106.323
-128.163
-96.8031
-86.5915
-493.071
-284.103
-75.3806
-56.6917
-94.3662
-86.7458
-90.8199
-93.1702
-95.0663
-98.8616
-104.573
-105.727
-127.265
-96.2958
-85.2544
-490.592
-283.929
-75.267
-57.1536
-94.4708
-86.848
-90.6501
-93.2273
-95.1602
-98.6998
-104.024
-105.616
-127.358
-96.7089
-85.9947
-489.125
-283.478
-74.7987
-56.8884
-94.0808
-86.6783
-90.5979
-93.5293
-95.4037
-98.8213
-103.878
-105.392
-126.998
-96.3198
-86.2012
-487.06
-282.766
-75.4041
-57.2546
-94.2778
-86.838
-90.5763
-93.6015
-95.432
-98.7767
-103.714
-105.461
-127.22
-96.6705
-87.5383
-484.953
-282.061
-75.7042
-57.2226
-94.1196
-86.7451
-90.5351
-93.6666
-95.4833
-98.804
-103.669
-105.37
-127.062
-96.5754
-88.0839
-483.555
-282.755
-75.4058
-57.253
-94.2754
-86.8356
-90.573
-93.5979
-95.4286
-98.7731
-103.71
-105.458
-127.215
-96.6664
-87.5405
-484.931
-283.463
-74.7992
-56.8851
-94.076
-86.6734
-90.5917
-93.5224
-95.397
-98.8142
-103.87
-105.385
-126.989
-96.3116
-86.2011
-487.026
-283.911
-75.2656
-57.1488
-94.4639
-86.8408
-90.6411
-93.2176
-95.1504
-98.6895
-104.013
-105.605
-127.345
-96.6971
-85.9908
-489.085
-284.083
-75.3772
-56.6854
-94.3574
-86.7365
-90.8086
-93.1579
-95.0537
-98.8483
-104.558
-105.713
-127.249
-96.2807
-85.2465
-490.547
-284.889
-76.9399
-57.1259
-95.1747
-87.2122
-90.7363
-92.2713
-94.1402
-98.2453
-104.6
-106.305
-128.144
-96.7852
-86.5798
-493.023
-284.936
-77.0782
-56.7557
-95.3537
-87.4923
-91.5315
-92.8732
-94.3374
-99.4157
-106.154
-107.114
-128.419
-96.4958
-86.1052
-493.721
-286.309
-79.6571
-57.2854
-97.4704
-88.9695
-90.9071
-90.1172
-90.1698
-96.0588
-105.237
-108.829
-131.338
-96.8912
-89.1218
-496.912
-317.185
-89.928
-62.2022
-107.654
-98.1849
-101.71
-102.681
-104.41
-111.047
-121.431
-124.828
-152.209
-115.861
-98.4048
-602.663
-315.543
-87.1687
-61.5443
-105.31
-96.6836
-102.155
-104.988
-108.029
-114.01
-122.41
-123.174
-148.961
-115.395
-95.029
-598.577
-315.388
-86.988
-61.909
-105.125
-96.5348
-101.59
-104.546
-107.835
-112.985
-121.13
-122.573
-148.739
-115.655
-95.6815
-597.549
-314.505
-85.3018
-61.38
-104.177
-95.9819
-101.585
-105.364
-108.787
-113.688
-121.16
-121.921
-147.754
-115.047
-94.3362
-594.326
-314.333
-85.1405
-61.8456
-104.278
-96.1287
-101.472
-105.39
-108.809
-113.488
-120.726
-121.872
-147.912
-115.451
-95.3433
-592.327
-313.883
-84.61
-61.5341
-103.824
-95.9181
-101.367
-105.65
-109.057
-113.64
-120.595
-121.612
-147.543
-114.981
-95.7454
-589.622
-313.185
-85.2151
-61.9188
-104.032
-96.1003
-101.358
-105.7
-109.057
-113.585
-120.475
-121.706
-147.822
-115.348
-97.3569
-586.981
-312.474
-85.5151
-61.8793
-103.857
-95.9936
-101.295
-105.747
-109.107
-113.616
-120.428
-121.601
-147.659
-115.228
-98.0034
-585.303
-313.169
-85.2183
-61.9165
-104.029
-96.0965
-101.353
-105.694
-109.051
-113.579
-120.468
-121.7
-147.814
-115.341
-97.3606
-586.943
-313.86
-84.6117
-61.5292
-103.817
-95.9104
-101.357
-105.639
-109.045
-113.628
-120.582
-121.599
-147.529
-114.967
-95.7455
-589.567
-314.306
-85.1394
-61.8384
-104.268
-96.1174
-101.458
-105.374
-108.793
-113.471
-120.707
-121.853
-147.891
-115.431
-95.3373
-592.26
-314.475
-85.2977
-61.3707
-104.164
-95.9673
-101.567
-105.344
-108.765
-113.665
-121.136
-121.896
-147.727
-115.022
-94.3237
-594.252
-315.356
-86.9812
-61.8978
-105.109
-96.5172
-101.569
-104.523
-107.81
-112.958
-121.101
-122.543
-148.706
-115.625
-95.6628
-597.469
-315.51
-87.1599
-61.5319
-105.292
-96.6641
-102.132
-104.962
-108
-113.98
-122.378
-123.141
-148.924
-115.362
-95.0055
-598.494
-317.151
-89.9171
-62.1882
-107.635
-98.1634
-101.684
-102.653
-104.379
-111.013
-121.396
-124.792
-152.169
-115.825
-98.377
-602.578
-351.515
-101.381
-69.2504
-120.511
-110.21
-115.859
-118.869
-122.97
-130.701
-143.285
-146.629
-179.724
-143.29
-106.759
-740.558
-349.687
-98.3757
-68.444
-117.892
-108.654
-116.142
-120.834
-126.171
-133.404
-144.332
-144.969
-175.927
-142.67
-102.931
-735.304
-349.458
-98.1395
-68.7934
-117.694
-108.584
-115.744
-120.547
-126.029
-132.549
-143.241
-144.445
-175.708
-142.822
-103.783
-733.822
-348.501
-96.2986
-68.1623
-116.607
-107.949
-115.656
-121.262
-126.961
-133.285
-143.315
-143.712
-174.57
-142.024
-102.395
-729.62
-348.328
-96.0683
-68.619
-116.695
-108.112
-115.573
-121.282
-126.948
-133.084
-142.965
-143.673
-174.756
-142.339
-103.703
-726.906
-347.877
-95.44
-68.2433
-116.167
-107.849
-115.416
-121.49
-127.185
-133.245
-142.837
-143.359
-174.346
-141.703
-104.311
-723.366
-347.197
-96.016
-68.6331
-116.376
-108.035
-115.408
-121.524
-127.167
-133.189
-142.748
-143.452
-174.655
-142.03
-106.233
-720.04
-346.482
-96.2977
-68.574
-116.178
-107.91
-115.325
-121.551
-127.211
-133.218
-142.695
-143.328
-174.475
-141.853
-106.988
-718.013
-347.172
-96.0215
-68.6295
-116.371
-108.029
-115.4
-121.515
-127.158
-133.179
-142.738
-143.442
-174.643
-142.018
-106.239
-719.978
-347.842
-95.4433
-68.2359
-116.156
-107.837
-115.401
-121.472
-127.166
-133.225
-142.816
-143.337
-174.322
-141.679
-104.312
-723.275
-348.287
-96.0675
-68.6082
-116.678
-108.094
-115.551
-121.257
-126.921
-133.055
-142.933
-143.641
-174.72
-142.304
-103.693
-726.795
-348.456
-96.2934
-68.1482
-116.586
-107.926
-115.628
-121.23
-126.927
-133.247
-143.274
-143.671
-174.524
-141.981
-102.375
-729.497
-349.411
-98.1304
-68.7766
-117.669
-108.557
-115.71
-120.509
-125.988
-132.504
-143.193
-144.396
-175.653
-142.772
-103.753
-733.689
-349.638
-98.3636
-68.4254
-117.865
-108.623
-116.106
-120.793
-126.125
-133.355
-144.279
-144.914
-175.867
-142.614
-102.894
-735.166
-351.465
-101.366
-69.2296
-120.481
-110.177
-115.819
-118.823
-122.919
-130.646
-143.227
-146.569
-179.659
-143.229
-106.714
-740.416
-388.355
-112.797
-77.1415
-135.56
-125.091
-133.694
-139.178
-146.337
-155.739
-172.125
-175.889
-215.2
-181.603
-113.174
-921.235
-386.415
-109.55
-76.226
-132.702
-123.492
-133.835
-140.856
-149.199
-158.225
-173.197
-174.154
-210.738
-180.84
-108.938
-914.271
-386.167
-109.268
-76.5682
-132.503
-123.49
-133.561
-140.694
-149.106
-157.497
-172.16
-173.614
-210.503
-180.819
-110.116
-912.09
-385.187
-107.293
-75.8477
-131.286
-122.774
-133.389
-141.298
-149.989
-158.209
-172.203
-172.744
-209.159
-179.766
-108.778
-906.485
-385.056
-107.018
-76.303
-131.367
-122.946
-133.323
-141.319
-149.964
-157.996
-171.866
-172.665
-209.355
-179.927
-110.543
-902.723
-384.636
-106.312
-75.868
-130.77
-122.628
-133.114
-141.473
-150.18
-158.138
-171.708
-172.265
-208.89
-179.067
-111.496
-897.998
-383.999
-106.879
-76.2683
-130.984
-122.812
-133.101
-141.498
-150.154
-158.074
-171.622
-172.332
-209.226
-179.324
-113.878
-893.685
-383.287
-107.149
-76.1893
-130.76
-122.666
-132.999
-141.506
-150.186
-158.094
-171.556
-172.183
-209.027
-179.076
-114.808
-891.153
-383.96
-106.888
-76.2629
-130.975
-122.803
-133.089
-141.484
-150.138
-158.058
-171.604
-172.315
-209.206
-179.302
-113.888
-893.581
-384.585
-106.318
-75.8568
-130.753
-122.609
-133.09
-141.446
-150.148
-158.106
-171.672
-172.229
-208.85
-179.026
-111.497
-897.845
-384.997
-107.018
-76.2866
-131.342
-122.918
-133.288
-141.28
-149.919
-157.948
-171.814
-172.611
-209.296
-179.868
-110.528
-902.537
-385.122
-107.287
-75.8266
-131.254
-122.739
-133.344
-141.247
-149.932
-158.148
-172.136
-172.675
-209.083
-179.692
-108.746
-906.277
-386.098
-109.256
-76.543
-132.465
-123.447
-133.508
-140.634
-149.038
-157.424
-172.081
-173.532
-210.413
-180.732
-110.068
-911.867
-386.344
-109.533
-76.1981
-132.661
-123.444
-133.777
-140.79
-149.124
-158.144
-173.109
-174.062
-210.638
-180.744
-108.877
-914.039
-388.283
-112.776
-77.1107
-135.514
-125.039
-133.631
-139.105
-146.254
-155.649
-172.028
-175.789
-215.091
-181.5
-113.101
-920.997
-428.496
-125.61
-87.0287
-153.315
-143.094
-155.487
-164.108
-175.361
-187.304
-209.341
-214.617
-260.109
-235.56
-116.15
-1159.97
-426.486
-122.101
-86.0393
-150.284
-141.487
-155.495
-165.504
-177.845
-189.488
-210.381
-212.753
-254.839
-234.624
-111.573
-1150.33
-426.252
-121.756
-86.3685
-150.099
-141.553
-155.318
-165.434
-177.773
-188.837
-209.331
-212.127
-254.566
-234.292
-113.239
-1146.99
-425.287
-119.631
-85.5536
-148.772
-140.767
-155.062
-165.912
-178.55
-189.432
-209.279
-211.046
-252.944
-232.846
-112.077
-1139.23
-425.232
-119.304
-85.9948
-148.853
-140.947
-155.003
-165.929
-178.501
-189.164
-208.894
-210.865
-253.122
-232.706
-114.507
-1133.82
-424.867
-118.517
-85.4863
-148.192
-140.575
-154.743
-166.026
-178.672
-189.242
-208.669
-210.332
-252.58
-231.502
-116
-1127.29
-424.281
-119.079
-85.8858
-148.41
-140.757
-154.725
-166.041
-178.631
-189.146
-208.557
-210.341
-252.934
-231.621
-119.061
-1121.44
-423.57
-119.34
-85.7794
-148.16
-140.589
-154.604
-166.029
-178.647
-189.147
-208.47
-210.155
-252.715
-231.28
-120.266
-1118.12
-424.224
-119.093
-85.8777
-148.396
-140.742
-154.706
-166.018
-178.605
-189.121
-208.527
-210.311
-252.901
-231.584
-119.078
-1121.27
-424.792
-118.527
-85.4693
-148.165
-140.546
-154.706
-165.982
-178.622
-189.19
-208.611
-210.272
-252.515
-231.431
-116.001
-1127.03
-425.145
-119.304
-85.9699
-148.814
-140.903
-154.949
-165.866
-178.428
-189.088
-208.808
-210.777
-253.025
-232.604
-114.483
-1133.51
-425.192
-119.622
-85.5217
-148.723
-140.711
-154.992
-165.831
-178.458
-189.333
-209.169
-210.931
-252.82
-232.718
-112.026
-1138.88
-426.153
-121.738
-86.3305
-150.04
-141.486
-155.235
-165.338
-177.664
-188.718
-209.2
-211.99
-254.418
-234.143
-113.161
-1146.61
-426.384
-122.076
-85.9972
-150.22
-141.412
-155.404
-165.398
-177.724
-189.355
-210.235
-212.601
-254.674
-234.461
-111.474
-1149.94
-428.392
-125.579
-86.9825
-153.246
-143.013
-155.388
-163.991
-175.228
-187.157
-209.18
-214.45
-259.928
-235.383
-116.031
-1159.57
-468.913
-136.699
-97.4333
-173.181
-164.198
-181.486
-194.176
-210.997
-226.741
-256.618
-265.783
-316.148
-312.559
-110.64
-1475.26
-466.967
-132.969
-96.4047
-170.059
-162.639
-181.373
-195.273
-212.984
-228.462
-257.51
-263.659
-309.798
-311.369
-105.894
-1461.21
-466.808
-132.6
-96.7022
-169.903
-162.784
-181.278
-195.268
-212.905
-227.846
-256.405
-262.861
-309.455
-310.463
-108.324
-1455.84
-465.849
-130.389
-95.7873
-168.494
-161.949
-180.94
-195.606
-213.51
-228.242
-256.217
-261.473
-307.435
-308.344
-107.58
-1444.63
-465.904
-130.067
-96.1948
-168.579
-162.143
-180.887
-195.613
-213.413
-227.894
-255.756
-261.117
-307.556
-307.629
-111.017
-1436.53
-465.633
-129.261
-95.595
-167.859
-161.723
-180.578
-195.646
-213.507
-227.874
-255.445
-260.383
-306.902
-305.855
-113.38
-1427.15
-465.113
-129.877
-95.98
-168.08
-161.903
-180.553
-195.646
-213.438
-227.732
-255.288
-260.293
-307.262
-305.708
-117.471
-1418.85
-464.397
-130.159
-95.8406
-167.802
-161.711
-180.411
-195.612
-213.431
-227.706
-255.173
-260.054
-307.022
-305.234
-119.119
-1414.26
-465.029
-129.899
-95.9678
-168.06
-161.88
-180.524
-195.611
-213.399
-227.691
-255.239
-260.243
-307.209
-305.642
-117.5
-1418.56
-465.525
-129.277
-95.5691
-167.818
-161.677
-180.519
-195.577
-213.43
-227.791
-255.347
-260.282
-306.794
-305.73
-113.385
-1426.71
-465.78
-130.069
-96.1571
-168.52
-162.075
-180.801
-195.512
-213.298
-227.77
-255.615
-260.968
-307.397
-307.452
-110.98
-1436
-465.716
-130.376
-95.7392
-168.419
-161.862
-180.829
-195.477
-213.362
-228.081
-256.035
-261.282
-307.23
-308.124
-107.498
-1444.04
-466.672
-132.574
-96.6449
-169.813
-162.679
-181.147
-195.115
-212.73
-227.653
-256.189
-262.633
-309.209
-310.207
-108.199
-1455.2
-466.828
-132.933
-96.3413
-169.961
-162.523
-181.228
-195.104
-212.789
-228.246
-257.27
-263.406
-309.524
-311.088
-105.734
-1460.55
-468.768
-136.654
-97.3641
-173.075
-164.071
-181.329
-193.991
-210.783
-226.502
-256.355
-265.504
-315.848
-312.257
-110.448
-1474.57
-513.907
-151.53
-110.968
-195.219
-187.777
-210.809
-228.784
-253.233
-274.94
-315.392
-333.69
-384.659
-423.593
-92.7686
-1899.39
-512.093
-147.439
-109.958
-192.092
-186.26
-210.516
-229.514
-254.565
-276.007
-315.8
-330.936
-376.845
-421.854
-88.0402
-1877.35
-511.977
-147.035
-110.247
-192.008
-186.5
-210.484
-229.537
-254.45
-275.358
-314.526
-329.779
-376.362
-419.886
-91.63
-1868.19
-510.989
-144.696
-109.237
-190.58
-185.641
-210.055
-229.71
-254.804
-275.43
-314.076
-327.908
-373.734
-416.54
-91.617
-1851.09
-511.172
-144.411
-109.622
-190.719
-185.879
-210.019
-229.699
-254.627
-274.961
-313.471
-327.259
-373.736
-414.742
-96.5576
-1838.41
-511.001
-143.64
-108.926
-189.984
-185.435
-209.669
-229.659
-254.617
-274.801
-313.02
-326.229
-372.916
-411.996
-100.28
-1824.31
-510.478
-144.427
-109.302
-190.239
-185.632
-209.648
-229.643
-254.51
-274.592
-312.792
-325.981
-373.272
-411.365
-105.937
-1811.95
-509.683
-144.796
-109.131
-189.943
-185.421
-209.484
-229.582
-254.472
-274.526
-312.635
-325.665
-373.011
-410.698
-108.286
-1805.26
-510.357
-144.459
-109.283
-190.207
-185.597
-209.602
-229.588
-254.448
-274.523
-312.711
-325.896
-373.186
-411.248
-105.986
-1811.45
-510.846
-143.662
-108.887
-189.921
-185.364
-209.577
-229.551
-254.493
-274.662
-312.861
-326.06
-372.741
-411.776
-100.29
-1823.57
-510.994
-144.412
-109.565
-190.628
-185.773
-209.884
-229.54
-254.445
-274.759
-313.238
-327.01
-373.475
-414.431
-96.5015
-1837.49
-510.799
-144.676
-109.164
-190.464
-185.505
-209.884
-229.508
-254.569
-275.171
-313.779
-327.589
-373.397
-416.155
-91.4883
-1850.07
-511.784
-146.995
-110.16
-191.871
-186.337
-210.28
-229.296
-254.169
-275.045
-314.173
-329.398
-375.957
-419.44
-91.4301
-1867.1
-511.897
-147.383
-109.861
-191.942
-186.08
-210.29
-229.247
-254.254
-275.658
-315.408
-330.513
-376.392
-421.368
-87.7839
-1876.21
-513.704
-151.462
-110.863
-195.057
-187.58
-210.563
-228.492
-252.891
-274.553
-314.961
-333.224
-384.162
-423.07
-92.4588
-1898.22
-549.228
-160.135
-125.718
-220.244
-216.032
-245.709
-270.028
-304.192
-334.973
-389.11
-427.623
-467.992
-597.512
-49.6861
-2462.87
-547.914
-155.943
-124.948
-217.49
-214.844
-245.42
-270.462
-304.756
-335.075
-388.316
-423.894
-457.831
-594.603
-45.2417
-2426.05
-548.095
-155.626
-125.066
-217.49
-215.188
-245.448
-270.476
-304.553
-334.301
-386.718
-422.115
-457.157
-590.496
-50.7646
-2409.83
-547.368
-153.404
-123.926
-216.169
-214.404
-245.005
-270.518
-304.587
-333.905
-385.736
-419.309
-453.62
-584.688
-52.1447
-2382.47
-547.875
-153.377
-124.151
-216.358
-214.68
-244.983
-270.469
-304.303
-333.25
-384.859
-418.061
-453.481
-580.73
-59.4817
-2362
-547.914
-152.86
-123.261
-215.626
-214.229
-244.609
-270.36
-304.166
-332.871
-384.164
-416.427
-452.431
-576.117
-65.3666
-2340.21
-547.423
-154.019
-123.556
-215.907
-214.433
-244.587
-270.321
-304.006
-332.554
-383.816
-415.86
-452.794
-574.513
-73.3924
-2321.23
-546.532
-154.58
-123.333
-215.592
-214.199
-244.398
-270.229
-303.925
-332.424
-383.593
-415.389
-452.511
-573.499
-76.8229
-2311.1
-547.254
-154.066
-123.527
-215.857
-214.376
-244.513
-270.235
-303.904
-332.44
-383.683
-415.714
-452.658
-574.3
-73.4754
-2320.38
-547.7
-152.891
-123.201
-215.529
-214.115
-244.464
-270.189
-303.965
-332.644
-383.903
-416.138
-452.15
-575.719
-65.3888
-2338.94
-547.629
-153.378
-124.063
-216.218
-214.514
-244.771
-270.219
-304.01
-332.918
-384.477
-417.64
-453.059
-580.172
-59.3998
-2360.44
-547.104
-153.375
-123.815
-215.992
-214.19
-244.735
-270.197
-304.212
-333.48
-385.247
-418.77
-453.069
-584.001
-51.9474
-2380.72
-547.825
-155.568
-124.934
-217.28
-214.933
-245.128
-270.096
-304.107
-333.795
-386.137
-421.474
-456.493
-589.706
-50.4533
-2407.95
-547.638
-155.863
-124.803
-217.259
-214.562
-245.066
-270.04
-304.258
-334.51
-387.671
-423.183
-457.087
-593.747
-44.8402
-2424.09
-548.943
-160.038
-125.562
-219.997
-215.726
-245.325
-269.568
-303.648
-334.349
-388.4
-426.842
-467.172
-596.597
-49.198
-2460.88
-591.909
-179.025
-142.619
-242.956
-241.5
-278.159
-311.451
-359.103
-404.707
-475.612
-552.498
-565.084
-854.447
36.1352
-3242.02
-591.521
-173.959
-142.337
-240.703
-240.452
-277.588
-311.38
-358.656
-403.428
-472.729
-547.32
-551.252
-850.987
38.0538
-3167.62
-592.778
-173.8
-142.487
-240.958
-241.021
-277.669
-311.276
-358.237
-402.438
-470.734
-544.679
-550.495
-842.872
29.6392
-3137.02
-592.665
-171.572
-141.34
-239.976
-240.465
-277.279
-311.19
-357.915
-401.46
-468.964
-540.528
-545.795
-832.316
26.047
-3090.35
-593.579
-172.092
-141.596
-240.467
-240.987
-277.379
-311.121
-357.515
-400.576
-467.761
-538.447
-545.632
-824.175
15.1877
-3057.01
-593.789
-172.065
-140.592
-239.943
-240.7
-277.093
-310.989
-357.253
-399.935
-466.754
-535.954
-544.358
-816.144
6.18004
-3022.93
-593.104
-174.09
-140.922
-240.405
-241.038
-277.15
-310.957
-357.045
-399.493
-466.269
-534.941
-544.803
-812.891
-5.22614
-2993.37
-591.866
-175.112
-140.694
-240.129
-240.822
-276.961
-310.839
-356.915
-399.284
-465.96
-534.248
-544.505
-811.386
-10.221
-2977.56
-592.869
-174.154
-140.878
-240.33
-240.949
-277.034
-310.821
-356.883
-399.308
-466.056
-534.692
-544.59
-812.513
-5.35564
-2991.9
-593.494
-172.103
-140.5
-239.796
-240.522
-276.864
-310.721
-356.933
-399.568
-466.331
-535.465
-543.911
-815.438
6.13674
-3020.72
-593.239
-172.084
-141.462
-240.254
-240.727
-277.047
-310.728
-357.048
-400.038
-467.141
-537.734
-544.954
-823.186
15.2949
-3054.26
-592.297
-171.52
-141.17
-239.705
-240.133
-276.857
-310.688
-357.318
-400.772
-468.169
-539.62
-544.905
-831.102
26.3259
-3087.24
-592.391
-173.708
-142.286
-240.638
-240.626
-277.169
-310.679
-357.529
-401.62
-469.786
-543.601
-549.412
-841.479
30.0923
-3133.69
-591.123
-173.838
-142.116
-240.351
-240.016
-277.038
-310.718
-357.867
-402.517
-471.675
-546.126
-550.034
-849.481
38.6433
-3164.18
-591.505
-178.878
-142.38
-242.578
-241.029
-277.564
-310.732
-358.242
-403.707
-474.451
-551.185
-563.731
-852.837
36.8675
-3238.53
-610.003
-189.532
-167.6
-273.812
-278.276
-321.397
-363.571
-426.288
-492.533
-579.88
-740.044
-662.526
-1317.94
165.431
-4289.15
-609.611
-185.366
-169.071
-273.447
-278.6
-321.62
-363.75
-425.032
-489.704
-574.098
-734.311
-643.425
-1311.43
181.909
-4154.08
-610.854
-185.675
-168.395
-273.722
-279.016
-321.334
-363.223
-424.195
-488.448
-571.774
-730.644
-642.728
-1294.61
165.424
-4097.55
-610.679
-184.092
-167.19
-273.419
-278.95
-321.311
-363.311
-423.655
-486.791
-568.923
-724.57
-636.183
-1274.24
157.464
-4017.81
-611.632
-185.2
-166.828
-273.933
-279.388
-321.256
-363.024
-423.006
-485.591
-567.382
-721.247
-636.415
-1258.32
139.491
-3963.54
-611.853
-185.629
-165.373
-273.559
-279.191
-321.076
-362.938
-422.654
-484.638
-566.008
-717.323
-635.026
-1244.03
125.47
-3910.02
-611.116
-188.266
-165.398
-274.025
-279.473
-321.069
-362.814
-422.334
-484.01
-565.384
-715.583
-635.9
-1237.9
109.668
-3863.96
-609.733
-189.621
-165.057
-273.747
-279.239
-320.874
-362.68
-422.156
-483.692
-564.961
-714.492
-635.668
-1235.46
102.994
-3839.13
-610.821
-188.349
-165.33
-273.909
-279.322
-320.88
-362.597
-422.074
-483.704
-565.037
-715.139
-635.583
-1237.17
109.477
-3861.54
-611.481
-185.671
-165.231
-273.333
-278.901
-320.71
-362.51
-422.141
-484.033
-565.317
-716.465
-634.337
-1242.68
125.44
-3906.28
-611.202
-185.177
-166.624
-273.606
-278.975
-320.731
-362.403
-422.258
-484.709
-566.369
-720.009
-635.352
-1256.44
139.692
-3958.84
-610.212
-184.006
-166.931
-273.004
-278.431
-320.649
-362.518
-422.699
-485.664
-567.623
-723.008
-634.772
-1271.94
157.918
-4012.47
-610.36
-185.532
-168.091
-273.233
-278.405
-320.557
-362.284
-423.061
-487.112
-570.226
-728.803
-640.997
-1292
166.139
-4091.83
-609.101
-185.181
-168.736
-272.91
-277.929
-320.768
-362.715
-423.777
-488.223
-572.377
-732.283
-641.463
-1308.64
182.803
-4148.19
-609.484
-189.313
-167.242
-273.241
-277.557
-320.478
-362.444
-424.924
-490.921
-577.995
-737.83
-660.326
-1314.98
166.536
-4283.2
-662.078
-219.558
-190.492
-293.303
-295.635
-342.731
-400.394
-484.652
-580.382
-692.752
-954.133
-810.774
-2036.28
460.216
-5813.7
-659.034
-216.211
-194.739
-296.234
-297.839
-343.966
-401.305
-483.02
-575.839
-682.975
-946.262
-775.201
-2114.31
386.646
-5296.66
-660.502
-218.412
-193.857
-297.395
-298.877
-343.178
-399.638
-481.254
-574.054
-680.34
-941.783
-777.367
-2074.19
383.418
-5218.2
-659.936
-217.615
-193.617
-299.193
-300.904
-344.724
-400.67
-480.973
-571.878
-676.117
-933.361
-768.885
-2036.15
370.474
-5082.05
-661.101
-219.941
-193.431
-300.832
-302.418
-345.101
-400.262
-480.107
-570.519
-674.513
-929.056
-771.344
-1998.16
356.455
-5027.85
-661.483
-220.598
-192.032
-301.489
-303.409
-345.864
-400.692
-479.95
-569.437
-672.8
-923.464
-770.196
-1968.51
344.531
-4965.49
-660.994
-223.992
-192.223
-302.499
-304.287
-346.222
-400.64
-479.614
-568.768
-672.212
-921.224
-772.004
-1957.15
327.562
-4905.51
-659.496
-225.719
-191.926
-302.368
-304.279
-346.224
-400.603
-479.452
-568.378
-671.651
-919.667
-771.601
-1954.03
318.476
-4866.34
-660.642
-224.069
-192.112
-302.285
-304.022
-345.926
-400.31
-479.221
-568.295
-671.663
-920.501
-771.476
-1955.99
327.634
-4901.8
-661.044
-220.6
-191.809
-301.121
-302.925
-345.291
-400.038
-479.166
-568.496
-671.706
-922.058
-769.08
-1966.31
344.527
-4958.75
-660.593
-219.843
-193.11
-300.329
-301.76
-344.282
-399.307
-478.954
-569.14
-672.902
-927.023
-769.641
-1994.98
356.414
-5018.75
-659.383
-217.427
-193.21
-298.557
-300.094
-343.695
-399.447
-479.493
-570.112
-674.049
-930.79
-766.616
-2032.2
370.583
-5071.47
-659.918
-218.141
-193.376
-296.645
-297.929
-341.97
-398.185
-479.492
-571.953
-677.872
-938.751
-774.558
-2069.65
383.771
-5206.77
-658.427
-215.879
-194.207
-295.406
-296.801
-342.652
-399.712
-481.079
-573.512
-680.231
-942.921
-771.992
-2109.37
387.358
-5285.35
-661.457
-219.179
-189.924
-292.425
-294.527
-341.312
-398.651
-482.526
-577.84
-689.744
-950.496
-807.181
-2030.94
461.235
-5802.52
-647.066
-268.65
-241.195
-324.632
-335.155
-391.07
-458.937
-560.027
-686.218
-792.789
-1240.92
-773.529
-3180.49
329.414
-7999.75
-634.577
-265.701
-248.436
-331.513
-342.101
-396.719
-465.489
-561.574
-679.844
-783.636
-1218.52
-743.929
-3145.45
413.29
-7489.87
-634.456
-269.98
-244.826
-332.476
-340.134
-390.18
-459.553
-557.883
-677.401
-782.75
-1214.43
-755.485
-3119.56
383.531
-7361.72
-631.492
-269.362
-244.782
-335.059
-343.233
-392.933
-462.658
-558.742
-674.8
-777.712
-1203.13
-748.41
-3075.51
386.059
-7104.43
-632.556
-271.879
-243.542
-336.598
-344.105
-391.886
-460.825
-556.91
-673.067
-776.828
-1199.12
-757.923
-3044.82
364.118
-6974.27
-633.74
-271.879
-241.933
-337.453
-345.39
-393.133
-461.907
-557.141
-671.917
-775.055
-1192.13
-759.225
-3010.15
358.573
-6838.84
-634.505
-274.667
-241.989
-338.543
-346.154
-393.096
-461.355
-556.414
-671.028
-774.754
-1189.44
-764.623
-2993.74
353.81
-6738.46
-633.421
-275.996
-241.717
-338.434
-346.212
-393.26
-461.514
-556.344
-670.546
-774.063
-1186.94
-764.744
-2984.55
358.422
-6682.56
-634.106
-274.714
-241.835
-338.302
-345.817
-392.674
-460.87
-555.803
-670.237
-773.858
-1188.08
-763.965
-2990.99
354.328
-6733.38