/*--------------------------------*- C++ -*----------------------------------*\
| =========                 |                                                 |
| \\      /  F ield         | OpenFOAM: The Open Source CFD Toolbox           |
|  \\    /   O peration     | Version:  4.1                                   |
|   \\  /    A nd           | Web:      www.OpenFOAM.org                      |
|    \\/     M anipulation  |                                                 |
\*---------------------------------------------------------------------------*/
FoamFile
{
    version     2.0;
    format      ascii;
    class       surfaceScalarField;
    location    "1";
    object      phi;
}
// * * * * * * * * * * * * * * * * * * * * * * * * * * * * * * * * * * * * * //

dimensions      [0 3 -1 0 0 0 0];

internalField   nonuniform List<scalar> 
19125
(
407.827
-42.3963
268.816
366.929
-107.705
296.617
319.415
-110.301
191.877
259.251
-79.4154
248.065
199.378
-8.49458
277.434
137.021
50.9529
268.208
75.2527
75.518
248.949
19.3082
74.9923
234.68
-39.8609
68.3534
246.343
-104.938
50.3265
276.406
-172.455
3.17251
300.517
-246.111
-63.4282
294.283
-313.9
-94.8497
246.095
-386.514
-97.0395
401.325
-52.6114
439.449
379.856
-41.5525
275.986
307.885
-88.2237
301.928
240.641
-78.0687
184.896
165.988
-54.1087
247.371
120.064
-11.1684
276.588
89.5439
31.3077
267.16
58.124
59.2971
254.414
29.575
62.3654
247.054
-0.649962
53.6041
254.663
-33.5602
31.338
272.513
-83.3172
-3.22086
297.166
-169.018
-43.1684
295.342
-255.457
-66.3962
237.815
-354.852
-79.0765
403.772
-51.5329
446.611
381.673
-47.4171
278.521
312.746
-71.4372
305.917
248.978
-49.5011
189.63
174.285
-29.4737
243.992
118.73
-4.09157
270.174
81.3868
20.3132
259.863
54.1969
42.0132
247.708
32.1932
45.4401
245.651
7.63549
38.2145
247.351
-28.5316
20.73
259.877
-87.0839
0.0219546
288.257
-173.997
-22.7461
291.806
-258.483
-40.9084
244.522
-356.738
-62.3066
409.248
-56.4204
448.414
370.586
-47.9079
282.908
303.328
-56.5411
308.526
250.248
-31.4392
187.288
184.715
-14.036
235.511
130.132
2.74481
259.852
87.0061
15.6848
253.754
55.364
29.3439
245.643
31.7651
31.3682
243.972
5.52154
26.2524
243.071
-35.4585
14.9065
254.044
-94.6805
4.51484
278.558
-174.58
-9.73501
283.935
-249.897
-24.9895
242.768
-345.853
-48.1461
411.317
-55.4173
451.889
367.949
-50.4268
286.106
298.897
-39.9891
312.977
245.807
-13.7035
190.489
184.164
-2.80365
235.123
133.693
5.14741
256.824
90.8339
10.8159
249.55
56.8534
19.3836
243.053
31.4837
20.5541
241.76
4.02307
17.1743
239
-37.5106
10.0298
248.438
-93.509
5.46518
274.93
-169.669
-1.15871
284.175
-245.064
-9.91273
246.983
-342.972
-32.6101
416.589
-54.9583
454.136
359.364
-47.8604
289.591
289.544
-22.9556
317.333
241.214
-0.787258
190.856
184.781
3.293
232.244
136.503
5.70151
252.981
92.7862
7.0356
246.87
57.3321
11.082
242.087
31.4293
11.4557
240.608
3.68257
9.61585
236.559
-38.7586
6.1825
245.396
-93.3602
5.22625
271.463
-165.411
3.13837
281.971
-236.802
0.694901
247.619
-334.709
-17.6938
421.047
-48.3759
456.614
340.116
-22.7614
293.464
270.314
-6.92988
323.734
230.783
2.53462
193.32
180.804
2.55143
233.136
136.129
2.44515
252.344
93.2908
2.40574
245.617
57.4047
3.58354
241.534
31.4728
3.6582
240.141
3.9617
3.08163
235.068
-37.9657
2.07714
243.448
-89.8836
2.09634
270.698
-157.116
2.04017
283.258
-220.905
2.60105
250.055
-317.935
-4.99322
427.167
-21.7977
459.657
324.103
22.7353
295.734
255.761
6.91538
327.251
224.256
-2.55689
193.797
178.661
-2.57926
233.084
135.77
-2.47759
251.812
93.2507
-2.44521
245.189
57.2615
-3.62952
241.581
31.503
-3.70596
240.278
4.24435
-3.13131
234.752
-37.4382
-2.12582
242.859
-88.144
-2.14
270.208
-152.402
-2.07826
283.342
-209.47
-2.63383
250.252
-304.566
4.9763
430.105
21.7487
461.514
340.112
47.8434
293.461
270.311
22.9394
323.734
230.781
0.764775
193.319
180.804
-3.32046
233.133
136.129
-5.73266
252.341
93.2913
-7.0741
245.614
57.405
-11.1266
241.53
31.4722
-11.5029
240.139
3.95937
-9.66547
235.067
-37.9683
-6.23077
243.446
-89.8856
-5.26796
270.694
-157.115
-3.17638
283.254
-220.902
-0.729008
250.052
-317.928
17.6725
427.168
48.3436
459.652
359.36
50.4157
289.585
289.54
39.9734
317.332
241.211
13.683
190.854
184.778
2.77817
232.24
136.502
-5.17604
252.976
92.7855
-10.8512
246.863
57.3316
-19.4243
242.08
31.4284
-20.5978
240.602
3.68065
-17.2207
236.554
-38.7602
-10.0748
245.39
-93.3596
-5.50385
271.455
-165.408
1.12268
281.963
-236.798
9.88153
247.613
-334.704
32.5883
421.046
54.9365
456.604
367.945
47.9009
286.099
298.892
56.5273
312.974
245.803
31.4213
190.485
184.159
14.0138
235.117
133.69
-2.76995
256.817
90.832
-15.7153
249.54
56.8522
-29.3792
243.043
31.4826
-31.4065
241.751
4.02164
-26.2933
238.991
-37.5114
-14.946
248.428
-93.5068
-4.54949
274.919
-169.665
9.70273
284.164
-245.059
24.9628
246.974
-342.967
48.126
416.585
55.4025
454.124
370.582
47.413
282.9
303.323
71.4266
308.522
250.243
49.4868
187.283
184.71
29.4562
235.504
130.127
4.07182
259.843
87.003
-20.3371
253.742
55.362
-42.0408
245.631
31.7638
-45.4706
243.961
5.52085
-38.2472
243.06
-35.4575
-20.7618
254.03
-94.6768
-0.0499259
278.544
-174.575
22.7202
283.921
-249.892
40.8873
242.757
-345.847
62.2901
411.31
56.4112
451.875
381.668
41.5497
278.512
312.741
88.2161
305.911
248.973
78.0579
189.623
174.279
54.0968
243.984
118.724
11.155
270.164
81.3829
-31.3237
259.849
54.1943
-59.3159
247.694
32.1918
-62.3867
245.638
7.63533
-53.6271
247.337
-28.5293
-31.3606
259.861
-87.0793
3.20108
288.241
-173.992
43.1512
291.79
-258.478
66.3816
244.509
-356.732
79.0646
409.239
51.5275
448.4
379.85
42.3936
275.974
307.88
107.7
301.92
240.635
110.294
184.888
165.981
79.4097
247.36
120.057
8.48828
276.575
89.5395
-50.9604
267.145
58.1209
-75.5269
254.398
29.5733
-75.003
247.037
-0.650245
-68.3651
254.645
-33.5582
-50.3382
272.494
-83.3127
-3.18267
297.146
-169.013
63.42
295.323
-255.451
94.8427
237.799
-354.844
97.0329
403.759
52.609
446.593
407.825
268.806
366.929
296.61
319.414
191.87
259.248
248.057
199.374
277.424
137.017
268.196
75.2502
248.935
19.3067
234.664
-39.8615
246.326
-104.938
276.39
-172.454
300.501
-246.109
294.267
-313.898
246.081
-386.51
401.313
439.435
742.374
-19.979
167.3
763.14
-145.586
292.812
683.359
-221.006
261.696
597.325
-241.997
329.504
498.808
-144.829
375.364
367.063
15.0568
386.645
195.772
160.35
384.868
-2.17282
232.391
383.442
-196.283
188.898
397.775
-361.974
45.3263
424.235
-498.497
-122.625
436.057
-625.454
-231.437
419.457
-763.567
-216.003
373.971
-807.691
-155.132
462.109
-41.3324
375.536
726.398
-20.4949
173.038
700.095
-119.852
302.491
572.958
-164.92
255.945
435.07
-177.28
320.542
319.454
-118.472
365.849
236.012
-12.903
378.565
150.169
119.844
380.766
43.6546
203.006
382.956
-56.4416
149.534
394.125
-158.86
5.12948
415.13
-308.763
-105.316
429.761
-496.67
-166.835
418.649
-686.73
-159.476
371.348
-782.871
-126.183
470.965
-42.4855
381.997
731.925
-30.48
174.343
715.739
-102.251
304.495
600.62
-119.196
259.023
468.306
-120.222
319.248
335.017
-78.2686
363.262
220.194
-12.8236
374.61
134.482
79.6741
373.593
63.0856
143.526
376.531
-23.2025
100.246
382.93
-160.848
-2.78287
405.438
-336.83
-67.0171
425.942
-521.088
-109.42
418.651
-701.373
-112.647
377.979
-788.277
-105.215
475.183
-53.1467
382.514
721.962
-33.2273
177.362
703.847
-83.8197
308.204
601.651
-87.7283
258.014
487.624
-83.0256
312.343
365.234
-49.7028
353.678
243.757
-4.88837
367.299
143.187
55.4652
370.426
62.7104
95.3594
372.619
-37.8568
65.8523
378.036
-188.15
1.2313
400.326
-355.021
-39.1915
417.605
-520.785
-73.2759
413.557
-687.799
-81.7729
378.908
-775.801
-84.9179
479.022
-54.8439
385.145
723.164
-40.0954
179.192
704.329
-63.665
311.651
601.563
-54.847
260.371
490.859
-49.1177
311.919
374.481
-28.2684
351.771
257.407
-2.4193
364.159
152.875
35.843
367.211
60.8836
61.0568
368.057
-48.2619
41.3239
372.677
-195.714
1.16125
395.964
-355.229
-20.6971
415.952
-517.609
-41.8627
415.144
-686.144
-49.8503
383.595
-775.538
-62.7876
483.853
-58.8313
386.226
717.317
-42.664
181.253
696.057
-40.7249
315.647
597.865
-27.4534
261.652
494.909
-23.7
309.783
383.955
-12.5886
348.258
266.87
0.415233
361.124
158.421
20.7954
365.586
60.709
34.1123
365.269
-53.8578
22.8838
369.57
-202.717
2.12982
393.29
-357.282
-7.85272
413.185
-512.332
-19.3588
414.519
-676.534
-24.1996
386.171
-767.678
-39.0063
488.41
-55.6039
387.636
702.017
-21.8518
182.764
678.189
-14.0756
320.907
585.928
-6.73405
264.859
490.228
-5.74468
310.881
384.974
-2.97863
347.991
270.551
0.408678
360.051
161.596
6.73091
364.557
61.6783
10.975
363.2
-54.819
7.27556
367.178
-201.803
0.851457
391.714
-350.663
-1.51307
413.221
-499.215
-4.45908
416.912
-658.026
-5.64886
390.316
-750.736
-13.0811
493.953
-26.3982
388.875
687.468
21.8064
183.486
662.495
14.0548
324.088
576.474
6.70667
266.374
486.918
5.70444
311.192
385.242
2.92766
347.585
271.796
-0.478953
359.527
162.613
-6.82028
364.319
62.3722
-11.0836
362.581
-54.6402
-7.38976
366.434
-201.137
-0.945938
391.156
-346.85
1.44177
412.968
-489.994
4.39615
417.633
-642.859
5.60375
391.865
-735.697
13.048
496.814
26.3092
389.639
702.014
42.6357
182.754
678.189
40.7016
320.907
585.928
27.4267
264.857
490.227
23.6621
310.877
384.972
12.5397
347.986
270.548
-0.481637
360.044
161.593
-20.88
364.55
61.6717
-34.2147
363.195
-54.827
-22.9938
367.174
-201.805
-2.22345
391.706
-350.661
7.78119
413.213
-499.214
19.2987
416.906
-658.023
24.1545
390.312
-750.726
38.9668
493.952
55.5505
388.861
717.314
40.0769
181.24
696.054
63.6431
315.644
597.862
54.8225
261.648
494.906
49.0837
309.776
383.951
28.224
348.249
266.866
2.35919
361.111
158.418
-35.9195
365.571
60.7027
-61.1485
365.256
-53.8649
-41.4242
369.557
-202.718
-1.24936
393.273
-357.28
20.6299
413.17
-512.33
41.8081
414.506
-676.531
49.8081
386.162
-767.672
62.7492
488.405
58.7967
387.616
723.16
33.215
179.176
704.325
83.8012
311.646
601.559
87.7073
260.364
490.854
82.9969
311.909
374.475
49.6646
351.758
257.402
4.83666
364.14
152.87
-55.5305
367.19
60.878
-95.4373
368.036
-48.2679
-65.9386
372.656
-195.714
-1.30933
395.939
-355.225
39.1319
415.93
-517.605
73.2288
415.125
-686.14
81.7359
383.581
-775.532
84.8841
483.843
54.8207
386.202
721.957
30.4715
177.344
703.842
102.236
308.196
601.645
119.179
258.005
487.618
120.199
312.33
365.227
78.2388
353.662
243.751
12.7831
367.276
143.182
-79.7257
370.399
62.7057
-143.588
372.591
-37.8607
-100.315
378.006
-188.149
2.71955
400.294
-355.018
66.9693
417.577
-520.781
109.382
413.532
-687.793
112.617
378.889
-775.794
105.187
479.008
53.1316
385.118
731.919
20.4881
174.325
715.734
119.842
304.485
600.613
164.908
259.012
468.299
177.265
319.233
335.009
118.452
363.243
220.187
12.8758
374.583
134.477
-119.88
373.562
63.081
-203.049
376.499
-23.2058
-149.583
382.895
-160.846
-5.17433
405.399
-336.825
105.284
425.909
-521.083
166.809
418.622
-701.367
159.455
377.956
-788.27
126.163
475.165
42.4762
382.485
726.388
19.9733
173.019
700.085
145.581
302.478
572.947
221
255.931
435.058
241.991
320.524
319.442
144.82
365.826
236.004
-15.0702
378.534
150.164
-160.369
380.732
43.6496
-232.414
382.92
-56.4459
-188.923
394.085
-158.858
-45.3502
415.086
-308.756
122.608
429.723
-496.661
231.425
418.615
-686.719
215.991
371.321
-782.858
155.12
470.941
41.3275
381.965
742.37
167.281
763.139
292.799
683.357
261.684
597.321
329.489
498.802
375.345
367.058
386.62
195.769
384.84
-2.17643
383.411
-196.286
397.742
-361.976
424.199
-498.497
436.025
-625.452
419.428
-763.564
373.946
-807.685
462.087
375.507
726.506
-8.53731
151.337
773.986
-136.913
261.762
727.274
-231.015
301.849
647.914
-272.275
409.14
554.984
-195.156
475.997
424.062
-31.5293
510.59
230.701
153.627
538.16
-13.6517
267.899
564.876
-249.805
207.921
578.635
-428.661
5.94694
588.089
-564.753
-183.781
581.138
-690.904
-274.903
549.558
-802.789
-234.066
478.632
-816.055
-152.383
491.41
-29.1462
397.865
714.195
-8.22735
155.669
717.786
-110.446
272.427
627.454
-174.165
289.423
498.562
-204.789
381.948
378.105
-157.806
448.958
284.541
-50.9592
491.561
183.27
110.942
524.724
45.1752
235.264
553.689
-84.5325
162.963
568.792
-210.076
-32.5576
579.181
-379.516
-153.722
569.144
-570.657
-204.505
539.392
-732.808
-175.507
474.94
-796.163
-120.46
502.396
-29.611
402.674
720.554
-18.0736
155.781
736.5
-94.2661
272.363
659.551
-128.532
290.336
537.528
-145.58
382.063
403.49
-110.169
449.665
276.265
-40.7782
491.656
168.716
72.0414
520.046
69.9553
165.231
545.327
-52.2456
107.389
560.707
-223.687
-32.5334
576.857
-416.891
-104.239
569.664
-602.345
-141.907
541.508
-753.266
-127.144
480.537
-803.859
-99.7007
505.017
-40.9522
401.259
711.072
-20.0852
157.228
725.438
-75.7271
275.293
661.736
-95.6978
288.878
557.585
-105.164
376.078
436.096
-77.1067
442.106
305.674
-26.949
483.895
182.24
50.3465
515.558
67.8709
110.584
541.637
-74.9017
70.6073
557.592
-258.167
-20.6873
571.748
-438.43
-69.9801
563.611
-604.595
-101.109
538.923
-741.514
-94.1871
482.87
-792.45
-78.4862
508.744
-42.2551
401.709
713.414
-26.9856
157.741
728.906
-56.8346
277.261
666.024
-61.836
289.388
564.64
-66.4647
374.604
447.124
-48.5229
440.705
320.886
-18.305
481.755
194.283
31.8538
512.309
64.5275
71.0122
537.387
-89.1016
43.4509
553.465
-268.433
-14.8237
569.433
-443.038
-42.9987
563.578
-606.901
-63.0652
540.965
-744.355
-60.1847
487.047
-794.483
-56.9275
512.422
-46.5688
400.709
709.082
-31.0248
158.421
723.24
-35.4292
280.078
665.725
-32.7416
290.07
571.968
-35.5271
372.602
459.572
-25.9277
438.061
333.228
-9.6632
478.828
202.157
18.4637
510.05
63.6254
39.9875
534.828
-98.4316
23.8327
551.248
-279.592
-7.72352
567.352
-449.406
-22.2632
562.265
-606.128
-33.6653
541.842
-738.583
-31.9666
490.408
-788.909
-34.3786
516.187
-44.4154
400.071
697.151
-16.7539
158.779
710.799
-12.0721
283.897
659.396
-8.95883
292.476
571.776
-10.0529
373.027
463.497
-7.60336
437.948
338.85
-3.05325
478.09
207.094
5.91427
508.865
64.5013
12.8941
532.889
-101.426
7.43269
549.507
-281.562
-2.57223
566.701
-447.427
-6.454
563.279
-599.442
-9.58781
544.851
-727.267
-8.80134
494.975
-776.921
-11.3515
520.58
-21.3465
399.354
684.955
16.6719
158.95
698.497
12.0455
286.422
652.97
8.92435
294.015
570.767
10.0021
373.34
465.431
7.54125
437.778
341.273
2.9656
477.669
209.07
-6.02842
508.467
65.3017
-13.0314
532.278
-102.242
-7.57451
548.988
-282.553
2.45782
566.44
-446.007
6.36333
563.606
-593.655
9.50596
546.189
-716.502
8.74084
497.17
-765.301
11.307
522.954
21.2109
399.14
697.142
30.9774
158.764
710.798
35.3956
283.895
659.396
32.7071
292.473
571.776
35.4795
373.02
463.498
25.8674
437.941
338.848
9.58134
478.081
207.089
-18.5692
508.853
64.4929
-40.1158
532.879
-101.431
-23.9689
549.496
-281.564
7.61064
566.687
-447.428
22.174
563.268
-599.443
33.5879
544.841
-727.266
31.9063
494.969
-776.906
34.3227
520.576
44.334
399.332
709.076
26.9556
158.4
723.236
56.8017
280.072
665.722
61.8035
290.063
571.966
66.4218
372.59
459.57
48.4676
438.047
333.225
18.2315
478.809
202.151
-31.9478
510.026
63.6177
-71.1264
534.803
-98.4372
-43.5751
551.221
-279.594
14.7178
567.325
-449.405
42.9155
562.241
-606.126
62.9949
541.821
-738.579
60.1279
490.393
-788.9
56.8719
516.176
46.516
400.039
713.408
20.065
157.717
728.9
75.6985
277.251
666.019
95.6693
289.377
564.635
105.127
374.588
447.119
77.0588
440.685
320.881
26.886
481.727
194.277
-50.4265
512.275
64.5207
-110.68
537.35
-89.1063
-70.7144
553.425
-268.434
20.5933
569.393
-443.036
69.9068
563.544
-606.898
101.048
540.934
-744.349
94.1368
487.024
-794.474
78.4363
512.404
42.2193
400.67
711.064
18.0596
157.202
725.43
94.2435
275.28
661.729
128.509
288.864
557.578
145.552
376.057
436.089
110.131
442.08
305.667
40.729
483.859
182.233
-72.1044
515.514
67.8651
-165.307
541.59
-74.9051
-107.475
557.54
-258.167
32.457
571.695
-438.428
104.18
563.567
-604.589
141.858
538.884
-741.505
127.103
482.839
-792.439
99.6597
508.718
40.9287
401.666
720.545
8.21679
155.754
736.491
110.429
272.346
659.542
174.148
290.319
537.519
204.769
382.039
403.48
157.78
449.635
276.256
50.9256
491.614
168.709
-110.987
519.995
69.9497
-235.318
545.272
-52.2483
-163.024
560.647
-223.686
32.5025
576.794
-416.887
153.681
569.611
-602.338
204.47
541.463
-753.256
175.477
480.5
-803.847
120.429
504.986
29.5961
401.212
714.181
8.52925
155.641
717.773
136.902
272.406
627.44
231.006
289.403
498.547
272.266
381.92
378.09
195.144
448.921
284.531
31.5117
491.511
183.263
-153.652
524.669
45.169
-267.93
553.629
-84.5372
-207.955
568.725
-210.075
-5.97883
579.108
-379.508
183.758
569.082
-570.645
274.884
539.339
-732.792
234.048
474.897
-796.145
152.365
502.358
29.1383
402.624
726.498
151.311
773.981
261.742
727.268
301.832
647.907
409.118
554.976
475.968
424.055
510.55
230.695
538.114
-13.6561
564.825
-249.808
578.577
-428.663
588.028
-564.752
581.085
-690.899
549.512
-802.781
478.593
-816.043
491.373
397.818
751.162
-8.00174
161.127
771.254
-137.496
258.373
721.285
-230.884
347.15
632.073
-262.973
502.904
530.407
-187.943
589.597
403.886
-46.8409
637.184
226.903
116.416
683.84
3.21613
229.12
733.563
-217.553
176.31
751.064
-389.016
-11.8781
751.55
-529.483
-180.673
735.402
-665.617
-265.793
694.091
-782.703
-232.606
590.419
-834.17
-156.108
559.209
-33.741
482.563
736.144
-6.81465
166.63
711.027
-108.964
269.006
622.772
-174.132
320.924
493.921
-200.747
448.573
373.48
-152.822
534.281
280.301
-59.1916
597.093
184.921
79.8165
656.705
59.9668
195.178
712.587
-63.5115
132.842
735.74
-188.621
-43.8024
736.216
-355.868
-150.78
706.499
-546.169
-200.804
664.705
-706.03
-175.02
577.215
-808.432
-120.737
569.428
-33.4446
488.677
742.286
-16.8066
166.755
729.847
-92.3072
268.14
653.572
-128.258
320.733
530.02
-145.028
449.896
400.06
-110.155
536.959
281.185
-47.1369
598.478
177.247
50.6548
653.148
78.9428
134.335
704.476
-44.3173
85.438
731.374
-207.966
-40.447
737.153
-391.682
-106.071
708.671
-576.909
-142.118
668.05
-727.34
-126.688
582.636
-816.398
-98.3251
571.662
-45.3676
486.652
731.217
-18.5125
168.229
717.269
-73.0872
270.015
655.37
-94.6551
317.171
548.835
-105.476
443.06
429.339
-79.5718
531.021
308.674
-34.3753
591.801
191.588
34.9124
648.388
74.7466
90.2905
702.524
-68.5935
56.1675
730.205
-240.608
-28.7912
732.107
-412.732
-74.8563
704.522
-579.427
-102.548
666.049
-714.316
-93.344
584.414
-802.693
-75.5467
574.342
-46.0353
486.573
732.881
-25.6107
168.816
720.232
-54.4949
271.312
659.952
-60.7382
315.748
556.423
-67.3831
440.041
439.592
-51.4939
529.459
320.977
-24.2231
590.22
201.225
21.2057
645.77
71.111
57.5596
700.233
-81.1816
33.6952
728.232
-250.301
-21.223
730.986
-418.552
-48.0402
705.014
-582.632
-65.1931
667.69
-717.124
-59.5437
587.739
-804.071
-53.5527
577.375
-49.8986
484.915
727.632
-30.236
169.549
713.512
-33.5823
273.28
659.642
-31.5577
314.757
564.065
-36.1762
436.972
451.831
-28.406
527.209
332.553
-13.9596
587.845
208.375
12.0103
643.426
69.545
32.3531
698.866
-90.9418
18.2323
727.199
-262.059
-12.1904
729.438
-426.143
-26.3789
704.689
-582.764
-35.5092
668.779
-710.975
-31.4551
590.531
-797.31
-31.25
580.22
-46.7809
483.635
714.712
-16.6462
170.015
700.251
-11.3905
276.16
654.04
-8.46629
315.593
565.238
-10.3508
436.003
456.598
-8.61024
526.795
337.958
-4.61354
587.386
212.735
3.71841
642.383
69.6692
10.3466
697.964
-94.653
5.53007
726.534
-265.434
-4.18328
729.476
-426.549
-8.09445
706.111
-578.243
-10.4414
671.478
-700.418
-8.68356
594.379
-784.525
-10.033
583.469
-22.2996
482.278
701.743
16.5142
170.232
687.352
11.3528
278.064
648.077
8.41802
316.403
565.064
10.28
435.722
459.137
8.52637
526.571
340.581
4.49798
587.116
214.661
-3.86477
641.973
70.0541
-10.5139
697.748
-96.1243
-5.70511
726.404
-267.386
4.0331
729.487
-426.59
7.96776
706.749
-573.954
10.3225
672.789
-690.325
8.5916
596.266
-772.446
9.96795
585.074
22.0927
481.726
714.695
30.1645
169.992
700.248
33.5322
276.157
654.04
31.5085
315.587
565.238
36.1099
435.993
456.599
28.3245
526.784
337.956
13.8517
587.373
212.727
-12.1452
642.364
69.6614
-32.51
697.943
-94.6574
-18.3995
726.511
-265.437
12.0436
729.458
-426.549
26.2551
706.094
-578.245
35.3972
671.462
-700.416
31.3646
594.367
-784.501
31.1668
583.462
46.6573
482.243
727.623
25.5669
169.52
713.506
54.4453
273.27
659.638
60.6915
314.745
564.061
67.3234
436.954
451.829
51.4186
527.187
332.548
24.126
587.818
208.367
-21.3262
643.391
69.5372
-57.7007
698.826
-90.9464
-33.848
727.155
-262.062
21.086
729.4
-426.143
47.9249
704.654
-582.762
65.0912
668.747
-710.969
59.4589
590.506
-797.296
53.4692
580.202
49.8186
483.585
732.873
18.4836
168.782
720.223
73.0437
271.296
659.944
94.6139
315.731
556.415
105.425
440.016
439.586
79.5062
529.428
320.969
34.2919
590.18
201.216
-35.0154
645.719
71.1033
-90.4113
700.175
-81.186
-56.3002
728.169
-250.303
28.6698
730.928
-418.55
74.7546
704.963
-582.626
102.46
667.643
-717.114
93.2689
587.702
-804.058
75.4714
577.345
45.9815
484.856
731.207
16.7869
168.192
717.258
92.2721
269.994
655.359
128.224
317.15
548.825
144.987
443.029
429.329
110.101
530.982
308.663
47.0701
591.75
191.578
-50.7379
648.324
74.7393
-134.433
702.452
-68.5973
-85.5463
730.124
-240.609
40.3468
732.031
-412.729
105.987
704.455
-579.419
142.046
665.988
-714.302
126.625
584.366
-802.677
98.2624
574.301
45.3321
486.506
742.274
6.80085
166.717
729.834
108.937
268.114
653.559
174.107
320.708
530.007
200.718
449.861
400.046
152.785
536.914
281.172
59.1441
598.417
177.237
-79.8771
653.072
78.9353
-195.25
704.393
-44.3203
-132.922
731.281
-207.966
43.7279
737.061
-391.677
150.719
708.592
-576.898
200.752
667.979
-727.324
174.973
582.578
-816.379
120.69
571.613
33.4226
486.582
736.127
7.99307
166.59
711.01
137.479
268.976
622.754
230.869
320.895
493.902
262.958
448.532
373.461
187.923
534.227
280.285
46.8136
597.02
184.91
-116.452
656.622
59.9581
-229.163
712.497
-63.5165
-176.359
735.639
-188.619
11.8327
736.108
-355.859
180.637
706.406
-546.153
265.763
664.623
-706.008
232.578
577.148
-808.407
156.079
569.368
33.7296
488.602
751.151
161.088
771.245
258.343
721.275
347.124
632.061
502.872
530.395
589.553
403.874
637.124
226.892
683.769
3.20942
733.484
-217.557
750.975
-389.018
751.457
-529.48
735.322
-665.607
694.02
-782.688
590.358
-834.151
559.15
482.49
791.969
-6.90562
168.635
802.385
-140.373
264.254
743.269
-234.957
402.995
641.419
-254.162
613.083
525.659
-169.569
719.412
393.505
-44.9674
773.139
228.509
83.2451
827.422
31.3605
175.02
889.967
-170.513
138.248
916.913
-346.092
-10.704
922.821
-504.932
-158.656
908.792
-662.805
-252.391
863.979
-804.59
-233.636
728.453
-888.002
-163.501
659.106
-39.9843
588.051
776.38
-5.29015
176.17
739.207
-109.889
275.689
642.419
-177.412
360.164
505.484
-196.436
527.781
379.637
-139.934
630.494
282.351
-54.0109
703.424
191.163
53.1847
777.954
85.1397
140.593
853.039
-27.1429
97.5171
888.754
-154.814
-37.7135
890.897
-329.665
-133.413
856.108
-536.58
-192.434
811.663
-719.354
-176.508
702.861
-857.337
-124.883
668.791
-39.6607
596.591
782.708
-15.2862
176.413
758.629
-92.0003
274.325
672.391
-129.86
359.414
538.187
-142.814
530.479
404.06
-103.543
634.696
288.637
-44.8466
704.738
189.332
31.7746
773.865
96.5419
92.9192
844.941
-19.7374
59.9352
885.236
-175.523
-35.9937
891.22
-362.06
-96.7637
858.56
-565.553
-136.939
816.048
-741.176
-126.95
708.7
-865.797
-99.8841
671.284
-52.2924
594.026
771.144
-16.8289
178.116
745.596
-72.1428
275.7
674.421
-95.2652
353.749
556.395
-104.046
522.318
430.211
-75.8929
629.557
312.355
-34.8134
699.626
202.197
20.4268
769.895
91.6466
61.4259
844.57
-42.0357
38.482
885.341
-204.816
-27.7985
886.694
-382.5
-69.9401
855.384
-568.099
-98.9067
813.615
-727.098
-93.1376
709.602
-850.429
-75.5825
673.37
-52.5097
593.799
772.778
-24.0126
178.882
748.544
-53.3449
276.742
679.065
-60.6408
350.6
563.731
-66.6392
517.967
439.358
-49.8269
627.768
321.651
-25.2354
698.352
208.685
11.1212
768.043
88.6035
37.8341
843.909
-51.4885
21.896
884.912
-213.165
-21.0464
885.912
-388.036
-45.8248
855.771
-570.82
-63.1423
814.711
-729.39
-59.0736
712.245
-851.403
-52.4951
676.299
-55.5868
591.739
767.305
-28.7844
179.814
741.435
-32.605
278.403
678.671
-31.1184
347.996
571.006
-35.6744
513.672
450.51
-27.711
625.59
331.566
-15.0697
696.626
214.285
5.78208
766.047
86.8481
20.786
843.353
-60.064
11.4771
884.532
-223.96
-12.5233
884.812
-395.307
-25.6221
855.834
-570.684
-34.4393
815.454
-722.548
-30.9895
714.31
-843.735
-29.8389
678.751
-50.6628
590.131
754.475
-16.0156
180.552
727.947
-10.9936
281.071
673.15
-8.21257
347.481
572.224
-10.1952
511.45
454.949
-8.48627
624.846
335.961
-5.07475
696.382
217.276
1.59231
765.259
86.4314
6.44878
843.147
-63.3111
3.29542
884.46
-227.182
-4.3453
885.17
-395.93
-8.02083
857.258
-566.328
-10.209
817.646
-711.89
-8.50917
717.461
-830.478
-9.32401
681.541
-23.6958
588.445
741.583
15.8112
180.936
714.868
10.9384
282.841
667.261
8.14433
347.65
572.141
10.0947
510.553
457.381
8.36746
624.479
338.261
4.9146
696.248
218.702
-1.78965
764.916
86.4272
-6.66772
843.14
-64.8344
-3.52795
884.49
-229.169
4.13137
885.347
-396.237
7.83438
857.963
-562.407
10.0316
818.718
-701.979
8.36864
718.96
-818.227
9.22775
682.77
23.3857
587.743
754.446
28.6783
180.521
727.94
32.5296
281.066
673.149
31.0472
347.472
572.222
35.5799
511.435
454.949
27.5954
624.83
335.956
14.919
696.364
217.267
-5.96638
765.233
86.4235
-20.9934
843.114
-63.3147
-11.6999
884.423
-227.184
12.3149
885.146
-395.929
25.4399
857.234
-566.328
34.2721
817.621
-711.887
30.8524
717.443
-830.443
29.7153
681.53
50.4759
588.393
767.29
23.9495
179.773
741.425
53.2703
278.39
678.664
60.5726
347.978
570.999
66.5538
513.646
450.504
49.7198
625.559
331.557
25.0988
696.588
214.274
-11.2875
765.997
86.8391
-38.0228
843.293
-60.0682
-22.1008
884.465
-223.962
20.8522
884.757
-395.304
45.6548
855.783
-570.679
62.9902
815.404
-722.537
58.9459
714.27
-843.714
52.3704
678.723
55.4654
590.055
772.766
16.7878
178.835
748.531
72.0772
276.719
679.053
95.2049
350.574
563.719
103.973
517.931
439.347
75.799
627.723
321.638
34.6947
698.295
208.673
-20.5707
767.97
88.5934
-61.5897
843.823
-51.4933
-38.6616
884.818
-213.166
27.6258
885.828
-388.031
69.7897
855.694
-570.811
98.7746
814.639
-729.374
93.0248
712.186
-851.382
75.4695
676.253
52.4281
591.648
771.13
15.259
178.064
745.579
91.9474
275.669
674.404
129.81
353.717
556.379
142.755
522.273
430.195
103.467
629.5
312.338
44.7514
699.553
202.182
-31.8906
769.803
91.6358
-93.0528
844.464
-42.0405
-60.0822
885.224
-204.817
35.8517
886.584
-382.494
96.6402
855.284
-568.086
136.832
813.523
-727.077
126.857
709.525
-850.404
99.79
673.308
52.2391
593.698
782.691
5.2722
176.36
758.61
109.849
274.288
672.372
177.376
359.377
538.166
196.394
530.428
404.039
139.879
634.63
288.617
53.9427
704.651
189.315
-53.2697
773.756
96.5304
-140.691
844.819
-19.7416
-97.6267
885.1
-175.521
37.6076
891.087
-362.052
133.323
858.441
-565.537
192.356
815.941
-741.152
176.439
708.611
-865.768
124.811
671.208
39.6278
593.919
776.357
6.89552
176.115
739.183
140.347
275.646
642.393
234.935
360.122
505.457
254.14
527.722
379.61
169.539
630.416
282.327
44.9269
703.322
191.145
-83.2976
777.835
85.1258
-175.08
852.907
-27.1504
-138.316
888.607
-154.812
10.6381
890.741
-329.653
158.603
855.97
-536.559
252.346
811.54
-719.323
233.593
702.758
-857.301
163.457
668.701
39.9675
596.478
791.951
168.58
802.368
264.21
743.251
402.958
641.401
613.035
525.64
719.349
393.485
773.053
228.492
827.318
31.3489
889.847
-170.52
916.779
-346.096
922.684
-504.928
908.671
-662.791
863.869
-804.565
728.357
-887.972
659.015
587.94
835.908
-5.78369
174.112
842.3
-144.239
273.92
776.846
-239.667
466.645
669.78
-248.072
731.983
547.461
-154.21
857.525
409.654
-39.6318
916.548
247.196
60.7592
975.409
61.8763
131.276
1046.14
-133.832
109.233
1086.39
-320.991
-3.75605
1106.72
-497.855
-138.869
1100.29
-674.929
-243.484
1056.84
-844.444
-236.414
896.362
-953.681
-171.795
785.164
-47.4991
714.176
820.161
-3.99336
183.819
776.948
-111.502
286.16
674.169
-181.352
404.625
535.109
-193.976
612.744
408.966
-129.732
732.16
308.255
-47.4318
811.937
215.431
36.304
895.234
116.778
98.6962
984.273
6.67133
71.8972
1036.2
-129.978
-27.8902
1051.68
-316.313
-118.488
1022.06
-541.586
-187.248
980.7
-752.115
-180.044
857.02
-918.589
-130.068
793.538
-47.1435
725.024
826.589
-13.9963
184.185
797.303
-92.1946
284.298
703.846
-132.105
403.621
564.965
-141.636
617.02
430.276
-98.1849
737.839
316.253
-41.9331
813.265
216.871
19.1113
890.441
123.309
61.6229
975.578
7.5483
41.3565
1031.54
-149.764
-29.7419
1050.39
-345.78
-88.4357
1024.52
-569.475
-133.635
986.131
-775.119
-129.129
863.429
-927.907
-102.362
796.366
-60.3721
721.523
814.697
-15.286
186.139
784.55
-71.6476
285.295
706.689
-96.674
396.177
583.029
-103.542
607.882
454.111
-72.8054
733.096
336.5
-34.011
809.318
227.751
10.3011
887.455
118.933
38.9845
976.028
-11.7963
25.0395
1032.39
-176.557
-24.8439
1046.56
-366.299
-64.9622
1021.65
-572.898
-96.7129
983.292
-761.226
-94.9247
863.725
-911.568
-76.5702
797.921
-60.0384
720.705
816.405
-22.4142
187.105
788.035
-52.5998
286.06
711.864
-61.3238
391.417
590.301
-66.5656
602.554
462.463
-48.4538
731.255
343.884
-25.346
808.267
232.165
3.97296
886.092
116.619
22.4234
976.017
-18.9028
12.94
1032.53
-184.035
-19.4859
1045.69
-371.7
-43.3357
1021.81
-575.669
-62.0862
984.053
-763.839
-60.339
865.829
-912.586
-52.2572
800.733
-62.0766
717.835
810.912
-27.2232
188.216
781.265
-32.0113
287.456
711.987
-31.4365
387.384
597.507
-35.7566
597.343
472.691
-27.1779
729.131
352.412
-15.4809
807.042
236.594
1.33315
884.507
115.005
11.6889
975.678
-26.1806
6.33258
1032.33
-193.849
-11.8989
1044.89
-378.8
-24.5374
1021.99
-575.905
-34.0943
984.566
-757.36
-31.9359
867.362
-904.603
-29.1057
802.841
-55.0112
715.474
798.551
-15.3139
189.118
768.476
-10.7748
289.904
707.163
-8.29713
385.652
598.927
-10.276
594.205
476.781
-8.4173
728.233
356.011
-5.29778
806.97
238.595
0.070294
883.941
114.408
3.38908
975.635
-28.7752
1.61229
1032.36
-196.653
-4.18699
1045.34
-379.466
-7.8139
1023.35
-572.151
-10.2459
986.483
-747.733
-8.90881
870.016
-891.618
-8.89533
805.215
-25.2338
712.978
786.031
15.0103
189.577
755.842
10.6958
291.554
701.728
8.20104
385.263
599.016
10.1356
592.853
479.046
8.25112
727.781
357.983
5.07725
806.938
239.62
-0.336856
883.687
114.223