/*--------------------------------*- C++ -*----------------------------------*\
| =========                 |                                                 |
| \\      /  F ield         | OpenFOAM: The Open Source CFD Toolbox           |
|  \\    /   O peration     | Version:  4.1                                   |
|   \\  /    A nd           | Web:      www.OpenFOAM.org                      |
|    \\/     M anipulation  |                                                 |
\*---------------------------------------------------------------------------*/
FoamFile
{
    version     2.0;
    format      ascii;
    class       volVectorField;
    location    "1";
    object      U;
}
// * * * * * * * * * * * * * * * * * * * * * * * * * * * * * * * * * * * * * //

dimensions      [0 1 -1 0 0 0 0];

internalField   nonuniform List<vector> 
6750
(
(10.5385 -0.162659 2.5625)
(3.40256 -0.562441 2.86585)
(3.68033 -0.680086 1.69565)
(3.50723 -0.48931 2.25183)
(2.47197 -0.0781532 2.55393)
(1.92849 0.253447 2.41604)
(1.18137 0.377309 2.21291)
(0.511978 0.370442 2.10545)
(-0.0713579 0.346454 2.18371)
(-0.865167 0.260257 2.443)
(-1.40968 -0.00815312 2.70283)
(-2.58577 -0.388787 2.60062)
(-3.16674 -0.585936 2.04408)
(-2.26812 -0.513148 3.68765)
(-11.7127 -0.206568 4.03637)
(10.576 -0.26392 2.64297)
(2.72707 -0.622598 2.90561)
(2.94276 -0.571554 1.61206)
(2.50479 -0.396965 2.28697)
(1.38306 -0.0332665 2.59511)
(1.21966 0.290429 2.45585)
(0.829647 0.443706 2.32683)
(0.477585 0.444351 2.30166)
(0.196384 0.396615 2.35645)
(-0.258848 0.281687 2.48994)
(-0.401483 0.0279332 2.72378)
(-1.5873 -0.314628 2.64754)
(-2.48954 -0.48829 1.93543)
(-1.52347 -0.561814 3.69004)
(-11.73 -0.327507 4.11695)
(10.5585 -0.236537 2.67276)
(2.75032 -0.393158 2.95461)
(3.01609 -0.301245 1.66365)
(2.6257 -0.209549 2.24106)
(1.45193 -0.0726812 2.51976)
(1.1188 0.0919261 2.38708)
(0.745577 0.249279 2.28242)
(0.472342 0.279381 2.31274)
(0.261817 0.230267 2.32572)
(-0.136715 0.100864 2.39433)
(-0.409113 -0.0437785 2.62361)
(-1.66629 -0.169785 2.5948)
(-2.5285 -0.252833 2.00057)
(-1.54995 -0.345928 3.7517)
(-11.7054 -0.287732 4.14066)
(10.5122 -0.278597 2.71978)
(2.53323 -0.393532 2.9786)
(2.97779 -0.256087 1.63267)
(2.70756 -0.126866 2.14323)
(1.60873 0.015116 2.40939)
(1.21666 0.120677 2.32432)
(0.773565 0.210358 2.2641)
(0.471495 0.221901 2.31167)
(0.25413 0.188594 2.29785)
(-0.179018 0.115641 2.32558)
(-0.520763 0.0322552 2.51743)
(-1.72671 -0.0902303 2.49988)
(-2.5014 -0.207529 1.97076)
(-1.34426 -0.341177 3.76799)
(-11.6461 -0.327271 4.17866)
(10.487 -0.271185 2.7556)
(2.47034 -0.253771 3.0276)
(2.92338 -0.103177 1.66451)
(2.67021 -0.0326179 2.13633)
(1.63625 0.0196631 2.37128)
(1.26911 0.0637007 2.27537)
(0.805311 0.127637 2.23989)
(0.474158 0.13837 2.30551)
(0.245553 0.114294 2.2708)
(-0.204555 0.0603888 2.26276)
(-0.540384 0.0233145 2.47162)
(-1.68189 -0.0200899 2.49571)
(-2.44385 -0.0775828 2.00843)
(-1.28533 -0.210715 3.82236)
(-11.6087 -0.306614 4.20606)
(10.4419 -0.295082 2.79371)
(2.31159 -0.187161 3.07326)
(2.84622 -0.0450779 1.66287)
(2.65235 0.00261266 2.10329)
(1.66946 0.0362894 2.33092)
(1.29922 0.0545615 2.24747)
(0.817873 0.0872748 2.23238)
(0.473401 0.0903783 2.30721)
(0.245337 0.0762151 2.25721)
(-0.212914 0.0487956 2.22821)
(-0.559439 0.0358426 2.43403)
(-1.65969 0.00807746 2.46797)
(-2.38098 -0.0283664 2.00614)
(-1.14406 -0.14944 3.86617)
(-11.552 -0.308375 4.23481)
(10.3587 -0.235826 2.83367)
(2.00958 -0.0821328 3.13841)
(2.69182 0.0273263 1.68004)
(2.57852 0.0308726 2.10988)
(1.6541 0.0274409 2.32191)
(1.30581 0.026103 2.23335)
(0.821729 0.039493 2.23086)
(0.471813 0.040625 2.31694)
(0.248086 0.0340922 2.25451)
(-0.209975 0.0224503 2.20779)
(-0.543587 0.0232291 2.42342)
(-1.59643 0.0250513 2.47708)
(-2.2658 0.0285466 2.0206)
(-0.885262 -0.0596044 3.92465)
(-11.4694 -0.228828 4.26797)
(10.2924 -7.61821e-05 2.85567)
(1.76882 -4.08477e-05 3.17268)
(2.58873 -6.25363e-05 1.67892)
(2.53845 -7.8303e-05 2.10865)
(1.64548 -9.13637e-05 2.31694)
(1.30605 -0.000110821 2.22957)
(0.820506 -0.000129217 2.23386)
(0.470132 -0.000133601 2.32568)
(0.250526 -0.000138806 2.25751)
(-0.206508 -0.000136392 2.20249)
(-0.534867 -0.000123012 2.41888)
(-1.5649 -0.000106471 2.47721)
(-2.19605 -9.07682e-05 2.01651)
(-0.684894 -4.55086e-05 3.95128)
(-11.4098 -0.000146148 4.28695)
(10.3586 0.235704 2.83365)
(2.00955 0.0820444 3.13842)
(2.6918 -0.0274539 1.68003)
(2.57851 -0.0310299 2.10986)
(1.6541 -0.0276221 2.32189)
(1.30581 -0.0263255 2.23332)
(0.821735 -0.0397515 2.23083)
(0.471813 -0.0408956 2.3169)
(0.248069 -0.034375 2.25447)
(-0.210006 -0.0227263 2.20777)
(-0.543618 -0.0234715 2.4234)
(-1.59644 -0.0252667 2.47705)
(-2.26577 -0.0287359 2.02058)
(-0.885228 0.0594954 3.92466)
(-11.4693 0.228597 4.26793)
(10.4419 0.295006 2.79368)
(2.31155 0.187071 3.07326)
(2.84618 0.0449564 1.66285)
(2.65231 -0.00276288 2.10326)
(1.66944 -0.0364584 2.33089)
(1.29921 -0.0547696 2.24743)
(0.817867 -0.0875157 2.23234)
(0.473396 -0.0906354 2.30716)
(0.245321 -0.0764869 2.25717)
(-0.212938 -0.049059 2.22816)
(-0.559456 -0.0360687 2.43399)
(-1.65966 -0.00828733 2.46792)
(-2.38094 0.0281808 2.0061)
(-1.14403 0.149317 3.86616)
(-11.5519 0.308231 4.23475)
(10.4869 0.271135 2.75556)
(2.47029 0.253685 3.02759)
(2.92334 0.103066 1.66448)
(2.67016 0.0324809 2.13629)
(1.63621 -0.0198168 2.37123)
(1.26908 -0.0638891 2.27531)
(0.805295 -0.127855 2.23984)
(0.474147 -0.138605 2.30545)
(0.245538 -0.114544 2.27075)
(-0.20457 -0.0606304 2.2627)
(-0.54039 -0.0235235 2.47156)
(-1.68183 0.0198956 2.49563)
(-2.4438 0.0774186 2.00837)
(-1.28529 0.210595 3.82233)
(-11.6086 0.306514 4.20599)
(10.5122 0.278568 2.71973)
(2.53316 0.393465 2.97858)
(2.97774 0.255998 1.63263)
(2.7075 0.126754 2.14318)
(1.60867 -0.0152438 2.40934)
(1.21661 -0.120831 2.32425)
(0.773537 -0.210536 2.26404)
(0.471478 -0.222095 2.31161)
(0.254119 -0.188802 2.29779)
(-0.17902 -0.115842 2.3255)
(-0.520738 -0.0324333 2.51736)
(-1.72665 0.0900642 2.49979)
(-2.50135 0.207394 1.97068)
(-1.34421 0.341073 3.76795)
(-11.646 0.327205 4.17859)
(10.5584 0.236518 2.67271)
(2.75025 0.393106 2.95458)
(3.01605 0.301174 1.6636)
(2.62563 0.209465 2.241)
(1.45186 0.0725871 2.5197)
(1.11875 -0.0920413 2.38701)
(0.745541 -0.249413 2.28235)
(0.47232 -0.279531 2.31268)
(0.261809 -0.230428 2.32564)
(-0.136708 -0.101021 2.39424)
(-0.409067 0.0436433 2.62352)
(-1.66623 0.169663 2.5947)
(-2.52845 0.252731 2.00048)
(-1.54989 0.345848 3.75165)
(-11.7053 0.287693 4.14057)
(10.5759 0.263905 2.64291)
(2.72701 0.622558 2.90557)
(2.94272 0.571495 1.612)
(2.50473 0.396912 2.28691)
(1.38298 0.0332098 2.59504)
(1.2196 -0.290493 2.45577)
(0.829609 -0.443781 2.32676)
(0.477561 -0.444439 2.30158)
(0.196374 -0.396711 2.35636)
(-0.258844 -0.281783 2.48985)
(-0.401445 -0.0280197 2.72368)
(-1.58725 0.314556 2.64743)
(-2.4895 0.488227 1.93532)
(-1.52342 0.561761 3.68996)
(-11.7299 0.327486 4.11686)
(10.5383 0.162653 2.56244)
(3.40253 0.562436 2.8658)
(3.68032 0.680079 1.69558)
(3.50719 0.489305 2.25176)
(2.47191 0.0781439 2.55386)
(1.92844 -0.253463 2.41597)
(1.18133 -0.37733 2.21282)
(0.511953 -0.370469 2.10534)
(-0.0713697 -0.346484 2.1836)
(-0.865164 -0.260286 2.4429)
(-1.40966 0.00813132 2.70272)
(-2.58574 0.388773 2.6005)
(-3.16671 0.585924 2.04397)
(-2.26808 0.513133 3.68757)
(-11.7125 0.206562 4.03627)
(13.9709 -0.0602811 2.65556)
(8.71009 -0.747787 3.69062)
(7.53786 -1.29851 2.73791)
(7.51134 -1.40537 3.28141)
(6.14539 -0.827776 3.67395)
(5.00049 0.0242485 3.64463)
(3.29035 0.740145 3.44877)
(1.13711 1.08247 3.27178)
(-1.20178 0.8675 3.44155)
(-3.26342 0.170362 3.83531)
(-4.77151 -0.706132 4.08642)
(-6.69172 -1.3368 3.99217)
(-7.18082 -1.27248 3.64356)
(-8.45772 -0.801344 5.26849)
(-17.0141 -0.149117 4.83258)
(14.1176 -0.126326 2.73156)
(8.23354 -0.842236 3.77886)
(6.53362 -1.18479 2.68361)
(6.02205 -1.28309 3.24244)
(4.01553 -0.792069 3.62713)
(3.06996 0.092133 3.58453)
(2.27341 0.969903 3.44557)
(1.12861 1.42026 3.33243)
(-0.164229 1.14264 3.44401)
(-1.16216 0.269465 3.71739)
(-2.26432 -0.670218 4.01332)
(-4.9638 -1.22076 3.99203)
(-6.02426 -1.15479 3.58876)
(-7.78471 -0.895988 5.33483)
(-17.1635 -0.26199 4.91375)
(14.1327 -0.136049 2.75618)
(8.31551 -0.545594 3.81948)
(6.78553 -0.681056 2.73757)
(6.39317 -0.728578 3.21518)
(4.39786 -0.530383 3.56904)
(3.04333 -0.171766 3.50483)
(1.93789 0.460358 3.35066)
(1.096 0.934058 3.28732)
(0.318749 0.632473 3.31985)
(-0.890573 -0.120411 3.55556)
(-2.57994 -0.489258 3.93251)
(-5.29147 -0.676343 3.97192)
(-6.24658 -0.647193 3.67352)
(-7.87492 -0.564235 5.39579)
(-17.1604 -0.256269 4.93025)
(14.1482 -0.187301 2.80286)
(8.09103 -0.57423 3.8606)
(6.69751 -0.647985 2.7246)
(6.50448 -0.618221 3.1261)
(4.72801 -0.359248 3.45061)
(3.39385 -0.00521185 3.42973)
(2.11109 0.40327 3.32116)
(1.1195 0.663165 3.25062)
(0.290901 0.469105 3.25758)
(-1.1894 0.045829 3.4956)
(-2.89785 -0.28169 3.82616)
(-5.38963 -0.550808 3.89491)
(-6.14723 -0.609975 3.67163)
(-7.61595 -0.588665 5.433)
(-17.1501 -0.316988 4.96975)
(14.166 -0.199867 2.83423)
(8.08573 -0.387525 3.91164)
(6.69101 -0.354632 2.76485)
(6.50726 -0.326401 3.12443)
(4.80429 -0.201349 3.42286)
(3.53014 -0.0366671 3.38742)
(2.27384 0.233862 3.28694)
(1.17384 0.418938 3.20716)
(0.196875 0.281329 3.19661)
(-1.31855 -0.0148337 3.43641)
(-2.94536 -0.157986 3.79486)
(-5.35457 -0.282607 3.90634)
(-6.10977 -0.323755 3.72839)
(-7.59686 -0.386794 5.49578)
(-17.1453 -0.314617 4.99158)
(14.1672 -0.251398 2.86805)
(7.95926 -0.311988 3.96481)
(6.60289 -0.249395 2.78133)
(6.50578 -0.21784 3.09539)
(4.90205 -0.115381 3.378)
(3.64669 0.00281526 3.35454)
(2.36614 0.163475 3.2722)
(1.20725 0.264714 3.18077)
(0.161181 0.17992 3.15935)
(-1.40612 0.0189682 3.40365)
(-3.01803 -0.076063 3.75588)
(-5.33343 -0.181601 3.8874)
(-6.00779 -0.224575 3.75072)
(-7.4544 -0.304996 5.55157)
(-17.1209 -0.343609 5.01583)
(14.1311 -0.223916 2.89724)
(7.71961 -0.163036 4.03713)
(6.41465 -0.0725381 2.82171)
(6.4152 -0.0581112 3.10844)
(4.89342 -0.0304791 3.3726)
(3.67977 0.00373084 3.3409)
(2.41232 0.0737361 3.26177)
(1.23282 0.122038 3.16242)
(0.158194 0.0803973 3.13193)
(-1.42133 0.00782339 3.38183)
(-2.98419 -0.0153957 3.74991)
(-5.22473 -0.0444454 3.90759)
(-5.8144 -0.0600748 3.79268)
(-7.20274 -0.15237 5.62319)
(-17.0703 -0.272846 5.03913)
(14.0892 -0.000130559 2.91232)
(7.50418 -6.02498e-05 4.07812)
(6.26036 -7.7557e-05 2.8368)
(6.35048 -0.000114614 3.1098)
(4.88635 -0.000144278 3.36627)
(3.69279 -0.000199021 3.33501)
(2.42643 -0.000252991 3.26004)
(1.24223 -0.000307979 3.15794)
(0.164687 -0.000322013 3.1236)
(-1.4236 -0.000264225 3.37439)
(-2.96704 -0.000199533 3.74398)
(-5.15846 -0.000178266 3.91059)
(-5.66944 -0.000125323 3.80407)
(-6.98587 -9.50319e-05 5.65871)
(-17.0256 -0.000265116 5.05255)
(14.131 0.223709 2.89717)
(7.71963 0.162909 4.03713)
(6.41464 0.0723842 2.8217)
(6.41518 0.0578882 3.10841)
(4.89342 0.0301945 3.37256)
(3.67974 -0.00412019 3.34085)
(2.41229 -0.0742324 3.26171)
(1.23277 -0.12264 3.16239)
(0.158085 -0.0810362 3.13193)
(-1.42139 -0.0083586 3.3818)
(-2.98417 0.0149897 3.74983)
(-5.22471 0.0440958 3.90753)
(-5.81437 0.0598194 3.79265)
(-7.20275 0.152162 5.62319)
(-17.0702 0.272445 5.03902)
(14.1671 0.251272 2.86794)
(7.95926 0.31186 3.96478)
(6.60286 0.24925 2.7813)
(6.50575 0.217638 3.09532)
(4.90202 0.115117 3.37793)
(3.64664 -0.00317167 3.35443)
(2.3661 -0.163928 3.27209)
(1.20721 -0.265262 3.18067)
(0.161083 -0.180514 3.15926)
(-1.40617 -0.0194797 3.40354)
(-3.01801 0.07567 3.75575)
(-5.3334 0.181277 3.88728)
(-6.00774 0.224327 3.75064)
(-7.45442 0.304775 5.55154)
(-17.1207 0.343376 5.01567)
(14.1659 0.199784 2.83411)
(8.08571 0.38741 3.9116)
(6.69096 0.3545 2.7648)
(6.50721 0.326221 3.12434)
(4.80424 0.201113 3.42275)
(3.53008 0.0363479 3.38726)
(2.27379 -0.234268 3.28677)
(1.17379 -0.419421 3.207)
(0.196795 -0.281862 3.19645)
(-1.31859 0.0143537 3.43623)
(-2.94533 0.157625 3.79467)
(-5.35453 0.282317 3.90617)
(-6.1097 0.323529 3.72827)
(-7.59687 0.38659 5.4957)
(-17.145 0.31446 4.99138)
(14.148 0.187246 2.80272)
(8.091 0.574142 3.86053)
(6.69745 0.647883 2.72452)
(6.50441 0.618081 3.12599)
(4.72794 0.359056 3.45047)
(3.39377 0.00495134 3.42953)
(2.11102 -0.403594 3.32095)
(1.11945 -0.663556 3.25041)
(0.290841 -0.469537 3.25736)
(-1.18942 -0.0462194 3.49535)
(-2.89782 0.281385 3.82593)
(-5.38958 0.55057 3.89469)
(-6.14716 0.609787 3.67147)
(-7.61592 0.588494 5.43289)
(-17.1498 0.316884 4.96953)
(14.1325 0.136007 2.75603)
(8.31546 0.545524 3.8194)
(6.78547 0.680973 2.73747)
(6.39309 0.72847 3.21505)
(4.39777 0.530242 3.56887)
(3.04323 0.171572 3.5046)
(1.93782 -0.460616 3.35041)
(1.09595 -0.934366 3.28707)
(0.31869 -0.632818 3.31958)
(-0.890577 0.12009 3.55525)
(-2.57989 0.48903 3.93223)
(-5.29142 0.676161 3.97168)
(-6.24651 0.647044 3.67333)
(-7.87488 0.5641 5.39564)
(-17.1601 0.256203 4.93002)
(14.1174 0.126289 2.7314)
(8.23349 0.842187 3.77876)
(6.53354 1.18473 2.6835)
(6.02195 1.28302 3.2423)
(4.01541 0.791988 3.62694)
(3.06986 -0.0922495 3.58429)
(2.27335 -0.970051 3.44531)
(1.12856 -1.42043 3.33216)
(-0.16429 -1.14284 3.44371)
(-1.1622 -0.269658 3.71706)
(-2.26427 0.670071 4.01302)
(-4.96372 1.22065 3.99176)
(-6.02418 1.15469 3.58854)
(-7.78465 0.895897 5.33465)
(-17.1632 0.261951 4.91351)
(13.9706 0.0602636 2.6554)
(8.71005 0.747782 3.6905)
(7.53782 1.29851 2.73779)
(7.51126 1.40538 3.28127)
(6.1453 0.827771 3.67378)
(5.00041 -0.0242714 3.64441)
(3.29029 -0.740191 3.44853)
(1.13706 -1.08253 3.27151)
(-1.20182 -0.867567 3.44126)
(-3.26344 -0.170415 3.83502)
(-4.7715 0.706101 4.08613)
(-6.69167 1.33678 3.9919)
(-7.18076 1.27246 3.64334)
(-8.45768 0.801314 5.2683)
(-17.0138 0.149103 4.83233)
(13.9794 -0.0126618 1.53863)
(8.83132 -0.704329 2.92613)
(7.7854 -1.33977 3.1332)
(8.10659 -1.54957 4.12421)
(6.73104 -1.06946 4.7641)
(5.6857 -0.204867 5.04736)
(3.88456 0.67948 5.20616)
(1.33456 1.21056 5.34658)
(-1.65918 0.908518 5.49942)
(-4.01741 -0.0360905 5.69706)
(-5.50521 -1.00062 5.7102)
(-7.52002 -1.5507 5.42921)
(-7.68113 -1.35963 4.76822)
(-8.79122 -0.791685 5.17367)
(-17.7938 -0.0981731 4.0622)
(14.112 -0.0500971 1.58985)
(8.45718 -0.784614 3.05031)
(6.85058 -1.24858 3.05697)
(6.76555 -1.47476 3.95438)
(4.75368 -1.09979 4.59474)
(3.65934 -0.193185 4.92207)
(2.76887 0.945627 5.11362)
(1.38013 1.67206 5.2697)
(-0.382513 1.29532 5.40797)
(-1.57384 0.0357952 5.59962)
(-2.99262 -1.04331 5.63833)
(-5.91143 -1.48951 5.40138)
(-6.57984 -1.26642 4.76299)
(-8.23106 -0.869747 5.30161)
(-17.947 -0.181556 4.12035)
(14.1249 -0.0715715 1.59373)
(8.56398 -0.500055 3.05511)
(7.14973 -0.727199 3.07414)
(7.18445 -0.854959 3.94911)
(5.21457 -0.684393 4.58849)
(3.77876 -0.327635 4.90695)
(2.45733 0.392227 5.0457)
(1.34952 1.06206 5.17506)
(0.223271 0.654175 5.28585)
(-1.44642 -0.315123 5.53555)
(-3.43551 -0.681626 5.62625)
(-6.31877 -0.841901 5.41645)
(-6.88044 -0.720758 4.82873)
(-8.37772 -0.5302 5.33627)
(-17.9414 -0.190747 4.11183)
(14.1433 -0.112826 1.61448)
(8.35675 -0.527503 3.09485)
(7.06996 -0.701751 3.06555)
(7.30549 -0.768485 3.88207)
(5.55322 -0.552209 4.4913)
(4.17338 -0.156705 4.81747)
(2.71578 0.378964 5.0008)
(1.40045 0.771562 5.12345)
(0.126842 0.515026 5.23547)
(-1.85702 -0.0919397 5.47994)
(-3.80075 -0.496383 5.54463)
(-6.44656 -0.741285 5.37784)
(-6.80195 -0.694691 4.8532)
(-8.14448 -0.556712 5.38423)
(-17.9378 -0.245482 4.12672)
(14.1616 -0.126626 1.62373)
(8.38226 -0.344959 3.12216)
(7.10393 -0.393483 3.08096)
(7.3602 -0.42949 3.87367)
(5.66373 -0.322513 4.47516)
(4.31605 -0.136334 4.78875)
(2.90793 0.203988 4.96236)
(1.47944 0.484533 5.06518)
(-0.0267998 0.293324 5.17574)
(-2.01182 -0.122139 5.44374)
(-3.88481 -0.294492 5.53789)
(-6.4745 -0.40989 5.401)
(-6.81861 -0.381905 4.90431)
(-8.17845 -0.349481 5.4318)
(-17.9356 -0.245638 4.12496)
(14.166 -0.177472 1.63548)
(8.28924 -0.275735 3.1595)
(7.04687 -0.286542 3.09475)
(7.39736 -0.306372 3.85425)
(5.798 -0.217937 4.44126)
(4.46268 -0.073989 4.75367)
(3.03382 0.146971 4.93912)
(1.53405 0.309949 5.02872)
(-0.101882 0.189873 5.14164)
(-2.14411 -0.0535143 5.41709)
(-4.00493 -0.186588 5.51513)
(-6.50486 -0.289264 5.40549)
(-6.7598 -0.27991 4.94168)
(-8.08697 -0.274466 5.48045)
(-17.9146 -0.274107 4.1278)
(14.1307 -0.169385 1.64378)
(8.11842 -0.139313 3.20937)
(6.91982 -0.0949198 3.12872)
(7.36513 -0.104422 3.86583)
(5.83347 -0.0801937 4.44068)
(4.51735 -0.0338347 4.74342)
(3.10177 0.0644009 4.92557)
(1.57874 0.143386 5.00038)
(-0.12715 0.0819229 5.11421)
(-2.18231 -0.0299585 5.40452)
(-4.01318 -0.0686696 5.52215)
(-6.46055 -0.0997579 5.43876)
(-6.64042 -0.0925845 4.99484)
(-7.93427 -0.131102 5.53834)
(-17.8684 -0.219726 4.13089)
(14.0887 -0.00024034 1.64844)
(7.95021 -7.74702e-05 3.24224)
(6.80076 -9.64272e-05 3.14862)
(7.32977 -0.000144625 3.87155)
(5.84984 -0.000175324 4.43829)
(4.54433 -0.000248899 4.73795)
(3.128 -0.000325243 4.92153)
(1.59834 -0.000391613 4.99081)
(-0.129035 -0.000400428 5.10525)
(-2.19843 -0.000320079 5.39979)
(-4.01902 -0.000254798 5.52302)
(-6.42643 -0.000232726 5.4522)
(-6.53726 -0.000168168 5.01932)
(-7.78257 -0.000127184 5.57021)
(-17.827 -0.000401418 4.13499)
(14.1306 0.16902 1.64364)
(8.11847 0.139139 3.20935)
(6.91981 0.094724 3.12869)
(7.36512 0.104141 3.86578)
(5.83348 0.0798451 4.44062)
(4.51736 0.0333519 4.74333)
(3.10172 -0.065028 4.92547)
(1.57866 -0.144144 5.00031)
(-0.127257 -0.0827162 5.11415)
(-2.18233 0.0293127 5.40439)
(-4.0132 0.0681583 5.52204)
(-6.46056 0.0993055 5.43867)
(-6.64039 0.0922431 4.99478)
(-7.93433 0.130813 5.53832)
(-17.8682 0.219114 4.1307)
(14.1658 0.177267 1.63529)
(8.28927 0.275547 3.15945)
(7.04682 0.286352 3.09469)
(7.39733 0.306119 3.85414)
(5.79798 0.217611 4.44114)
(4.46266 0.0735522 4.75349)
(3.03376 -0.147529 4.93891)
(1.53398 -0.31063 5.02852)
(-0.101983 -0.190606 5.14143)
(-2.14413 0.0528963 5.41684)
(-4.00495 0.186102 5.51492)
(-6.50485 0.288849 5.40531)
(-6.75973 0.279579 4.94155)
(-8.08704 0.27415 5.48036)
(-17.9143 0.273751 4.12751)
(14.1613 0.126491 1.62351)
(8.38227 0.344784 3.12207)
(7.10386 0.393306 3.08086)
(7.36014 0.429262 3.87353)
(5.66368 0.322218 4.47498)
(4.316 0.135945 4.7885)
(2.90786 -0.204488 4.96206)
(1.47937 -0.485136 5.06487)
(-0.0268852 -0.293989 5.17541)
(-2.01184 0.121569 5.44338)
(-3.88482 0.294046 5.53758)
(-6.47447 0.409516 5.40073)
(-6.81853 0.381599 4.90411)
(-8.17848 0.349182 5.43164)
(-17.9353 0.245397 4.12461)
(14.143 0.112734 1.61424)
(8.35672 0.527362 3.09473)
(7.06987 0.701609 3.06542)
(7.30541 0.768303 3.88189)
(5.55314 0.551968 4.49107)
(4.1733 0.156386 4.81716)
(2.71568 -0.379361 5.00042)
(1.40039 -0.772045 5.12304)
(0.126775 -0.51556 5.23503)
(-1.85702 0.0914563 5.47947)
(-3.80074 0.496008 5.54424)
(-6.44651 0.740977 5.3775)
(-6.80184 0.694433 4.85294)
(-8.14447 0.556457 5.38401)
(-17.9374 0.24532 4.12634)
(14.1246 0.0715047 1.59348)
(8.56393 0.499943 3.05496)
(7.14963 0.727085 3.07399)
(7.18435 0.854818 3.9489)
(5.21446 0.684211 4.58822)
(3.77865 0.327403 4.90657)
(2.45724 -0.39254 5.04525)
(1.34946 -1.06244 5.17459)
(0.223201 -0.654605 5.28533)
(-1.44641 0.314755 5.53499)
(-3.43549 0.681342 5.62579)
(-6.31871 0.841661 5.41606)
(-6.88032 0.720553 4.82842)
(-8.37768 0.529998 5.336)
(-17.941 0.190643 4.11141)
(14.1117 0.0500423 1.58958)
(8.45712 0.784531 3.05014)
(6.85047 1.2485 3.05681)
(6.76542 1.47467 3.95415)
(4.75353 1.09968 4.59444)
(3.65921 0.193034 4.92164)
(2.76879 -0.945819 5.11315)
(1.38007 -1.67229 5.26921)
(-0.382592 -1.29558 5.40741)
(-1.57387 -0.0360581 5.59901)
(-2.99257 1.04312 5.63781)
(-5.91134 1.48935 5.40094)
(-6.57971 1.26627 4.76263)
(-8.23098 0.869605 5.3013)
(-17.9465 0.181494 4.11992)
(13.979 0.0126359 1.53836)
(8.83125 0.704307 2.92594)
(7.78531 1.33976 3.13303)
(8.10647 1.54956 4.12399)
(6.73092 1.06945 4.76381)
(5.68559 0.204834 5.04698)
(3.88447 -0.679544 5.20573)
(1.3345 -1.21065 5.34612)
(-1.65922 -0.908612 5.49891)
(-4.01743 0.0360194 5.69651)
(-5.50519 1.00056 5.70971)
(-7.51994 1.55066 5.42878)
(-7.68102 1.35958 4.76786)
(-8.79113 0.791632 5.17333)
(-17.7932 0.0981505 4.06176)
(14.7717 -0.00776167 1.77769)
(8.95414 -0.708885 2.92523)
(7.63606 -1.33017 3.63369)
(8.03769 -1.47383 5.08221)
(6.47171 -1.00553 5.94444)
(5.38886 -0.255339 6.43441)
(3.72166 0.512273 6.8919)
(1.41411 1.02957 7.35224)
(-1.35529 0.763163 7.51133)
(-3.60095 -0.0994046 7.52706)
(-5.01135 -0.956721 7.36014)
(-7.25897 -1.47437 6.93469)
(-7.34554 -1.34166 5.96198)
(-8.45214 -0.813397 5.82704)
(-19.3869 -0.116231 4.88276)
(14.9051 -0.0418619 1.82912)
(8.5364 -0.781933 3.04048)
(6.65962 -1.25303 3.42671)
(6.7531 -1.4438 4.63914)
(4.69425 -1.07834 5.50269)
(3.61264 -0.30034 6.13179)
(2.71574 0.713942 6.68634)
(1.46931 1.43447 7.18256)
(-0.131759 1.10494 7.38495)
(-1.3598 -0.0879249 7.42193)
(-2.70327 -1.04574 7.15828)
(-5.71185 -1.46193 6.73055)
(-6.19726 -1.26601 5.87952)
(-7.77483 -0.884182 5.94444)
(-19.5422 -0.20682 4.938)
(14.9142 -0.0647786 1.83013)
(8.64564 -0.489735 3.03349)
(6.95749 -0.725379 3.42882)
(7.14341 -0.843548 4.64725)
(5.11639 -0.65812 5.52413)
(3.79671 -0.331013 6.14648)
(2.54765 0.257063 6.64591)
(1.45372 0.839528 7.08781)
(0.326231 0.491422 7.32045)
(-1.38141 -0.336779 7.42793)
(-3.12819 -0.658365 7.17914)
(-6.09776 -0.831685 6.76251)
(-6.49756 -0.717312 5.93861)
(-7.939 -0.52357 5.96807)
(-19.5303 -0.213467 4.91718)
(14.9307 -0.104173 1.84499)
(8.41335 -0.513864 3.05835)
(6.86762 -0.698348 3.4019)
(7.26236 -0.770504 4.57861)
(5.42897 -0.571571 5.45071)
(4.14273 -0.215348 6.06193)
(2.81177 0.276964 6.5902)
(1.51677 0.642795 7.05446)
(0.168566 0.42799 7.29765)
(-1.7662 -0.150678 7.36881)
(-3.47632 -0.531482 7.12392)
(-6.2319 -0.750108 6.74144)
(-6.41821 -0.691458 5.96388)
(-7.67228 -0.545338 6.00205)
(-19.5193 -0.269386 4.91632)
(14.948 -0.117929 1.85005)
(8.43022 -0.330059 3.07449)
(6.89806 -0.386569 3.39627)
(7.32447 -0.432953 4.5536)
(5.54368 -0.334512 5.43497)
(4.26289 -0.166009 6.04196)
(2.9634 0.132558 6.55608)
(1.58171 0.388062 7.01641)
(0.0231274 0.222087 7.26354)
(-1.89634 -0.157824 7.35179)
(-3.57043 -0.31807 7.12904)
(-6.27697 -0.419517 6.76355)
(-6.4361 -0.376592 6.00539)
(-7.70368 -0.329881 6.03666)
(-19.5111 -0.265713 4.8992)
(14.9533 -0.170756 1.85647)
(8.32094 -0.263349 3.09881)
(6.83284 -0.280028 3.39501)
(7.36642 -0.31184 4.52693)
(5.68038 -0.236935 5.40876)
(4.40261 -0.107733 6.01123)
(3.07899 0.098478 6.52845)
(1.63017 0.253497 6.99381)
(-0.0613409 0.149255 7.24589)
(-2.02887 -0.0875194 7.33117)
(-3.70255 -0.216953 7.12156)
(-6.32371 -0.30221 6.7774)
(-6.37976 -0.277014 6.04094)
(-7.60017 -0.255574 6.07091)
(-19.4829 -0.290473 4.88582)
(14.9175 -0.166536 1.85907)
(8.13292 -0.131451 3.13298)
(6.70384 -0.0889873 3.41283)
(7.34938 -0.107299 4.52443)
(5.73154 -0.0905422 5.40642)
(4.46037 -0.0500549 6.00464)
(3.13975 0.0401771 6.51534)
(1.66875 0.114565 6.97751)
(-0.0973272 0.0603045 7.23302)
(-2.07343 -0.0471469 7.32854)
(-3.73516 -0.0859174 7.13682)
(-6.30902 -0.108711 6.81109)
(-6.27834 -0.0903609 6.08848)
(-7.44632 -0.115996 6.11027)
(-19.4283 -0.228223 4.87133)
(14.8745 -0.000392597 1.85988)
(7.9517 -0.000110297 3.15577)
(6.58395 -0.000134268 3.42609)
(7.32359 -0.000202461 4.52541)
(5.75729 -0.000237381 5.40486)
(4.4917 -0.000329245 6.00082)
(3.16614 -0.000418404 6.51059)
(1.68684 -0.00047722 6.97291)
(-0.107104 -0.000495274 7.22984)
(-2.0963 -0.000422669 7.32747)
(-3.75553 -0.000357693 7.14326)
(-6.29346 -0.000339245 6.82735)
(-6.19001 -0.000257233 6.11215)
(-7.29459 -0.000185816 6.13087)
(-19.3818 -0.000611632 4.86544)
(14.9172 0.165961 1.85886)
(8.13298 0.131197 3.13295)
(6.70381 0.0887118 3.41278)
(7.34938 0.10691 4.52434)
(5.73155 0.0900732 5.40632)
(4.4604 0.0494212 6.00451)
(3.13967 -0.040977 6.51517)
(1.66866 -0.115487 6.97734)
(-0.0974036 -0.061278 7.23284)
(-2.07345 0.0463065 7.32837)
(-3.73519 0.0852081 7.13667)
(-6.30903 0.108057 6.81095)
(-6.27829 0.0898465 6.08839)
(-7.44643 0.115571 6.11021)
(-19.4279 0.22729 4.87102)
(14.953 0.170456 1.8562)
(8.321 0.263066 3.09873)
(6.83276 0.279755 3.39491)
(7.36637 0.311487 4.52677)
(5.68035 0.236492 5.40856)
(4.40259 0.107155 6.01098)
(3.07889 -0.0991934 6.52812)
(1.63008 -0.254335 6.99346)
(-0.0614207 -0.150155 7.2455)
(-2.02889 0.0867158 7.3308)
(-3.70257 0.216277 7.12124)
(-6.3237 0.301609 6.77711)
(-6.37966 0.276518 6.04072)
(-7.60027 0.255099 6.07075)
(-19.4825 0.289933 4.88537)
(14.9477 0.117734 1.84974)
(8.43024 0.329794 3.07435)
(6.89794 0.386316 3.39612)
(7.32438 0.432637 4.55337)
(5.54361 0.334111 5.43469)
(4.26283 0.165498 6.04159)
(2.96329 -0.133196 6.55561)
(1.58162 -0.388808 7.01589)
(0.0230488 -0.222905 7.26297)
(-1.89635 0.157092 7.35125)
(-3.57045 0.317453 7.12857)
(-6.27693 0.418977 6.76313)
(-6.43596 0.376137 6.00506)
(-7.70374 0.329432 6.0364)
(-19.5106 0.26535 4.89866)
(14.9303 0.104041 1.84466)
(8.41334 0.513647 3.05816)
(6.86748 0.698139 3.40171)
(7.26224 0.770248 4.57833)
(5.42886 0.571238 5.45036)
(4.14262 0.214923 6.06145)
(2.81164 -0.27748 6.58961)
(1.51667 -0.643402 7.0538)
(0.168497 -0.428656 7.29692)
(-1.76622 0.150047 7.3681)
(-3.47633 0.530959 7.12331)
(-6.23183 0.749658 6.7409)
(-6.41804 0.691072 5.96345)
(-7.67228 0.54495 6.00169)
(-19.5187 0.269141 4.91572)
(14.9138 0.0646867 1.82978)
(8.64559 0.489561 3.03326)
(6.95734 0.725211 3.42859)
(7.14326 0.843347 4.64693)
(5.11625 0.657859 5.52371)
(3.79656 0.330691 6.14591)
(2.5475 -0.257478 6.64522)
(1.45363 -0.840021 7.08705)
(0.326153 -0.491973 7.31961)
(-1.38139 0.336293 7.42708)
(-3.12817 0.657956 7.17842)
(-6.09767 0.831331 6.76188)
(-6.49738 0.717003 5.93811)
(-7.93894 0.52326 5.96763)
(-19.5296 0.213311 4.91654)
(14.9047 0.0417958 1.82875)
(8.53632 0.781803 3.04022)
(6.65944 1.2529 3.42646)
(6.75291 1.44367 4.63878)
(4.69406 1.07817 5.50222)
(3.61246 0.300118 6.13114)
(2.71561 -0.714219 6.68561)
(1.46921 -1.43479 7.18177)
(-0.131854 -1.10531 7.38406)
(-1.35982 0.0875579 7.42098)
(-2.70322 1.04546 7.15747)
(-5.71173 1.46169 6.72984)
(-6.19706 1.26579 5.87895)
(-7.77471 0.88396 5.94393)
(-19.5415 0.206728 4.93734)
(14.7712 0.00773346 1.77733)
(8.95406 0.708841 2.92495)
(7.63591 1.33014 3.63344)
(8.03752 1.47381 5.08189)
(6.47154 1.00548 5.94402)
(5.3887 0.255274 6.43383)
(3.7215 -0.512376 6.89122)
(1.41401 -1.0297 7.3515)
(-1.35534 -0.763303 7.5105)
(-3.60097 0.099292 7.52619)
(-5.01133 0.956625 7.35938)
(-7.25886 1.47429 6.93402)
(-7.34536 1.34158 5.96141)
(-8.45201 0.81331 5.8265)
(-19.3862 0.116199 4.88209)
(15.5707 -0.000316633 1.85678)
(9.39932 -0.728138 2.92078)
(7.87634 -1.34609 4.18961)
(8.2499 -1.40354 6.24288)
(6.48833 -0.88926 7.32881)
(5.26023 -0.226634 7.90596)
(3.61289 0.373769 8.49339)
(1.55175 0.795607 9.14716)
(-0.850679 0.609883 9.38435)
(-3.05226 -0.0726259 9.38657)
(-4.57364 -0.826573 9.1944)
(-7.16659 -1.37917 8.69608)
(-7.41209 -1.33899 7.33906)
(-8.54396 -0.854817 6.78343)
(-21.4133 -0.140963 5.98811)
(15.7166 -0.0320193 1.93031)
(8.96895 -0.794277 3.04477)
(6.85152 -1.28132 3.80763)
(6.95055 -1.41336 5.46543)
(4.77788 -0.988096 6.52672)
(3.66313 -0.297395 7.30705)
(2.70905 0.4998 8.08887)
(1.60889 1.08324 8.84633)
(0.306058 0.854535 9.16687)
(-0.990687 -0.092598 9.14591)
(-2.28814 -0.929642 8.74572)
(-5.55987 -1.40423 8.24101)
(-6.1757 -1.28021 7.12563)
(-7.74213 -0.923225 6.89656)
(-21.5879 -0.245101 6.07012)
(15.7238 -0.0569441 1.93274)
(9.08492 -0.488938 3.03234)
(7.15565 -0.7351 3.80146)
(7.31618 -0.827038 5.4874)
(5.14661 -0.606231 6.56569)
(3.85064 -0.288818 7.32293)
(2.66003 0.152985 8.04787)
(1.60915 0.56228 8.75738)
(0.574247 0.32414 9.13039)
(-1.08923 -0.278148 9.15882)
(-2.66561 -0.583244 8.77323)
(-5.91388 -0.797529 8.28446)
(-6.46878 -0.719619 7.18836)
(-7.92347 -0.533512 6.92306)
(-21.5698 -0.249187 6.04492)
(15.7421 -0.0944963 1.95111)
(8.84171 -0.510636 3.05031)
(7.06565 -0.705834 3.74859)
(7.43917 -0.760626 5.40249)
(5.44014 -0.546022 6.50519)
(4.14577 -0.224438 7.25716)
(2.89171 0.176153 7.99697)
(1.6696 0.455297 8.74617)
(0.403332 0.31218 9.12623)
(-1.41659 -0.152012 9.10382)
(-2.99509 -0.497773 8.73432)
(-6.05184 -0.724543 8.26032)
(-6.38788 -0.692057 7.203)
(-7.62856 -0.551853 6.9496)
(-21.553 -0.308714 6.04384)
(15.7608 -0.108584 1.95914)
(8.85735 -0.322919 3.06381)
(7.09661 -0.386486 3.72263)
(7.50106 -0.427488 5.36012)
(5.54883 -0.320171 6.48605)
(4.24622 -0.165509 7.2416)
(2.997 0.0679453 7.97235)
(1.71 0.251633 8.73237)
(0.296186 0.139607 9.11557)
(-1.51778 -0.149149 9.09485)
(-3.08542 -0.29831 8.74016)
(-6.09407 -0.405045 8.27549)
(-6.39744 -0.373671 7.2364)
(-7.65658 -0.325023 6.98333)
(-21.5402 -0.300132 6.02368)
(15.7683 -0.161607 1.96886)
(8.74189 -0.257162 3.08425)
(7.02847 -0.278564 3.70183)
(7.54278 -0.308337 5.31792)
(5.67697 -0.231399 6.46136)
(4.37025 -0.117221 7.21868)
(3.09157 0.0509064 7.94715)
(1.74361 0.167343 8.72331)
(0.22234 0.0984171 9.10911)
(-1.63454 -0.091724 9.08003)
(-3.21086 -0.2104 8.73967)
(-6.14037 -0.293263 8.28586)
(-6.33555 -0.274414 7.26332)
(-7.54204 -0.248695 7.01287)
(-21.5063 -0.318425 6.0081)
(15.7365 -0.15979 1.97618)
(8.55017 -0.126766 3.11566)
(6.89807 -0.0859065 3.70323)
(7.52798 -0.105423 5.29898)
(5.7266 -0.0888041 6.45443)
(4.4219 -0.0542778 7.21488)
(3.13649 0.0170803 7.93676)
(1.76683 0.0708593 8.71882)
(0.189804 0.0353268 9.10659)
(-1.67333 -0.0480494 9.08302)
(-3.24469 -0.0845935 8.75617)
(-6.12919 -0.105986 8.31301)
(-6.23481 -0.0880089 7.30228)
(-7.38505 -0.108102 7.04663)
(-21.4481 -0.242988 5.99193)
(15.6963 -0.000615941 1.97995)
(8.36603 -0.000162586 3.13638)
(6.77714 -0.000187635 3.70852)
(7.50435 -0.00028635 5.29201)
(5.75206 -0.000335765 6.4511)
(4.45121 -0.000455349 7.21279)
(3.15786 -0.000561845 7.93252)
(1.77826 -0.000622009 8.71852)
(0.178025 -0.000657364 9.10686)
(-1.69537 -0.000602745 9.08446)
(-3.2665 -0.000526144 8.7642)
(-6.11803 -0.000506255 8.32646)
(-6.15085 -0.000394052 7.32121)
(-7.23258 -0.000273881 7.06243)
(-21.4006 -0.000917501 5.98551)
(15.7361 0.158912 1.97589)
(8.55022 0.126389 3.11561)
(6.89799 0.0855118 3.70315)
(7.52796 0.104869 5.29885)
(5.7266 0.0881388 6.45427)
(4.42191 0.0533962 7.2147)
(3.13639 -0.0181649 7.93651)
(1.76672 -0.072071 8.71853)
(0.189735 -0.0366207 9.10627)
(-1.67334 0.0468542 9.08279)
(-3.24471 0.0835497 8.75595)
(-6.1292 0.10501 8.31279)
(-6.23472 0.0872258 7.30212)
(-7.3852 0.107471 7.04654)