/*--------------------------------*- C++ -*----------------------------------*\
| =========                 |                                                 |
| \\      /  F ield         | OpenFOAM: The Open Source CFD Toolbox           |
|  \\    /   O peration     | Version:  4.1                                   |
|   \\  /    A nd           | Web:      www.OpenFOAM.org                      |
|    \\/     M anipulation  |                                                 |
\*---------------------------------------------------------------------------*/
FoamFile
{
    version     2.0;
    format      ascii;
    class       volScalarField;
    location    "25";
    object      p;
}
// * * * * * * * * * * * * * * * * * * * * * * * * * * * * * * * * * * * * * //

dimensions      [0 2 -2 0 0 0 0];

internalField   nonuniform List<scalar> 
204246
(
162.824
9.4921
62.3962
36.218
30.0234
40.6301
20.2985
39.9394
16.5959
38.9563
14.9047
38.5576
13.3324
37.2174
15.7388
32.0281
25.1947
16.8281
34.1766
12.3887
36.4402
11.9539
35.3771
12.3623
35.4209
11.8346
36.4876
9.85439
37.2842
9.78931
36.5691
11.1069
34.1435
15.3175
27.6511
24.7018
14.3558
32.3968
11.4073
32.975
11.0277
33.5478
10.2872
34.7918
8.38219
35.5929
8.72358
34.5849
11.1785
30.9068
15.4723
26.092
24.3072
13.4076
31.934
10.7888
32.5868
10.5962
33.2387
9.93512
34.5166
8.00965
35.2952
8.23746
34.2239
10.4783
30.4931
14.4153
25.7855
22.5709
13.8363
28.5285
10.9182
30.5261
9.5737
31.4762
8.46829
32.7962
6.34245
33.5744
6.5048
32.5161
8.779
28.8178
12.8327
24.1579
21.1969
12.2053
27.4411
9.22982
29.9188
7.50247
31.9947
4.91364
33.4265
4.30011
33.4406
4.62267
32.4313
6.30422
29.4665
8.45015
27.2662
10.9922
23.6064
17.318
11.2826
24.8224
6.49575
27.858
2.63205
28.5811
1.7471
27.1101
0.745665
25.3616
-0.423743
22.8226
-1.2046
18.7142
-0.340562
11.8023
4.73758
-4.54299
9.15613
-12.1091
7.52063
-17.2879
3.57678
-21.932
-1.0508
-26.6313
-5.72624
-30.8215
-10.2856
-33.2945
-15.2202
-32.9802
-21.6389
-26.3894
-36.1804
-18.2915
-39.944
-14.9665
-39.9974
-12.4315
-38.6312
-10.189
-36.3599
-8.25634
-33.5156
-6.86195
-29.8939
-6.58305
-24.3053
-9.04561
-13.0071
-20.212
-1.90594
-21.9373
3.56946
-20.4639
7.6143
-17.4311
11.5462
-13.1071
15.786
-6.92097
19.9288
1.36778
25.2656
11.5836
31.5544
24.459
39.421
42.6894
46.4491
60.6934
63.9229
76.78
87.5991
97.7412
115.619
126.393
154.009
165.039
204.313
211.962
274.442
277.674
396.465
385.378
610.389
77.94
34.2281
38.0312
41.9662
27.7217
38.8549
23.7981
35.5115
21.6446
33.5101
20.6488
31.9162
20.9839
28.8464
23.8432
23.9007
29.2002
19.0512
29.7407
18.3763
29.6147
18.5643
29.3147
18.1674
29.6029
17.6022
30.0659
17.2583
29.488
17.912
28.1551
19.5694
25.4565
22.9518
21.0878
27.5712
17.2028
27.7551
17.0209
27.6004
16.5144
27.9346
15.9509
28.3709
15.7542
27.685
16.7662
26.1529
18.9469
23.598
21.9081
19.8975
26.6852
16.3497
27.064
16.4115
27.0972
16.0822
27.5801
15.6192
28.1057
15.4341
27.4451
16.3568
25.8927
18.3314
23.3182
20.9349
19.6789
25.1847
16.2673
25.3205
15.4101
25.7029
14.7882
26.0594
14.1088
26.4614
13.7767
25.714
14.6328
24.1209
16.625
21.5474
19.3293
17.9345
23.7683
14.534
24.1828
13.6078
25.0035
12.7613
25.9144
12.1132
25.834
12.2635
25.3113
12.8855
24.174
14.1343
22.5538
15.2359
20.619
17.4323
17.1683
21.5836
12.6457
22.3336
11.052
22.7989
9.89848
21.8843
9.44485
20.6253
8.61855
18.9811
7.7226
16.4165
7.30375
12.2895
7.76764
6.21609
10.1407
-0.354741
6.77265
-4.55968
3.14652
-8.89177
-1.07305
-13.4777
-5.74666
-17.9808
-10.9546
-21.9489
-16.5003
-24.6658
-22.2002
-25.1524
-28.3452
-22.6784
-34.0538
-23.1083
-34.8358
-22.4375
-34.1753
-20.8828
-32.4705
-19.0385
-29.9819
-17.3059
-26.9243
-16.097
-23.1204
-15.9765
-17.8823
-17.7099
-10.5888
-19.5384
-7.27639
-17.8509
-4.28193
-15.4448
-1.2723
-12.365
2.01316
-8.33081
5.63673
-2.86162
9.86079
3.82648
15.2509
12.2619
21.1138
23.0557
28.5535
35.8256
41.6056
47.4354
58.3943
61.9841
76.7153
81.5765
100.027
104.275
131.343
134.636
172.069
167.204
226.206
199.504
301.97
248.748
384.313
29.9355
50.0418
34.0025
42.9626
30.1133
38.1217
25.4849
35.6551
22.5232
33.8158
21.4257
31.9809
21.6358
29.3338
23.5919
25.5012
26.8383
21.4659
28.6505
19.3898
29.4947
18.6038
29.6406
18.1579
29.7591
17.7781
29.8595
17.5754
29.4522
18.0494
28.3126
19.457
26.0535
22.0564
22.5973
25.2254
19.1852
26.8144
17.54
27.5539
16.6651
27.9331
16.1624
28.1018
16.0497
27.6612
16.7933
26.4487
18.5251
24.3002
21.1428
21.2858
24.4475
18.225
26.193
16.8592
27.0954
16.1819
27.6105
15.7849
27.8609
15.6798
27.4406
16.3307
26.1998
17.8625
24.0097
20.1633
20.9747
23.0572
17.8453
24.5423
16.0346
25.4889
15.0083
25.9877
14.3245
26.1856
14.0402
25.7128
14.6123
24.4447
16.158
22.2566
18.5615
19.2412
21.653
16.1066
23.4189
14.2454
24.7305
13.0907
25.5779
12.3694
25.7926
12.2565
25.4627
12.6842
24.5325
13.629
23.0546
14.8904
21.0543
16.869
18.0598
19.6032
14.3927
21.2782
11.915
22.1698
10.2791
21.8934
9.35793
20.8502
8.52591
19.2441
7.74394
16.7069
7.41137
12.8851
7.6563
7.53948
7.94912
1.49327
6.3263
-3.50186
3.48546
-7.97182
-0.696556
-12.3787
-5.61845
-16.8049
-10.8562
-20.8732
-16.2187
-23.7826
-21.7227
-24.8403
-27.2368
-24.7398
-31.7011
-23.988
-33.7545
-22.4726
-33.8342
-20.5706
-32.4279
-18.6336
-29.991
-16.8928
-26.9385
-15.6964
-23.2111
-15.4362
-18.3704
-16.3708
-12.6781
-17.4784
-8.29068
-17.0381
-4.4947
-15.298
-1.12144
-12.4764
2.18588
-8.44079
5.72129
-3.09766
9.34614
4.01237
14.1852
12.5302
20.8987
22.4292
30.2112
33.8906
41.5265
48.0464
56.6599
64.6051
76.0459
84.049
101.662
109.035
135.571
141.066
182.301
178.535
244.165
223.343
320.902
295.516
389.322
14.9623
32.8302
24.7955
36.7201
25.5453
35.2993
24.4058
32.9195
23.6121
30.5403
23.5701
28.3633
24.3915
25.6823
26.1577
22.8502
27.9425
21.2807
27.5405
21.0767
27.0023
21.1558
26.7155
20.9674
26.6645
20.8193
26.4999
21.0424
25.7276
21.8018
24.4268
23.1456
22.5081
24.9946
20.4134
26.4082
19.3632
25.8765
19.3015
25.4286
19.1214
25.1938
19.0357
24.8687
19.3896
23.9753
20.3539
22.661
21.8611
21.0214
23.6303
19.2614
25.2806
18.4809
25.0256
18.6647
24.84
18.6848
24.8226
18.7314
24.6472
19.1292
23.8271
20.0347
22.5188
21.3749
20.8368
22.8797
18.987
24.246
17.9755
23.9016
17.5978
23.6332
17.3515
23.42
17.1955
23.0561
17.4466
22.091
18.2742
20.6947
19.618
18.9795
21.2141
17.1406
22.7597
16.1552
22.6679
15.8002
22.7059
15.5944
22.7198
15.6489
22.3078
16.0134
21.6542
16.6256
20.7187
17.4569
19.5779
18.3588
18.0661
19.754
16.0881
21.2627
14.5169
21.026
13.8333
20.4776
13.4773
19.3795
13.1929
18.1078
12.6656
16.5077
12.0631
14.13
11.7361
10.7289
11.4355
6.70249
10.6889
3.77506
6.55873
0.400419
2.28948
-3.30345
-2.43681
-7.48165
-7.63692
-11.9523
-13.2031
-16.4163
-18.8771
-20.3285
-24.2111
-23.0565
-28.6278
-24.8801
-32.2277
-26.6342
-33.0218
-26.7989
-32.3594
-25.7943
-30.4158
-24.1925
-27.562
-22.5007
-24.2664
-21.1792
-20.6428
-20.5698
-16.5997
-20.1838
-12.9314
-18.7284
-10.8017
-16.6496
-8.7058
-14.1896
-6.4952
-11.3041
-3.89108
-7.84563
-0.718409
-3.56736
3.13448
1.79815
7.72855
8.61004
14.0027
16.556
22.0908
26.3278
32.8979
36.9395
46.4795
49.5341
62.9769
64.204
82.8205
81.1579
107.932
102.056
140.284
124.854
184.926
147.908
223.969
199.236
271.655
10.7975
35.5608
23.2372
35.3413
26.0906
34.5871
25.6371
32.9616
24.7187
30.8466
24.5045
28.7984
24.9439
26.5427
25.8777
24.4015
26.6562
23.1535
26.648
22.2721
26.7167
21.6629
26.7899
21.2389
26.7416
21.097
26.4647
21.3297
25.8064
21.914
24.7631
22.8962
23.2989
24.0967
21.7872
24.8921
20.9052
24.9325
20.19
25.0658
19.6149
25.0294
19.4092
24.7175
19.6857
24.0276
20.3916
23.0396
21.4866
21.8181
22.7778
20.5347
23.844
19.8982
24.1449
19.4409
24.5207
19.0845
24.6861
19.021
24.5096
19.3462
23.879
20.0007
22.8781
20.9478
21.5858
22.0217
20.1579
22.8482
19.2712
23.0248
18.4558
23.2
17.8707
23.188
17.5857
22.8681
17.7407
22.126
18.2966
21.0558
19.2288
19.7364
20.3703
18.323
21.3639
17.4574
21.7658
16.6755
22.188
16.1518
22.3599
16.0098
22.1746
16.1398
21.7282
16.5254
20.9926
17.1258
20.0133
17.9122
18.6493
18.968
17.0448
19.8626
15.8464
19.9383
14.8157
19.8019
14.053
19.1929
13.4278
18.2103
12.8693
16.7163
12.3789
14.4317
12.0938
11.5134
11.4675
8.27613
9.52374
5.2168
6.99022
1.88463
3.27314
-1.81079
-1.25579
-5.85262
-6.47946
-10.3116
-12.0353
-14.9387
-17.5586
-19.1981
-22.5041
-23.1407
-26.6434
-26.0513
-29.767
-27.3697
-31.3889
-26.9989
-31.5611
-25.5494
-30.1179
-23.8897
-27.3271
-22.0596
-24.1176
-20.5731
-20.6638
-19.6415
-17.4683
-18.2184
-14.3265
-16.8363
-11.777
-15.4101
-9.06377
-13.5084
-6.29098
-11.144
-3.55122
-7.92126
-0.337134
-3.67363
3.53131
1.66979
8.52413
8.00522
15.0209
15.7919
23.2697
25.3318
33.9695
37.241
47.5709
51.8196
65.0722
69.0151
87.9686
89.5735
116.655
114.819
156.138
142.002
201.634
180.143
240.812
229.186
274.809
9.34482
25.1217
18.321
29.0088
22.1674
30.3279
23.6753
29.6516
24.2879
28.1415
24.78
26.423
25.5347
24.604
26.3656
23.1478
26.7043
22.629
26.1407
22.5585
25.6123
22.5739
25.26
22.5572
24.9722
22.6727
24.5541
23.0608
23.8355
23.7003
22.8679
24.5286
21.7524
25.2799
20.888
25.4211
20.6749
24.7679
20.6743
24.1983
20.6559
23.6454
20.7904
22.9981
21.2342
22.144
21.9611
21.1951
22.8613
20.3027
23.694
19.6612
24.1086
19.7083
23.7748
19.9826
23.5268
20.2062
23.2646
20.5223
22.8327
21.0571
22.0984
21.7706
21.1707
22.5599
20.1952
23.2127
19.3782
23.4203
19.1073
22.9371
18.9751
22.4536
18.9197
21.9333
18.9996
21.2661
19.3551
20.3412
19.9611
19.2831
20.7295
18.246
21.4505
17.4279
21.8176
17.2187
21.5501
17.1966
21.3026
17.2998
20.9698
17.5894
20.4609
18.0029
19.8463
18.5154
19.1164
19.091
18.3043
19.6975
17.3409
20.3548
16.3936
20.6649
15.9096
20.1306
15.6997
19.3638
15.6134
18.3172
15.4735
17.1109
15.1734
15.656
14.7473
13.6478
14.2022
11.2628
13.2176
8.90426
11.1931
6.39652
8.07015
3.36933
4.13096
-0.0777478
-0.548129
-4.13707
-5.84804
-8.82346
-11.6351
-13.909
-17.6005
-19.0494
-23.12
-23.6828
-27.7155
-27.693
-31.091
-30.0956
-32.838
-30.4341
-32.6208
-29.6682
-30.4315
-28.0763
-27.1392
-25.9482
-23.756
-23.8322
-20.6963
-22.182
-17.7758
-20.5927
-15.4805
-18.4379
-13.5843
-16.3981
-11.8342
-14.3167
-9.81953
-12.2194
-7.37907
-9.77603
-4.63165
-6.43526
-1.44863
-2.14208
2.70521
3.06192
8.07743
9.43055
14.9441
17.062
23.6766
25.9736
34.5859
36.0861
48.9122
47.0385
66.0793
60.7317
87.5302
75.9361
115.502
93.7021
143.41
122.098
171.15
162.187
204.552
10.5882
29.5562
18.8209
30.1548
23.0086
30.3722
24.7326
29.884
25.257
28.6917
25.53
27.0752
25.9926
25.5314
26.3066
24.3941
26.1978
23.9565
25.6774
23.6034
25.375
23.2544
25.2103
23.0093
24.9922
23.0177
24.6083
23.314
24.0173
23.7811
23.2837
24.3188
22.5
24.7145
21.9155
24.5992
21.7879
24.1354
21.5639
23.819
21.301
23.4473
21.2666
22.9283
21.5506
22.2638
22.0475
21.581
22.6322
20.9815
23.1301
20.595
23.3344
20.6637
23.1804
20.7025
23.1804
20.6916
23.0838
20.8498
22.7634
21.2405
22.2021
21.7464
21.5154
22.2559
20.8265
22.6255
20.2379
22.6334
20.0492
22.318
19.7714
22.0558
19.5311
21.7031
19.4682
21.165
19.6737
20.4289
20.0487
19.6248
20.5064
18.872
20.8843
18.3029
21.0276
18.1529
20.8872
17.9747
20.8247
17.8735
20.6532
17.971
20.3159
18.1931
19.867
18.5124
19.2997
18.8954
18.6429
19.3086
17.8605
19.7161
17.1321
19.792
16.8044
19.3582
16.4941
18.8401
16.1964
18.1238
15.8364
17.2263
15.5498
15.8903
15.2742
14.1617
14.6163
12.2723
13.3353
10.2361
11.4352
7.89406
8.983
5.2325
5.47634
1.92578
1.21878
-2.06835
-3.75017
-6.73493
-9.32231
-11.9176
-15.1652
-17.3258
-20.792
-22.4838
-25.5667
-26.943
-29.2725
-29.6125
-31.3908
-30.4468
-31.8071
-29.8169
-30.2245
-28.0206
-27.2091
-25.5659
-23.8313
-23.0186
-20.8839
-20.8057
-18.3423
-19.0116
-15.8008
-17.4565
-13.7239
-15.6645
-11.4884
-13.8614
-9.02426
-12.0029
-6.56654
-9.49711
-3.8819
-6.07174
-0.524095
-1.98329
3.82467
3.00132
9.36217
9.2798
16.4946
17.1241
25.6929
26.8621
37.6655
38.2948
53.1532
52.1868
72.478
68.8238
97.1147
87.9784
126.342
112.478
154.851
143.72
180.473
175.825
203.86
7.77216
23.5471
15.5538
24.9496
19.9848
26.3903
22.4891
26.6741
24.0116
26.1703
24.9174
25.1836
25.5882
24.1801
25.9513
23.5085
25.8094
23.3954
25.2074
23.426
24.6993
23.4589
24.302
23.5318
23.9231
23.7463
23.4753
24.1278
22.9138
24.5834
22.3012
25.0077
21.7189
25.1944
21.4897
24.8258
21.5252
24.103
21.6027
23.4424
21.6529
22.7265
21.8109
21.985
22.1614
21.238
22.6202
20.6025
23.0826
20.2177
23.3598
20.1075
23.3254
20.4454
22.9503
20.8284
22.6691
21.1698
22.3384
21.5785
21.888
22.0843
21.3116
22.5912
20.7147
22.9908
20.1904
23.1663
19.9224
22.892
19.9043
22.3111
19.9177
21.72
19.9555
21.0721
20.0885
20.3371
20.3697
19.5258
20.722
18.749
21.0728
18.1572
21.261
17.8323
21.1487
17.9311
20.7475
18.1147
20.3814
18.3686
19.9514
18.7292
19.444
19.1267
18.9161
19.5328
18.3694
19.9133
17.8365
20.2298
17.3014
20.4339
16.9423
20.2433
16.8963
19.6026
16.9539
18.8396
17.014
17.9202
16.9826
16.8884
16.7593
15.6558
16.3896
14.1892
15.6996
12.5624
14.512
10.8266
12.5846
8.70833
9.82022
6.18045
6.32651
2.99857
2.02522
-0.957425
-3.08453
-5.77816
-8.93588
-11.383
-15.235
-17.491
-21.5734
-23.5324
-27.3062
-28.9332
-31.7083
-32.7506
-34.1686
-34.0704
-34.2525
-33.3543
-32.1926
-31.1482
-28.8162
-28.0939
-25.1712
-25.0521
-21.8521
-22.6855
-18.9234
-20.8617
-16.9418
-18.8234
-15.303
-16.9933
-13.7321
-15.287
-11.9531
-13.724
-9.97719
-11.9679
-7.87166
-9.43784
-5.21712
-6.26372
-1.83741
-2.2944
2.4917
2.58084
8.032
8.514
15.0514
15.4893
24.4241
23.2578
36.6701
31.9965
51.3768
42.573
69.6528
55.2054
89.126
74.3256
109.254
100.284
132.397
129.775
158.134
11.8973
26.8582
17.4309
27.4129
21.3126
27.5694
23.6282
27.3454
24.9413
26.818
25.5377
25.9333
26.0221
25.0422
26.0944
24.4841
25.7175
24.3885
25.0548
24.2903
24.5792
24.1396
24.2436
24.043
23.9216
24.1201
23.5506
24.3793
23.1252
24.6897
22.6967
24.9372
22.373
24.847
22.2852
24.4582
22.4093
23.7662
22.4202
23.1613
22.3575
22.5809
22.3682
21.9633
22.5503
21.3689
22.8225
20.9346
23.0194
20.7253
23.1063
20.7448
22.9516
21.0855
22.6072
21.3867
22.4101
21.6023
22.1798
21.8825
21.8417
22.2535
21.4129
22.6105
20.9891
22.8477
20.6858
22.8009
20.5411
22.5223
20.617
21.9686
20.6031
21.4672
20.5643
20.9234
20.5955
20.3015
20.7497
19.6272
20.932
19.0225
21.0612
18.6117
20.9989
18.4471
20.7429
18.6059
20.3348
18.7325
20.0268
18.8722
19.6906
19.0956
19.2972
19.3504
18.8882
19.6057
18.4665
19.829
18.0653
19.9754
17.6821
19.9937
17.4543
19.7364
17.5088
19.1206
17.5611
18.4855
17.5575
17.7696
17.45
16.9838
17.3079
15.9825
16.9268
14.8136
16.2118
13.6177
14.9769
12.2485
13.3173
10.5452
11.0562
8.34536
8.03693
5.47929
4.2113
1.76511
-0.435214
-2.90155
-5.9178
-8.53779
-12.0752
-14.8385
-18.5641
-21.2981
-24.6714
-27.161
-29.7439
-31.5105
-33.0152
-33.875
-34.1365
-33.8866
-33.0287
-31.7817
-29.8476
-28.2694
-25.7571
-24.6632
-21.9955
-21.9116
-19.1956
-19.9547
-16.9786
-18.2736
-15.0934
-16.5054
-13.1396
-14.7171
-11.0243
-13.1414
-8.96205
-11.2876
-6.77058
-8.82273
-4.10452
-5.80963
-0.677687
-2.03252
3.74887
2.75157
9.47159
8.84948
17.0771
15.9128
27.4288
24.4496
40.5847
35.2273
56.5926
48.2197
75.4477
65.2916
94.7828
86.91
114.739
110.389
134.668
133.13
153.379
8.71828
22.7187
14.5054
23.4495
18.7617
24.1288
21.6601
24.494
23.4987
24.5057
24.5839
24.2849
25.1999
23.9205
25.405
23.7262
25.1461
23.8415
24.5371
23.9731
24.0221
24.0467
23.5968
24.1559
23.2099
24.3769
22.8319
24.685
22.4643
24.9854
22.1445
25.1429
21.9508
25.0892
21.917
24.5898
22.1345
23.8176
22.2548
23.0185
22.363
22.1772
22.4436
21.4106
22.6471
20.7548
22.8467
20.4187
22.9662
20.3077
22.9971
20.4352
22.7999
20.9136
22.3986
21.389
22.0995
21.802
21.7773
22.2277
21.3945
22.6636
20.9798
23.0141
20.6397
23.1366
20.444
23.0698
20.3513
22.6485
20.5069
21.9621
20.6125
21.2817
20.6869
20.5838
20.7936
19.8609
20.9556
19.1731
21.0754
18.625
21.0913
18.2803
21.0266
18.1516
20.6877
18.4156
20.1916
18.7262
19.7681
19.0636
19.3248
19.4472
18.8576
19.8104
18.4233
20.1232
18.0331
20.3506
17.7257
20.4473
17.4907
20.3958
17.4047
20.031
17.593
19.342
17.8176
18.6158
17.9883
17.8106
18.0571
16.9287
17.9256
16.024
17.5458
15.0585
16.8027
14.02
15.6758
12.7017
14.0572
11.0093
11.7919
8.92512
8.79527
6.20885
4.98185
2.56976
0.292476
-2.17005
-5.31611
-8.05573
-11.8787
-14.87
-19.0909
-22.1664
-26.3
-29.1019
-32.5519
-34.6221
-36.608
-37.5024
-37.678
-37.2926
-35.7997
-34.609
-31.8551
-30.5058
-27.091
-26.2243
-22.8154
-22.9234
-19.5184
-20.9015
-17.6881
-19.1134
-16.3308
-17.6364
-15.1067
-16.1754
-13.6109
-15.0388
-11.9698
-13.9374
-10.3194
-12.1492
-8.27025
-9.83574
-5.64879
-6.90199
-2.21705
-3.27895
2.14277
1.10549
8.17426
5.96616
16.0174
11.7122
25.9563
18.4753
38.1113
27.2909
50.5952
40.7718
64.9128
58.0648
81.9178
78.666
101.521
100.943
122.146
12.9085
26.062
17.2301
25.9002
20.5508
25.835
22.8543
25.6209
24.2982
25.3457
25.1357
24.9788
25.587
24.6633
25.6318
24.4741
25.2286
24.5891
24.5628
24.6479
24.0223
24.6381
23.5722
24.631
23.2053
24.7202
22.9049
24.914
22.6634
25.0959
22.4923
25.1437
22.4441
24.9978
22.5984
24.4035
22.9124
23.6227
23.0106
22.9524
22.9973
22.1778
23.002
21.4123
23.1023
20.8876
23.1406
20.7001
23.0465
20.6704
22.9217
20.8285
22.6405
21.3029
22.2177
21.7589
21.929
22.1131
21.6513
22.4561
21.3475
22.7904
21.0485
23.03
20.8493
23.0786
20.7602
22.954
20.825
22.4855
21.0697
21.8193
21.1923
21.1892
21.2414
20.5337
21.2937
19.8815
21.3616
19.2818
21.392
18.8573
21.2643
18.5936
20.9317
18.5928
20.4878
18.8974
19.9514
19.1803
19.5228
19.4549
19.1129
19.7518
18.709
20.0201
18.3516
20.2234
18.0518
20.3285
17.8491
20.3141
17.7065
20.1447
17.7419
19.7245
18.0112
19.0531
18.267
18.3963
18.4574
17.716
18.5322
17.0693
18.3867
16.4143
17.9976
15.7491
17.3277
14.9835
16.382
14.0039
15.0442
12.7864
13.1298
11.1677
10.5331
8.84436
7.2518
5.50012
3.13168
0.971093
-2.06383
-4.77228
-8.43513
-11.6942
-15.7566
-19.4201
-23.4391
-27.1027
-30.4875
-33.4638
-35.7516
-37.633
-38.4169
-38.983
-38.0233
-37.0979
-34.3122
-32.3444
-28.778
-26.9778
-23.3887
-23.0933
-19.952
-20.7378
-17.8813
-19.0141
-16.1452
-17.2496
-14.4565
-15.4514
-12.6169
-14.1412
-10.857
-13.0022
-9.30632
-11.3563
-7.4249
-9.42917
-4.93786
-6.91771
-1.66947
-3.60371
2.73874
0.436799
9.08193
5.112
17.5252
11.0662
27.9878
19.1804
39.4383
30.9873
52.004
45.5568
66.3745
62.2251
82.0319
80.0262
98.2615
97.7892
114.043
9.43786
22.7794
14.6173
22.6254
18.4406
23
21.1146
23.3582
22.9403
23.5539
24.0641
23.6803
24.676
23.7403
24.8867
23.8608
24.6399
24.1234
24.0465
24.3372
23.4921
24.4669
23.0451
24.5675
22.6743
24.7427
22.3926
24.9376
22.2424
25.1045
22.1505
25.1879
22.1562
25.0406
22.3418
24.5015
22.667
23.7006
22.8282
22.9165
22.8486
22.0851
22.7867
21.2652
22.761
20.6274
22.7428
20.3522
22.7351
20.3282
22.6943
20.6203
22.4347
21.2008
22.0182
21.7626
21.7112
22.2295
21.4202
22.6494
21.1213
23.0151
20.8411
23.2424
20.6773
23.2669
20.6549
23.0666
20.7674
22.562
21.0187
21.8178
21.1761
21.1079
21.2124
20.4063
21.2377
19.7145
21.2673
19.0808
21.258
18.618
21.123
18.3614
20.8152
18.395
20.3611
18.7434
19.796
19.1423
19.3379
19.5415
18.9008
19.9423
18.4782
20.2767
18.129
20.5142
17.866
20.6226
17.7166
20.5825
17.6917
20.3866
17.786
19.9464
18.0985
19.2389
18.4434
18.5421
18.7131
17.8263
18.8687
17.1607
18.7461
16.5957
18.3777
16.016
17.7863
15.3094
16.9283
14.4318
15.6276
13.322
13.727
11.8682
11.3114
9.66005
8.27881
6.45068
4.33471
2.09481
-0.821394
-3.63454
-7.34656
-10.8185
-15.2063
-19.21
-23.9468
-28.0453
-32.5236
-36.0183
-39.1094
-41.1882
-42.2049
-42.4694
-41.1396
-39.8444
-36.6654
-34.3089
-29.9207
-27.8085
-23.6035
-22.646
-19.3272
-20.4269
-17.7136
-19.2269
-16.8339
-18.2679
-16.0143
-17.0553
-14.741
-16.0918
-13.481
-15.3406
-12.2854
-14.1562
-10.6517
-12.7024
-8.56003
-10.7374
-5.8802
-8.27796
-2.31903
-5.52488
2.75322
-2.44126
8.98331
1.68523
16.1348
7.758
23.844
16.3553
33.1583
27.6147
44.689
41.4934
58.7715
57.7144
74.9521
75.1923
92.1099
14.5811
25.6947
17.9723
24.8776
20.5151
24.5784
22.3646
24.4766
23.7402
24.3104
24.5926
24.2504
25.054
24.2819
25.1022
24.3841
24.7642
24.6709
24.1517
24.8438
23.6031
24.9361
23.0325
24.9781
22.6453
25.0261
22.4788
25.088
22.4088
25.2109
22.3869
25.288
22.5477
25.0391
22.8789
24.3956
23.3659
23.5372
23.5337
22.8685
23.5128
22.1
23.396
21.3072
23.2856
20.7831
23.118
20.5747
22.9538
20.5431
22.7258
20.8191
22.377
21.3872
21.911
21.9586
21.5814
22.4106
21.3034
22.7891
21.0542
23.0944
20.8629
23.2449
20.7969
23.2571
20.8719
23.033
21.1007
22.5169
21.4653
21.8034
21.6839
21.0933
21.7264
20.4202
21.7308
19.7612
21.7056
19.2077
21.5857
18.863
21.3116
18.6226
20.8419
18.7137
20.2813
19.0811
19.665
19.4502
19.1655
19.8133
18.7225
20.1645
18.3287
20.4413
18.0229
20.6083
17.8188
20.6422
17.7423
20.5215
17.7729
20.2535
17.9655
19.762
18.371
19.0692
18.7555
18.4132
19.0587
17.7899
19.2106
17.2931
19.0693
16.9388
18.7206
16.571
18.2169
16.1082
17.4915
15.5656
16.3859
14.902
14.8284
13.7556
12.8848
11.8658
10.3902
9.05468
6.95095
5.06156
2.25672
-0.420528
-4.01303
-7.60676
-11.9533
-16.3728
-21.1929
-26.0773
-30.7544
-35.2833
-38.8928
-42.1006
-44.0507
-45.5773
-45.3127
-44.7951
-41.673
-39.0781
-33.9038
-30.7011
-25.492
-24.0722
-20.218
-20.6762
-18.1514
-19.1858
-16.8426
-17.5572
-15.2366
-15.7986
-13.9239
-14.6529
-12.5779
-14.1447
-11.57
-13.3687
-10.4647
-12.4909
-8.87193
-11.3236
-6.48317
-9.60506
-3.16002
-7.58066
1.65152
-4.67658
7.45789
-0.0829264
14.0233
6.74364
21.9108
15.5199
31.1517
26.2818
42.0178
38.8754
54.3448
52.7936
67.8519
67.3829
81.5907
11.1295
23.0289
15.6372
22.4076
18.8412
22.4298
21.1258
22.683
22.7458
22.9496
23.6739
23.2934
24.2033
23.6262
24.44
23.9721
24.2648
24.3385
23.7443
24.5752
23.2258
24.7203
22.6781
24.7845
22.2555
24.9209
22.1095
24.9672
22.0798
25.1136
22.1104
25.2155
22.3088
25.023
22.6884
24.4853
23.1641
23.6625
23.5165
22.864
23.424
22.0936
23.1923
21.2582
22.8873
20.5506
22.6466
20.2325
22.5094
20.2649
22.4685
20.6625
22.1672
21.3752
21.7282
22.0355
21.4109
22.5486
21.1581
22.9555
20.9383
23.2644
20.7623
23.4076
20.7287
23.3808
20.8458
23.1014
21.1073
22.5639
21.4859
21.7795
21.7386
21.0174
21.7164
20.3307
21.6574
19.6609
21.5739
19.0917
21.4271
18.6642
21.1451
18.4516
20.6732
18.5675
20.125
18.967
19.4956
19.4409
18.9998
19.8998
18.5644
20.3241
18.1802
20.6421
17.9023
20.8237
17.7401
20.8527
17.7125
20.7208
17.8074
20.4321
18.0409
19.9392
18.4649
19.216
18.9161
18.5377
19.2638
17.9103
19.4513
17.4421
19.3195
17.1471
19.0456
16.8212
18.6327
16.4637
17.9469
16.0835
16.8706
15.5617
15.439
14.5192
13.8002
12.8046
11.6152
10.3136
8.53952
6.70455
4.21717
1.60441
-1.77286
-5.38102
-9.77611
-14.4261
-19.7168
-25.089
-30.7907
-36.0727
-40.9736
-44.8088
-47.3331
-48.9228
-48.6043
-47.6667
-44.2431
-41.1506
-35.0524
-30.8823
-24.5988
-21.9361
-17.9486
-18.8503
-16.9685
-18.9007
-17.3729
-18.9996
-17.1236
-17.6345
-15.7185
-16.5879
-14.7702
-16.123
-13.9355
-15.4039
-12.8362
-14.4458
-11.337
-13.3675
-9.22382
-12.0916
-6.35235
-10.5944
-2.6257
-8.3293
1.46095
-4.82695
6.07154
-0.0824684
11.5757
6.40985
18.3979
14.8605
27.0015
25.3686
38.0023
37.6932
51.1293
51.3129
65.5128
16.4932
25.4443
19.1602
24.2262
20.8894
23.7793
22.2722
23.581
23.3252
23.593
24.0618
23.7155
24.4908
23.923
24.6078
24.2388
24.3568
24.6988
23.8079
24.9556
23.3099
25.0563
22.7588
25.0628
22.2628
25.0788
22.1742
25.0568
22.1707
25.1909
22.2638
25.3292
22.5813
25.0467
23.0633
24.4053
23.7333
23.4792
24.034
22.8458
24.0133
22.1265
23.8153
21.3412
23.4693
20.7597
23.0543
20.4102
22.8025
20.3167
22.5385
20.6997
22.1049
21.3997
21.5977
22.0993
21.2589
22.6302
21.018
23.0286
20.8308
23.3097
20.7106
23.4152
20.7439
23.3838
20.9635
23.1064
21.3394
22.5748
21.85
21.8216
22.1964
21.0394
22.1888
20.3641
22.099
19.7135
21.9612
19.209
21.7349
18.8574
21.3609
18.6359
20.7815
18.7653
20.1075
19.1726
19.3998
19.6286
18.842
20.077
18.3861
20.4833
18.012
20.7715
17.7566
20.9102
17.6311
20.8908
17.6539
20.705
17.8041
20.3664
18.1123
19.8231
18.6294
19.091
19.1307
18.4294
19.5062
17.8664
19.6349
17.5343
19.5285
17.328
19.3105
17.1148
18.9555
16.9417
18.357
16.7964
17.4506
16.5708
16.272
15.7753
15.0358
14.4295
13.2793
12.3571
10.7022
9.18987
6.87896
4.48599
1.26122
-2.31551
-6.70935
-11.6295
-17.1894
-23.1971
-29.4318
-35.6744
-41.5054
-46.8281
-50.6786
-53.7709
-54.8137
-55.6636
-52.936
-50.445
-43.6055
-37.8072
-29.6287
-24.8123
-19.31
-18.9499
-16.7467
-18.473
-16.4767
-17.2143
-15.8557
-15.8422
-14.8292
-14.5549
-13.7253
-14.6182
-13.1656
-14.5012
-12.9814
-14.6011
-12.3375
-14.4447
-10.9575
-13.78
-8.86992
-12.7516
-5.91211
-10.9108
-2.48666
-8.09736
1.76702
-4.03264
7.05844
1.50153
13.5542
8.58897
21.3083
17.2606
30.5404
27.8679
41.3889
40.3225
53.5084
13.2298
23.5043
17.4208
22.4303
19.8115
22.186
21.583
22.3277
22.7739
22.6387
23.4145
23.1136
23.8326
23.5791
24.0632
24.0463
23.9301
24.5668
23.4368
24.9363
22.9685
25.001
22.5105
24.9444
22.0982
24.8577
21.8826
24.8467
21.9242
24.9647
22.0125
25.1615
22.3786
25.0178
22.9579
24.4716
23.664
23.6474
24.1873
22.8602
24.1094
22.1654
23.7199
21.3764
23.1132
20.5263
22.5977
20.0827
22.3014
20.0992
22.2924
20.6312
21.8925
21.5226
21.4343
22.2833
21.1075
22.8339
20.9083
23.216
20.7715
23.4686
20.6895
23.559
20.7243
23.4762
20.9537
23.1494
21.3814
22.5736
21.9602
21.7667
22.3823
20.9563
22.2794
20.3128
22.0713
19.6803
21.8609
19.1488
21.6019
18.7414
21.2167
18.5465
20.6051
18.6995
19.9374
19.146
19.2133
19.689
18.6648
20.2105
18.2281
20.6704
17.8828
20.9771
17.6733
21.1048
17.6004
21.0623
17.6697
20.8549
17.8664
20.4938
18.2131
19.9403
18.7524
19.1874
19.3064
18.5134
19.7124
17.9635
19.8947
17.6088
19.8281
17.4607
19.642
17.3335
19.337
17.2595
18.8289
17.233
18.0207
17.1334
16.938
16.5303
15.928
15.4428
14.5272
13.7441
12.4215
11.0896
9.18094
7.02433
4.22943
0.899989
-3.17987
-8.01697
-13.6596
-20.0171
-26.9794
-34.0451
-41.0018
-47.14
-52.0983
-55.8228
-57.7121
-58.8669
-56.3388
-53.711
-46.1524
-39.1295
-28.2824
-22.0049
-14.7527
-14.5515
-13.7844
-17.5873
-18.7619
-20.0626
-18.7787
-18.0673
-16.2775
-16.6955
-15.3204
-16.6559
-15.0975
-16.2933
-14.4238
-15.7527
-13.7989
-15.4725
-12.6481
-14.9335
-10.9539
-14.2084
-8.66412
-12.9384
-6.08266
-10.9403
-3.21536
-8.19942
0.296149
-4.24212
4.85768
1.46089
10.7466
8.93609
18.3675
17.6039
28.0929
28.2531
40.4578
19.2048
24.591
20.8502
23.7943
21.549
23.2763
22.3377
23.0476
23.1045
23.0917
23.625
23.3551
23.96
23.6546
24.1757
24.1113
23.9862
24.7363
23.4864
25.15
22.979
25.2078
22.574
25.1179
22.1341
24.9983
21.9641
24.9022
21.9936
25.0866
22.0784
25.303
22.4354
25.0153
23.1201
24.3551
24.0518
23.3708
24.5475
22.7861
24.5828
22.2624
24.295
21.5822
23.7557
20.8294
23.0689
20.1763
22.6262
19.998
22.3016
20.5334
21.7332
21.4345
21.1917
22.2635
20.9002
22.821
20.742
23.2248
20.6162
23.4952
20.55
23.5895
20.6433
23.4826
20.9948
23.1443
21.5477
22.5748
22.2579
21.7985
22.8003
21.0235
22.6781
20.3844
22.4137
19.7127
22.1682
19.2529
21.8488
18.9146
21.4089
18.6906
20.7478
18.7853
19.9401
19.2316
19.1013
19.7874
18.4795
20.3322
18.0238
20.7974
17.6888
21.0905
17.4947
21.1952
17.4415
21.1319
17.5438
20.8948
17.7849
20.4895
18.2023
19.8743
18.8489
19.0584
19.4898
18.3724
19.926
17.8559
20.0874
17.5657
19.9984
17.4502
19.8303
17.3804
19.5622
17.3874
19.132
17.5137
18.4374
17.6622
17.4737
17.282
16.7235
16.4916
15.6856
15.1819
14.0719
13.0547
11.4417
9.61793
7.15156
4.12105
0.28899
-4.44693
-10.2025
-16.9898
-24.8756
-32.9801
-41.6975
-49.5204
-56.0354
-61.0679
-64.3131
-67.5247
-66.4067
-66.0537
-59.1986
-51.5548
-39.0303
-27.953
-17.295
-13.926
-11.3272
-14.6473
-13.7739
-17.1354
-17.9165
-16.459
-15.4673
-14.2042
-13.531
-14.2844
-13.9083
-15.3104
-14.4653
-16.0207
-14.8003
-16.5413
-14.3178
-16.4009
-13.1075
-15.9179
-11.3711
-15.2827
-9.39685
-13.9902
-6.93046
-11.9622
-3.78596
-9.01375
0.0649279
-4.89768
4.997
0.148494
11.0578
6.76821
18.019
15.3488
27.8204
17.3363
23.5686
19.5368
22.7774
21.2529
22.1853
22.4076
22.1345
22.923
22.5612
23.2884
23.0182
23.6015
23.4729
23.7187
24.1135
23.539
24.7916
23.0693
25.2646
22.8009
25.2852
22.4515
25.0915
22.0345
24.819
21.739
24.6896
21.6143
24.9086
21.7699
25.1697
22.2898
24.9282
23.1522
24.3002
24.1895
23.4794
24.7863
22.872
24.8175
22.277
24.2727
21.6258
23.4931
20.6246
22.7369
19.8675
22.3648
19.7612
22.1396
20.6504
21.4867
21.7573
21.039
22.5721
20.7223
23.1274
20.6167
23.4836
20.5627
23.6948
20.5406
23.7282
20.6233
23.567
20.9677
23.1474
21.6013
22.491
22.4696
21.6712
23.0959
21.0012
22.9105
20.4358
22.4993
19.7783
22.1302
19.2171
21.775
18.8436
21.371
18.668
20.6651
18.8449
19.7835
19.352
18.8642
19.9596
18.2359
20.5344
17.8099
21.0446
17.5151
21.3394
17.3906
21.3989
17.4079
21.2847
17.5698
21.0047
17.8719
20.5541
18.3457
19.904
19.0415
19.0572
19.7194
18.38
20.167
17.9049
20.3098
17.6578
20.248
17.5902
20.1219
17.5776
19.915
17.6976
19.5016
17.92
18.9354
18.1571
18.0969
17.9602
17.4978
17.4087
16.7862
16.4347
15.6073
14.794
13.5782
12.0456
10.0915
7.43553
4.14574
-0.223596
-5.62827
-12.2916
-20.4123
-29.0469
-38.6683
-47.428
-54.9457
-60.2481
-64.0352
-68.5759
-68.7207
-69.9657
-65.1796
-56.648
-40.8105
-27.4855
-11.6732
-7.22226
-6.17779
-15.7722
-19.4847
-21.6636
-20.7263
-19.5251
-16.7951
-16.0083
-15.3186
-16.7386
-15.4235
-16.5356
-14.8482
-16.2852
-15.2275
-16.9999
-15.1456
-17.1686
-14.2053
-16.9537
-12.6954
-16.3783
-11.4845
-15.5467
-10.1418
-14.6347
-8.31763
-13.4387
-6.11739
-10.3902
-3.06882
-5.43542
0.18669
-0.112343
5.9891
6.07298
15.1809
21.5509
24.4076
22.2868
23.4243
22.3974
23.0084
22.5083
22.9602
22.8622
22.8909
23.3566
23.1555
23.5818
23.582
23.6955
24.0729
23.6191
24.8159
23.0435
25.2122
22.8161
25.3605
22.526
25.307
22.1421
25.0771
21.8503
25.0115
21.6459
25.1774
21.8526
25.2301
22.1323
24.85
23.0813
24.1179
24.3473
23.1827
24.8851
22.7706
24.9294
22.5761
24.7351
22.0113
24.2545
21.032
23.2332
20.0694
22.4703
19.7594
21.8209
20.5297
21.1726
21.6772
20.6182
22.4917
20.5505
22.9228
20.5468
23.3353
20.4527
23.6689
20.3861
23.7702
20.5014
23.5548
21.0206
23.0674
21.7859
22.389
22.6896
21.6672
23.3389
21.1377
23.158
20.5439
22.6902
19.7768
22.3647
19.2919
22.0251
18.8927
21.6011
18.7435
20.7957
18.8654
19.7881
19.3893
18.7372
20.0195
18.0382
20.636
17.5904
21.1536
17.3476
21.4119
17.2516
21.4593
17.263
21.3627
17.4228
21.0785
17.7492
20.5884
18.2953
19.8611
19.1301
18.8924
19.927
18.1967
20.384
17.7687
20.4977
17.5336
20.3988
17.4561
20.2453
17.4806
20.0259