/*--------------------------------*- C++ -*----------------------------------*\
| =========                 |                                                 |
| \\      /  F ield         | OpenFOAM: The Open Source CFD Toolbox           |
|  \\    /   O peration     | Version:  4.1                                   |
|   \\  /    A nd           | Web:      www.OpenFOAM.org                      |
|    \\/     M anipulation  |                                                 |
\*---------------------------------------------------------------------------*/
FoamFile
{
    version     2.0;
    format      ascii;
    class       volScalarField;
    location    "9.5";
    object      epsilon;
}
// * * * * * * * * * * * * * * * * * * * * * * * * * * * * * * * * * * * * * //

dimensions      [0 2 -3 0 0 0 0];

internalField   nonuniform List<scalar> 
204246
(
1.72882
2.71878
3.08448
3.25903
3.32403
3.3661
3.39772
3.41967
3.41663
3.41726
3.39238
3.37547
3.33307
3.30734
3.2583
3.23283
3.19421
3.14664
3.12696
3.10029
3.07548
3.05489
3.04057
3.02956
3.03126
3.02881
3.03768
3.05164
3.06783
3.09191
3.11131
3.14169
3.16457
3.19889
3.22293
3.25871
3.2732
3.31987
3.33148
3.37079
3.38423
3.42127
3.43651
3.46661
3.48361
3.513
3.52791
3.55583
3.56922
3.59557
3.6101
3.63548
3.64823
3.6628
3.6962
3.70548
3.73296
3.74553
3.77241
3.78423
3.81234
3.82193
3.85491
3.8667
3.89665
3.91304
3.93776
3.95828
3.98194
4.00352
4.01513
4.05559
4.06682
4.09988
4.11613
4.14609
4.16566
4.19377
4.21356
4.24451
4.26933
4.29576
4.32368
4.3486
4.37869
4.40355
4.43376
4.44634
4.49613
4.50996
4.55154
4.56956
4.60881
4.62705
4.66986
4.6938
4.73104
4.76125
4.79483
4.82837
4.85891
4.89749
4.92813
4.96723
4.99888
5.03753
5.05982
5.1217
5.13983
5.19588
5.21608
5.27551
5.30243
5.35451
5.39263
5.43867
5.47873
5.52584
5.56853
5.61612
5.6625
5.71012
5.75933
5.79082
5.87072
5.89476
5.96999
5.99906
6.07288
6.10721
6.17957
6.21713
6.28969
6.33015
6.40363
6.44675
6.52053
6.56642
6.64153
6.69006
6.74677
6.83304
6.87605
6.96101
7.00625
7.09232
7.13825
7.22656
7.27292
7.36348
7.40989
7.5027
7.54872
7.64401
7.68973
7.78783
7.83325
7.9097
7.99932
8.05406
8.14462
8.19767
8.29112
8.34189
8.43847
8.48645
8.58737
8.63163
8.73737
8.77865
8.89113
8.92854
9.04978
9.08443
9.21897
9.24783
9.37084
9.46444
9.54968
9.67068
9.75124
9.90162
9.98667
10.1705
10.2717
10.4943
10.6263
10.8937
11.071
11.3588
11.5433
11.7019
11.7222
2.10062
2.12228
1.83989
1.47424
1.23718
1.11989
1.07485
0.980962
0.886075
0.825353
0.81248
0.773042
0.758329
0.737664
0.74578
0.740394
0.753957
0.755975
0.761557
0.769004
0.764441
0.763604
0.754878
0.748748
0.739037
0.735674
0.729141
0.728387
0.72547
0.731355
0.738499
0.752416
0.758504
0.775916
0.774747
0.796261
0.798188
0.804881
0.822573
0.819318
0.834924
0.832697
0.845752
0.84258
0.854039
0.848413
0.861412
0.855118
0.868687
0.86248
0.874104
0.870719
0.885233
0.883317
0.881818
0.896569
0.891049
0.905576
0.90259
0.917788
0.915115
0.930425
0.92601
0.942418
0.937369
0.954184
0.94925
0.966262
0.964219
0.983515
0.983084
0.986885
1.00399
1.00255
1.02169
1.02003
1.03987
1.03822
1.05904
1.05608
1.07778
1.07365
1.09598
1.09199
1.11464
1.11377
1.13952
1.14088
1.14944
1.17072
1.17076
1.19611
1.19576
1.22253
1.22088
1.24886
1.24611
1.27444
1.27131
1.30155
1.29951
1.33035
1.33195
1.36356
1.36543
1.40014
1.40201
1.42751
1.45366
1.45769
1.49393
1.49552
1.53436
1.53441
1.5753
1.57567
1.61927
1.62281
1.66748
1.67205
1.71735
1.72151
1.7729
1.78092
1.81409
1.85395
1.8609
1.91492
1.92317
1.97805
1.98606
2.04514
2.05492
2.11649
2.12742
2.19213
2.20408
2.27207
2.28547
2.35993
2.37728
2.42791
2.48895
2.50498
2.58402
2.60189
2.68398
2.70273
2.78836
2.80831
2.89782
2.91925
3.01048
3.03202
3.12728
3.1503
3.25429
3.28203
3.35012
3.43521
3.45978
3.56159
3.58576
3.68828
3.71245
3.81382
3.83721
3.93676
3.95858
4.05522
4.07585
4.16918
4.18818
4.28068
4.30421
4.39152
4.41314
4.45038
4.51818
4.52249
4.58859
4.58559
4.63615
4.62623
4.66178
4.64602
4.68198
4.66988
4.80795
4.93393
5.41212
5.69687
5.84232
1.76352
1.59615
1.08521
0.747439
0.621967
0.560617
0.534108
0.519382
0.51583
0.514968
0.525635
0.543599
0.564754
0.584876
0.614692
0.643386
0.672959
0.697599
0.724078
0.745623
0.761376
0.767644
0.770303
0.7704
0.76912
0.763452
0.75733
0.748305
0.742985
0.737173
0.735471
0.733247
0.733523
0.733367
0.736423
0.739078
0.743928
0.747045
0.753573
0.757086
0.763707
0.768317
0.774119
0.779702
0.784778
0.790567
0.795646
0.801954
0.806996
0.813818
0.818981
0.826212
0.831672
0.839323
0.844015
0.852203
0.857052
0.864743
0.870404
0.877458
0.883834
0.890399
0.897273
0.903455
0.910972
0.916982
0.924968
0.931201
0.93986
0.946388
0.955281
0.961244
0.97047
0.976874
0.985937
0.993238
1.00214
1.01039
1.01917
1.02798
1.03665
1.04614
1.05484
1.06505
1.0741
1.08517
1.09462
1.10603
1.11477
1.12663
1.13578
1.14762
1.15789
1.16965
1.18053
1.1921
1.20362
1.21531
1.22759
1.2397
1.25258
1.2647
1.2781
1.29094
1.30504
1.31856
1.3327
1.34549
1.36039
1.37296
1.38851
1.40114
1.41732
1.43002
1.44687
1.45971
1.47739
1.49043
1.50871
1.52162
1.54075
1.55388
1.57451
1.58705
1.60529
1.62127
1.63625
1.65539
1.6683
1.68911
1.70056
1.7232
1.73314
1.75659
1.76586
1.78929
1.79807
1.82159
1.8301
1.85373
1.86171
1.87898
1.89335
1.90174
1.91983
1.92431
1.94166
1.94449
1.9595
1.96049
1.97301
1.97216
1.9801
1.97646
1.9809
1.97432
1.97799
1.96458
1.95765
1.95377
1.93164
1.9298
1.89924
1.89488
1.85841
1.85188
1.81057
1.8028
1.75801
1.74936
1.70152
1.69246
1.64194
1.63243
1.58295
1.57402
1.52092
1.49728
1.47823
1.43672
1.43099
1.38562
1.38115
1.33885
1.33642
1.30112
1.30262
1.28369
1.29348
1.2821
1.29007
1.17645
1.13406
1.34792
1.17222
0.738713
0.515393
0.452951
0.434216
0.432229
0.436049
0.449608
0.466116
0.487393
0.515658
0.549177
0.583568
0.619704
0.658945
0.698881
0.738083
0.776617
0.814285
0.848753
0.872459
0.889912
0.898861
0.903549
0.904455
0.905148
0.904406
0.904731
0.903348
0.903654
0.901792
0.902286
0.901138
0.90282
0.90259
0.906773
0.909163
0.911688
0.91721
0.919241
0.925778
0.928199
0.935067
0.937538
0.944514
0.946687
0.953933
0.956202
0.964164
0.967049
0.975229
0.978475
0.987374
0.992211
0.99808
1.00551
1.00982
1.0182
1.02181
1.03041
1.03396
1.04251
1.04573
1.05428
1.05747
1.06615
1.06963
1.07816
1.08179
1.09044
1.09517
1.10142
1.10765
1.11271
1.11999
1.12444
1.13246
1.13649
1.1449
1.14861
1.15716
1.16093
1.16971
1.17377
1.18254
1.18673
1.19527
1.20033
1.20716
1.21313
1.21931
1.22599
1.23174
1.23894
1.2442
1.25181
1.25686
1.26466
1.2697
1.27736
1.28243
1.28976
1.29522
1.3022
1.30789
1.31415
1.31964
1.32541
1.33032
1.3362
1.34017
1.34635
1.34918
1.35554
1.35736
1.36333
1.365
1.37012
1.3712
1.3757
1.37603
1.38
1.37961
1.37982
1.38095
1.37897
1.38008
1.37607
1.37667
1.3705
1.37056
1.36188
1.3611
1.34988
1.34816
1.33423
1.33134
1.31502
1.31121
1.29037
1.28053
1.26597
1.24692
1.23653
1.21011
1.20126
1.17014
1.15993
1.12585
1.11439
1.07742
1.0647
1.02508
1.01122
0.96996
0.95565
0.910693
0.889316
0.8573
0.825024
0.802616
0.762317
0.747165
0.704624
0.690011
0.649394
0.635778
0.598915
0.586581
0.553473
0.542718
0.513488
0.504349
0.478805
0.471168
0.448882
0.439044
0.425418
0.413406
0.405441
0.391273
0.38731
0.373208
0.370004
0.360969
0.360756
0.360514
0.374232
0.386478
0.409369
0.416988
0.422709
1.05987
0.918991
0.573028
0.415266
0.376285
0.367814
0.37024
0.385061
0.408446
0.430764
0.459118
0.499746
0.550511
0.598345
0.643874
0.691069
0.74091
0.789104
0.837294
0.887899
0.940521
0.982373
1.00502
1.01162
1.01342
1.01029
1.00271
0.995745
0.994425
0.994685
1.00212
1.00755
1.0165
1.02246
1.02838
1.03061
1.03627
1.0391
1.04351
1.04758
1.05109
1.0547
1.05713
1.06149
1.0638
1.06734
1.06833
1.07098
1.07139
1.07393
1.07461
1.07754
1.07859
1.08212
1.08393
1.0867
1.08994
1.09221
1.09627
1.09826
1.10261
1.10459
1.10866
1.11045
1.11413
1.11577
1.11915
1.12074
1.12381
1.12532
1.12809
1.12962
1.13155
1.13318
1.13459
1.13624
1.13743
1.13899
1.14002
1.14135
1.14239
1.14333
1.14428
1.14481
1.1458
1.1459
1.1467
1.14647
1.14629
1.14638
1.14536
1.14557
1.14401
1.1441
1.14165
1.14186
1.1387
1.13879
1.13486
1.1348
1.12984
1.12919
1.12388
1.12286
1.1167
1.11535
1.10692
1.10329
1.0981
1.0906
1.08707
1.07642
1.07371
1.06088
1.05756
1.043
1.03855
1.02321
1.01788
1.00111
0.995125
0.976828
0.970395
0.94939
0.939275
0.923612
0.907266
0.895023
0.873442
0.863962
0.839
0.82986
0.803354
0.793756
0.766334
0.756418
0.72823
0.717977
0.689496
0.679126
0.649422
0.635301
0.613375
0.593517
0.577023
0.552718
0.541207
0.514732
0.505005
0.478943
0.469696
0.445036
0.43637
0.413345
0.405396
0.384383
0.377296
0.357663
0.34875
0.336141
0.325103
0.317406
0.305186
0.300983
0.289808
0.286516
0.277527
0.275081
0.268014
0.266274
0.261029
0.260002
0.256451
0.256119
0.25409
0.254378
0.253667
0.253835
0.255698
0.255954
0.258938
0.259634
0.262624
0.263287
0.265622
0.266025
0.26932
0.270635
0.277878
0.282709
0.291751
0.295392
0.298002
0.871411
0.760901
0.48408
0.353407
0.320698
0.313386
0.315284
0.329832
0.35614
0.384521
0.421959
0.476249
0.546896
0.612202
0.666659
0.71469
0.769205
0.828421
0.888911
0.948053
1.01157
1.07381
1.12895
1.15347
1.16145
1.15872
1.13551
1.09165
1.05095
1.0304
1.02326
1.02165
1.02962
1.04726
1.06293
1.07182
1.08195
1.08939
1.09598
1.10118
1.10735
1.11021
1.11255
1.11439
1.11549
1.11589
1.11566
1.11491
1.11198
1.10895
1.10465
1.10148
1.09725
1.0941
1.09028
1.08728
1.08465
1.08208
1.07993
1.07776
1.07623
1.07459
1.07307
1.0718
1.06943
1.06842
1.06507
1.06398
1.06006
1.05867
1.05376
1.05101
1.0474
1.04276
1.03999
1.03381
1.03145
1.02426
1.02162
1.01345
1.01088
1.00168
0.998791
0.988706
0.98525
0.974831
0.970963
0.959134
0.953049
0.944211
0.9351
0.927954
0.916338
0.910372
0.896592
0.891771
0.876651
0.871579
0.85579
0.850485
0.83398
0.828041
0.811488
0.805097
0.787973
0.781314
0.762367
0.753492
0.738622
0.725624
0.713266
0.696375
0.687109
0.666858
0.659363
0.637521
0.629362
0.607801
0.599269
0.577661
0.569099
0.547578
0.539085
0.516696
0.506168
0.489396
0.475048
0.462511
0.44505
0.436249
0.417309
0.410145
0.391493
0.384725
0.36715
0.360861
0.344401
0.338543
0.323349
0.317991
0.303485
0.296806
0.287118
0.278668
0.27214
0.262344
0.258565
0.248758
0.245442
0.236666
0.233758
0.226025
0.223503
0.216792
0.214659
0.208888
0.2071
0.202004
0.199767
0.19694
0.194283
0.192807
0.190148
0.18939
0.187305
0.186861
0.185491
0.185363
0.184786
0.184996
0.184932
0.185984
0.186233
0.188074
0.188726
0.191309
0.192381
0.19552
0.197532
0.201039
0.203988
0.207882
0.211779
0.216133
0.221012
0.225844
0.231636
0.236817
0.243297
0.248468
0.253723
0.256049
0.257366
0.753475
0.671782
0.445304
0.298305
0.257156
0.244944
0.243631
0.250623
0.274209
0.310179
0.361399
0.429165
0.515014
0.599067
0.670521
0.727342
0.7837
0.84112
0.900991
0.960344
1.02376
1.08959
1.15704
1.21763
1.2596
1.27693
1.2821
1.27494
1.23324
1.15983
1.08413
1.02466
1.00066
0.99212
0.992203
1.00681
1.03209
1.04936
1.06158
1.07057
1.08216
1.08695
1.09082
1.09209
1.09276
1.09246
1.09176
1.08866
1.08406
1.07631
1.0684
1.05878
1.04985
1.03885
1.02801
1.01772
1.0058
0.996683
0.985048
0.97683
0.965793
0.959011
0.94849
0.943416
0.932635
0.928419
0.917082
0.91254
0.900826
0.895877
0.88312
0.875842
0.865565
0.855567
0.846711
0.834685
0.826729
0.813033
0.805553
0.790074
0.783574
0.766676
0.760093
0.742282
0.735094
0.71707
0.709458
0.690361
0.680428
0.664989
0.651874
0.638711
0.623213
0.611968
0.594161
0.5855
0.566084
0.558572
0.538848
0.531469
0.511916
0.504331
0.485671
0.478124
0.459976
0.452636
0.434131
0.425551
0.411266
0.400338
0.388953
0.375707
0.367723
0.352644
0.346913
0.331564
0.325851
0.311776
0.306288
0.293193
0.288106
0.275993
0.271328
0.25963
0.254391
0.246055
0.239642
0.233759
0.226319
0.222678
0.214997
0.212248
0.205138
0.202724
0.196443
0.19436
0.188836
0.187031
0.182229
0.18069
0.176358
0.174418
0.171916
0.16944
0.168075
0.165468
0.164646
0.162296
0.161652
0.159717
0.159233
0.157696
0.157363
0.156204
0.156017
0.155226
0.155193
0.154769
0.154671
0.15488
0.15483
0.155456
0.155572
0.156582
0.156899
0.158259
0.158782
0.160586
0.161357
0.163624
0.164658
0.167424
0.168751
0.172009
0.173639
0.177357
0.179308
0.183293
0.185904
0.189995
0.193287
0.197502
0.20136
0.205771
0.210208
0.214948
0.219948
0.225001
0.230298
0.234961
0.238975
0.240926
0.2419
0.672275
0.619765
0.445625
0.26671
0.19752
0.175537
0.170503
0.171684
0.187934
0.224609
0.284318
0.362985
0.459123
0.557158
0.646836
0.715304
0.774927
0.829647
0.88558
0.938409
0.994287
1.0587
1.129
1.19967
1.25175
1.27891
1.29466
1.31298
1.3204
1.32016
1.29364
1.2282
1.13278
1.02445
0.948729
0.917641
0.908345
0.908404
0.925502
0.951701
0.973617
0.983112
0.993453
0.997471
0.999335
0.998741
0.998712
0.994874
0.990752
0.97995
0.969878
0.954955
0.942328
0.92521
0.909431
0.892881
0.874269
0.858373
0.839217
0.824333
0.805214
0.791635
0.773524
0.762618
0.745136
0.735974
0.71882
0.710523
0.693786
0.685575
0.668345
0.657859
0.643506
0.630154
0.617435
0.602093
0.590771
0.574064
0.563819
0.5456
0.536846
0.517476
0.50946
0.489746
0.481496
0.462307
0.454006
0.434655
0.424922
0.409329
0.39765
0.384676
0.371624
0.361028
0.346734
0.339006
0.324035
0.31806
0.30362
0.298162
0.284779
0.27959
0.267618
0.262814
0.251949
0.247613
0.237269
0.23258
0.224982
0.219588
0.213785
0.207578
0.203794
0.196991
0.194468
0.187835
0.185443
0.179655
0.177462
0.172319
0.170376
0.165812
0.164103
0.159849
0.157972
0.155109
0.152984
0.15094
0.148558
0.147359
0.14493
0.144094
0.141904
0.141208
0.139337
0.138771
0.137189
0.136732
0.135416
0.135061
0.133925
0.133435
0.132969
0.132339
0.132199
0.131644
0.131579
0.131197
0.131208
0.131012
0.131103
0.13103
0.131287
0.131292
0.131788
0.13191
0.132625
0.13287
0.133697
0.134312
0.135135
0.13611
0.137035
0.138426
0.139564
0.141336
0.142687
0.144854
0.146502
0.149112
0.151144
0.15426
0.156734
0.160361
0.163316
0.167445
0.170893
0.175415
0.1793
0.184011
0.188156
0.193016
0.197457
0.202437
0.20716
0.212239
0.217176
0.222227
0.22704
0.231403
0.234785
0.236644
0.237466
0.611472
0.58384
0.452668
0.279539
0.166139
0.127846
0.117989
0.116982
0.126341
0.155294
0.208095
0.281196
0.373628
0.473133
0.570372
0.645571
0.701617
0.734094
0.757637
0.778927
0.806911
0.860819
0.938736
1.05195
1.1623
1.21407
1.22777
1.23117
1.23469
1.25232
1.28595
1.30956
1.31329
1.29248
1.2133
1.08428
0.94337
0.843207
0.79914
0.782489
0.779112
0.7858
0.810116
0.831272
0.839741
0.841287
0.842598
0.840522
0.83851
0.830367
0.822534
0.808517
0.796075
0.778056
0.760979
0.742543
0.72081
0.702078
0.678496
0.660199
0.6361
0.618047
0.594476
0.578893
0.556757
0.543534
0.522773
0.511477
0.492316
0.482321
0.464068
0.453238
0.438377
0.425557
0.41268
0.398442
0.387258
0.372253
0.36273
0.347147
0.339497
0.323646
0.316968
0.301695
0.295244
0.281146
0.275021
0.261578
0.254917
0.244331
0.237121
0.228492
0.220977
0.214096
0.206326
0.201455
0.193527
0.190253
0.182865
0.180063
0.1736
0.171104
0.165626
0.163439
0.158663
0.156767
0.152381
0.15041
0.14726
0.145089
0.142723
0.140309
0.138769
0.136155
0.135173
0.132643
0.13173
0.129542
0.128714
0.126796
0.126075
0.124402
0.123782
0.122254
0.121584
0.120624
0.119852
0.119236
0.1184
0.11813
0.117353
0.117148
0.116551
0.116419
0.115982
0.115925
0.115641
0.115647
0.115519
0.115594
0.11555
0.115651
0.1159
0.115956
0.116386
0.116516
0.117073
0.117275
0.117971
0.11825
0.119095
0.119457
0.120455
0.120915
0.122068
0.122658
0.12397
0.12473
0.12613
0.127164
0.128605
0.129922
0.13149
0.133072
0.134786
0.136676
0.138591
0.14087
0.14307
0.145746
0.148284
0.151388
0.154364
0.157986
0.161468
0.165637
0.169662
0.174349
0.178811
0.183933
0.18879
0.194209
0.199304
0.204886
0.210021
0.215554
0.22044
0.225613
0.229819
0.234055
0.236683
0.238548
0.239235
0.566959
0.560522
0.467356
0.324283
0.174861
0.107716
0.0848806
0.0802169
0.0818899
0.0942487
0.123201
0.167282
0.227197
0.298903
0.38378
0.464253
0.526704
0.544768
0.546614
0.543088
0.539008
0.546897
0.582916
0.6737
0.81491
1.0028
1.0916
1.11092
1.10934
1.10219
1.10172
1.11981
1.16599
1.24126
1.29447
1.3067
1.28914
1.20633
1.0572
0.892491
0.752446
0.67634
0.642966
0.630737
0.628647
0.634016
0.648782
0.65161
0.652293
0.648091
0.643448
0.633796
0.624837
0.610565
0.596945
0.582599
0.563203
0.547262
0.524649
0.507829
0.48463
0.467294
0.443801
0.427529
0.405279
0.391214
0.370766
0.358968
0.340809
0.330963
0.314802
0.305685
0.293256
0.283765
0.273562
0.263639
0.255088
0.24493
0.237864
0.227717
0.222326
0.212281
0.207897
0.198552
0.194524
0.186253
0.182604
0.175033
0.171301
0.165362
0.16155
0.156671
0.152988
0.148996
0.145376
0.142414
0.138853
0.136783
0.133432
0.132037
0.129094
0.127922
0.125504
0.124514
0.122433
0.121586
0.119686
0.11882
0.117433
0.116483
0.115403
0.114377
0.113582
0.112473
0.111924
0.110815
0.110378
0.109383
0.108995
0.108132
0.107803
0.107064
0.106792
0.106143
0.105864
0.105486
0.105189
0.104999
0.10472
0.104669
0.10447
0.104469
0.104391
0.104442
0.104431
0.104617
0.104653
0.10496
0.105056
0.105467
0.105621
0.106081
0.106425
0.106872
0.10739
0.107852
0.108517
0.109024
0.109828
0.110406
0.111345
0.112024
0.113099
0.113904
0.115123
0.116078
0.11745
0.118576
0.120109
0.121519
0.123226
0.124956
0.126874
0.128909
0.131128
0.13351
0.136089
0.138828
0.141772
0.144893
0.148254
0.15183
0.155669
0.159758
0.164142
0.168774
0.173749
0.178944
0.18433
0.19005
0.195787
0.201924
0.207873
0.214239
0.22016
0.226416
0.231899
0.237544
0.242036
0.246401
0.249123
0.251014
0.251691
0.536802
0.550222
0.489334
0.371336
0.2263
0.117194
0.0734845
0.0566741
0.0529859
0.053808
0.0616487
0.0789584
0.106756
0.14204
0.186223
0.231959
0.280185
0.315807
0.340244
0.351224
0.354703
0.363315
0.381861
0.437613
0.541256
0.716833
0.904167
0.972897
0.984265
0.980382
0.958977
0.940151
0.937251
0.95386
1.00095
1.08175
1.18464
1.25551
1.27229
1.25824
1.18067
1.03796
0.863508
0.70498
0.579302
0.505365
0.471772
0.457875
0.454092
0.453551
0.455641
0.454667
0.451824
0.444197
0.435394
0.427456
0.41472
0.405384
0.390265
0.379386
0.363198
0.351043
0.33364
0.321391
0.304252
0.293111
0.277093
0.267465
0.253266
0.24504
0.232647
0.225538
0.216184
0.209601
0.202109
0.195832
0.189764
0.183675
0.17861
0.172651
0.168609
0.162767
0.159565
0.153898
0.151243
0.146162
0.14379
0.139218
0.136957
0.133206
0.130995
0.127805
0.125742
0.123013
0.121076
0.118823
0.11705
0.115289
0.113677
0.11237
0.110939
0.11
0.10877
0.108115
0.106981
0.106462
0.105398
0.104891
0.104046
0.103487
0.102774
0.10223
0.101626
0.101082
0.10059
0.10006
0.099658
0.0991804
0.0988609
0.098435
0.0981976
0.0978346
0.0976811
0.0973943
0.0972686
0.0971565
0.0970741
0.0970697
0.0970429
0.0971274
0.0971793
0.0973801
0.0974885
0.0977999
0.0979704
0.098389
0.0986275
0.0991446
0.0994637
0.100072
0.100482
0.101152
0.101708
0.102413
0.103106
0.103876
0.10469
0.105549
0.106487
0.107452
0.10852
0.109606
0.110816
0.11204
0.1134
0.114787
0.116311
0.117903
0.1196
0.121378
0.123258
0.125237
0.127338
0.129558
0.131977
0.134523
0.137335
0.140327
0.14359
0.1471
0.150879
0.154939
0.159295
0.163937
0.168921
0.174153
0.179813
0.18567
0.191774
0.198232
0.204723
0.211649
0.218369
0.225526
0.232171
0.239136
0.245173
0.251313
0.256038
0.260635
0.263303
0.265271
0.26592
0.497591
0.545309
0.526223
0.443209
0.308674
0.169095
0.0868391
0.0559318
0.0435531
0.0399368
0.0398365
0.0430748
0.0521299
0.0673165
0.0890402
0.114885
0.145516
0.176113
0.206347
0.23331
0.252251
0.269005
0.286123
0.330845
0.42929
0.599998
0.811102
0.905918
0.923559
0.918789
0.889194
0.836582
0.778174
0.756389
0.754402
0.773658
0.822924
0.902887
1.01172
1.12072
1.20625
1.22841
1.22456
1.16579
1.03128
0.853862
0.668148
0.528219
0.418424
0.35398
0.321984
0.308422
0.302873
0.300608
0.299473
0.299035
0.295716
0.29233
0.285738
0.280536
0.273054
0.267795
0.259697
0.253834
0.244824
0.238963
0.230066
0.224302
0.215754
0.210019
0.202046
0.196673
0.190073
0.185162
0.179556
0.17492
0.170132
0.165913
0.161765
0.157793
0.154206
0.15034
0.14712
0.143385
0.140528
0.137104
0.134516
0.131354
0.128955
0.126204
0.124059
0.121656
0.119757
0.11761
0.115977
0.113999
0.112603
0.11087
0.109735
0.108242
0.107369
0.106095
0.105419
0.104312
0.103738
0.102735
0.102191
0.101244
0.100753
0.099881
0.0993817
0.0986517
0.0981442
0.0975473
0.0970251
0.0965703
0.096077
0.0957223
0.0952945
0.095022
0.0946605
0.0944789
0.0942101
0.0940825
0.093931
0.0938733
0.093837
0.0938396
0.0938933
0.0940181
0.0941432
0.0943586
0.0945745
0.0948711
0.0951873
0.0955626
0.0959768
0.0964345
0.0969456
0.0974818
0.0980875
0.0987141
0.0994198
0.100133
0.10094
0.101756
0.102663
0.103601
0.104618
0.105693
0.106833
0.108067
0.109341
0.11075
0.112175
0.113778
0.115372
0.117204
0.119014
0.121082
0.123161
0.125523
0.127944
0.130624
0.133441
0.136436
0.139703
0.143063
0.146847
0.150689
0.155077
0.159503
0.164594
0.169683
0.175547
0.181329
0.18803
0.194573
0.201811
0.209108
0.216807
0.224702
0.23266
0.24087
0.248709
0.256721
0.263777
0.27078
0.276157
0.281266
0.284197
0.28633
0.287005
0.402056
0.52924
0.544226
0.519395
0.425432
0.288989
0.151274
0.0778451
0.0502414
0.0413883
0.0395482
0.0400218
0.043368
0.051039
0.0637042
0.0818453
0.105135
0.131853
0.158857
0.18281
0.199128
0.211234
0.23128
0.286196
0.395645
0.569093
0.787296
0.890104
0.908946
0.900177
0.855785
0.781239
0.695889
0.611345
0.565497
0.556691
0.560885
0.585313
0.640162
0.717089
0.830316
0.946123
1.06792
1.15345
1.18705
1.18965
1.15794
1.05779
0.89045
0.705876
0.530177
0.412047
0.325355
0.278165
0.247199
0.233022
0.226373
0.222782
0.221141
0.220436
0.219998
0.219701
0.218844
0.21778
0.216102
0.214791
0.212818
0.210988
0.208332
0.205706
0.20253
0.199472
0.195934
0.192722
0.188973
0.185656
0.181806
0.178602
0.174796
0.17195
0.168164
0.165587
0.161607
0.159163
0.155202
0.152993
0.149206
0.147132
0.143774
0.141372
0.138876
0.136569
0.134831
0.132579
0.131542
0.129357
0.12862
0.126637
0.126052
0.124254
0.123768
0.12203
0.121458
0.119579
0.118896
0.116719
0.115919
0.113655
0.112335
0.110389
0.108792
0.107376
0.105541
0.104676
0.102913
0.102266
0.100777
0.100211
0.0990334
0.0985824
0.0976544
0.097309
0.0966048
0.0963677
0.0959162
0.0956787
0.0954749
0.095339
0.0953222
0.0952758
0.0953677
0.0954357
0.0956949
0.0958348
0.0962475
0.0964681
0.0970209
0.0973334
0.0980149
0.0984183
0.0992311
0.0997694
0.100629
0.101334
0.102241
0.103124
0.104092
0.105164
0.10621
0.107482
0.108627
0.110108
0.111373
0.113075
0.114472
0.116408
0.117957
0.120163
0.12197
0.124315
0.126487
0.129048
0.131639
0.134474
0.137544
0.140749
0.144346
0.148003
0.152187
0.156386
0.161251
0.166107
0.171777
0.177408
0.183996
0.190472
0.198081
0.205508
0.213807
0.222179
0.231076
0.240195
0.24945
0.258981
0.268163
0.277503
0.28582
0.293958
0.300251
0.306055
0.309348
0.311703
0.312418
0.241112
0.440032
0.53665
0.558167
0.535999
0.450095
0.316903
0.177882
0.0932401
0.0600588
0.0483428
0.0462297
0.0474118
0.0530033
0.0631524
0.0775445
0.0949439
0.114015
0.132147
0.147354
0.160198
0.177123
0.213304
0.290017
0.434605
0.649441
0.861605
0.928964
0.936281
0.904106
0.829759
0.726458
0.615365
0.509457
0.41446
0.361189
0.347466
0.347867
0.364521
0.395965
0.453569
0.526772
0.630356
0.74864
0.885354
0.997699
1.1043
1.16753
1.18959
1.18587
1.13962
1.02781
0.860727
0.686463
0.531933
0.416304
0.352039
0.300188
0.276814
0.254036
0.244728
0.235982
0.233218
0.231002
0.23093
0.230127
0.230309
0.229419
0.22939
0.228776
0.228939
0.229027
0.228599
0.22864
0.227481
0.227052
0.224795
0.223912
0.22125
0.220479
0.217418
0.216568
0.213101
0.212123
0.208641
0.207509
0.204108
0.202982
0.200241
0.19796
0.19651
0.194699
0.194433
0.193515
0.194107
0.193729
0.195192
0.195061
0.197075
0.196998
0.198885
0.198665
0.199309
0.198073
0.197973
0.19419
0.193048
0.187793
0.182809
0.177865
0.170508
0.166817
0.158597
0.155596
0.147903
0.145241
0.138727
0.136313
0.13099
0.129023
0.124647
0.12307
0.119511
0.118336
0.115697
0.11419
0.112495
0.111102
0.110121
0.108667
0.108291
0.107024
0.106806
0.105927
0.105784
0.105284
0.10528
0.105099
0.105262
0.105196
0.105667
0.105861
0.106381
0.106873
0.107448
0.108254
0.108876
0.109984
0.110695
0.112071
0.112919
0.114544
0.115553
0.117428
0.118614
0.120752
0.122141
0.124575
0.126294
0.128864
0.131037
0.133808
0.136482
0.139509
0.142758
0.146131
0.150012
0.153846
0.158424
0.162856
0.168231
0.173407
0.179731
0.185798
0.193235
0.20031
0.209021
0.217287
0.226923
0.236407
0.246882
0.257353
0.268385
0.279461
0.29056
0.301592
0.311805
0.321603
0.329362
0.336442
0.340289
0.34312
0.343928
0.120286
0.247999
0.400083
0.544375
0.585306
0.582659
0.525008
0.412336
0.273213
0.16261
0.103266
0.0786299
0.069697
0.0690682
0.0720848
0.0803452
0.0914331
0.104716
0.118286
0.134069
0.158078
0.203611
0.293683
0.441568
0.657419
0.887781
0.982491
0.99208
0.962425
0.885749
0.773054
0.637803
0.502058
0.37972
0.277052
0.194782
0.150761
0.139832
0.141029
0.148175
0.169436
0.199541
0.248216
0.308
0.393579
0.493197
0.630658
0.768658
0.918104
1.02642
1.13126
1.20493
1.23902
1.24129
1.21512
1.13702
1.02167
0.881937
0.753414
0.636145
0.554149
0.48622
0.449986
0.412816
0.39781
0.372811
0.36384
0.347079
0.341558
0.333504
0.332129
0.330842
0.329187
0.329363
0.327456
0.327667
0.325826
0.326075
0.324202
0.324555
0.322366
0.322788
0.32091
0.321489
0.3205
0.321193
0.320683
0.321889
0.322756
0.322724
0.324967
0.325272
0.329332
0.330607
0.337369
0.339642
0.349422
0.352997
0.364934
0.369355
0.382111
0.386803
0.397493
0.400918
0.40695
0.407541
0.409162
0.408396
0.402145
0.39724
0.384262
0.377559
0.359801
0.353035
0.333619
0.326499
0.307849
0.300559
0.283753
0.277221
0.262161
0.256421
0.243081
0.238362
0.227356
0.220893
0.21308
0.205611
0.200653
0.19191
0.189048
0.180225
0.177628
0.169726
0.167069
0.160144
0.157809
0.151778
0.149952
0.144648
0.143271
0.139527
0.137329
0.135251
0.133184
0.132337
0.130654
0.130439
0.129457
0.129576
0.129265
0.129857
0.129842
0.131151
0.13149
0.133319
0.133985
0.136369
0.137556
0.140019
0.141974
0.144562
0.147275
0.150057
0.153543
0.156628
0.160907
0.164436
0.169571
0.173716
0.179793
0.18474
0.191923
0.19786
0.206349
0.213466
0.223495
0.232125
0.243309
0.253609
0.265912
0.277675
0.290782
0.303618
0.316937
0.33021
0.342659
0.355022
0.364551
0.373908
0.378475
0.382111
0.383105
0.0492892
0.110438
0.196615
0.341705
0.506828
0.610739
0.643265
0.636682
0.581691
0.482064
0.364344
0.267159
0.202623
0.172118
0.159783
0.160796
0.166607
0.185415
0.21418
0.260552
0.340295
0.457338
0.635259
0.831739
1.00405
1.05276
1.0542
1.01543
0.932044
0.801154
0.645057
0.484332
0.336405
0.215444
0.120979
0.0630831
0.0362351
0.0265364
0.0245665
0.0244621
0.0277786
0.0340243
0.0461734
0.0624292
0.0883121
0.120787
0.170929
0.230619
0.3185
0.421487
0.564257
0.705952
0.860695
0.983777
1.09119
1.17612
1.23924
1.28112
1.28729
1.28111
1.25179
1.20158
1.13511
1.05884
0.990241
0.91785
0.864888
0.802467
0.762861
0.711581
0.686735
0.656232
0.635028
0.62092
0.600297
0.592483
0.575946
0.57069
0.557324
0.553598
0.540832
0.537889
0.527755
0.526336
0.520999
0.521231
0.519616
0.521745
0.523423
0.524498
0.52912
0.530313
0.537614
0.540176
0.551316
0.555433
0.571198
0.577546
0.597308
0.605802
0.628523
0.638596
0.661178
0.670936
0.689858
0.697337
0.711794
0.717678
0.720257
0.721974
0.719837
0.719202
0.709775
0.705532
0.689522
0.683651
0.66517
0.657922
0.639478
0.632484
0.614824
0.608327
0.591521
0.586006
0.571546
0.561437
0.551508
0.537448
0.53181
0.51475
0.509916
0.491318
0.486017
0.46644
0.45959
0.438889
0.431255
0.4092
0.401416
0.377495
0.369459
0.347677
0.334633
0.317972
0.301258
0.289562
0.270636
0.263373
0.245461
0.239329
0.224312
0.219401
0.207365
0.203669
0.19452
0.191983
0.185542
0.184092
0.180906
0.178844
0.178645
0.177891
0.178524
0.17879
0.181317
0.182052
0.186056
0.187603
0.19287
0.195354
0.201867
0.205484
0.213329
0.218041
0.227371
0.233352
0.244469
0.252415
0.264615
0.275078
0.288515
0.301414
0.315879
0.330915
0.345889
0.362373
0.37687
0.393331
0.404945
0.417851
0.423903
0.428676
0.429983
0.0164968
0.0393948
0.0741922
0.140373
0.248369
0.404145
0.557024
0.656177
0.720013
0.738387
0.732042
0.703511
0.654837
0.60805
0.579491
0.579757
0.589588
0.631227
0.691121
0.773158
0.881648
0.978075
1.07698
1.11838
1.129
1.11036
1.04788
0.930501
0.769937
0.593252
0.414511
0.262405
0.137522
0.066234
0.0297152
0.0145829
0.00755044
0.00462335
0.00359688
0.00328075
0.00338633
0.00383886
0.00509904
0.00707316
0.0106603
0.0156212
0.024203
0.035407
0.0539666
0.0773102
0.114012
0.158668
0.222347
0.296691
0.396891
0.521193
0.638291
0.773479
0.877478
0.99683
1.06982
1.15593
1.19883
1.26656
1.29936
1.35388
1.37701
1.39254
1.39245
1.38322
1.36049
1.32924
1.28134
1.24306
1.19065
1.15779
1.10952
1.08456
1.04318
1.02349
0.982071
0.965118
0.928204
0.914833
0.88801
0.878683
0.861275
0.856216
0.847649
0.841557
0.840064
0.837636
0.83946
0.838775
0.844633
0.84489
0.855686
0.858488
0.874445
0.879976
0.899951
0.907937
0.928886
0.937678
0.956946
0.964743
0.981394
0.988762
0.997611
1.00338
1.00608
1.00894
1.00744
1.00816
1.00337
1.00299
0.996242
0.994718
0.988527
0.987635
0.984011
0.984743
0.98364
0.987348
0.989466
0.99184
0.998112
0.999664
1.00796
1.00909
1.01805
1.01886
1.02666
1.02677
1.03037
1.0284
1.02961
1.02215
1.02184
1.00613
1.00306
0.985388
0.967924
0.951893
0.922592
0.906716
0.866127
0.850228
0.803319
0.785063
0.735248
0.716152
0.664789
0.644849
0.593265
0.573332
0.524043
0.505264
0.464404
0.440312
0.411881
0.386079
0.368347
0.343591
0.334476
0.314364
0.308384
0.29472
0.291556
0.283976
0.28324
0.280995
0.282345
0.28301
0.288665
0.29022
0.298841
0.303037
0.311968
0.320322
0.330213
0.342667
0.354047
0.370135
0.383707
0.403056
0.417992
0.439387
0.453772
0.471894
0.480458
0.487079
0.488885
0.00480045
0.0115654
0.0221331
0.0435282
0.0819562
0.146109
0.247617
0.389049
0.540718
0.659309
0.743942
0.803385
0.856168
0.895873
0.934942
0.969418
1.00885
1.0456
1.08897
1.1213
1.15314
1.15704
1.14292
1.10026
1.01994
0.905977
0.751594
0.584239
0.404117
0.263205
0.137696
0.0748807
0.0340755
0.0173826
0.00873912
0.00528293
0.00356857
0.00272621
0.00222628
0.00184006
0.00157111
0.00145136
0.00143815
0.00147744
0.00166783
0.00203508
0.00281927
0.00399298
0.00612912
0.00901737
0.0138793
0.0203205
0.0304846
0.043198
0.0609845
0.086555
0.114876
0.1556
0.196184
0.254906
0.315457
0.403519
0.480147
0.588273
0.668453
0.79274
0.88108
1.01865
1.11203
1.23979
1.32021
1.42159
1.4863
1.55185
1.59274