/*--------------------------------*- C++ -*----------------------------------*\
| =========                 |                                                 |
| \\      /  F ield         | OpenFOAM: The Open Source CFD Toolbox           |
|  \\    /   O peration     | Version:  4.1                                   |
|   \\  /    A nd           | Web:      www.OpenFOAM.org                      |
|    \\/     M anipulation  |                                                 |
\*---------------------------------------------------------------------------*/
FoamFile
{
    version     2.0;
    format      ascii;
    class       volScalarField;
    location    "9.5";
    object      k;
}
// * * * * * * * * * * * * * * * * * * * * * * * * * * * * * * * * * * * * * //

dimensions      [0 2 -2 0 0 0 0];

internalField   nonuniform List<scalar> 
204246
(
1.55204
2.07384
2.24489
2.31686
2.35077
2.36544
2.38401
2.38941
2.3914
2.38751
2.37929
2.36735
2.35165
2.33414
2.3164
2.29905
2.2858
2.26298
2.24888
2.24098
2.2242
2.21933
2.2085
2.20685
2.20437
2.20692
2.20798
2.21926
2.22219
2.23899
2.24334
2.26312
2.26906
2.2906
2.29768
2.31825
2.32586
2.34258
2.35328
2.3672
2.37721
2.39079
2.40147
2.41179
2.42413
2.43233
2.44459
2.45195
2.46361
2.47098
2.48152
2.48919
2.49891
2.50641
2.51592
2.52584
2.53342
2.54317
2.55123
2.56067
2.5692
2.5785
2.58743
2.59859
2.60608
2.6193
2.62526
2.63858
2.64487
2.65864
2.66463
2.6774
2.68656
2.69686
2.70824
2.71708
2.72992
2.73787
2.75171
2.75897
2.77595
2.78113
2.79946
2.80483
2.82221
2.8284
2.84582
2.85214
2.86789
2.87832
2.8914
2.90362
2.9156
2.92889
2.9403
2.95698
2.96592
2.98524
2.99251
3.01322
3.02013
3.04091
3.04875
3.06971
3.07786
3.09963
3.10774
3.12807
3.14041
3.1582
3.17244
3.18931
3.20736
3.22172
3.24287
3.25539
3.27762
3.29007
3.31334
3.32581
3.35051
3.36281
3.38859
3.40082
3.42557
3.4415
3.46408
3.48197
3.50376
3.52369
3.54468
3.56585
3.58666
3.60893
3.62972
3.65311
3.67389
3.69818
3.71919
3.74445
3.76558
3.79035
3.81353
3.83752
3.86139
3.88563
3.90986
3.9345
3.95889
3.98404
4.00843
4.0341
4.05834
4.08459
4.10872
4.13553
4.15968
4.18671
4.2102
4.23749
4.26103
4.28771
4.31197
4.33785
4.3629
4.38782
4.41392
4.43772
4.46532
4.48796
4.51756
4.5389
4.57113
4.59158
4.62793
4.64647
4.68743
4.70971
4.74703
4.77788
4.81359
4.85364
4.89076
4.94111
4.98337
5.04545
5.09741
5.17247
5.23865
5.31884
5.38661
5.4254
5.4421
2.02537
1.93897
1.64815
1.44946
1.38595
1.356
1.3532
1.34905
1.35866
1.38166
1.43468
1.46422
1.50124
1.53208
1.59415
1.62095
1.66481
1.68525
1.70588
1.71182
1.71379
1.705
1.68758
1.65078
1.6252
1.5918
1.57304
1.538
1.52231
1.49727
1.48784
1.47614
1.47234
1.47071
1.4701
1.47486
1.48106
1.4845
1.49566
1.49907
1.5111
1.51527
1.52688
1.5308
1.54153
1.54444
1.55529
1.5579
1.56833
1.5707
1.58037
1.58325
1.59335
1.59679
1.60058
1.60903
1.61108
1.62059
1.6233
1.63288
1.63581
1.64524
1.64775
1.65761
1.66019
1.67039
1.67312
1.6843
1.68799
1.70023
1.70488
1.71164
1.7226
1.72698
1.73972
1.74433
1.75785
1.76275
1.7769
1.78175
1.79622
1.80111
1.81635
1.82154
1.83801
1.8443
1.86208
1.86947
1.88143
1.89651
1.90447
1.92249
1.92993
1.94922
1.95669
1.97631
1.98389
2.00424
2.01201
2.0337
2.04222
2.06485
2.07446
2.09808
2.10827
2.13339
2.14426
2.16577
2.18461
2.20194
2.22566
2.23939
2.2666
2.27876
2.30822
2.32101
2.3528
2.36656
2.39968
2.41448
2.4488
2.46427
2.50132
2.51848
2.55038
2.57679
2.60469
2.63617
2.66301
2.69745
2.72406
2.76232
2.78915
2.83007
2.85799
2.90119
2.93072
2.97603
3.00792
3.05572
3.09129
3.13351
3.17869
3.21966
3.26742
3.31126
3.36057
3.40754
3.45834
3.50874
3.5612
3.61519
3.66794
3.72612
3.78004
3.84313
3.90056
3.96799
4.01994
4.09595
4.1522
4.22309
4.29052
4.35588
4.43311
4.49317
4.57801
4.63417
4.72323
4.77799
4.86712
4.92329
5.00508
5.06451
5.1494
5.20741
5.29073
5.33084
5.42603
5.46256
5.55343
5.58645
5.67272
5.70236
5.78549
5.81224
5.90196
5.93371
6.10146
6.24754
6.6645
6.92368
7.03359
1.89503
1.7258
1.36378
1.25535
1.23053
1.22824
1.25019
1.31027
1.39292
1.46558
1.53646
1.61573
1.70014
1.78761
1.86948
1.96009
2.04031
2.12576
2.19844
2.27002
2.32664
2.35863
2.37432
2.37591
2.37653
2.36208
2.34481
2.3063
2.27977
2.23485
2.21863
2.1814
2.17029
2.14367
2.13887
2.12386
2.1234
2.12382
2.1205
2.1287
2.12832
2.14191
2.1442
2.16027
2.16318
2.1805
2.18211
2.19982
2.20122
2.21914
2.22159
2.23706
2.23964
2.25642
2.26462
2.26603
2.28062
2.2817
2.29472
2.29591
2.30835
2.30936
2.32232
2.32197
2.33531
2.33501
2.34876
2.34954
2.36217
2.36343
2.37779
2.3848
2.38692
2.39894
2.40039
2.41365
2.41553
2.42941
2.43161
2.4466
2.44791
2.46385
2.46549
2.48245
2.48544
2.50161
2.50523
2.52313
2.53195
2.53844
2.55327
2.55717
2.5741
2.57839
2.59615
2.59963
2.61803
2.62182
2.64084
2.64507
2.66438
2.6694
2.68777
2.69349
2.71233
2.71839
2.73889
2.74781
2.75947
2.77499
2.78115
2.80015
2.80589
2.82541
2.83147
2.85149
2.85837
2.87766
2.88475
2.90424
2.91151
2.93175
2.93963
2.96024
2.96998
2.98402
2.99831
3.00824
3.02546
3.03322
3.05131
3.05935
3.07699
3.0851
3.10187
3.10992
3.12587
3.13401
3.14953
3.15792
3.17215
3.17903
3.19009
3.1962
3.20537
3.21036
3.21787
3.21981
3.22553
3.22461
3.22738
3.22381
3.22444
3.21393
3.21399
3.19735
3.19615
3.16985
3.15701
3.14141
3.10847
3.09941
3.05357
3.04122
2.98724
2.97183
2.91105
2.89344
2.82745
2.80794
2.73729
2.71649
2.64198
2.6205
2.54603
2.52546
2.44577
2.40875
2.37243
2.30911
2.2934
2.22239
2.20796
2.13967
2.12752
2.06736
2.0604
2.01954
2.02357
1.99673
2.00179
1.86698
1.81699
1.68652
1.5111
1.2346
1.16521
1.15562
1.16942
1.23436
1.33004
1.41722
1.48528
1.56112
1.66088
1.76559
1.86515
1.96053
2.06564
2.1686
2.27299
2.37158
2.47297
2.56662
2.64191
2.70101
2.74329
2.77814
2.80049
2.82542
2.84236
2.85236
2.85184
2.85299
2.84425
2.84413
2.83301
2.83325
2.82534
2.82596
2.82588
2.82381
2.82782
2.82658
2.83227
2.83199
2.83859
2.83829
2.8448
2.84326
2.84835
2.84644
2.85156
2.85051
2.85554
2.85504
2.86138
2.8647
2.86446
2.87108
2.8709
2.87694
2.87702
2.88269
2.88261
2.88832
2.88744
2.89252
2.8915
2.89625
2.89566
2.89978
2.89942
2.90357
2.90568
2.90517
2.90825
2.90773
2.91085
2.91045
2.91369
2.91339
2.91696
2.91627
2.91966
2.91902
2.92247
2.92228
2.92545
2.92545
2.92836
2.92976
2.92944
2.93119
2.93093
2.93268
2.93248
2.93421
2.93379
2.93523
2.93487
2.93603
2.93571
2.93636
2.936
2.93616
2.93565
2.93565
2.93465
2.93425
2.93288
2.93047
2.92911
2.92601
2.9242
2.9204
2.91794
2.91351
2.91045
2.90532
2.90182
2.89577
2.89159
2.88488
2.87943
2.87257
2.86441
2.85545
2.84715
2.83493
2.82708
2.81054
2.80348
2.78263
2.77562
2.75096
2.74279
2.71431
2.70483
2.67211
2.66101
2.62443
2.61205
2.56776
2.54609
2.51401
2.47571
2.45213
2.40124
2.38162
2.3233
2.30172
2.23926
2.21586
2.14947
2.12424
2.05417
2.02726
1.95495
1.92725
1.84956
1.81194
1.75215
1.69865
1.65252
1.58623
1.55261
1.47966
1.45149
1.37901
1.35239
1.28539
1.26086
1.19992
1.17802
1.12348
1.10434
1.05602
1.03948
0.996306
0.97672
0.948283
0.924813
0.906164
0.879212
0.867388
0.83984
0.831098
0.81185
0.808783
0.804578
0.818727
0.83585
0.865896
0.875527
0.882811
1.51326
1.37062
1.14817
1.0938
1.0883
1.10626
1.17733
1.2787
1.36453
1.42381
1.49889
1.61299
1.75223
1.87866
1.99295
2.1067
2.22328
2.33452
2.44606
2.5624
2.68279
2.78515
2.86683
2.91939
2.95786
2.9829
3.00967
3.03441
3.06737
3.10447
3.14664
3.18146
3.21277
3.23562
3.25664
3.26394
3.27323
3.27847
3.28274
3.28633
3.28539
3.28668
3.28506
3.28587
3.28247
3.28241
3.27379
3.27042
3.25534
3.25029
3.23596
3.2307
3.21765
3.21282
3.20294
3.19556
3.19065
3.18221
3.17906
3.17125
3.16846
3.16093
3.15816
3.1497
3.14651
3.1372
3.13343
3.1237
3.11932
3.10917
3.10408
3.09477
3.08686
3.07856
3.06908
3.06111
3.05095
3.04291
3.03225
3.02403
3.01283
3.00429
2.99277
2.98377
2.97251
2.96272
2.95164
2.94077
2.93018
2.91799
2.90707
2.89483
2.88289
2.8709
2.85734
2.84615
2.83048
2.82029
2.8023
2.79313
2.77257
2.76375
2.74187
2.73285
2.70948
2.69995
2.67309
2.66018
2.63827
2.61854
2.59985
2.57305
2.55875
2.52546
2.51305
2.47549
2.46121
2.4223
2.4066
2.36511
2.34834
2.30423
2.28677
2.23724
2.21296
2.17532
2.13794
2.10823
2.06051
2.03671
1.98216
1.9603
1.90265
1.88003
1.82102
1.79789
1.73782
1.71415
1.65386
1.63002
1.5676
1.53744
1.48864
1.44815
1.4091
1.36077
1.33047
1.27601
1.25355
1.19772
1.17616
1.12293
1.10251
1.05232
1.03331
0.986891
0.969567
0.925806
0.905464
0.874666
0.850553
0.829097
0.802077
0.789202
0.762708
0.753289
0.730359
0.722721
0.703705
0.697584
0.682298
0.677667
0.665837
0.662623
0.653941
0.652041
0.645869
0.643529
0.64293
0.641144
0.641897
0.641026
0.641944
0.640974
0.641598
0.640293
0.641706
0.642125
0.651502
0.65724
0.67011
0.674849
0.678666
1.38736
1.26408
1.07014
1.02182
1.01438
1.01703
1.0507
1.11877
1.19659
1.26122
1.35628
1.51123
1.71386
1.88722
2.02427
2.1371
2.25537
2.37579
2.49968
2.61772
2.74518
2.87138
2.9901
3.06552
3.09672
3.10515
3.10528
3.09266
3.08509
3.08526
3.11502
3.17503
3.24141
3.3035
3.36257
3.41065
3.44274
3.46411
3.48711
3.503
3.50841
3.51068
3.5107
3.51046
3.50676
3.50191
3.49031
3.4774
3.45548
3.43552
3.40955
3.38793
3.36105
3.33834
3.31264
3.2894
3.2673
3.24502
3.22559
3.20503
3.18852
3.17011
3.15551
3.13795
3.12293
3.10572
3.08938
3.07201
3.05426
3.03653
3.01679
2.99763
2.97879
2.95753
2.93949
2.91649
2.89883
2.87401
2.8566
2.82931
2.81326
2.78294
2.7679
2.73461
2.7198
2.68526
2.67002
2.63329
2.61231
2.58307
2.55537
2.5304
2.49759
2.47544
2.43759
2.41949
2.37764
2.36093
2.31718
2.30016
2.2551
2.23694
2.19206
2.17316
2.12745
2.10817
2.05894
2.03533
1.99526
1.96284
1.92847
1.88829
1.8603
1.81279
1.78985
1.73724
1.71556
1.66239
1.64001
1.58679
1.56438
1.51138
1.48916
1.43443
1.40825
1.36515
1.33084
1.2967
1.25597
1.22959
1.18401
1.1647
1.11809
1.09979
1.05548
1.03828
0.996431
0.980245
0.941206
0.926188
0.888759
0.87117
0.844034
0.822811
0.802558
0.77862
0.764461
0.739217
0.72917
0.704869
0.695818
0.673983
0.665897
0.646475
0.639355
0.622171
0.615921
0.600358
0.593248
0.582819
0.574846
0.567567
0.559004
0.554642
0.546436
0.543467
0.536544
0.534281
0.529098
0.527566
0.524057
0.523249
0.521382
0.521309
0.520795
0.521631
0.522052
0.524142
0.526289
0.529101
0.532912
0.536493
0.541796
0.546105
0.552908
0.558173
0.566464
0.572544
0.582136
0.58863
0.596091
0.599071
0.601002
1.31445
1.22558
1.0189
0.895502
0.855856
0.839613
0.838908
0.85977
0.922015
1.01722
1.16242
1.36073
1.60768
1.83994
2.02811
2.16518
2.2891
2.40242
2.51677
2.62693
2.7477
2.87483
3.0063
3.1234
3.20227
3.23647
3.24771
3.24327
3.19436
3.11162
3.05729
3.03539
3.03034
3.05056
3.12879
3.23061
3.30482
3.35831
3.4139
3.45418
3.48419
3.49738
3.50516
3.50662
3.50643
3.5025
3.49327
3.47761
3.45458
3.42578
3.39286
3.35799
3.32098
3.28186
3.24136
3.2017
3.16013
3.12176
3.08105
3.04487
3.00613
2.97412
2.93768
2.91081
2.87468
2.85105
2.81441
2.7915
2.75453
2.73087
2.69205
2.66284
2.62996
2.59491
2.56511
2.52641
2.49858
2.4572
2.43026
2.38564
2.36072
2.31286
2.28945
2.2388
2.21555
2.16413
2.14021
2.0873
2.05746
2.01364
1.97653
1.9382
1.89592
1.862
1.81491
1.78668
1.73507
1.71164
1.65795
1.63608
1.58231
1.56006
1.50838
1.48629
1.43586
1.41432
1.36314
1.33888
1.29771
1.26764
1.23352
1.19805
1.17185
1.13141
1.11209
1.06951
1.05216
1.01173
0.994981
0.956988
0.94128
0.905754
0.891154
0.856768
0.840947
0.814822
0.796199
0.776204
0.755244
0.740837
0.718143
0.708719
0.686307
0.677809
0.657631
0.650063
0.631937
0.625167
0.609001
0.602991
0.588135
0.581258
0.57107
0.562953
0.555718
0.54682
0.542079
0.533008
0.529563
0.521195
0.518184
0.510869
0.508265
0.501928
0.499705
0.4943
0.492469
0.487859
0.485788
0.483166
0.48078
0.47957
0.477369
0.476798
0.475268
0.475039
0.474356
0.474528
0.474486
0.475681
0.476017
0.478209
0.479042
0.482127
0.483431
0.487325
0.489062
0.493414
0.496126
0.500612
0.504206
0.508956
0.513499
0.518735
0.524296
0.530031
0.536605
0.542951
0.550268
0.556326
0.561807
0.564314
0.565697
1.25501
1.19058
1.00004
0.79674
0.668786
0.620683
0.607195
0.608618
0.649866
0.750765
0.923562
1.15404
1.43165
1.70507
1.94582
2.11601
2.24889
2.35206
2.45049
2.53794
2.63376
2.7537
2.89297
3.04479
3.16359
3.22554
3.25516
3.27274
3.27832
3.26768
3.204
3.10296
2.98432
2.89608
2.864
2.8556
2.87125
2.94263
3.05307
3.13743
3.2045
3.24732
3.29228
3.30895
3.31667
3.31622
3.31519
3.30216
3.28575
3.25234
3.21821
3.17135
3.12745
3.07243
3.01868
2.96316
2.90209
2.84714
2.78503
2.73211
2.67144
2.62193
2.5647
2.52235
2.46833
2.43128
2.37959
2.34585
2.29637
2.26381
2.21403
2.17677
2.13388
2.09015
2.05048
2.00259
1.96594
1.91597
1.88185
1.82919
1.79811
1.74248
1.71425
1.65672
1.63023
1.57283
1.54683
1.48891
1.45906
1.41143
1.37589
1.33544
1.29619
1.26195
1.21965
1.19266
1.14774
1.12724
1.08256
1.06436
1.02207
1.00465
0.966151
0.949843
0.914393
0.899431
0.865517
0.849754
0.82347
0.805745
0.784612
0.764769
0.749333
0.727303
0.716838
0.694335
0.685297
0.664794
0.656406
0.637857
0.63026
0.613477
0.606623
0.590852
0.58364
0.571893
0.564038
0.554741
0.546222
0.539427
0.530314
0.52567
0.516509
0.512875
0.504409
0.501179
0.493594
0.490705
0.483918
0.481341
0.475079
0.472161
0.467803
0.464373
0.461177
0.457428
0.45524
0.451346
0.449823
0.446168
0.444842
0.441648
0.440517
0.4378
0.436871
0.434687
0.433998
0.432274
0.431527
0.430883
0.430183
0.430104
0.429869
0.430285
0.430578
0.431869
0.432432
0.434597
0.435595
0.438672
0.440238
0.444266
0.446486
0.451491
0.454376
0.460361
0.463869
0.470511
0.474832
0.48165
0.486643
0.493471
0.499115
0.50587
0.511916
0.518607
0.524885
0.531388
0.53748
0.542992
0.547249
0.549519
0.550619
1.20318
1.165
1.00281
0.792758
0.580872
0.46325
0.430958
0.425694
0.447259
0.524846
0.675916
0.888848
1.15581
1.43657
1.70613
1.90526
2.04018
2.09836
2.12476
2.1423
2.16816
2.2524
2.3885
2.61434
2.8663
3.04873
3.10648
3.12461
3.1316
3.14883
3.16984
3.17804
3.16692
3.09389
2.95699
2.78506
2.64385
2.58811
2.56933
2.56847
2.61126
2.70107
2.80168
2.86177
2.90361
2.91897
2.92729
2.92378
2.91865
2.89612
2.87157
2.82986
2.7892
2.73377
2.67874
2.6198
2.55136
2.48943
2.41548
2.3528
2.27755
2.21508
2.14138
2.08508
2.01581
1.96628
1.90172
1.85815
1.79899
1.75986
1.70416
1.66405
1.61798
1.57357
1.5321
1.48413
1.44611
1.39677
1.36296
1.31327
1.28418
1.23321
1.20806
1.15764
1.13504
1.08714
1.06554
1.01954
0.996527
0.959088
0.934129
0.902892
0.876897
0.851047
0.82436
0.804607
0.777355
0.762953
0.736447
0.725337
0.700963
0.690898
0.669669
0.660653
0.64173
0.633701
0.616144
0.608012
0.594447
0.585763
0.574811
0.56545
0.55722
0.547126
0.541182
0.530653
0.526146
0.516208
0.512021
0.503011
0.499205
0.491024
0.487571
0.479893
0.476333
0.470462
0.4666
0.461869
0.457771
0.454175
0.44988
0.447239
0.442863
0.441012
0.436839
0.435209
0.431497
0.430064
0.426788
0.42554
0.422582
0.42121
0.419182
0.417637
0.416218
0.41462
0.413713
0.412171
0.411619
0.410317
0.40992
0.408976
0.408739
0.408168
0.408103
0.407934
0.408056
0.40821
0.408551
0.409258
0.409623
0.410868
0.41143
0.413159
0.413933
0.416226
0.417299
0.420324
0.421845
0.42564
0.427716
0.432384
0.435161
0.440748
0.444351
0.450771
0.45525
0.462221
0.467553
0.474774
0.480697
0.487968
0.494128
0.501514
0.507894
0.515157
0.521473
0.528214
0.533919
0.539245
0.542971
0.545115
0.546051
1.16505
1.15432
1.02112
0.818186
0.594455
0.400611
0.316947
0.297831
0.299609
0.330234
0.412024
0.542901
0.723201
0.935705
1.1815
1.41775
1.57365
1.60668
1.60327
1.57379
1.53769
1.53631
1.57333
1.73287
2.02353
2.4361
2.73379
2.82488
2.84305
2.85077
2.85939
2.89401
2.94954
3.02456
3.05385
3.05711
3.00159
2.84597
2.61764
2.39172
2.26752
2.22089
2.20694
2.20718
2.24379
2.31716
2.38457
2.40053
2.40679
2.40112
2.39316
2.36782
2.3405
2.29754
2.25393
2.20746
2.14555
2.09164
2.02003
1.96105
1.88623
1.82411
1.74756
1.6875
1.61384
1.55955
1.49121
1.44364
1.38251
1.34123
1.28663
1.24856
1.20579
1.16821
1.13227
1.09428
1.06252
1.02417
0.996291
0.958956
0.936084
0.899382
0.880178
0.844797
0.828594
0.796187
0.781398
0.751526
0.736682
0.712394
0.697228
0.676801
0.662111
0.644867
0.630405
0.616806
0.602689
0.592232
0.578553
0.570979
0.558124
0.55239
0.540919
0.535862
0.525638
0.521121
0.511597
0.507095
0.499398
0.494661
0.488134
0.483182
0.477714
0.472497
0.46794
0.462612
0.458854
0.453569
0.450378
0.445189
0.44256
0.437556
0.435292
0.430503
0.42824
0.424371
0.422007
0.418781
0.416328
0.413768
0.411233
0.409237
0.406694
0.405194
0.402698
0.401621
0.399301
0.398361
0.396344
0.395539
0.393766
0.392934
0.391764
0.390865
0.390129
0.389224
0.388839
0.388081
0.38785
0.387371
0.387278
0.387122
0.387182
0.387292
0.387701
0.388024
0.388776
0.38934
0.390377
0.391531
0.392814
0.394596
0.396187
0.398516
0.400594
0.403515
0.406162
0.40965
0.412821
0.41686
0.4206
0.425281
0.429673
0.435105
0.440224
0.44644
0.452305
0.45925
0.465685
0.473212
0.480127
0.488072
0.495308
0.503304
0.510497
0.518114
0.524782
0.531446
0.536955
0.541907
0.545306
0.547346
0.548169
1.13276
1.15494
1.06157
0.878581
0.649072
0.431356
0.276757
0.214769
0.200138
0.200895
0.222607
0.275328
0.363642
0.477608
0.619846
0.767726
0.927708
1.03413
1.06253
1.06326
1.041
1.03579
1.04952
1.14951
1.37742
1.75479
2.19114
2.42019
2.48209
2.49751
2.49885
2.50322
2.51537
2.5622
2.64017
2.75581
2.8672
2.904
2.90685
2.8496
2.7025
2.4836
2.23577
1.99936
1.83872
1.78056
1.76111
1.75583
1.7667
1.80098
1.82773
1.82846
1.82433
1.80581
1.78209
1.75793
1.71607
1.68241
1.63171
1.59149
1.53573
1.4894
1.42834
1.38016
1.31875
1.27284
1.21435
1.17254
1.11972
1.08251
1.03582
1.00293
0.96648
0.936675
0.906876
0.879276
0.854225
0.828071
0.8062
0.781161
0.762533
0.738499
0.722541
0.699614
0.685966
0.664672
0.653009
0.633265
0.622722
0.606012
0.595698
0.581322
0.571588
0.559046
0.549748
0.539094
0.530462
0.52163
0.513673
0.506487
0.499265
0.493495
0.486918
0.482342
0.476083
0.472192
0.46594
0.462445
0.456821
0.453296
0.448144
0.44473
0.440045
0.436653
0.432428
0.42911
0.425275
0.422128
0.418621
0.415622
0.412474
0.409622
0.40681
0.404059
0.401507
0.399279
0.396787
0.394956
0.392599
0.391157
0.388951
0.387834
0.385867
0.384995
0.383305
0.382576
0.38117
0.380584
0.379469
0.37902
0.378175
0.377783
0.377349
0.377018
0.376887
0.376737
0.37675
0.376806
0.377089
0.377329
0.377881
0.378327
0.379162
0.379838
0.380952
0.381904
0.383302
0.384586
0.386222
0.387877
0.389709
0.391721
0.393818
0.396242
0.398784
0.40177
0.404884
0.408632
0.412399
0.416985
0.421481
0.4269
0.432183
0.43844
0.44454
0.451594
0.458537
0.466315
0.473856
0.482226
0.490245
0.499002
0.507292
0.516113
0.524299
0.53266
0.540091
0.547246
0.553095
0.558208
0.561613
0.563681
0.564462
1.07053
1.15676
1.12942
0.997928
0.77498
0.531003
0.31848
0.20885
0.164389
0.150664
0.149752
0.159493
0.188888
0.239239
0.311416
0.395968
0.493072
0.582895
0.660235
0.715629
0.739144
0.755987
0.783173
0.885509
1.11046
1.48228
1.92466
2.16253
2.22217
2.22942
2.20949
2.15965
2.11183
2.10371
2.11497
2.17132
2.26857
2.4
2.56136
2.69144
2.74375
2.74986
2.71155
2.5711
2.34067
2.07372
1.81299
1.59768
1.41024
1.33131
1.30116
1.29096
1.2912
1.30254
1.31913
1.32366
1.31593
1.3058
1.28506
1.26879
1.24313
1.22205
1.19002
1.16488
1.12925
1.10313
1.06697
1.04012
1.00466
0.977459
0.94394
0.918152
0.889344
0.865583
0.840532
0.818496
0.796625
0.776624
0.75731
0.73875
0.721473
0.703755
0.687755
0.67098
0.656328
0.640932
0.627477
0.613204
0.600834
0.588218
0.577207
0.566015
0.556282
0.546106
0.537528
0.527983
0.520376
0.51167
0.505125
0.49726
0.491717
0.484674
0.479849
0.473447
0.469034
0.463024
0.458744
0.452985
0.448921
0.443533
0.439513
0.434692
0.430737
0.426499
0.422587
0.418924
0.415128
0.411899
0.408329
0.405418
0.402071
0.399497
0.396386
0.394107
0.391219
0.389347
0.386728
0.385182
0.38279
0.381511
0.379452
0.378333
0.37657
0.375677
0.374202
0.373495
0.372325
0.371769
0.37087
0.370448
0.369813
0.369511
0.369179
0.369006
0.368938
0.368909
0.369025
0.369253
0.369582
0.370067
0.370624
0.371403
0.372194
0.373283
0.374325
0.37573
0.377052
0.378796
0.380454
0.382592
0.384656
0.38727
0.389842
0.392955
0.396082
0.399665
0.403406
0.407508
0.411963
0.416739
0.422003
0.42758
0.433759
0.440201
0.447351
0.454643
0.462801
0.470915
0.479722
0.488558
0.497853
0.507181
0.51669
0.526144
0.535414
0.544393
0.552666
0.560259
0.566562
0.571821
0.575349
0.577435
0.578188
0.897823
1.13646
1.1651
1.12818
0.976192
0.741649
0.481778
0.273266
0.183485
0.152879
0.145228
0.145346
0.152979
0.173174
0.2083
0.25829
0.321126
0.38924
0.454332
0.509222
0.544325
0.577059
0.634307
0.774579
1.02799
1.40337
1.85213
2.07267
2.11685
2.11145
2.05362
1.94658
1.81067
1.68534
1.63904
1.6373
1.66314
1.7322
1.85531
2.00413
2.19671
2.36869
2.52398
2.57692
2.58942
2.57059
2.47403
2.27453
1.99916
1.71712
1.46264
1.28278
1.12931
1.04433
1.01057
0.997484
0.99265
0.992451
0.997728
1.01648
1.02779
1.03
1.02776
1.02491
1.01898
1.01501
1.00672
0.998219
0.984949
0.971653
0.955487
0.939951
0.922603
0.907013
0.889053
0.872913
0.854251
0.838423
0.820001
0.805749
0.787381
0.774328
0.755114
0.742789
0.723801
0.712564
0.694433
0.68382
0.667682
0.655657
0.643264
0.631754
0.62281
0.611685
0.605768
0.594688
0.59041
0.579867
0.576139
0.566208
0.562787
0.552927
0.549064
0.538465
0.534107
0.522314
0.517473
0.50533
0.498194
0.487705
0.479513
0.471163
0.46216
0.456197
0.447092
0.443039
0.434636
0.431046
0.42382
0.420699
0.414448
0.411734
0.406311
0.403982
0.399465
0.397133
0.393487
0.391506
0.38849
0.386665
0.384316
0.38262
0.38084
0.379277
0.378019
0.376626
0.375789
0.374628
0.374135
0.373262
0.372941
0.37246
0.372185
0.372098
0.372007
0.372108
0.372204
0.372693
0.37293
0.373792
0.374224
0.375458
0.376097
0.37771
0.378554
0.380556
0.381605
0.384024
0.385466
0.388053
0.390074
0.392948
0.395632
0.398874
0.40231
0.406035
0.41025
0.414564
0.41956
0.424586
0.430463
0.436344
0.443235
0.450105
0.458122
0.466007
0.475235
0.484149
0.49416
0.503985
0.514588
0.52502
0.535893
0.546512
0.557152
0.567273
0.576805
0.585336
0.592516
0.598324
0.602138
0.604416
0.605188
0.56457
0.977106
1.15187
1.1937
1.16225
1.02398
0.795924
0.532682
0.309575
0.206975
0.169326
0.161247
0.162688
0.174964
0.198341
0.231422
0.271548
0.315834
0.359389
0.399564
0.43857
0.491721
0.589369
0.770493
1.07908
1.50666
1.92318
2.06497
2.08658
2.05179
1.94424
1.77764
1.58197
1.38716
1.20429
1.12381
1.10694
1.11675
1.17149
1.257
1.39636
1.55428
1.76153
1.96209
2.16903
2.31865
2.42833
2.45751
2.46134
2.42658
2.31215
2.10474
1.83645
1.57664
1.35703
1.19658
1.1045
1.03345
1.00214
0.981637
0.974668
0.971576
0.972071
0.976881
0.991517
1.00996
1.02549
1.03047
1.03284
1.03307
1.03468
1.03576
1.03509
1.03512
1.03116
1.02831
1.01932
1.0141
1.00197
0.99677
0.982463
0.977219
0.960197
0.954087
0.936659
0.929963
0.912782
0.906077
0.891515
0.880073
0.870643
0.860177
0.856948
0.84951
0.849406
0.844818
0.846437
0.844153
0.846978
0.844875
0.847277
0.843686
0.844158
0.833886
0.831056
0.812509
0.80599
0.782689
0.761128
0.738819
0.710169
0.691874
0.658825
0.64548
0.613793
0.601875
0.574639
0.563835
0.541094
0.532033
0.512866
0.505307
0.489169
0.483079
0.470197
0.463114
0.453629
0.446947
0.44014
0.433005
0.42859
0.421333
0.418706
0.412172
0.409809
0.404527
0.40262
0.398365
0.396953
0.393456
0.392407
0.390014
0.388632
0.387348
0.386085
0.385605
0.384672
0.384523
0.384137
0.38424
0.384222
0.384923
0.385121
0.386338
0.386804
0.3885
0.389234
0.391432
0.39264
0.395043
0.39694
0.39962
0.402258
0.405271
0.408739
0.412203
0.416531
0.420605
0.425844
0.430684
0.436944
0.442701
0.450144
0.456969
0.46577
0.473733
0.484013
0.493222
0.504501
0.514859
0.526938
0.538089
0.550577
0.56207
0.5744
0.585566
0.596707
0.606389
0.61468
0.621522
0.62554
0.628228
0.629044
0.296604
0.581331
0.888469
1.16123
1.23865
1.23884
1.15129
0.968066
0.725599
0.487558
0.326288
0.254056
0.226129
0.222277
0.22762
0.246422
0.272957
0.307237
0.344235
0.389119
0.455821
0.570287
0.774635
1.07954
1.49446
1.90776
2.08034
2.1067
2.08076
1.97392
1.78868
1.55306
1.30077
1.06432
0.85089
0.673858
0.559692
0.530585
0.535196
0.558036
0.621627
0.706856
0.837004
0.983434
1.1797
1.38767
1.64638
1.86166
2.07446
2.20464
2.32745
2.3713
2.38051
2.36414
2.29902
2.16571
1.99366
1.80025
1.63217
1.48663
1.38838
1.30801
1.26929
1.24121
1.23416
1.22767
1.22961
1.22774
1.23208
1.23287
1.24604
1.25727
1.2704
1.28429
1.28922
1.29931
1.30198
1.31043
1.31162
1.31807
1.31719
1.32076
1.31835
1.32051
1.31799
1.31935
1.31611
1.31724
1.31684
1.31483
1.31778
1.31749
1.32555
1.32805
1.34443
1.34912
1.37393
1.38229
1.41296
1.42355
1.4554
1.46601
1.4896
1.49541
1.50486
1.50237
1.50332
1.49218
1.46373
1.44179
1.39643
1.36856
1.30636
1.27809
1.21114
1.184
1.11826
1.09091
1.03171
1.00736
0.954204
0.932643
0.885226
0.86701
0.826802
0.803705
0.773564
0.747167
0.726587
0.695518
0.682963
0.650983
0.639924
0.610678
0.599641
0.57361
0.563698
0.540621
0.532333
0.511637
0.504739
0.488711
0.479791
0.468835
0.460162
0.453021
0.444488
0.441093
0.433612
0.431375
0.425953
0.424524
0.420888
0.420107
0.418003
0.417792
0.417002
0.417313
0.417793
0.418452
0.420225
0.421168
0.424151
0.42539
0.429456
0.431237
0.436338
0.438698
0.444902
0.448056
0.455402
0.4596
0.468255
0.473683
0.483833
0.490662
0.502494
0.511027
0.52397
0.534284
0.548169
0.559921
0.574289
0.587004
0.60114
0.614208
0.626916
0.639073
0.64832
0.657483
0.661812
0.665259
0.666232
0.129517
0.274937
0.462109
0.763888
1.08466
1.27077
1.33056
1.32473
1.24527
1.09584
0.901971
0.718068
0.571131
0.491409
0.45905
0.460288
0.473785
0.51879
0.588347
0.696111
0.871514
1.10549
1.4309
1.75358
2.03358
2.12924
2.14449
2.10654
1.98391
1.77136
1.50105
1.21184
0.924764
0.673878
0.44996
0.281931
0.166041
0.125437
0.117125
0.116624
0.128964
0.151515
0.1939
0.247175
0.327267
0.419487
0.553037
0.696449
0.899906
1.10771
1.37344
1.59942
1.83307
1.98869
2.12304
2.21609
2.27801
2.31032
2.31245
2.30238
2.26673
2.21259
2.14359
2.0721
2.0132
1.9568
1.92075
1.87644
1.8523
1.81982
1.80997
1.80253
1.79661
1.79853
1.7968
1.80218
1.8021
1.81151
1.81197
1.82089
1.8192
1.82588
1.82395
1.83251
1.83249
1.84468
1.84729
1.86445
1.87321
1.8829
1.89756
1.90465
1.92672
1.93627
1.96759
1.98054
2.0221
2.03966
2.08963
2.11187
2.16759
2.19276
2.24552
2.26779
2.30873
2.32356
2.34615
2.35187
2.34906
2.34791
2.32963
2.31589
2.27504
2.25209
2.19726
2.16989
2.107
2.07453
2.01065
1.98004
1.91845
1.89172
1.83296
1.80994
1.75856
1.7234
1.68427
1.63907
1.61203
1.55701
1.53693
1.47682
1.45569
1.39342
1.36861
1.30403
1.27782
1.21171
1.18619
1.11655
1.09064
1.02753
0.98861
0.939326
0.891547
0.854827
0.801778
0.777255
0.726023
0.706299
0.662137
0.645811
0.609474
0.596393
0.567466
0.557399
0.535289
0.527961
0.513581
0.50539
0.497548
0.491391
0.487965
0.483414
0.48256
0.480382
0.480671
0.480429
0.482987
0.483899
0.488765
0.490918
0.497889
0.501106
0.510123
0.514688
0.525839
0.532746
0.544908
0.554768
0.568007
0.580553
0.594489
0.609306
0.623227
0.639564
0.652514
0.668689
0.678606
0.690722
0.696247
0.700426
0.701633
0.0474018
0.105555
0.187149
0.335893
0.564096
0.873259
1.16115
1.336
1.44251
1.47696
1.47208
1.43646
1.37906
1.31651
1.27731
1.2805
1.30008
1.3727
1.4751
1.61095
1.78124
1.92486
2.07224
2.15949
2.19227
2.17715
2.09302
1.91626
1.65726
1.35815
1.03809
0.743857
0.46574
0.269175
0.126937
0.0667481
0.0375542
0.0253164
0.0210364
0.0197068
0.02022
0.0221745
0.0274394
0.035201
0.0487699
0.0662632
0.0951649
0.129848
0.184747
0.247742
0.341923
0.445853
0.588799
0.744743
0.938746
1.15601
1.34722
1.56
1.71079
1.88266
1.97901
2.10147
2.15801
2.2536
2.30077
2.38745
2.42801
2.4982
2.52991
2.5697
2.58558
2.59389
2.59213
2.59179
2.58156
2.57901
2.57157
2.57284
2.5668
2.56772
2.55219
2.54797
2.5283
2.52686
2.52048
2.52483
2.52436
2.53769
2.5482
2.5571
2.5755
2.58257
2.60676
2.61668
2.64917
2.66135
2.70272
2.71893
2.7679
2.78878
2.8442
2.86979
2.9243
2.94943
2.99585
3.01511
3.05115
3.06654
3.07497
3.07926
3.07561
3.0746
3.05833
3.0496
3.01877
3.00268
2.96352
2.9426
2.90181
2.8818
2.84377
2.82886
2.7982
2.78902
2.76798
2.75358
2.74215
2.72391
2.72033
2.70081
2.6993
2.67856
2.67668
2.65208
2.64577
2.61268
2.60152
2.55685
2.54091
2.4815
2.46022
2.39973
2.3471
2.29223
2.21663
2.16255
2.066
2.01189
1.90011
1.84744
1.72627
1.67505
1.55309
1.50276
1.38403
1.33489
1.22245
1.1764
1.08198
1.02723
0.95866
0.900831
0.854806
0.799037
0.772118
0.724323
0.706563
0.670507
0.658441
0.63389
0.626506
0.611565
0.607918
0.60074
0.599967
0.597179
0.598071
0.599922
0.60278
0.609358
0.614459
0.625787
0.63292
0.64844
0.658139
0.676596
0.688709
0.708256
0.720492
0.736209
0.743694
0.748988
0.750544
0.0164568
0.034555
0.0612987
0.113374
0.202053
0.342413
0.55329
0.829202
1.11245
1.32096
1.46482
1.55782
1.64148
1.70403
1.76757
1.82213
1.88625
1.94464
2.0152
2.06882
2.1307
2.14613
2.13512
2.08392
1.97351
1.81058
1.58151
1.31695
0.998549
0.714215
0.433592
0.254285
0.124669
0.0712035
0.0385049
0.0252885
0.0185029
0.0152865
0.0132666
0.0114129
0.00999693
0.00947908
0.00943127
0.00959882
0.0103986
0.0118285
0.0148018
0.01895
0.0262836
0.0355196
0.0505805
0.0691985
0.0976277
0.131027
0.17625
0.237172
0.301202
0.390206
0.474825
0.597066
0.711885
0.872387
1.00283
1.18922
1.32032
1.52447
1.66223
1.88088
2.02648
2.23412
2.36966
2.54065
2.66005
2.78126
2.87482
2.9577
3.03126
3.09096
3.14574
3.18471
3.21224
3.22437
3.22661
3.23185
3.232
3.24153
3.24512
3.26088
3.27255
3.28239
3.30121
3.30862
3.3314
3.34097
3.36865
3.37793
3.40881
3.41942
3.45344
3.46549
3.50178
3.51544
3.54827
3.56077
3.58642
3.59521
3.61356
3.61955
3.61964
3.61903
3.61078
3.60511
3.58924
3.57981
3.55704
3.54296
3.51507
3.49678
3.46767
3.44957
3.42281
3.4088
3.38891
3.38275
3.37797
3.37548
3.37761
3.3778
3.38648
3.38997
3.4069
3.41389
3.43699
3.44676
3.4718
3.48283
3.50785
3.51725
3.54039
3.54635
3.56755
3.5761
3.58158
3.58913
3.58717
3.59069
3.57835
3.57736
3.54681
3.53863
3.48908
3.46869
3.39776
3.36045
3.26687
3.21412
3.09687
3.0285
2.90743
2.78811
2.67514
2.52249
2.41022
2.23978
2.13333
1.95453
1.86386
1.68163
1.60113
1.42922
1.35583
1.20935
1.14822
1.03511
0.989267
0.912768
0.882866
0.831419
0.803332
0.775329
0.751884
0.741495
0.726792
0.723122
0.720311
0.725461
0.73245
0.746943
0.761032
0.778753
0.791263
0.797853
0.800045
0.00742133
0.0112248
0.0178273
0.0302847
0.0540988
0.0944503
0.161068
0.258764
0.396252
0.573659
0.788476
0.98207
1.16367
1.29268
1.41955
1.48877
1.5753
1.60959
1.63171
1.62831
1.59071
1.52373
1.39966
1.26314
1.06196
0.870327
0.631366
0.456992
0.282179
0.196515
0.112654
0.0777533
0.0458047
0.0338873
0.0244785