/*--------------------------------*- C++ -*----------------------------------*\
| =========                 |                                                 |
| \\      /  F ield         | OpenFOAM: The Open Source CFD Toolbox           |
|  \\    /   O peration     | Version:  4.1                                   |
|   \\  /    A nd           | Web:      www.OpenFOAM.org                      |
|    \\/     M anipulation  |                                                 |
\*---------------------------------------------------------------------------*/
FoamFile
{
    version     2.0;
    format      ascii;
    class       volScalarField;
    location    "9.5";
    object      p;
}
// * * * * * * * * * * * * * * * * * * * * * * * * * * * * * * * * * * * * * //

dimensions      [0 2 -2 0 0 0 0];

internalField   nonuniform List<scalar> 
204246
(
-7.85779
-19.2835
-21.5963
-25.5433
-32.7951
-38.107
-43.1612
-47.6039
-51.4579
-54.5395
-57.0536
-58.6587
-59.5023
-59.8137
-59.6437
-58.9773
-58.0708
-56.6609
-54.6121
-52.3905
-49.9685
-47.6758
-45.4075
-43.4123
-41.6395
-40.1504
-38.8798
-37.8898
-36.9459
-36.4988
-36.0539
-35.7905
-35.5177
-35.6097
-36.037
-36.8383
-37.4074
-37.5483
-38.2495
-38.6248
-39.1694
-39.6936
-40.3
-40.8243
-41.5788
-41.817
-42.5784
-43.0036
-43.4872
-43.7829
-44.1818
-44.4238
-45.6007
-46.2088
-46.0899
-46.7569
-46.8927
-47.1313
-47.354
-47.6494
-47.9
-48.1847
-48.3478
-48.5658
-48.6894
-48.872
-48.9395
-49.0041
-49.0109
-50.0264
-50.5915
-50.4218
-50.8183
-50.842
-50.9654
-51.0539
-51.1651
-51.1824
-51.8524
-51.8425
-51.9695
-52.0529
-52.2063
-52.248
-52.2889
-52.269
-53.3026
-53.8734
-53.6848
-54.0883
-54.0651
-54.1006
-54.066
-54.7666
-54.8051
-54.9663
-55.0197
-55.0453
-54.8224
-55.5146
-55.4843
-55.4944
-55.4408
-55.4333
-55.3929
-56.4909
-56.8905
-56.701
-56.9116
-56.6761
-57.3109
-57.2823
-57.4266
-57.5085
-57.5911
-57.4689
-58.0466
-57.757
-58.3638
-58.2692
-58.2467
-58.149
-59.3465
-59.873
-59.7009
-60.1241
-59.8244
-60.5392
-60.6397
-60.7446
-60.6374
-61.3276
-61.116
-61.7902
-61.5387
-62.19
-61.8326
-62.3359
-62.0728
-63.3572
-63.9707
-63.8786
-64.3883
-64.1001
-64.769
-64.5205
-65.2491
-64.9584
-65.6561
-65.3852
-66.1118
-66.1844
-66.298
-66.2104
-66.0824
-65.7477
-66.9736
-67.2668
-66.66
-66.8034
-66.1756
-65.6303
-64.8911
-64.1026
-63.0075
-61.7538
-60.092
-58.1905
-55.8258
-53.1987
-50.1528
-46.9141
-42.2956
-37.6518
-32.2566
-26.3771
-19.55
-11.6243
-3.0232
6.78507
17.7791
30.4267
44.7857
61.3315
80.0306
101.149
124.566
150.85
180.949
220.444
280.442
376.089
504.725
-10.9929
-15.5647
-18.7623
-22.5509
-29.1801
-35.0569
-40.7154
-45.4949
-49.6901
-53.3137
-56.2655
-58.3932
-59.8239
-60.7224
-60.9287
-60.564
-59.8114
-58.5822
-56.7945
-54.6054
-52.1863
-49.6988
-47.234
-44.9665
-42.9145
-41.1628
-39.636
-38.3805
-37.3986
-36.6634
-36.1154
-35.7083
-35.4757
-35.5019
-35.7495
-36.164
-36.5876
-37.0444
-37.5539
-38.0646
-38.6178
-39.1848
-39.7941
-40.3815
-40.9495
-41.4981
-42.0614
-42.6048
-43.0625
-43.5134
-43.9604
-44.4102
-44.9609
-45.4765
-45.8891
-46.2753
-46.6021
-46.8875
-47.1558
-47.4266
-47.7019
-47.9635
-48.2005
-48.4086
-48.5875
-48.7373
-48.8459
-48.9813
-49.2002
-49.5643
-49.9383
-50.2173
-50.4534
-50.6329
-50.7815
-50.9139
-51.0604
-51.2417
-51.47
-51.6742
-51.8442
-51.9809
-52.0853
-52.1697
-52.2882
-52.504
-52.8617
-53.2264
-53.4895
-53.7018
-53.857
-54.0005
-54.1781
-54.4055
-54.6136
-54.7789
-54.8982
-54.9856
-55.0867
-55.2644
-55.387
-55.4314
-55.4501
-55.5036
-55.6712
-56.0029
-56.3105
-56.4966
-56.6489
-56.7919
-56.974
-57.1384
-57.2741
-57.3936
-57.4921
-57.6083
-57.7832
-57.9281
-58.0906
-58.1745
-58.2608
-58.4649
-58.8542
-59.2471
-59.525
-59.7631
-59.9679
-60.2144
-60.4396
-60.6038
-60.7875
-61.0163
-61.2404
-61.495
-61.73
-61.9378
-62.0722
-62.2152
-62.4679
-62.9161
-63.3873
-63.7525
-64.068
-64.3249
-64.5582
-64.8224
-65.0604
-65.3285
-65.5458
-65.8379
-66.1054
-66.4394
-66.6024
-66.792
-66.7307
-66.9373
-67.1468
-67.3598
-67.4429
-67.4146
-67.3381
-66.9309
-66.6162
-65.972
-65.2889
-64.2953
-63.0788
-61.5433
-59.7218
-57.5999
-55.0917
-52.2018
-48.7021
-44.7414
-40.1437
-35.0208
-29.0312
-22.1915
-14.609
-6.07547
3.36301
14.0417
26.0237
39.7628
55.3075
72.9292
92.2416
113.014
134.868
159.896
195.803
261.242
357.999
-17.711
-20.1864
-22.8454
-25.8163
-30.7137
-35.7265
-40.631
-45.3804
-49.4625
-53.0079
-55.9285
-58.2405
-59.9549
-61.0381
-61.567
-61.4143
-60.6367
-59.4181
-57.8165
-55.7919
-53.4377
-50.9133
-48.3689
-45.9515
-43.7406
-41.8037
-40.129
-38.7326
-37.645
-36.8029
-36.1611
-35.7087
-35.4897
-35.49
-35.7057
-35.9467
-36.321
-36.7836
-37.2799
-37.7974
-38.3618
-38.954
-39.5642
-40.1593
-40.743
-41.3272
-41.8987
-42.4391
-42.9292
-43.4231
-43.9027
-44.3876
-44.8568
-45.2932
-45.7157
-46.0981
-46.4528
-46.7579
-47.0531
-47.321
-47.6002
-47.852
-48.1049
-48.3242
-48.534
-48.7007
-48.8616
-49.0395
-49.2738
-49.5279
-49.7854
-50.0481
-50.2835
-50.4935
-50.6661
-50.8348
-50.9987
-51.1914
-51.3753
-51.5704
-51.7543
-51.9216
-52.0507
-52.1833
-52.3434
-52.5664
-52.8142
-53.0651
-53.3149
-53.533
-53.7301
-53.9091
-54.1077
-54.2939
-54.4796
-54.6449
-54.7924
-54.9249
-55.0805
-55.2138
-55.3373
-55.4166
-55.4934
-55.6011
-55.7744
-55.9556
-56.1384
-56.3229
-56.4964
-56.6705
-56.8252
-56.9878
-57.1336
-57.2733
-57.3914
-57.5424
-57.6883
-57.8514
-57.9952
-58.1312
-58.2847
-58.5078
-58.7476
-59.0021
-59.2678
-59.5204
-59.7675
-59.995
-60.2083
-60.4144
-60.6146
-60.8214
-61.0451
-61.279
-61.5085
-61.7231
-61.9176
-62.1181
-62.3773
-62.6943
-63.0318
-63.3542
-63.6593
-63.9152
-64.1782
-64.4245
-64.6789
-64.9148
-65.1639
-65.4042
-65.6709
-65.8853
-66.0938
-66.1981
-66.336
-66.4674
-66.7019
-66.8346
-66.8337
-66.7544
-66.5328
-66.226
-65.7754
-65.2044
-64.4408
-63.4538
-62.2069
-60.6439
-58.8328
-56.6515
-54.1669
-51.2232
-47.9122
-44.0653
-39.672
-34.5824
-28.7628
-22.2213
-14.7906
-6.46205
2.87958
13.2786
24.9698
38.1435
53.1573
70.1024
88.9131
108.955
129.91
152.361
181.04
224.194
281.396
-21.4479
-23.3166
-25.8425
-29.0579
-33.3866
-37.703
-41.831
-45.9284
-49.8228
-53.3672
-56.3255
-58.7334
-60.66
-62.0359
-62.8189
-62.9624
-62.5118
-61.4153
-59.7491
-57.6503
-55.1949
-52.5144
-49.7556
-47.0805
-44.6133
-42.4308
-40.5508
-38.9859
-37.7588
-36.805
-36.071
-35.5231
-35.2813
-35.219
-35.284
-35.5329
-35.8957
-36.3387
-36.8436
-37.3801
-37.9583
-38.5672
-39.1923
-39.8087
-40.42
-41.0236
-41.6155
-42.1822
-42.7067
-43.2284
-43.7253
-44.217
-44.6815
-45.1193
-45.5318
-45.9178
-46.2807
-46.6073
-46.9143
-47.1941
-47.4717
-47.7262
-47.9761
-48.2001
-48.4168
-48.6035
-48.7934
-48.9873
-49.2101
-49.4363
-49.67
-49.9058
-50.135
-50.3482
-50.5377
-50.7237
-50.8992
-51.0885
-51.2675
-51.4593
-51.6326
-51.8087
-51.9569
-52.1236
-52.2993
-52.5131
-52.7273
-52.9523
-53.1784
-53.3981
-53.6122
-53.8063
-54.0142
-54.1974
-54.3883
-54.5338
-54.7147
-54.8365
-55.0136
-55.134
-55.2882
-55.3717
-55.4858
-55.5996
-55.7776
-55.9106
-56.0752
-56.2378
-56.3952
-56.5775
-56.71
-56.8912
-57.0112
-57.1852
-57.2918
-57.473
-57.6026
-57.7833
-57.9138
-58.0862
-58.248
-58.4904
-58.6826
-58.9261
-59.1688
-59.3888
-59.6663
-59.8721
-60.1219
-60.3119
-60.5535
-60.741
-60.9939
-61.1977
-61.4604
-61.6518
-61.8958
-62.098
-62.41
-62.6591
-62.9553
-63.2688
-63.5607
-63.8957
-64.1412
-64.4545
-64.6849
-64.9965
-65.2173
-65.5578
-65.7875
-66.1164
-66.3002
-66.562
-66.7219
-67.0148
-67.1637
-67.3593
-67.5187
-67.5777
-67.5651
-67.4327
-67.2409
-66.9245
-66.5044
-65.9409
-65.1384
-64.1016
-62.6843
-60.9384
-58.7889
-56.2648
-53.3034
-49.9021
-45.9739
-41.4789
-36.2749
-30.3511
-23.6589
-16.106
-7.66512
1.77795
12.2921
24.0529
37.1487
51.6877
67.6427
85.0493
104.095
125.896
153.174
187.928
226.327
-23.9763
-25.7288
-28.0268
-31.2493
-35.5817
-39.7144
-43.456
-47.0418
-50.5639
-53.9284
-56.8868
-59.3409
-61.3422
-62.8808
-63.8919
-64.2482
-64.0603
-63.2171
-61.7587
-59.7376
-57.2234
-54.3792
-51.376
-48.399
-45.6182
-43.1415
-41.0198
-39.2547
-37.8605
-36.7838
-35.9765
-35.3933
-35.0785
-34.9625
-35.0172
-35.2015
-35.5311
-35.9577
-36.4572
-37.0033
-37.5929
-38.2169
-38.8545
-39.4954
-40.1264
-40.7523
-41.3597
-41.9557
-42.5084
-43.057
-43.5682
-44.0695
-44.532
-44.9751
-45.3888
-45.7766
-46.1473
-46.4841
-46.8033
-47.0895
-47.3721
-47.6293
-47.8859
-48.1105
-48.3412
-48.5322
-48.744
-48.9382
-49.1569
-49.3622
-49.5846
-49.8057
-50.0266
-50.244
-50.4344
-50.6333
-50.8121
-51.0056
-51.1775
-51.3883
-51.5415
-51.7419
-51.8796
-52.0745
-52.2465
-52.4573
-52.6454
-52.8645
-53.0809
-53.2902
-53.5191
-53.7043
-53.9272
-54.1027
-54.3143
-54.4572
-54.6547
-54.7825
-54.965
-55.086
-55.2484
-55.3425
-55.4713
-55.5817
-55.7444
-55.8649
-56.0224
-56.1757
-56.3157
-56.4902
-56.6205
-56.8062
-56.9188
-57.1009
-57.206
-57.393
-57.5194
-57.7049
-57.8407
-58.0241
-58.1806
-58.4088
-58.5953
-58.8312
-59.0604
-59.2763
-59.5415
-59.7431
-60.0027
-60.1938
-60.447
-60.6357
-60.8941
-61.0931
-61.357
-61.5513
-61.8014
-62.0123
-62.3059
-62.5454
-62.8331
-63.1169
-63.4082
-63.7168
-63.9719
-64.2634
-64.5219
-64.7977
-65.0613
-65.3389
-65.6102
-65.8643
-66.0986
-66.2847
-66.4907
-66.6772
-66.8995
-67.0817
-67.1839
-67.2182
-67.157
-66.9934
-66.7014
-66.2532
-65.6803
-64.941
-64.1094
-63.0734
-61.8584
-60.3494
-58.5413
-56.3555
-53.777
-50.7398
-47.217
-43.1385
-38.4432
-33.1144
-27.0349
-20.129
-12.307
-3.50448
6.32307
17.1627
28.9558
41.5884
55.034
69.3947
85.2747
104.033
127.401
155.421
183.386
-25.4335
-27.3315
-29.9693
-33.3471
-37.5458
-41.5024
-45.0056
-48.256
-51.457
-54.6122
-57.5003
-59.9798
-62.0482
-63.7367
-64.9924
-65.7217
-65.7189
-65.1149
-63.8431
-61.9456
-59.4636
-56.5133
-53.2752
-49.9746
-46.8334
-44
-41.5705
-39.5556
-37.9705
-36.7521
-35.8488
-35.195
-34.8116
-34.6379
-34.6799
-34.8495
-35.1646
-35.5819
-36.0812
-36.6371
-37.2389
-37.8737
-38.5232
-39.1847
-39.8373
-40.486
-41.1126
-41.7328
-42.3114
-42.8848
-43.4149
-43.9309
-44.4001
-44.8488
-45.266
-45.6573
-46.0335
-46.375
-46.7009
-46.9921
-47.2792
-47.5408
-47.806
-48.0301
-48.274
-48.4585
-48.6933
-48.8855
-49.1061
-49.2963
-49.5118
-49.7256
-49.9351
-50.1593
-50.3399
-50.5517
-50.7242
-50.9272
-51.0938
-51.3077
-51.4623
-51.6702
-51.8128
-52.0169
-52.1846
-52.3976
-52.5742
-52.789
-53.0032
-53.1967
-53.4285
-53.6183
-53.8412
-54.0217
-54.2369
-54.3912
-54.5903
-54.7299
-54.9145
-55.0403
-55.207
-55.3152
-55.4544
-55.561
-55.714
-55.8291
-55.9812
-56.1203
-56.259
-56.4104
-56.5422
-56.7171
-56.8352
-57.0093
-57.1254
-57.3079
-57.4413
-57.6177
-57.7723
-57.9471
-58.1162
-58.324
-58.5092
-58.7374
-58.9538
-59.1739
-59.4158
-59.6212
-59.8728
-60.0735
-60.3222
-60.52
-60.7738
-60.978
-61.2376
-61.4397
-61.6971
-61.9091
-62.1934
-62.4251
-62.7067
-62.9847
-63.2687
-63.58
-63.8447
-64.1581
-64.4166
-64.7315
-64.9912
-65.3191
-65.5846
-65.9162
-66.1611
-66.5087
-66.7426
-67.0861
-67.2399
-67.486
-67.8138
-67.9581
-68.1362
-68.189
-68.2315
-68.2634
-68.1297
-67.8403
-67.2845
-66.5003
-65.4375
-64.1043
-62.4553
-60.4819
-58.1348
-55.3944
-52.2069
-48.5413
-44.306
-39.4844
-33.991
-27.7127
-20.5668
-12.4625
-3.38922
6.63241
17.4821
29.0338
41.2334
54.1445
68.2503
84.7372
104.404
127.105
148.637
-25.6625
-27.6693
-30.8047
-34.7456
-39.1314
-43.0936
-46.4004
-49.2801
-52.0942
-55.0025
-57.8345
-60.3672
-62.5178
-64.3356
-65.8112
-66.8541
-67.2773
-67.0022
-66.0072
-64.3087
-61.9233
-58.9371
-55.5179
-51.9116
-48.3892
-45.1544
-42.362
-40.0492
-38.2237
-36.8024
-35.7478
-35.0083
-34.5803
-34.3671
-34.3535
-34.4775
-34.7936
-35.2111
-35.7056
-36.2658
-36.8811
-37.5285
-38.1895
-38.868
-39.5407
-40.2103
-40.857
-41.4984
-42.101
-42.699
-43.2509
-43.7866
-44.2699
-44.7298
-45.1542
-45.5512
-45.9326
-46.2782
-46.6084
-46.9044
-47.1988
-47.4607
-47.7336
-47.9546
-48.2047
-48.3937
-48.6292
-48.8272
-49.0527
-49.2386
-49.4476
-49.66
-49.8566
-50.0782
-50.2625
-50.4736
-50.6485
-50.8525
-51.0218
-51.2325
-51.3922
-51.5991
-51.7501
-51.9554
-52.1219
-52.3326
-52.5101
-52.7205
-52.9316
-53.1227
-53.3498
-53.54
-53.7628
-53.9478
-54.1681
-54.3304
-54.5357
-54.6825
-54.8724
-55.0026
-55.1739
-55.2916
-55.4317
-55.5526
-55.688
-55.8107
-55.9483
-56.0804
-56.2113
-56.3494
-56.4861
-56.6512
-56.7705
-56.9448
-57.0626
-57.2413
-57.3776
-57.5561
-57.7038
-57.8916
-58.0522
-58.2619
-58.4391
-58.6532
-58.8709
-59.0791
-59.3217
-59.5291
-59.7692
-59.9774
-60.215
-60.4235
-60.6628
-60.8773
-61.12
-61.3359
-61.5787
-61.8055
-62.0614
-62.3011
-62.5659
-62.8331
-63.1086
-63.3897
-63.6571
-63.9385
-64.2116
-64.4897
-64.7696
-65.0483
-65.3324
-65.6029
-65.8784
-66.1265
-66.3802
-66.589
-66.8575
-67.098
-67.2817
-67.4116
-67.4597
-67.4224
-67.2851
-67.0562
-66.8014
-66.4653
-66.1079
-65.6098
-64.9476
-64.0395
-62.8545
-61.3396
-59.4681
-57.1998
-54.5095
-51.3613
-47.7023
-43.5247
-38.7339
-33.2416
-26.9615
-19.8238
-11.8143
-2.95601
6.67367
16.9869
27.9299
39.5803
52.3228
66.9425
83.7709
102.547
119.779
-24.9954
-27.0083
-30.4012
-34.7562
-39.5224
-43.8565
-47.3239
-50.1161
-52.6707
-55.2174
-57.8727
-60.4208
-62.6791
-64.641
-66.3095
-67.6333
-68.4418
-68.6036
-68.0153
-66.6496
-64.4863
-61.5735
-58.0545
-54.1935
-50.3105
-46.6722
-43.4934
-40.8482
-38.7468
-37.1019
-35.8703
-34.9875
-34.4232
-34.0993
-34.0353
-34.1723
-34.4648
-34.8486
-35.3213
-35.8899
-36.5266
-37.188
-37.8531
-38.5438
-39.2341
-39.921
-40.5861
-41.2473
-41.8718
-42.4911
-43.0663
-43.6249
-44.1281
-44.6058
-45.0434
-45.4497
-45.836
-46.1874
-46.5257
-46.8261
-47.1256
-47.3867
-47.6614
-47.8872
-48.1364
-48.3364
-48.5669
-48.7682
-48.9933
-49.1812
-49.3885
-49.6
-49.7908
-50.007
-50.1907
-50.4004
-50.5759
-50.7798
-50.9517
-51.1614
-51.3234
-51.5298
-51.6861
-51.8911
-52.0571
-52.2647
-52.4405
-52.6489
-52.8573
-53.0475
-53.2725
-53.4614
-53.6837
-53.8698
-54.0926
-54.2602
-54.4701
-54.6231
-54.8163
-54.9521
-55.125
-55.2469
-55.3955
-55.5131
-55.6519
-55.7673
-55.9019
-56.0281
-56.1533
-56.2882
-56.4081
-56.5644
-56.683
-56.8448
-56.9684
-57.1357
-57.2786
-57.4503
-57.6037
-57.7863
-57.9507
-58.1509
-58.3264
-58.5415
-58.7504
-58.9592
-59.193
-59.4034
-59.6413
-59.8513
-60.0912
-60.3019
-60.5431
-60.7597
-61.0066
-61.226
-61.4784
-61.7072
-61.9657
-62.1978
-62.4542
-62.7284
-63.0068
-63.2964
-63.5756
-63.8737
-64.1568
-64.4642
-64.7541
-65.0714
-65.3699
-65.6975
-66.0049
-66.3405
-66.6471
-66.9758
-67.2503
-67.56
-67.8851
-68.1965
-68.4986
-68.7517
-68.9668
-69.1089
-69.1193
-68.9998
-68.697
-68.2369
-67.5872
-66.746
-65.6665
-64.3251
-62.6677
-60.6659
-58.2749
-55.4697
-52.1888
-48.4224
-44.0913
-39.1258
-33.4765
-27.1019
-19.9927
-12.1546
-3.63502
5.51865
15.2994
25.8035
37.342
50.3727
65.0222
80.9502
95.2047
-23.8226
-25.7933
-29.2356
-33.6965
-38.6937
-43.4704
-47.4981
-50.5083
-52.9532
-55.2592
-57.7008
-60.1548
-62.443
-64.5134
-66.3555
-67.937
-69.1052
-69.7238
-69.6204
-68.7167
-66.9286
-64.2347
-60.7369
-56.7016
-52.4983
-48.4778
-44.9165
-41.9274
-39.5496
-37.6934
-36.2851
-35.2378
-34.5213
-34.0784
-33.907
-33.956
-34.1509
-34.4825
-34.9655
-35.5553
-36.1878
-36.8398
-37.5052
-38.2132
-38.9273
-39.6277
-40.2983
-40.9723
-41.6188
-42.2578
-42.8553
-43.4358
-43.9631
-44.4637
-44.9188
-45.3388
-45.7339
-46.0949
-46.4422
-46.7474
-47.0493
-47.3156
-47.5908
-47.822
-48.0724
-48.2777
-48.5089
-48.7084
-48.9331
-49.12
-49.3297
-49.538
-49.7277
-49.9429
-50.1234
-50.3331
-50.5071
-50.71
-50.882
-51.0905
-51.2541
-51.4595
-51.62
-51.8238
-51.9916
-52.1929
-52.3671
-52.5712
-52.7784
-52.9721
-53.1905
-53.385
-53.6017
-53.7942
-54.012
-54.1911
-54.3984
-54.5648
-54.7532
-54.9035
-55.0735
-55.2061
-55.3525
-55.4741
-55.6115
-55.7205
-55.8516
-55.9743
-56.0934
-56.2248
-56.3376
-56.4817
-56.6017
-56.7515
-56.8803
-57.039
-57.1855
-57.3526
-57.5067
-57.687
-57.8523
-58.0451
-58.2159
-58.4219
-58.6282
-58.8415
-59.0591
-59.2756
-59.4971
-59.7125
-59.9387
-60.1571
-60.3842
-60.6062
-60.8358
-61.0615
-61.2956
-61.5278
-61.7674
-62.0102
-62.2647
-62.5204
-62.7847
-63.0477
-63.3187
-63.589
-63.8686
-64.1474
-64.4356
-64.7211
-65.0159
-65.3048
-65.6032
-65.8927
-66.1976
-66.4978
-66.8191
-67.1078
-67.3442
-67.5536
-67.7224
-67.8941
-68.0177
-68.1008
-68.1616
-68.1649
-68.1755
-68.0895
-67.8804
-67.4835
-66.8704
-65.9956
-64.8233
-63.3123
-61.4262
-59.1282
-56.3585
-53.1015
-49.3015
-44.9091
-39.8969
-34.2431
-27.9524
-21.0335
-13.5111
-5.39451
3.33499
12.796
23.2242
34.8892
47.8259
61.6429
73.7882
-22.2946
-24.2525
-27.5065
-31.8105
-36.9334
-42.0289
-46.642
-50.1882
-52.8034
-55.0399
-57.2357
-59.5053
-61.7578
-63.9069
-65.899
-67.7029
-69.1972
-70.2368
-70.6365
-70.248
-68.9406
-66.6178
-63.3054
-59.237
-54.8101
-50.4614
-46.5534
-43.2425
-40.5838
-38.4986
-36.9088
-35.7165
-34.8818
-34.3334
-34.0422
-33.9603
-34.0686
-34.3401
-34.7551
-35.2624
-35.8342
-36.48
-37.1637
-37.8793
-38.6054
-39.3149
-39.995
-40.6825
-41.3437
-41.9907
-42.6053
-43.2075
-43.7652
-44.2903
-44.7665
-45.2045
-45.6107
-45.986
-46.3436
-46.6579
-46.9653
-47.2394
-47.5163
-47.7543
-48.0063
-48.2175
-48.4503
-48.6506
-48.8707
-49.0586
-49.2662
-49.4705
-49.6629
-49.8724
-50.0551
-50.2594
-50.4368
-50.6337
-50.8089
-51.0117
-51.1781
-51.3786
-51.5442
-51.7427
-51.9165
-52.1122
-52.2874
-52.4832
-52.6822
-52.8853
-53.093
-53.2955
-53.5046
-53.7075
-53.9157
-54.1105
-54.309
-54.4917
-54.6764
-54.8416
-55.0089
-55.1539
-55.2978
-55.4264
-55.5574
-55.666
-55.7952
-55.9147
-56.0306
-56.1593
-56.2688
-56.4079
-56.5224
-56.6723
-56.7935
-56.9506
-57.0946
-57.2531
-57.4127
-57.5868
-57.7598
-57.9441
-58.1233
-58.318
-58.5218
-58.7326
-58.9505
-59.1696
-59.3971
-59.6141
-59.8425
-60.0612
-60.2928
-60.5162
-60.7526
-60.9803
-61.2222
-61.4549
-61.7
-61.9324
-62.1824
-62.4448
-62.714
-62.993
-63.2694
-63.5604
-63.8442
-64.1472
-64.4422
-64.7584
-65.0656
-65.3949
-65.7142
-66.0567
-66.387
-66.738
-67.0691
-67.4268
-67.7985
-68.1657
-68.5316
-68.869
-69.1734
-69.4054
-69.5582
-69.6225
-69.5824
-69.4528
-69.2257
-68.8946
-68.4307
-67.7923
-66.935
-65.8095
-64.3635
-62.5397
-60.2735
-57.5408
-54.2936
-50.4934
-46.1257
-41.1796
-35.6662
-29.5952
-22.9789
-15.8039
-8.02762
0.47333
9.8817
20.3657
31.924
44.129
54.7328
-20.9299
-22.414
-25.2565
-29.1771
-34.2654
-39.5092
-44.58
-48.8641
-52.0344
-54.5042
-56.6616
-58.7325
-60.8134
-62.8885
-64.915
-66.8499
-68.5814
-69.9711
-70.8144
-70.9689
-70.1806
-68.3424
-65.3975
-61.5042
-57.0441
-52.5104
-48.3437
-44.766
-41.8567
-39.5442
-37.751
-36.3882
-35.4096
-34.7403
-34.3482
-34.1817
-34.2212
-34.4158
-34.7348
-35.151
-35.657
-36.2524
-36.8956
-37.5682
-38.2528
-38.9477
-39.6462
-40.3518
-41.0387
-41.7094
-42.3383
-42.9468
-43.5195
-44.0676
-44.5684
-45.0281
-45.453
-45.8458
-46.2203
-46.5477
-46.8582
-47.1428
-47.425
-47.6744
-47.9277
-48.1478
-48.3809
-48.5864
-48.7988
-48.9922
-49.1948
-49.3978
-49.5957
-49.7965
-49.9832
-50.1788
-50.3631
-50.5536
-50.7327
-50.9273
-51.0972
-51.2911
-51.4641
-51.6526
-51.8323
-52.0191
-52.2002
-52.3911
-52.5863
-52.788
-52.9921
-53.1974
-53.4058
-53.6106
-53.8192
-54.0188
-54.2204
-54.4094
-54.5986
-54.7703
-54.939
-55.0939
-55.2422
-55.3763
-55.4997
-55.612
-55.7323
-55.8497
-55.9656
-56.0864
-56.1899
-56.3153
-56.4257
-56.5588
-56.6813
-56.8328
-56.9797
-57.1338
-57.2928
-57.4607
-57.6327
-57.8125
-57.9948
-58.1882
-58.3868
-58.5935
-58.8051
-59.0209
-59.2377
-59.4548
-59.674
-59.8939
-60.1168
-60.34
-60.5658
-60.7939
-61.023
-61.254
-61.4863
-61.7248
-61.9709
-62.2186
-62.4736
-62.7309
-62.9958
-63.2636
-63.5403
-63.82
-64.1098
-64.4023
-64.7055
-65.0106
-65.3267
-65.6448
-65.9759
-66.3115
-66.6633
-67.0151
-67.3556
-67.6929
-68.0174
-68.341
-68.6549
-68.9948
-69.3287
-69.6384
-69.9004
-70.0684
-70.1237
-70.0512
-69.8383
-69.4718
-68.9208
-68.1468
-67.0985
-65.7195
-63.94
-61.727
-59.0329
-55.8266
-52.0992
-47.847
-43.082
-37.8122
-32.041
-25.7444
-18.8585
-11.2558
-2.78468
6.67213
17.095
28.0394
37.477
-19.916
-20.8265
-22.7366
-26.1748
-30.9672
-36.2093
-41.4722
-46.3394
-50.345
-53.4409
-55.8836
-57.9782
-59.95
-61.8894
-63.8121
-65.6982
-67.4949
-69.0755
-70.2355
-70.7819
-70.5036
-69.1747
-66.6996
-63.1769
-58.925
-54.43
-50.1646
-46.4292
-43.3366
-40.8242
-38.8322
-37.2873
-36.1429
-35.3327
-34.8156
-34.5348
-34.4703
-34.5765
-34.8259
-35.1907
-35.644
-36.1666
-36.7445
-37.3622
-38.0031
-38.6631
-39.3305
-40.0271
-40.691
-41.3403
-41.9862
-42.6233
-43.2335
-43.8101
-44.3323
-44.8108
-45.2518
-45.6604
-46.0454
-46.3929
-46.7229
-47.0212
-47.3086
-47.5691
-47.8269
-48.0584
-48.2924
-48.5047
-48.7166
-48.9157
-49.1171
-49.3187
-49.5182
-49.716
-49.9058
-50.0979
-50.2827
-50.4717
-50.6529
-50.8396
-51.0167
-51.2017
-51.3792
-51.5646
-51.7437
-51.9279
-52.1089
-52.2978
-52.4904
-52.6886
-52.8908
-53.0968
-53.3056
-53.5114
-53.7216
-53.9243
-54.13
-54.3243
-54.5191
-54.6968
-54.8719
-55.0317
-55.1883
-55.3265
-55.4542
-55.5663
-55.6793
-55.7947
-55.9091
-56.0244
-56.1307
-56.2584
-56.3628
-56.4988
-56.613
-56.7578
-56.8933
-57.0448
-57.1997
-57.3674
-57.5365
-57.7162
-57.8937
-58.0843
-58.2831
-58.4896
-58.7033
-58.9196
-59.1427
-59.3594
-59.5852
-59.802
-60.0291
-60.2513
-60.483
-60.7105
-60.9472
-61.1771
-61.4156
-61.6445
-61.8873
-62.14
-62.3987
-62.6663
-62.9339
-63.2137
-63.4905
-63.7834
-64.0741
-64.3825
-64.6889
-65.0134
-65.3362
-65.6783
-66.0205
-66.3833
-66.7452
-67.1292
-67.5214
-67.9113
-68.2983
-68.6729
-69.0382
-69.3831
-69.7205
-70.0425
-70.3492
-70.6256
-70.85
-70.9922
-71.0298
-70.9413
-70.7008
-70.2729
-69.6111
-68.66
-67.3533
-65.6493
-63.5013
-60.8798
-57.7795
-54.1999
-50.1549
-45.6505
-40.6855
-35.2279
-29.2021
-22.465
-14.8709
-6.32408
3.14274
13.079
21.6182
-19.0768
-19.4181
-20.6906
-23.6618
-27.4901
-32.259
-37.4882
-42.6939
-47.3639
-51.2455
-54.3523
-56.8592
-58.9955
-60.9495
-62.8084
-64.6186
-66.3794
-67.9864
-69.2629
-70.0263
-70.0334
-69.1089
-67.0839
-64.0123
-60.1553
-55.9331
-51.7983
-48.07
-44.8939
-42.2488
-40.1027
-38.4016
-37.1005
-36.141
-35.4797
-35.0672
-34.8742
-34.8621
-35.0076
-35.2807
-35.6586
-36.1169
-36.6489
-37.228
-37.8286
-38.4453
-39.0749
-39.7364
-40.3916
-41.0338
-41.661
-42.2943
-42.8843
-43.452
-44.0048
-44.5304
-45.0086
-45.445
-45.844
-46.2044
-46.5523
-46.861
-47.1529
-47.4286
-47.7012
-47.9428
-48.1804
-48.3997
-48.6198
-48.8241
-49.0294
-49.2326
-49.4333
-49.6314
-49.8223
-50.014
-50.1985
-50.3866
-50.5683
-50.7536
-50.9309
-51.1139
-51.2908
-51.4754
-51.6538
-51.837
-52.0163
-52.2036
-52.3935
-52.5884
-52.7885
-52.9931
-53.2012
-53.4069
-53.6179
-53.8222
-54.031
-54.2297
-54.43
-54.6136
-54.7946
-54.9593
-55.12
-55.2637
-55.398
-55.5093
-55.6168
-55.7298
-55.8431
-55.9522
-56.0555
-56.1656
-56.2669
-56.3916
-56.5113
-56.6443
-56.7782
-56.9256
-57.0776
-57.2402
-57.407
-57.5825
-57.7604
-57.9488
-58.1432
-58.3467
-58.5563
-58.7702
-58.9862
-59.2016
-59.4205
-59.6383
-59.8596
-60.0806
-60.3055
-60.5316
-60.7598
-60.9877
-61.2162
-61.4473
-61.6867
-61.9292
-62.1786
-62.4314
-62.6904
-62.9545
-63.2255
-63.5035
-63.7903
-64.0854
-64.3902
-64.7037
-65.0271
-65.3598
-65.7045
-66.0623
-66.4375
-66.8318
-67.2377
-67.6597
-68.0921
-68.5332
-68.9752
-69.4147
-69.847
-70.2713
-70.6833
-71.0757
-71.4386
-71.7561
-72.01
-72.1764
-72.2308
-72.1387
-71.8561
-71.3273
-70.4877
-69.2873
-67.6785
-65.6306
-63.1387
-60.2051
-56.8474
-53.0755
-48.8873
-44.2474
-39.0702
-33.1958
-26.4553
-18.7467
-10.1097
-0.99506
6.84741
-18.3305
-18.4622
-19.2711
-21.2662
-24.3337
-28.4161
-33.163
-38.2035
-43.1544
-47.6304
-51.4449
-54.5987
-57.2284
-59.4643
-61.4749
-63.3437
-65.0712
-66.6425
-67.9272
-68.7734
-68.9305
-68.2782
-66.6397
-64.031
-60.6642
-56.8687
-53.0548
-49.5132
-46.3848
-43.6978
-41.4648
-39.6545
-38.2262
-37.1319
-36.3322
-35.7819
-35.4494
-35.304
-35.3168
-35.4736
-35.7498
-36.1183
-36.57
-37.0827
-37.6363
-38.2246
-38.8348
-39.4633
-40.0899
-40.7109
-41.327
-41.961
-42.5731
-43.1538
-43.6961
-44.2133
-44.6925
-45.1409
-45.5601
-45.9536
-46.3275
-46.661
-46.9798
-47.2696
-47.542
-47.7897
-48.0368
-48.271
-48.5044
-48.7175
-48.9246
-49.1314
-49.3357
-49.5377
-49.7302
-49.925
-50.111
-50.3
-50.4817
-50.6678
-50.8444
-51.0281
-51.2037
-51.3882
-51.5661
-51.7493
-51.9271
-52.1128
-52.3005
-52.4925
-52.6907
-52.8915
-53.099
-53.3024
-53.5147
-53.7184
-53.9313
-54.1319
-54.341
-54.5283
-54.7172
-54.8867
-55.0542
-55.2038
-55.3477
-55.4633
-55.5711
-55.6811
-55.7915
-55.8983
-56.0016
-56.1091
-56.2102
-56.3273
-56.4387
-56.5647
-56.6928
-56.8368
-56.9844
-57.1455
-57.3091
-57.4834
-57.6571
-57.8431
-58.0365
-58.238
-58.4481
-58.6624
-58.8829
-59.0977
-59.3208
-59.536
-59.76
-59.979
-60.2064
-60.4307
-60.6623
-60.889
-61.1222
-61.345
-61.5796
-61.8218
-62.0699
-62.3256
-62.5826
-62.8494
-63.1155
-63.395
-63.676
-63.9725
-64.2721
-64.5883
-64.9083
-65.245
-65.5863
-65.9444
-66.3091
-66.697
-67.1027
-67.5267
-67.9694
-68.4282
-68.9021
-69.387
-69.8827
-70.383
-70.8861
-71.3849
-71.874
-72.3431
-72.7808
-73.17
-73.4897
-73.7098
-73.7894
-73.6734
-73.2979
-72.6016
-71.531
-70.0494
-68.1486
-65.8322
-63.124
-60.046
-56.6044
-52.7686
-48.4457
-43.452
-37.5797
-30.6901
-22.8139
-14.3886
-7.07602
-17.661
-17.6965
-18.2293
-19.5416
-21.7707
-25.0233
-29.0971
-33.7336
-38.511
-43.117
-47.3645
-51.0771
-54.2567
-56.9684
-59.3089
-61.3792
-63.2177
-64.8299
-66.126
-67.0177
-67.2797
-66.8302
-65.5314
-63.3905
-60.5655
-57.3088
-53.938
-50.6843
-47.6962
-45.0577
-42.8106
-40.9422
-39.4275
-38.2273
-37.3074
-36.6319
-36.169
-35.8918
-35.763
-35.7981
-35.9574
-36.2145
-36.5639
-36.9884
-37.4688
-37.9951
-38.5576
-39.151
-39.7573
-40.3743
-40.9883
-41.6066
-42.2065
-42.7881
-43.3401
-43.8779
-44.3902
-44.8656
-45.3018
-45.7047
-46.0871
-46.4324
-46.7586
-47.0554
-47.3403
-47.6043
-47.8664
-48.1132
-48.3579
-48.5835
-48.8001
-49.0131
-49.2208
-49.4269
-49.6228
-49.8216
-50.0105
-50.202
-50.3846
-50.573
-50.7492
-50.9363
-51.1096
-51.2979
-51.4752
-51.6599
-51.8371
-52.0217
-52.2072
-52.3961
-52.5923
-52.7881
-52.9933
-53.1901
-53.4074
-53.604
-53.8225
-54.0178
-54.2342
-54.423
-54.6198
-54.7936
-54.97
-55.1251
-55.2779
-55.3983
-55.5163
-55.6275
-55.7388
-55.8437
-55.9453
-56.0483
-56.1465
-56.2566
-56.3633
-56.4824
-56.6029
-56.7388
-56.8802
-57.0357
-57.195
-57.3648
-57.5353
-57.7185
-57.9079
-58.1055
-58.3116
-58.5241
-58.7406
-58.9536
-59.1738
-59.3882
-59.6098
-59.8272
-60.0513
-60.2741
-60.5024
-60.7274
-60.9554
-61.1776
-61.4097
-61.6453
-61.8887
-62.1373
-62.3908
-62.6505
-62.9127
-63.1854
-63.4629
-63.7533
-64.0505
-64.363
-64.6843
-65.0225
-65.37
-65.7342
-66.1077
-66.5042
-66.9176
-67.3512
-67.8058
-68.2821
-68.78
-69.2972
-69.8372
-70.394
-70.9683
-71.5539
-72.149
-72.7458
-73.3389
-73.9178
-74.4681
-74.9662
-75.3781
-75.6529
-75.7302
-75.5365
-75.0074
-74.0923
-72.7738
-71.0526
-68.9561
-66.5223
-63.7813
-60.7211
-57.2595
-53.1909
-48.2437
-42.2098
-35.092
-27.2878
-20.3831
-17.0386
-17.0283
-17.4027
-18.3159
-19.9324
-22.3517
-25.6236
-29.6195
-34.0167
-38.5334
-42.8852
-46.8902
-50.463
-53.6048
-56.3268
-58.6845
-60.7187
-62.448
-63.8056
-64.7401
-65.1868
-64.9825
-64.0437
-62.3888
-60.1222
-57.4239
-54.5162
-51.5935
-48.8182
-46.295
-44.0825
-42.1921
-40.6196
-39.3413
-38.3338
-37.5649
-36.9861
-36.5865
-36.3333
-36.2149
-36.2557
-36.3976
-36.6423
-36.9661
-37.3574
-37.8042
-38.2989
-38.8341
-39.3942
-39.9772
-40.5702
-41.1776
-41.7763
-42.374
-42.9449
-43.4969
-44.024
-44.5205
-44.9814
-45.4081
-45.8095
-46.179
-46.5239
-46.8379
-47.1341
-47.4086
-47.6814
-47.9376
-48.189
-48.4227
-48.65
-48.8693
-49.0848
-49.2952
-49.4993
-49.7014
-49.8969
-50.0889
-50.2753
-50.4627
-50.6428
-50.8289
-51.0053
-51.1946
-51.3739
-51.5606
-51.7402
-51.926
-52.1101
-52.2966
-52.4892
-52.6817
-52.8826
-53.0788
-53.2922
-53.4892
-53.704
-53.8999
-54.1123
-54.3047
-54.5058
-54.6846
-54.8684
-55.028
-55.1902
-55.3188
-55.4515
-55.5705
-55.6834
-55.7934
-55.8985
-56.0078
-56.1051
-56.2152
-56.317
-56.4355
-56.5502
-56.6816
-56.8149
-56.9656
-57.1182
-57.2854
-57.4498
-57.6303
-57.8166
-58.0098
-58.2128
-58.4211
-58.6388
-58.8477
-59.0699
-59.2815
-59.5044
-59.7186
-59.9419
-60.1607
-60.3878
-60.6093
-60.837
-61.0536
-61.2821
-61.5132
-61.7504
-61.9933
-62.2416
-62.4961
-62.75
-63.0165
-63.2843
-63.5679
-63.8561
-64.1622
-64.4755
-64.8085
-65.1502
-65.5119
-65.883
-66.2803
-66.6972
-67.1362
-67.5992
-68.0872
-68.6019
-69.1405
-69.7113
-70.3076
-70.934
-71.5841
-72.2609
-72.9602
-73.6816
-74.4194
-75.166
-75.902
-76.6039
-77.2304
-77.7314
-78.0259
-78.0389
-77.6985
-76.9679
-75.838
-74.3303
-72.4893
-70.3753
-68.0203
-65.3882
-62.2895
-58.3805
-53.3195
-47.0592
-39.8949
-33.3728
-16.431
-16.4475
-16.7381
-17.4114
-18.6229
-20.4721
-23.0099
-26.2309
-30.0487
-34.2221
-38.4547
-42.5726
-46.407
-49.8754
-52.9434
-55.6222
-57.9254
-59.8674
-61.4014
-62.5018
-63.0827
-63.1639
-62.5513
-61.3115
-59.5196
-57.2997
-54.8159
-52.236
-49.7113
-47.3465
-45.2128
-43.3422
-41.7471
-40.4106
-39.3154
-38.451
-37.7937
-37.2962
-36.9299
-36.6968
-36.6159
-36.6602
-36.8101
-37.0357
-37.3442
-37.7094
-38.1307
-38.5945
-39.0977
-39.6341
-40.1854
-40.7594
-41.3339
-41.9208
-42.4905
-43.0503
-43.5901
-44.1061
-44.5959
-45.056
-45.487
-45.8858
-46.2551
-46.5924
-46.9099
-47.2049
-47.4899
-47.7581
-48.0175
-48.2617
-48.4997
-48.7268
-48.9454
-49.1569
-49.3657
-49.5707
-49.7712
-49.9666
-50.1566
-50.3458
-50.5281
-50.7145
-50.8941
-51.0817
-51.2623
-51.4495
-51.6302
-51.8181
-52.0028
-52.1894
-52.3806
-52.5715
-52.7692
-52.9648
-53.1706
-53.3698
-53.5787
-53.7761
-53.9851
-54.1784
-54.3799
-54.5632
-54.7479
-54.9144
-55.0787
-55.2208
-55.3623
-55.4897
-55.6091
-55.7262
-55.8353
-55.948
-56.0496
-56.1615
-56.2653
-56.3848
-56.4988
-56.6277
-56.7555
-56.9005
-57.0465
-57.2096
-57.3693
-57.5469
-57.7288
-57.9177
-58.1175
-58.32
-58.5364
-58.7414
-58.9657
-59.175
-59.4006
-59.6138
-59.8384
-60.055
-60.282
-60.5013
-60.7309
-60.9443
-61.1727
-61.4008
-61.6328
-61.8714
-62.1125
-62.3639
-62.61
-62.8717
-63.1309
-63.4075
-63.6869
-63.9841
-64.286
-64.6096
-64.9406
-65.2944
-65.6572
-66.0492
-66.4609
-66.8969
-67.3595
-67.851
-68.3746
-68.9251
-69.5168
-70.1383
-70.8025
-71.4976
-72.2361
-73.0112
-73.8335
-74.6939
-75.5932
-76.5163
-77.4508
-78.3703
-79.2412
-79.985
-80.5291
-80.7788
-80.6669
-80.1524
-79.2366
-77.9499
-76.3743
-74.6051
-72.695
-70.5518
-67.8265
-63.9917
-58.8387
-52.4987
-46.3907
-15.7739
-15.8695
-16.152
-16.7096
-17.6397
-19.0843
-21.1001
-23.7179
-26.9078
-30.545
-34.4732
-38.4828
-42.3938