/*--------------------------------*- C++ -*----------------------------------*\
| =========                 |                                                 |
| \\      /  F ield         | OpenFOAM: The Open Source CFD Toolbox           |
|  \\    /   O peration     | Version:  4.1                                   |
|   \\  /    A nd           | Web:      www.OpenFOAM.org                      |
|    \\/     M anipulation  |                                                 |
\*---------------------------------------------------------------------------*/
FoamFile
{
    version     2.0;
    format      ascii;
    class       volScalarField;
    location    "16";
    object      p;
}
// * * * * * * * * * * * * * * * * * * * * * * * * * * * * * * * * * * * * * //

dimensions      [0 2 -2 0 0 0 0];

internalField   nonuniform List<scalar> 
6750
(
-229.576
-102.328
-182.64
-167.339
-203.053
-211.592
-239.341
-267.804
-255.04
-302.308
-354.82
-344.961
-349.402
-219.405
-335
-229.188
-100.087
-181.92
-167.176
-202.445
-211.146
-236.614
-266.571
-253.396
-305.428
-357.095
-346.444
-349.776
-216.663
-335.061
-228.808
-98.4253
-181.455
-167.009
-201.708
-210.619
-233.549
-265.864
-252.83
-306.138
-356.801
-347.607
-351.228
-214.874
-335.501
-228.292
-96.2225
-180.771
-166.738
-200.679
-209.811
-228.502
-264.106
-251.004
-308.616
-355.824
-349.222
-353.6
-214.901
-335.662
-227.821
-94.2487
-180.225
-166.522
-199.693
-209.024
-223.592
-261.26
-248.152
-308.192
-353.727
-350.169
-356.509
-215.243
-336.206
-227.409
-92.4115
-179.697
-166.323
-198.838
-208.262
-220.249
-257.248
-244.034
-307.609
-352.016
-350.441
-358.989
-215.476
-336.55
-227.167
-91.1201
-179.324
-166.213
-198.431
-207.879
-220.301
-255.474
-240.585
-303.051
-353.43
-351.116
-360.013
-214.423
-336.864
-227.114
-90.7436
-179.139
-166.089
-198.07
-207.616
-218.494
-254.104
-239.692
-300.763
-353.031
-350.469
-362.089
-212.887
-337.143
-227.258
-91.296
-179.264
-166.079
-198.227
-207.6
-220.015
-254.488
-239.608
-300.988
-353.372
-351.043
-360.556
-214.095
-337
-227.561
-92.6783
-179.579
-166.077
-198.463
-207.72
-219.78
-255.935
-242.382
-307.306
-352.548
-350.373
-358.125
-215.251
-336.768
-228.015
-94.5722
-180.056
-166.18
-199.087
-208.191
-221.675
-258.641
-245.952
-307.257
-352.465
-349.838
-356.207
-215.061
-336.67
-228.513
-96.5732
-180.566
-166.324
-199.951
-208.808
-226.277
-261.538
-248.788
-308.373
-354.73
-348.975
-352.969
-214.643
-336.318
-229.047
-98.7846
-181.224
-166.545
-200.894
-209.498
-231.366
-263.159
-250.632
-305.499
-355.478
-347.405
-350.629
-214.588
-336.372
-229.435
-100.449
-181.673
-166.681
-201.597
-209.969
-234.653
-263.779
-251.123
-304.363
-356.372
-346.206
-349.266
-216.269
-336.136
-229.831
-102.682
-182.386
-166.829
-202.184
-210.377
-237.489
-264.858
-252.471
-300.686
-354.355
-344.754
-348.938
-218.948
-336.25
-320.204
-77.604
-192.726
-169.197
-201.028
-205.967
-221.152
-250.826
-227.04
-248.546
-298.227
-305.161
-316.911
-137.352
-444.656
-319.205
-75.868
-191.769
-168.507
-200.323
-205.277
-219.547
-246.754
-225.283
-253.257
-303.804
-307.615
-317.783
-135.019
-445.485
-318.42
-74.8603
-191.224
-168.061
-199.629
-204.537
-217.634
-242.858
-225.79
-257.469
-305.718
-309.592
-319.196
-132.988
-447.061
-317.414
-73.2057
-190.257
-167.43
-198.591
-203.437
-214.265
-236.033
-222.235
-264.823
-308.876
-312.701
-321.894
-132.221
-447.474
-316.596
-71.7346
-189.41
-166.969
-197.635
-202.346
-210.644
-228.661
-216.509
-267.101
-307.768
-314.531
-324.413
-131.477
-448.66
-315.939
-70.2074
-188.457
-166.549
-196.713
-201.306
-207.278
-222.223
-210.647
-266.381
-305.792
-315.132
-326.411
-130.779
-449.429
-315.658
-69.0293
-187.673
-166.319
-196.239
-200.705
-206.156
-220.129
-208.188
-263.008
-307.423
-314.289
-326.252
-129.78
-450.196
-315.653
-68.6606
-187.331
-166.161
-195.854
-200.353
-204.868
-218.754
-207.367
-261.208
-308.509
-313.058
-326.431
-128.534
-450.952
-315.778
-69.2399
-187.716
-166.185
-196.009
-200.407
-205.51
-219.392
-207.274
-260.868
-307.204
-313.639
-326.189
-129.84
-450.486
-316.162
-70.4881
-188.448
-166.313
-196.313
-200.763
-206.511
-221.253
-209.006
-265.525
-306.802
-315.049
-325.956
-131.277
-450.047
-316.886
-72.0638
-189.355
-166.646
-197.014
-201.491
-208.791
-225.485
-213.536
-266.119
-306.907
-314.901
-324.601
-132.033
-449.721
-317.756
-73.5393
-190.152
-167.042
-197.855
-202.396
-212.141
-232.314
-219.36
-265.916
-309.237
-313.184
-321.927
-132.758
-448.94
-318.8
-75.1838
-191.079
-167.63
-198.805
-203.37
-215.466
-239.408
-223.603
-258.41
-306.268
-310.258
-319.395
-133.52
-448.949
-319.608
-76.1758
-191.596
-168.048
-199.463
-204.047
-217.464
-243.512
-223.33
-253.308
-304.133
-307.749
-318.019
-135.388
-447.793
-320.631
-77.8885
-192.533
-168.724
-200.142
-204.684
-219.09
-247.499
-224.535
-247.846
-298.79
-305.138
-317.177
-137.673
-447.281
-483.932
-1.43305
-180.119
-171.112
-195.657
-197.258
-189.969
-184.982
-172.039
-189.075
-235.129
-250.911
-254.057
-32.2091
-560.944
-482.262
-0.14391
-179.017
-170.192
-194.713
-195.985
-187.907
-181.553
-171.764
-193.568
-240.934
-253.027
-254.051
-32.1875
-561.955
-481.053
0.124933
-178.61
-169.773
-193.95
-194.926
-185.506
-179.579
-173.634
-200.377
-242.999
-254.522
-253.24
-32.2484
-563.671
-479.341
0.89423
-177.62
-168.986
-192.718
-193.444
-181.282
-176.003
-172.73
-211.155
-247.575
-257.629
-253.748
-32.2248
-564.244
-477.887
1.24451
-176.824
-168.483
-191.668
-192.111
-176.907
-172.267
-170.842
-216.345
-246.867
-258.979
-253.769
-32.2607
-565.547
-476.582
1.69961
-175.783
-167.941
-190.651
-190.962
-174.065
-170.241
-168.861
-216.94
-245.456
-259.237
-253.831
-32.3308
-566.472
-475.946
2.08375
-174.828
-167.652
-190.17
-190.392
-173.917
-170.818
-167.904
-214.612
-246.687
-258.427
-253.49
-32.3681
-567.449
-475.979
2.34226
-174.347
-167.436
-189.773
-190.013
-172.821
-170.744
-167.6
-211.169
-245.171
-255.879
-252.449
-32.5303
-568.293
-476.338
2.22855
-174.91
-167.527
-190
-190.223
-173.604
-170.789
-167.209
-211.867
-245.121
-257.036
-253.59
-32.6449
-568.284
-477.214
1.89349
-175.798
-167.718
-190.37
-190.691
-174.103
-170.474
-168.075
-216.259
-246.826
-259.363
-254.188
-33.1238
-568.289
-478.641
1.41087
-176.796
-168.177
-191.193
-191.563
-175.648
-171.087
-169.423
-215.71
-245.864
-259.131
-254.275
-33.1064
-568.28
-480.178
1.04112
-177.532
-168.617
-192.152
-192.766
-179.693
-174.707
-171.701
-213.189
-248.447
-258.353
-254.344
-33.0562
-567.951
-481.939
0.250015
-178.483
-169.365
-193.326
-194.153
-184.112
-178.284
-172.815
-202.377
-243.984
-255.366
-253.904
-32.896
-568.302
-483.176
-0.031807
-178.861
-169.755
-194.071
-195.169
-186.742
-180.404
-171.112
-194.27
-241.568
-253.052
-254.767
-32.487
-567.473
-484.868
-1.3338
-179.948
-170.661
-195.004
-196.391
-188.894
-183.668
-170.857
-188.842
-236.149
-250.794
-254.885
-32.45
-567.12
-617.128
26.6775
-155.731
-182.937
-189.124
-196.994
-191.236
-181.509
-174.209
-169.863
-171.838
-175.564
-177.524
-6.60647
-614.874
-615.942
28.4325
-155.028
-181.434
-188.161
-196.033
-189.452
-180.248
-173.619
-170.619
-177.772
-178.568
-177.52
-9.53965
-617.138
-615.198
28.9197
-154.923
-180.719
-187.597
-195.421
-187.543
-180.15
-174.251
-173.854
-179.651
-179.687
-176.116
-12.101
-619.813
-613.995
29.7405
-154.192
-179.535
-186.457
-194.236
-183.866
-178.848
-172.829
-180.332
-184.973
-183.889
-176.61
-13.7276
-621.981
-613.008
29.6539
-153.613
-178.777
-185.564
-193.205
-179.544
-177.9
-169.14
-182.017
-185.086
-186.72
-176.911
-15.3662
-624.247
-612.027
29.3477
-152.692
-177.984
-184.634
-192.228
-176.562
-176.801
-167.088
-180.862
-184.502
-187.826
-176.721
-16.8442
-626.373
-611.492
28.746
-151.874
-177.557
-184.241
-191.819
-176.368
-176.607
-167.139
-179.247
-188.012
-188.386
-177.055
-17.6491
-628.088
-611.594
28.8297
-151.414
-177.243
-183.801
-191.426
-175.129
-176.747
-166.838
-174.876
-185.169
-185.496
-175.366
-18.553
-629.619
-612.087
29.5193
-151.964
-177.413
-184.032
-191.638
-176.085
-176.561
-166.819
-176.451
-185.932
-187.125
-176.653
-17.2147
-630.328
-612.847
30.2103
-152.77
-177.759
-184.331
-191.983
-176.781
-176.807
-167.352
-180.402
-187.067
-188.346
-177.51
-16.8487
-630.227
-613.948
30.4387
-153.657
-178.489
-185.063
-192.675
-178.368
-177.202
-167.92
-180.805
-184.608
-186.912
-177.557
-15.6052
-629.61
-615.007
30.4094
-154.182
-179.213
-185.893
-193.622
-182.613
-178.317
-171.974
-181.435
-187.102
-185.105
-177.862
-13.7976
-628.88
-616.268
29.4633
-154.877
-180.393
-187.012
-194.75
-186.555
-179.578
-174.089
-175.11
-181.38
-179.852
-177.199
-11.5863
-628.279
-617.046
28.8894
-154.943
-181.105
-187.581
-195.34
-188.676
-179.842
-173.521
-171.086
-179.482
-177.733
-178.224
-8.15278
-626.999
-618.266
27.0274
-155.639
-182.623
-188.562
-196.251
-190.538
-180.882
-173.829
-169.916
-173.158
-173.595
-178.463
-4.85088
-625.8
-748.23
-37.7159
-134.684
-217.106
-200.856
-205.099
-199.157
-190.264
-183.915
-164.292
-130.578
-96.7451
-139.927
-26.3987
-678.133
-747.419
-35.8197
-134.304
-215.66
-199.497
-203.755
-197.568
-188.497
-184.035
-164.757
-136.526
-101.719
-139.546
-28.9288
-682.583
-746.931
-35.0741
-134.44
-214.924
-198.753
-202.966
-196.359
-187.909
-185.247
-165.268
-138.087
-102.071
-137.914
-29.9804
-687.541
-746.117
-33.7886
-134.103
-213.637
-197.381
-201.533
-193.929
-186.269
-185.513
-165.327
-139.865
-111.428
-140.802
-32.047
-692.282
-745.502
-33.3346
-134.013
-212.76
-196.342
-200.369
-191.221
-184.667
-183.903
-161.393
-138.023
-117.47
-143.32
-33.9279
-696.206
-744.829
-33.0608
-133.65
-211.793
-195.225
-199.284
-189.05
-184.202
-182.526
-158.616
-135.569
-121.016
-144.064
-35.3584
-700.33
-744.516
-33.2048
-133.449
-211.27
-194.66
-198.8
-188.737
-185.344
-182.512
-160.559
-142.925
-124.901
-143.631
-35.4248
-703.437
-744.759
-32.9081
-133.204
-210.963
-194.242
-198.415
-187.956
-185.848
-182.217
-160.54
-143.172
-113.068
-139.936
-34.3592
-706.309
-745.264
-32.4174
-133.43
-211.256
-194.586
-198.699
-188.592
-185.496
-182.19
-161.253
-142.466
-119.054
-141.127
-32.6823
-708.001
-745.825
-32.1829
-133.675
-211.767
-195.129
-199.177
-189.187
-184.81
-182.553
-159.825
-140.87
-123.079
-143.752
-33.443
-707.813
-746.592
-32.5986
-134.04
-212.718
-196.153
-200.054
-190.484
-184.007
-182.95
-159.451
-136.89
-116.627
-144.1
-32.283
-705.786
-747.297
-33.1939
-134.113
-213.595
-197.185
-201.197
-193.32
-185.837
-185.226
-164.439
-143.099
-113.316
-142.959
-30.2383
-704.328
-748.182
-34.6307
-134.456
-214.91
-198.585
-202.652
-195.961
-187.754
-185.496
-165.371
-141.118
-102.793
-139.85
-27.2734
-701.758
-748.72
-35.4706
-134.297
-215.653
-199.35
-203.461
-197.359
-188.571
-184.537
-164.697
-141.182
-98.2135
-139.58
-24.613
-698.747
-749.584
-37.5039
-134.709
-217.143
-200.772
-204.821
-199.081
-190.232
-184.54
-164.726
-136.732
-91.6623
-139.735
-21.4103
-695.68
-881.903
-107.727
-134.734
-252.251
-218.064
-222.841
-221.193
-200.042
-190.446
-136.835
-104.618
-35.971
-147.41
-15.7521
-762.113
-881.351
-106.515
-134.302
-251.323
-217.15
-221.835
-219.983
-198.602
-190.903
-136.454
-110.533
-50.5543
-146.433
-18.3929
-770.306
-881.068
-106.079
-134.303
-250.917
-216.795
-221.295
-219.084
-197.614
-190.542
-134.176
-117.713
-56.2017
-141.186
-17.0928
-780.263
-880.534
-105.135
-133.944
-250.052
-215.934
-220.222
-217.416
-195.731
-187.125
-127.809
-116.127
-69.695
-149.168
-20.8567
-787.468
-880.138
-104.733
-133.892
-249.542
-215.431
-219.459
-215.865
-194.035
-181.28
-123.048
-108.343
-76.8246
-157.179
-23.1564
-791.926
-879.697
-104.189
-133.66
-248.884
-214.782
-218.685
-214.693
-193.62
-181.068
-120.912
-108.264
-81.308
-157.849
-24.7582
-799.156
-879.7
-103.811
-133.632
-248.598
-214.543
-218.401
-214.594
-194.734
-185.963
-122.725
-119.15
-85.9415
-164.58
-24.6962
-801.002
-880.045
-103.411
-133.51
-248.41
-214.331
-218.193
-214.509
-195.416
-188.332
-126.157
-123.166
-85.1159
-151.279
-20.6284
-808.626
-880.503
-103.339
-133.607
-248.67
-214.6
-218.505
-214.936
-195.221
-188.091
-125.367
-120.729
-82.381
-155.717
-18.0097
-815.048
-880.937
-103.476
-133.677
-248.996
-214.887
-218.863
-215.282
-194.375
-184.421
-121.214
-114.354
-87.5473
-157.967
-18.9015
-818.667
-881.499
-104.07
-133.961
-249.691
-215.566
-219.619
-216.239
-194.135
-181.675
-121.312
-108.16
-76.9238
-157.765
-17.9875
-813.241
-881.967
-104.609
-134.052
-250.24
-216.12
-220.419
-217.925
-195.847
-187.386
-124.837
-118.47
-76.2024
-155.648
-16.749
-811.081
-882.597
-105.695
-134.454
-251.178
-217.081
-221.59
-219.848
-198.013
-192.454
-132.14
-124.206
-59.9422
-146.721
-11.8943
-807.839
-882.932
-106.212
-134.457
-251.615
-217.487
-222.183
-220.966
-199.297
-194.197
-136.341
-121.32
-54.63
-145.596
-11.3192
-799.183
-883.556
-107.569
-134.952
-252.64
-218.542
-223.326
-222.476
-200.987
-194.664
-138.079
-117.118
-40.272
-145.97
-8.22715
-792.525
-1015.54
-162.705
-146.836
-287.437
-242.57
-242.416
-244.649
-210.216
-205.739
-123.032
-146.623
-28.0345
-204.372
20.743
-880.602
-1015.1
-161.943
-146.503
-286.855
-241.887
-241.728
-243.826
-209.08
-204.933
-122.335
-147.198
-36.4841
-205.372
20.4133
-893.817
-1014.92
-161.715
-146.474
-286.609
-241.618
-241.359
-243.194
-207.964
-203.678
-119.493
-152.695
-48.8734
-199.721
18.9962
-909.54
-1014.46
-161.155
-146.211
-286.035
-240.975
-240.621
-242.075
-206.176
-200.053
-111.915
-140.669
-55.1532
-211.786
15.4032
-924.13
-1014.22
-160.874
-146.157
-285.729
-240.659
-240.182
-241.212
-204.866
-196.191
-107.018
-126.149
-49.4633
-220.155
13.8933
-929.741
-1014.16
-160.297
-145.913
-285.271
-240.211
-239.693
-240.57
-204.389
-195.75
-106.744
-120.268
-52.8855
-223.629
14.0772
-947.908
-1014.34
-159.96
-145.889
-285.114
-240.116
-239.607
-240.636
-205.154
-199.219
-114.144
-128.489
-61.5776
-231.179
19.6363
-956.605
-1014.59
-159.716
-145.832
-285.009
-240.004
-239.514
-240.677
-205.544
-200.693
-119.495
-139.32
-61.3868
-213.159
27.8064
-974.448
-1014.97
-159.755
-145.942
-285.262
-240.265
-239.822
-241.12
-205.667
-201.109
-118.256
-138.591
-60.1882
-207.414
33.3473
-986.991
-1015.33
-159.859
-146.008
-285.513
-240.492
-240.082
-241.442
-205.146
-198.56
-109.386
-123.534
-60.4085
-222.041
25.7918
-988.834
-1015.81
-160.29
-146.268
-286.063
-241.083
-240.73
-242.304
-205.506
-197.814
-106.026
-125.695
-49.4122
-221.797
24.1539
-971.245
-1016.19
-160.618
-146.369
-286.45
-241.526
-241.31
-243.48
-206.935
-202.104
-109.722
-139.595
-56.49
-223.532
24.5718
-967.97
-1016.73
-161.362
-146.724
-287.151
-242.361
-242.279
-245.066
-209.178
-207.346
-117.96
-160.082
-54.766
-213.002
26.9388
-957.714
-1016.99
-161.679
-146.764
-287.451
-242.729
-242.768
-246.024
-210.753
-210.123
-123.8
-161.031
-44.8389
-218.363
31.5563
-943.1
-1017.52
-162.6
-147.184
-288.18
-243.646
-243.748
-247.384
-212.539
-212.366
-126.182
-162.793
-32.2041
-218.14
31.6023
-931.545
-1154.59
-214.631
-162.506
-323.805
-276.017
-272.732
-282.293
-239.751
-255.083
-150.889
-243.432
-47.1047
-401.067
71.0123
-1027.37
-1154.26
-214.111
-162.266
-323.419
-275.495
-272.171
-281.459
-238.524
-252.803
-148.104
-237.958
-48.2299
-389.455
62.712
-1058.85
-1154.09
-213.993
-162.258
-323.271
-275.276
-271.849
-280.845
-237.419
-250.698
-144.34
-232.548
-59.4434
-331.302
77.8851
-1136.25
-1153.82
-213.512
-162.038
-322.878
-274.77
-271.257
-279.889
-235.846
-247.045
-136.41
-215.294
-60.4143
-330.322
80.9998
-1158.9
-1153.85
-213.198
-161.971
-322.703
-274.536
-270.92
-279.257
-234.744
-244.538
-130.509
-205.711
-52.0166
-346.009
73.6816
-1148.74
-1153.9
-212.774
-161.787
-322.417
-274.192
-270.533
-278.731
-234.213
-243.404
-130.507
-201.352
-49.7087
-343.193
62.0447
-1172.05
-1154.11
-212.576
-161.781
-322.37
-274.145
-270.49
-278.779
-234.579
-245.297
-137.063
-218.627
-50.9804
-409.918
38.8593
-1109.64
-1154.33
-212.399
-161.757
-322.335
-274.091
-270.464
-278.867
-234.768
-245.805
-139.461
-220.784
-48.8832
-397.552
56.613
-1171.39
-1154.67
-212.458
-161.873
-322.571
-274.387
-270.824
-279.453
-235.197
-246.823
-139.418
-221.531
-53.0795
-377.434
62.7264
-1227.69
-1154.99
-212.529
-161.931
-322.766
-274.646
-271.154
-280.034
-235.335
-246.41
-133.764
-206.121
-51.4797
-329.12
87.4428
-1286.8
-1155.42
-212.871
-162.151
-323.211
-275.238
-271.85
-281.135
-236.137
-247.815
-130.307
-206.202
-52.6052
-346.141
98.968
-1249.8
-1155.74
-213.115
-162.232
-323.505
-275.674
-272.436
-282.34
-237.627
-251.672
-135.628
-218.584
-60.0989
-354.125
99.9404
-1249.44
-1156.19
-213.697
-162.525
-324.066
-276.461
-273.393
-284.014
-239.942
-257.183
-145.153
-242.512
-66.7535
-350.709
94.1465
-1238.17
-1156.41
-213.943
-162.559
-324.295
-276.826
-273.897
-285.083
-241.567
-260.994
-151.177
-256.207
-53.0297
-427.768
76.4291
-1145.05
-1156.84
-214.661
-162.907
-324.874
-277.671
-274.89
-286.715
-243.78
-265.379
-155.908
-266.942
-49.6921
-444.725
87.1286
-1114.54
-1293.39
-268.412
-180.809
-363.283
-314.135
-308.397
-330.487
-282.669
-329.381
-198.645
-379.266
-64.6244
-649.931
114.109
-1308.49
-1293.27
-267.99
-180.609
-363.005
-313.738
-308.015
-329.735
-281.675
-326.761
-195.876
-368.247
-64.2742
-562.8
128.284
-1409.11
-1293.32
-267.789
-180.577
-362.91
-313.575
-307.803
-329.205
-280.894
-324.84
-193.638
-360.797
-68.4528
-515.728
155.865
-1489.05
-1293.27
-267.381
-180.402
-362.638
-313.188
-307.397
-328.424
-279.806
-322.226
-189.612
-353.698
-72.6369
-571.706
116.243
-1452.99
-1293.38
-267.165
-180.355
-362.55
-313.037
-307.196
-327.935
-279.039
-320.505
-186.097
-348.967
-68.0654
-614.811
92.3409
-1392.43
-1293.46
-266.884
-180.242
-362.386
-312.794
-306.943
-327.512
-278.593
-319.302
-185.837
-344.378
-66.6938
-548.73
107.996
-1494.73
-1293.67
-266.773
-180.259
-362.421
-312.807
-306.963
-327.564
-278.66
-320.108
-187.826
-356.317
-62.4119
-635.453
84.6975
-1402.8
-1293.87
-266.665
-180.248
-362.438
-312.813
-306.997
-327.745
-278.776
-320.445
-188.056
-353.963
-60.4618
-602.727
122.58
-1498.5
-1294.17
-266.754
-180.357
-362.665
-313.127
-307.368
-328.438
-279.288
-321.853
-188.347
-356.605
-58.8139
-614.713
107.132
-1554.25
-1294.43
-266.845
-180.411
-362.837
-313.401
-307.703
-329.237
-279.831
-323.206
-187.532
-350.311
-64.344
-516.819
127.157
-1683.43
-1294.78
-267.156
-180.602
-363.224
-313.98
-308.363
-330.519
-280.85
-325.843
-186.332
-353.647
-65.7793
-622.265
122.711
-1531.58
-1295.04
-267.381
-180.674
-363.469
-314.406
-308.885
-331.824
-282.219
-329.995
-190.233
-367.763
-68.8951
-627.057
117.089
-1539.66
-1295.38
-267.869
-180.929
-363.958
-315.163
-309.765
-333.596
-284.337
-335.303
-196.473
-383.931
-72.2527
-576.69
176.349
-1611.78
-1295.55
-268.089
-180.963
-364.15
-315.517
-310.207
-334.725
-285.698
-339.278
-199.982
-398.86
-62.8532
-632.371
149.866
-1535.71
-1295.87
-268.67
-181.27
-364.662
-316.329
-311.146
-336.557
-288.002
-345.032
-205.266
-420.97
-64.2879
-745.522
149.275
-1443.24
-1431.51
-324.858
-201.444
-405.912
-356.073
-345.588
-382.174
-326.205
-412.291
-243.61
-516.837
-68.0111
-746.562
266.482
-1883.01
-1431.44
-324.584
-201.279
-405.703
-355.699
-345.288
-381.3
-325.419
-409.638
-241.651
-514.002
-67.6029
-762.651
260.848
-1938.63
-1431.47
-324.44
-201.231
-405.631
-355.531
-345.129
-380.709
-324.889
-407.676
-240.631
-511.197
-70.9845
-814.412
229.387
-1943.68
-1431.45
-324.169
-201.083
-405.428
-355.17
-344.815
-379.846
-324.102
-404.869
-238.247
-504.186
-66.5382
-826.979
189.799
-1942.38
-1431.54
-324.022
-201.038
-405.376
-355.024
-344.694
-379.312
-323.612
-402.875
-236.488
-499.8
-62.6042
-854.624
167.119
-1901.15
-1431.63
-323.819
-200.949
-405.274
-354.815
-344.529
-378.882
-323.314
-401.26
-236.501
-491.479
-68.634
-775.714
157.077
-2023.45
-1431.8
-323.753
-200.96
-405.341
-354.864
-344.613
-378.953
-323.345
-401.361
-236.58
-494.645
-66.7824
-822.851
141.881
-1904.97
-1431.98
-323.689
-200.943
-405.381
-354.922
-344.703
-379.285
-323.558
-402.162
-237.171
-495.232
-72.8344
-808.199
162.117
-2065.75
-1432.23
-323.783
-201.031
-405.6
-355.269
-345.092
-380.153
-324.172
-404.075
-237.787
-498.282
-70.3078
-808.28
131.996
-2178.4
-1432.45
-323.878
-201.079
-405.77
-355.6
-345.44
-381.269
-324.888
-407.113
-238.673
-500.153
-71.332
-723.732
184.643
-2350.01
-1432.73
-324.143
-201.247
-406.13
-356.233
-346.104
-382.91
-326.069
-411.538
-238.944
-515.798
-67.1924
-897.433
166.878
-2160.06
-1432.94
-324.344
-201.32
-406.363
-356.726
-346.615
-384.555
-327.312
-416.903
-240.919
-529.739
-63.2719
-877.045
190.484
-2131.25
-1433.22
-324.743
-201.554
-406.817
-357.552
-347.506
-386.741
-329.413
-423.416
-245.925
-548.722
-77.8792
-912.535
231.283
-2106
-1433.35
-324.935
-201.6
-407.001
-357.961
-347.939
-388.116
-330.61
-428.022
-248.051
-560.684
-73.833
-876.869
261.006
-2121.4
-1433.59
-325.4
-201.888
-407.483
-358.852
-348.925
-390.404
-333.064
-434.84
-253.303
-576.971
-75.3185
-904.209
254.233
-2002.84
-1567.39
-383.775
-224.222
-451.884
-403.9
-387.403
-442.368
-372.454
-514.044
-291.661
-737.921
-100.424
-1329.17
414.489
-2536.08
-1567.34
-383.616
-224.068
-451.701
-403.422
-387.036
-440.747
-371.348
-507.187
-287.714
-708.494
-89.929
-1226.5
367.75
-2576.8
-1567.34
-383.532
-223.992
-451.615
-403.161
-386.835
-439.722
-370.74
-503.072
-286.057
-692.867
-83.8866
-1180.78
342.663
-2655.52
-1567.32
-383.362
-223.848
-451.43
-402.696
-386.47
-438.225
-369.79
-497.159
-283.239
-670.599
-75.3355
-1148.63
252.823
-2789.74
-1567.37
-383.265
-223.78
-451.367
-402.45
-386.315
-437.245
-369.308
-493.07
-282.223
-655.847
-78.0356
-1100.28
254.828
-2850.87
-1567.44
-383.132
-223.681
-451.271
-402.18
-386.12
-436.472
-368.895
-489.851
-281.587
-639.589
-83.1775
-973.351
237.887
-3083.32
-1567.58
-383.098
-223.665
-451.321
-402.184
-386.178
-436.358
-368.845
-488.895
-280.829
-640.045
-75.028
-1058.78
213.129
-2906.81
-1567.72
-383.072
-223.635
-451.358
-402.244
-386.24
-436.709
-368.886
-489.784
-280.241
-639.774
-76.8125
-1034.61
168.834
-3103.16
-1567.93
-383.166
-223.701
-451.554
-402.61
-386.602
-437.738
-369.427
-491.959
-280.48
-637.675
-75.3178
-888.716
261.305
-3584.26
-1568.13
-383.267
-223.747
-451.72
-403.017
-386.936
-439.269
-369.971
-497.054
-278.963
-648.982
-46.6518
-905.761
446.754
-3522.01
-1568.36
-383.498
-223.903
-452.059
-403.75
-387.621
-441.522
-371.304
-504.425
-281.387
-681.066
-77.4199
-1116.55
254.525
-3415.39
-1568.55
-383.688
-223.99
-452.294
-404.374
-388.151
-443.863
-372.512
-513.341
-282.547
-715.233
-54.5879
-1291.9
261.261
-3174.56
-1568.78
-384.027
-224.221
-452.733
-405.361
-389.129
-446.974
-374.882
-523.87
-287.765
-746.956
-63.6403
-1305.69
393.625
-3056.45
-1568.9
-384.205
-224.288
-452.925
-405.89
-389.598
-448.939
-376.159
-531.217
-290.446
-773.137
-71.0371
-1387.75
449.714
-2942.14
-1569.1
-384.595
-224.577
-453.401
-406.969
-390.741
-452.323
-379.22
-543.441
-298.421
-817.767
-85.2067
-1525.12
516.264
-2877.64
-1700.8
-447.714
-248.772
-500.508
-455.981
-431.219
-505.818
-415.019
-614.912
-318.411
-928.225
-47.327
-1732.64
696.231
-3526.39
-1700.7
-447.601
-248.587
-500.286
-455.272
-430.659
-503.035
-413.322
-603.573
-313.611
-884.451
-48.4037
-1570.16
511.29
-3735.66
-1700.6
-447.57
-248.47
-500.148
-454.844
-430.348
-501.338
-412.608
-596.855
-312.899
-867.732
-59.897
-1665.04
349.938
-3965
-1700.43
-447.477
-248.276
-499.909
-454.16
-429.815
-498.824
-411.275
-586.946
-309.848
-826.245
-60.5342
-1286.43
393.05
-4535.43
-1700.32
-447.416
-248.143
-499.773
-453.731
-429.544
-497.137
-410.743
-579.015
-309.524
-783.015
-73.5229
-1109.28
584.475
-4607.09
-1700.27
-447.312
-247.986
-499.62
-453.316
-429.235
-495.818
-410.148
-573.66
-308.067
-754.041
-54.1605
-990.62
582.928
-4726.73
-1700.29
-447.269
-247.905
-499.599
-453.216
-429.217
-495.51
-410.188
-572.593
-309.31
-762.857
-66.4594
-1076.81
415.053
-4648.82
-1700.33
-447.232
-247.829
-499.591
-453.242
-429.218
-495.903
-410.127
-574.028
-307.989
-766.5
-51.1038
-1218
227.257
-4411.1
-1700.43
-447.281
-247.845
-499.732
-453.617
-429.544
-497.201
-410.635
-576.966
-307.754
-763.231
-43.2902
-1108
489.489
-5250.12
-1700.54
-447.342
-247.864
-499.869
-454.106
-429.867
-499.263
-411.043
-584.005
-304.427
-772.523
-0.504832
-977.799
758.688
-5425.03
-1700.69
-447.505
-247.989
-500.173
-454.971
-430.591
-502.327
-412.324
-593.425
-303.211
-786.678
-14.1323
-1179.87
755.039
-5143.51
-1700.81
-447.643
-248.071
-500.401
-455.771
-431.178
-505.705
-413.661
-608.567
-305.356
-878.336
-10.5109
-1523.5
369.74
-5205.59
-1700.98
-447.899
-248.289
-500.825
-456.993
-432.311
-510.28
-416.622
-626.354
-312.332
-955.189
-23.6371
-1971.78
327.427
-4595.5
-1701.07
-448.034
-248.364
-501.023
-457.69
-432.861
-513.168
-418.109
-637.801
-315.166
-985.817
-22.7901
-1838.39
545.743
-4380.41
-1701.24
-448.344
-248.647
-501.499
-459.042
-434.248
-518.193
-422.188
-657.303
-326.293
-1058.18
-40.7257
-2056.73
720.642
-4102.38
-1823.74
-517.733
-276.548
-552.174
-517.588
-483.699
-584.773
-462.836
-739.554
-331.596
-1181.12
3.07992
-2393.07
803.721
-5544.12
-1823.66
-517.6
-276.315
-551.894
-516.558
-482.927
-580.337
-460.444
-719.141
-324.568
-1087.81
8.06355
-2197.27
524.485
-5836.01
-1823.58
-517.522
-276.146
-551.687
-515.896
-482.5
-577.661
-459.575
-707.16
-322.489
-1031.41
-13.8195
-1793.07
848.017
-6354.59
-1823.43
-517.432
-275.892
-551.367
-514.891
-481.753
-573.649
-457.625
-688.847
-315.226
-933.322
21.5287
-1361.17
1126.9
-6748.5
-1823.26
-517.419
-275.694
-551.128
-514.191
-481.322
-571.028
-457.012
-676.786
-313.252
-863.228
37.1167
-1225.01
1253.6
-6808.06
-1823.05
-517.421
-275.481
-550.877
-513.54
-480.833
-569.054
-456.368
-671.139
-314.262
-858.1
52.307
-1210
1004.66
-7167.78
-1822.86
-517.457
-275.334
-550.744
-513.249
-480.665
-568.487
-456.711
-671.976
-321.386
-905.509
8.69392
-1492.61
380.375
-7041.73
-1822.75
-517.472
-275.207
-550.638
-513.148
-480.503
-568.802
-456.666
-675.083
-323.339
-926.151
1.94399
-1623.16
199.583
-6034.57
-1822.75
-517.539
-275.167
-550.671
-513.439
-480.659
-570.217
-456.939
-679.23
-322.499
-930.327
8.96816
-1630.87
304.792
-6657.01
-1822.79
-517.626
-275.149
-550.723
-513.913
-480.808
-572.562
-456.863
-687.488
-318.039
-937.05
37.1725
-1478.37
368.002
-8022.91
-1822.87
-517.794
-275.24
-550.936
-514.821
-481.369
-576.174
-457.321
-697.097
-307.668
-914.141
91.8893
-1355.81
1247.16
-7890.71
-1822.95
-517.946
-275.313
-551.101
-515.718
-481.798
-580.363
-457.89
-716.144
-305.026
-1010.04
113.689
-1603.13
1300.19
-7553.19
-1823.07
-518.19
-275.529
-551.463
-517.128
-482.865
-586.459
-460.659
-743.289
-311.624
-1150.26
89.0999
-2282.71
931.997
-7371.62
-1823.14
-518.327
-275.616
-551.628
-517.961
-483.321
-590.372
-461.692
-761.971
-313.094
-1247.11
113.125
-2914.78
828.874
-6710.6
-1823.27
-518.608
-275.919
-552.075
-519.576
-484.756
-597.291
-466.028
-792.026
-323.891
-1357.74
115.215
-2806.75
1501.29
-6300.26
-1940.34
-598.052
-307.791
-608.438
-583.222
-536.414
-663.345
-509.395
-866.703
-348.495
-1437.78
82.0267
-2729.75
1566.22
-7582.69
-1940.21
-597.772
-307.401
-607.974
-581.696
-535.182
-657.078
-506.103
-841.51
-343.035
-1347.7
68.0133
-2496.8
1564.41
-8184.83
-1940.07
-597.535
-307.113
-607.613
-580.633
-534.43
-652.542
-504.668
-815.752
-340.662
-1173.6
-29.1129
-2067.51
1962.61
-8377.75
-1939.85
-597.226
-306.686
-607.075
-579.14
-533.264
-647.009
-502.442
-794.395
-341.223
-1098.28
-23.1165
-1625.44
2020.15
-8929.49
-1939.61
-596.963
-306.319
-606.619
-578.038
-532.518
-643.456
-501.854
-782.757
-342.282
-1078.78
-5.67685
-1855
1274.91
-9458.35
-1939.33
-596.722
-305.941
-606.141
-577.029
-531.719
-640.825
-501.175
-778.868
-345.495
-1108.81
4.03069
-2085.2
450.454
-9244.93
-1939.03
-596.561
-305.644
-605.787
-576.439
-531.307
-639.898
-501.693
-780.912
-353.616
-1151.5
-29.569
-2299.68
218.272
-8260.86
-1938.7
-596.467
-305.386
-605.49
-576.1
-530.921
-639.962
-501.715
-784.616
-357.435
-1169.08
-47.9978
-2279.28
286.597
-7116.74
-1938.37
-596.481
-305.221
-605.348
-576.212
-530.882
-641.39
-501.995
-790.298
-357.202
-1181.15
-40.0313
-2317.39
291.997
-7601.85
-1938.03
-596.554
-305.104
-605.257
-576.588
-530.867
-643.882
-501.842
-799.812
-354.386
-1200.6
-17.5623
-2354.55
41.0768
-9504.33
-1937.73
-596.7
-305.108
-605.335
-577.477
-531.306
-648.051
-502.185
-812.147
-345.157
-1191.16
37.7891
-2273.55
305.924
-10887.2
-1937.44
-596.831
-305.123
-605.407
-578.442
-531.658
-653.086
-502.545
-834.383
-341.443
-1261.04
40.7437
-1986.02
1375.35
-11010.4
-1937.25
-596.995
-305.276
-605.676
-580.006
-532.729
-660.587
-505.207
-867.381
-342.085
-1402.46
18.5672
-2569.8
1888.57
-10358.8
-1937.1
-597.047
-305.341
-605.802
-581.01
-533.211
-666.172
-506.337
-900.31
-341.624
-1601.84
134.294
-3441.45
1030.78
-10589.8
-1937.11
-597.174
-305.586
-606.183
-582.874
-534.764
-675.141
-511.309
-942.442
-354.977
-1813.72
84.2228
-4497.17
1317.5
-9460.21
-2010.11
-703.278
-348.376
-655.986
-673.991
-608.768
-784.273
-564.664
-1055.37
-292.302
-1723.73
405.105
-2887.33
4055.55
-11031.4
-2009.99
-702.994
-347.881
-655.487
-672.117
-607.911
-777.609
-564.693
-1034.49
-299.794
-1713.04
210.6
-3395.9
3098.82
-10804.1
-2009.84
-702.72
-347.488
-655.078
-670.716
-607.581
-771.854
-567.396
-996.659
-311.624
-1354.51
70.1613
-3547.09
2910.74
-10864.3
-2009.64
-702.375
-346.927
-654.441
-668.755
-606.677
-765.203
-569.052
-971.313
-338.901
-1260.95
143.172
-2416.36
1837.56
-12168
-2009.39
-702.044
-346.401
-653.824
-667.144
-605.963
-760.563
-570.867
-961.922
-360.035
-1374.19
139.475
-2963.91
42.304
-12449.9
-2009.11
-701.737
-345.856
-653.131
-665.591
-604.946
-756.916
-571.029
-960.029
-369.826
-1452.14
126.275
-3059.46
562.664
-10847.3
-2008.8
-701.496
-345.367
-652.496
-664.414
-604.117
-754.674
-571.164
-959.978
-377.845
-1482.81
96.4531
-3142.25
820.685
-9255.96
-2008.48
-701.329
-344.926
-651.874
-663.501
-603.181
-753.467
-570.463
-961.95
-382.631
-1502.5
74.0302
-3156.86
968.384
-8631.6
-2008.17
-701.262
-344.575
-651.366
-663.031
-602.448
-753.557
-569.379
-964.057
-380.81
-1501.1
76.3705
-3206.62
1017.56
-9466.91
-2007.88
-701.256
-344.285
-650.907
-662.869
-601.629
-754.775
-567.481
-969.964
-376.385
-1505.53
104.92
-3200.1
844.299
-11717.5
-2007.63
-701.294