/*--------------------------------*- C++ -*----------------------------------*\
| =========                 |                                                 |
| \\      /  F ield         | OpenFOAM: The Open Source CFD Toolbox           |
|  \\    /   O peration     | Version:  4.1                                   |
|   \\  /    A nd           | Web:      www.OpenFOAM.org                      |
|    \\/     M anipulation  |                                                 |
\*---------------------------------------------------------------------------*/
FoamFile
{
    version     2.0;
    format      ascii;
    class       surfaceScalarField;
    location    "16";
    object      phi;
}
// * * * * * * * * * * * * * * * * * * * * * * * * * * * * * * * * * * * * * //

dimensions      [0 3 -1 0 0 0 0];

internalField   nonuniform List<scalar> 
19125
(
104.311
-1.71736
1746.05
66.4575
-23.5108
1282.81
74.9115
-10.2275
958.424
88.8045
0.286496
1035.63
85.4899
-5.0002
928.435
97.2288
-3.11645
823.641
163.983
-32.811
1003.94
-68.6106
-182.545
-56.9208
-310.917
-79.1573
-954.208
-410.107
218.354
-1469.25
-319.535
152.295
-882.495
-217.374
45.2645
215.132
-234.036
13.9961
734.986
-248.646
-20.3312
1345.92
1.67157
1737.84
103.339
-2.53745
1743.4
66.1496
-27.8259
1295.08
74.7123
-10.9886
998.782
86.9787
0.155041
1066
81.8832
-7.98462
941.748
93.791
-5.42331
823.702
157.399
-46.8927
984.461
-68.1773
-259.682
-111.36
-287.838
-122.553
-994.771
-380.784
267.379
-1507.65
-302.553
213.152
-909.143
-205.323
58.9411
264.034
-228.057
37.0331
784.741
-251.166
-13.5943
1358.62
3.76511
1705.34
102.824
-3.29482
1741.07
66.3887
-29.5404
1308.25
74.5937
-10.5999
1027.49
85.5656
-0.292224
1082.69
79.0163
-10.531
948.334
91.5373
-8.03805
827.368
152.991
-62.7912
959.888
-82.2743
-322.353
-171.619
-293.753
-143.271
-1066.4
-368.465
304.324
-1543.24
-289.876
271.033
-951.907
-202.854
73.9026
266.165
-231.368
62.0308
794.46
-259.05
4.22145
1366.26
4.78432
1648.94
102.217
-3.42165
1733.76
67.15
-28.8051
1320.58
74.9095
-8.99183
1055.82
83.9526
-0.00933499
1098.44
74.6155
-10.8551
954.601
86.2503
-8.7265
832.47
130.133
-66.6663
941.714
-145.961
-340.456
-287.78
-359.769
-104.442
-1193.99
-392.331
303.72
-1488.07
-288.651
264.426
-841.182
-210.555
77.732
227.791
-240.707
77.6413
774.627
-259.182
11.7576
1384.05
6.2151
1662.29
102.429
-3.04944
1722.34
67.7727
-25.0088
1337.71
74.8604
-6.79164
1085.49
82.2765
0.284006
1113.83
70.1136
-8.93368
959.95
81.0338
-7.75305
837.602
94.6832
-46.0309
913.74
-244.912
-277.556
-424.11
-461.394
-26.229
-1264.11
-421.999
220.033
-1331.42
-286.108
180.139
-696.835
-222.512
77.864
153.453
-253.644
82.6562
743.196
-262.078
6.90499
1387.57
5.90802
1664.89
103.294
-2.03796
1705.17
68.0199
-17.0666
1356.6
74.6224
-4.22811
1116.56
80.773
0.231903
1130.07
66.849
-5.58922
963.9
76.7222
-4.82994
843.856
83.0299
-20.727
881.908
-274.749
-163.693
-485.493
-488.705
55.0545
-1257.85
-432.896
118.474
-1230.76
-293.991
74.2425
-611.037
-234.355
70.3905
100.582
-264.018
75.1432
718.763
-265.003
-4.95078
1400.32
4.86507
1661.58
104.765
-0.392228
1681.8
67.6933
-5.07634
1370.02
74.3735
-1.64147
1142.57
79.8798
-0.492703
1146.99
66.4298
-3.15104
968.175
77.7066
-2.90577
850.724
103.4
-14.8137
851.346
-199.4
-68.8835
-467.498
-367.305
65.8467
-1241.88
-405.39
65.6119
-1417.84
-353.499
-2.15102
-802.171
-255.613
17.2563
145.396
-261.841
43.4151
738.196
-269.791
-6.73237
1407.65
2.65289
1643.04
105.182
1.46388
1672.22
67.4737
7.78938
1370.34
74.274
1.15461
1147.69
79.3746
-0.930871
1152.37
64.2928
0.908936
969.972
75.6877
-1.03587
855.836
76.7345
10.3713
817.825
-223.591
30.8428
-547.001
-288.397
-33.2402
-1267.42
-298.335
-42.8296
-1592.07
-373.195
-12.2599
-1114.47
-300.504
-23.337
119.808
-261.089
-34.747
763.305
-276.188
4.25766
1407.87
-1.13986
1605.63
104.127
2.82305
1688.23
67.5235
18.989
1366.15
74.2571
4.01704
1138.22
79.7274
-1.34946
1144.91
66.1513
3.51907
967.917
77.0804
0.996988
849.495
104.025
15.1985
847.268
-184.805
124.799
-468.675
-314.602
-64.348
-1232.43
-362.324
-92.4898
-1512.07
-369.777
-44.6068
-976.867
-275.783
-71.8333
134.001
-260.162
-87.1888
750.559
-269.698
3.64363
1409.21
-3.68026
1647.44
102.676
3.59562
1710.95
67.5351
26.2609
1351.69
74.3068
6.78659
1111.42
80.4625
-1.10869
1127.84
66.5754
6.84562
963.205
75.7948
4.25008
841.701
88.0458
35.174
884.074
-253.577
226.623
-471.112
-461.867
4.80221
-1247.05
-423.702
-172.975
-1252.32
-288.81
-139.847
-608.462
-225.704
-81.5885
122.674
-259.29
-86.9573
729.725
-263.472
-6.53074
1399.56
-4.38224
1668.23
101.868
3.80171
1727.7
67.0634
29.5975
1333.01
74.3113
9.12639
1080.13
81.7116
-0.551409
1111.26
68.785
9.54311
958.642
78.2617
6.38754
835.266
83.7899
63.0879
913.109
-268.003
309.171
-450.724
-478.737
81.8279
-1259.21
-414.979
-282.017
-1272.48
-271.864
-237.108
-645.339
-218.076
-76.4631
147.691
-251.63
-78.5758
749.592
-260.736
-11.6331
1390.81
-4.61172
1670.22
101.735
3.54854
1738.49
66.3248
30.0037
1316.13
74.2412
10.8257
1050.02
83.3006
-0.0359761
1095.4
73.3731
9.8218
952.654
83.7694
6.60557
829.503
121.256
64.7028
941.739
-166.673
310.469
-317.368
-381.079
134.889
-1214.09
-395.183
-305.803
-1432.52
-279.509
-268.701
-766.069
-207.198
-73.9514
230.449
-238.95
-61.4254
780.877
-257.571
-4.85885
1389.09
-3.21645
1668.32
102.415
2.70266
1745.25
65.4891
28.0723
1304.32
73.8266
11.262
1021.55
84.8362
-0.30125
1079.33
77.891
7.68588
945.884
89.3652
4.65323
824.297
149.136
49.6438
958.082
-89.2387
256.549
-186.733
-302.681
129.1
-1087.13
-370.55
-272.465
-1521.55
-283.132
-226.638
-900.475
-198.863
-60.6988
274.597
-229.185
-34.6364
801.99
-257.251
12.6367
1371.77
-2.32828
1655.27
102.989
1.82359
1747.12
65.2168
23.5952
1291.54
73.8984
10.4833
992.628
86.2475
-0.299631
1062.24
80.9983
4.8857
938.814
92.0753
2.73313
820.343
156.185
34.4884
980.573
-64.9742
181.262
-115.003
-281.753
86.8092
-998.537
-376.673
-222.29
-1508.09
-299.723
-163.35
-913.416
-203.409
-45.673
271.19
-225.82
-12.1535
793.168
-249.465
19.5255
1363.86
-0.670631
1711.29
104.028
1749.39
65.4984
1279.98
74.0293
952.559
88.0378
1031.73
84.6948
925.211
95.7506
820.459
162.889
997.386
-62.6904
-57.3834
-301.288
-951.564
-405.577
-1472.07
-318.398
-892.774
-216.033
223.823
-231.68
743.438
-246.861
1351.6
1744.06
417.658
-9.85187
1687.5
248.488
-49.9343
1468.46
187.086
-38.4635
1030.96
215.029
-11.6188
1012.2
244.41
-13.1437
905.985
284.593
-8.51356
789.622
420.616
-41.2911
885.08
237.239
-275.385
230.901
-127.453
-230.894
-538.161
-471.949
228.65
-1195.61
-580.694
208.533
-849.601
-597.471
83.6035
190.633
-705.404
18.4478
827.62
-760.054
-38.728
1412.94
16.415
1441.53
408.853
-12.2415
1690.46
242.304
-60.1486
1471.85
189.912
-43.322
1056.04
214.965
-12.099
1041.43
238.572
-19.6773
924.675
275.785
-15.644
793.618
409.1
-61.8221
871.675
226.175
-399.187
195.365
-121.62
-294.253
-583.618
-442.651
286.298
-1244.27
-570.583
326.627
-899.306
-595.867
148.755
224.167
-708.483
57.994
857.812
-769.81
-30.0429
1411.26
24.0379
1406.32
403.391
-13.2367
1691.64
238.551
-65.5151
1478.46
191.427
-45.2296
1076.52
214.278
-11.8995
1059.64
233.158
-24.9817
934.759
268.645
-23.2495
799.485
399.501
-86.8946
854.103
188.57
-497.576
137.699
-164.618
-319.792
-687.676
-440.243
317.821
-1299.14
-565.836
444.712
-944.399
-609.373
228.523
229.933
-732.484
107.801
867.765
-795.401
0.121275
1399.01
20.3462
1345.85
397.359
-11.769
1688.2
236.249
-66.4058
1482.58
194.552
-44.1271
1096.42
213.724
-9.21096
1076.58
224.489
-25.0489
943.902
254.108
-25.6243
805.225
366.135
-100.555
843.346
69.0263
-494.035
5.78702
-339.904
-233.693
-871.161
-557.527
313.545
-1266.18
-609.449
434.944
-779.493
-634.931
251.066
230.729
-745.913
128.789
864.621
-794.225
13.6523
1418.83
21.9932
1353.59
394.263
-8.44585
1679.36
235.296
-59.818
1490.09
196.443
-39.3254
1119.54
212.319
-6.00583
1094.75
215.197
-20.5622
952.585
239.437
-23.534
811.27
311.631
-82.8336
823.823
-84.4075
-365.722
-156.388
-539.231
-78.15
-964.83
-680.374
219.071
-1095.8
-651.579
273.461
-564.148
-666.241
210.963
208.216
-769.184
123.455
851.473
-801.314
6.55974
1426.79
20.7041
1352.31
393.976
-3.77374
1663.71
235.725
-42.339
1497.37
197.368
-28.6477
1144.24
210.566
-3.2784
1114.15
206.86
-12.9527
959.996
224.867
-15.9938
818.308
272.836
-48.6683
799.771
-140.628
-196.524
-241.229
-582.606
60.1881
-954.212
-718.577
123.062
-998.781
-681.474
77.5474
-452.227
-690.398
123.092
197.376
-787.137
93.8961
845.062
-808.156
-8.81772
1436.72
18.2131
1344.93
398.424
0.0416067
1640.48
238.24
-12.5393
1500.4
196.651
-9.79282
1165.31
208.875
-2.29498
1133.79
203.805
-7.44792
967.74
220.989
-9.03455
826.579
276.206
-29.0165
776.476
-64.6412
-77.8499
-245.328
-405.892
83.9275
-924.372
-622.906
80.0706
-1157.83
-720.236
-18.4981
-608.795
-714.541
21.989
240.804
-793.001
44.2967
866.256
-819.803
-8.26345
1433.9
10.397
1324.65
400.787
2.71164
1631.08
239.486
20.7285
1498.37
195.681
12.5956
1169.11
207.66
-1.18495
1139.28
199.178
0.920968
970.085
216.413
-2.1154
831.68
242.49
10.6059
752.124
-104.867
45.1862
-322.683
-321.417
-26.7702
-940.175
-472.875
-45.53
-1315.02
-711.694
-15.8099
-878.337
-762.167
-37.0725
229.342
-805.091
-37.2582
887.784
-835.061
10.7948
1418.78
-5.1673
1287.99
396.514
6.28008
1647.8
236.477
47.7711
1499.15
196.073
29.996
1161.22
208.233
0.725559
1130.84
202.62
7.53248
966.917
218.498
5.71108
825.79
268.951
33.8574
773.562
-59.3428
159.339
-254.537
-336.201
-69.0884
-913.257
-537.988
-101.534
-1254.28
-711.043
-37.4339
-782.188
-730.543
-112.296
228.724
-789.164
-104.313
876.235
-817.684
12.0712
1436.46
-12.9586
1331.57
392.734
10.4085
1670.24
233.908
63.1349
1495.15
195.877
39.9596
1139.49
209.139
4.26191
1111.04
205.318
15.669
958.888
221.488
14.2725
816.968
272.982
63.5063
802.93
-112.936
298.984
-224.841
-531.681
39.9105
-937.301
-694.978
-158.598
-1031.96
-676.351
-192.483
-472.041
-679.714
-195.369
209.11
-779.192
-125.122
850.012
-804.426
-2.41804
1439.28
-15.0793
1355.3
393.416
13.2463
1685.24
233.38
68.3029
1487.88
194.159
44.5681
1114.74
210.066
8.13801
1091.48
211.425
21.9977
950.953
232.211
19.0413
809.709
289.785
93.7315
825.309
-126.483
448.894
-184.368
-580.382
191.569
-956.967
-695.28
-281.172
-1035.01
-645.224
-380.234
-507.644
-661.273
-237.631
206.003
-764.576
-127.102
854.875
-797.631
-11.0141
1432.46
-16.1489
1362.14
396.866
14.3196
1693.22
234.375
66.4403
1480.49
191.913
45.604
1091.45
211.082
11.3996
1072.97
220.687
23.3486
941.697
246.92
19.0305
803.279
348.217
88.4582
845.714
21.2747
491.021
-32.5546
-403.031
302.326
-900.544
-596.911
-313.874
-1205.93
-613.352
-442.155
-687.708
-629.988
-230.963
240.416
-741.065
-104.535
869.387
-789.786
0.281024
1426.51
-14.4649
1365.28
403.187
13.0153
1695.92
236.736
60.4807
1476.73
188.499
43.6982
1071.69
211.301
12.0264
1055.9
229.332
19.0194
932.181
261.833
13.2165
797.608
388.101
64.9407
855.33
163.806
405.384
123.196
-200.853
298.916
-719.065
-469.312
-281.279
-1285.69
-571.273
-353.89
-886.779
-603.933
-162.745
239.038
-726.623
-53.0478
873.192
-790.53
28.974
1406.98
-18.5534
1358.95
408.879
10.3661
1694.12
240.592
49.9181
1470.39
186.856
38.7985
1051.27
211.863
11.8168
1037.44
235.051
12.9665
921.676
269.782
7.21785
791.608
400.827
43.4247
871.041
218.889
278.349
193.966
-124.381
231.881
-588.235
-441.361
-227.242
-1245.14
-570.106
-229.514
-909.048
-593.119
-91.2341
222.691
-701.814
-15.4072
864.221
-765.122
37.6738
1418.47
-12.7146
1420.35
417.873
1690.66
246.843
1467.52
183.861
1026.7
211.724
1008.32
240.901
902.819
278.975
787.868
412.21
882.425
231.382
229.844
-129.089
-536.251
-471.274
-1196.24
-580.772
-865.934
-594.3
191.006
-698.025
833.916
-754.941
1420.31
1456.63
944.382
-20.5625
1262.55
774.389
-54.3556
1653.54
513.034
-64.6652
1307.85
371.093
-38.7985
1162.98
315.124
-21.5496
970.368
305.423
-19.0059
811.019
382.78
-39.1354
828.361
263.898
-237.279
428.743
-88.467
-170.183
-156.75
-536.858
209.658
-814.081
-851.461
209.487
-615.406
-1002.49
8.12754
318.885
-1171.7
2.47776
994.499
-1153.49
-12.5268
1394.5
26.3497
905.565
930.116
-25.1451
1272.85
753.605
-64.4543
1658.46
503.062
-74.1114
1316.03
367.029
-40.9459
1179.61
311.428
-27.9195
986.645
296.315
-29.4196
819.144
370.209
-66.0607
824.705
241.778
-314.608
401.123
-99.0368
-205.35
-207.637
-512.761
245.64
-866.527
-849.036
322.068
-675.612
-1016.5
82.6626
317.101
-1184.3
20.8459
1007.24
-1161.21
-1.90112
1377.54
35.821
875.053
920.964
-27.161
1278.96
739.373
-68.0372
1663.64
495.205
-78.4321
1325.01
362.564
-40.6257
1191.96
306.037
-33.0662
996.432
287.383
-38.4368
827.155
357.678
-100.53
818.276
187.873
-364.324
357.218
-163.45
-223.017
-318.688
-525.804
248.131
-939.274
-852.331
418.338
-714.143
-1045.92
194.316
311.869
-1224.26
59.3695
1007.58
-1182.86
16.2124
1339.5
28.0228
823.92
908.85
-24.9198
1282.91
724.815
-67.165
1665.75
490.545
-80.0581
1332.32
361.25
-37.6687
1202.92
298.388
-31.6949
1005.39
269.984
-38.9503
834.141
310.757
-116.648
818.69
28.3333
-330.359
254.243
-405.173
-141.339
-519.335
-717.065
229.917
-936.071
-920.651
367.264
-524.834
-1063.13
212.546
354.976
-1230.9
77.4189
1014.34
-1180.14
26.5616
1357.73
27.7167
827.436
899.194
-18.469
1281.05
713.276
-58.1596
1667
485.178
-74.4719
1342.06
357.91
-32.11
1216.46
289.019
-25.2545
1015.03
252.699
-32.8792
841.518
238.494
-92.09
813.468
-170.925
-184.829
107.498
-658.115
-4.21036
-614.77
-890.369
140.927
-774.559
-977.816
167.189
-276.626
-1086.87
143.994
385.82
-1248.84
80.3737
1010.49
-1184.15
22.1343
1366.54
26.3557
824.774
891.644
-7.9734
1272.69
705.651
-39.2819
1664.49
480.368
-56.4648
1351.52
354.524
-23.2679
1231.15
280.815
-15.8375
1024.29
237.792
-21.0785
849.528
192.505
-50.3111
803.278
-235.349
-41.6802
43.4736
-699.706
112.125
-606.192
-936.094
72.9035
-694.37
-1016.58
-42.5098
-162.045
-1110.84
25.7522
409.88
-1263.11
63.922
1013.79
-1187.9
13.2613
1370.38
23.2831
818.391
892.207
1.06614
1255.74
708.321
-10.7365
1655.75
477.281
-18.6411
1358.53
350.756
-9.03405
1246.08
277.095
-8.60773
1034.17
234.868
-11.2819
859.009
200.899
-31.0278
791.16
-149.959
-3.8786
67.7245
-504.123
118.862
-576.947
-804.423
68.2671
-852.898
-1032.04
-85.8452
-337.84
-1140.42
-49.3345
424.266
-1272.48
27.8407
1034.4
-1193.37
10.5467
1357.5
13.8693
805.61
895.324
6.41947
1248.51
712.749
20.0193
1650.19
476.817
27.6454
1358.76
348.82
8.45011
1249.8
271.541
1.87231
1036.88
228.906
-0.441298
863.474
160.042
10.5648
779.394
-189.243
12.1695
10.5494
-398.073
-32.5609
-579.924
-613.051
-23.4972
-1008.27
-972.242
23.4344
-628.427
-1177.65
8.22793
377.185
-1291.17
-11.8309
1040.98
-1197.92
6.16249
1329.92
-1.11885
782.03
892.568
13.7499
1262.08
707.075
46.6145
1658.05
476.761
61.7781
1357.41
349.796
22.4896
1243.76
275.239
10.4986
1032.85
231.967
10.4622
858.157
190.646
35.4721
789.974
-145.969
31.1554
63.0867
-419.295
-109.747
-562.747
-685.313
-58.6279
-953.132
-991.063
77.8284
-530.832
-1145.77
-0.69693
392.358
-1264.31
-59.5382
1042.48
-1186.71
0.558507
1364.46
-8.02984
819.497
893
22.2449
1278.05
705.668
63.4938
1665.61
479.496
77.6464
1349.79
352.734
31.6082
1228.68
278.602
20.6215
1022.9
234.885
22.6956
848.451
198.421
68.6674
806.197
-196.251
130.424
70.558
-632.604
-24.9986
-585.697
-900.028
-86.1412
-737.025
-1013.98
-73.7169
-206.549
-1102.79
-111.198
408.425
-1252.7
-77.9303
1018.31
-1182.77
-9.98912
1379.91
-11.4473
836.893
900.644
27.4573
1285.55
713.526
70.8121
1667.68
483.572
82.1656
1340.18
355.039
37.655
1213.97
284.065
29.1783
1013.37
244.711
31.6148
840.143
214.682
107.488
816.515
-219.291
294.752
85.273
-706.251
108.406
-603.411
-913.4
-199.136
-714.865
-975.228
-299.086
-220.448
-1078.87
-185.543
383.987
-1241.03
-73.0178
1012.13
-1179.66
-17.3139
1378.42
-12.827
842.682
910.482
28.8887
1286.41
725.353
70.3446
1666.09
488.78
79.8009
1330.39
358.015
41.0074
1200.38
293.219
32.2109
1003.46
261.697
33.7586
832.655
288.873
103.342
822.682
-32.9855
357.701
226.35
-490.781
212.877
-547.223
-780.637
-237.682
-877.534
-934.802
-406.42
-426.209
-1055.24
-195.573
370.888
-1222.91
-54.1778
1018.22
-1175.31
-10.8189
1372.41
-13.5235
848.224
922.771
26.3002
1281.63
740.154
65.8109
1663.89
493.288
75.0585
1323.3
358.961
41.6345
1189.6
300.802
28.0914
994.459
279.427
26.7924
825.947
345.702
70.9549
821.439
156.444
319.507
350.645
-213.178
215.052
-351.621
-574.821
-229.229
-932.497
-867.399
-344.263
-656.359
-1036.68
-107.54
320.287
-1215.16
-14.4318
1011.92
-1178.23
4.63224
1354.6
-23.0225
847.283
932.038
21.2821
1274.9
754.599
55.0284
1658.62
501.199
65.2786
1314.45
363.383
39.6015
1177.29
306.516
22.1317
984.501
289.269
17.6612
817.984
362.37
42.4398
826.453
231.885
239.887
404.067
-103.54
168.683
-206.445
-511.157
-201.666
-865.094
-846.202
-231.17
-687.097
-1008.86
-21.8581
299.671
-1173.58
2.45834
1012.05
-1156.59
14.0929
1392.02
-17.9722
901.559
946.346
1264.1
775.445
1653.82
511.087
1306.74
367.219
1161.07
310.118
968.374
298.731
810.212
374.375
829.073
253.063
430.932
-96.9392
-152.214
-536.855
-811.337
-848.902
-635.852
-995.198
303.135
-1159.45
998.318
-1148.2
1409.22
934.029
1246.14
-16.2033
747.701
1377.97
-51.8103
1535.57
1189.08
-68.7958
1511.45
903.917
-72.1183
1463.06
619.406
-48.9749
1264.91
398.994
-28.7068
1040.76
317.117
-24.3347
926.145
118.241
-130.708
667.322
-253.588
-84.1617
232.301
-661.869
165.849
-447.337
-1015.87
250.719
-348.386
-1188.67
-12.909
465.932
-1349.71
4.78098
1155.66
-1209.47
43.716
1233.25
30.7704
502.245
1240.14
-19.9033
756.218
1357.94
-58.3648
1547.21
1164.25
-78.6113
1519.54
878.571
-78.4702
1471.64
597.699
-53.8317
1272.37
380.106
-36.296
1044.33
302.943
-47.5751
925.106
97.1066
-173.484
649.733
-268.327
-115.961
189.593
-638.323
168.451
-499.134
-1004.45
350.9
-409.662
-1204.73
80.3508
424.116
-1360.25
14.6301
1152.92
-1207.24
59.3709
1208.88
41.566
490.917
1237.36
-22.9568
761.394
1345.07
-56.9728
1554.53
1146.25
-80.9324
1526.16
859.105
-78.2695
1478.9
579.34
-55.3858
1277.75
364.648
-42.6593
1048.21
292.848
-81.7967
924.297
62.1668
-213.07
627.483
-313.56
-169.505
110.58
-653.911
145.142
-575.615
-1004
427.487
-440.643
-1230.96
216.147
403.03
-1391.74
44.0815
1138.92
-1207.13
57.9793
1156.28
37.045
471.109
1230.19
-22.6172
767.083
1327.85
-50.0507
1561.17
1127.89
-80.0984
1531.45
843.497
-75.7075
1484.75
563.99
-52.7558
1282.27
345.841
-41.4486
1051.08
254.321
-99.6501
928.062
-85.5717
-195.998
577.062
-567.059
-132.091
-75.2631
-890.364
140.511
-608.136
-1093.64
361.169
-255.238
-1242.54
217.217
502.809
-1397.44
58.8597
1154.46
-1207.26
59.3326
1166.2
35.1038
474.328
1222.98
-18.7803
769.484
1312.47
-36.4686
1563.94
1109.62
-70.793
1535.6
825.389
-66.576
1491.56
544.231
-44.4357
1287.87
323.773
-34.0148
1054.54
185.553
-78.72
930.757
-286.739
-106.633
490.421
-837.664
10.5405
-206.477
-1099.98
115.78
-487.511
-1165.6
149.255
0.908568
-1258.67
101.467
594.638
-1406.58
65.4828
1151.78
-1209.11
55.1473
1173.25
33.4449
473.192
1213.36
-9.37843
768.924
1297.97
-18.9057
1562.32
1092.68
-50.7263
1536.74
808.594
-48.7471
1497.4
526.675
-31.2878
1293.06
306.158
-22.2846
1058.31
142.172
-41.7534
930.295
-349.408
-15.4931
443.911
-873.352
147.395
-219.105
-1146
120.08
-426.022
-1209.57
-59.9816
110.762
-1279.39
-59.2772
640.443
-1412.25
54.5721
1157.56
-1208.85
48.2639
1173.86
28.7268
474.865
1206.07
2.1436
763.584
1293.27
-3.17058
1552.81
1083.74
-15.5571
1532.9
796.161
-16.5888
1501.5
513.48
-12.9109
1298.47
297.644
-11.127
1063.69
147.872
-27.4496
926.627
-262.38
12.6792
449.801
-660.824
146.751
-177.861
-972.242
122.021
-543.422
-1195.41
-94.8141
-79.837
-1304.34
-116.341
590.258
-1414.84
20.1909
1179.28
-1205.31
36.3699
1159.87
23.8041
473.191
1206.16
10.2372
761.072
1296.8
9.7375
1546.65
1085.13
25.5827
1529.29
794.739
22.2214
1501.37
507.319
11.4978
1299.89
290.019
3.39421
1066.25
106.698
9.84883
925.414
-291.413
2.3998
418.936
-519.738
-33.4424
-171.407
-714.53
-30.7168
-660.746
-1074.12
35.2569
-398.909
-1321.93
41.6803
466.974
-1422.83
3.1231
1158.95
-1195.84
2.2072
1137.08
14.8953
473.994
1210.77
16.627
766.441
1296.93
26.4633
1555.17
1086.91
58.8737
1534.14
798.15
53.301
1501.44
513.298
30.7451
1298.45
295.087
15.8499
1063.91
136.289
30.924
927.695
-255.374
8.60939
448.537
-558.693
-138.646
-154.226
-812.532
-109.551
-620.46
-1119.29
103.485
-292.303
-1301.79
99.7079
516.833
-1407.03
-28.3451
1179.18
-1201.8
-18.2917
1179.73
3.40127
498.714
1217.14
22.3657
771.542
1301.87
43.4492
1563.9
1096
77.2788
1537.26
810.471
70.4511
1497.06
526.762
44.2495
1293.1
304.783
27.6032
1058.67
151.01
58.0415
932.851
-301.945
69.4638
462.656
-792.356
-48.9878
-184.947
-1091.37
-84.7077
-462.856
-1202.67
-41.5918
49.8296
-1273.44
-38.1325
617.032
-1403.01
-50.2023
1169.74
-1206.05
-30.8611
1195.52
-6.51643
506.136
1225.56
24.6904
771.622
1315.72
55.7083
1565.26
1112.28
85.0231
1535.87
826.399
79.1214
1491.18
542.04
54.0217
1287.95
317.387
37.565
1054.83
163.697
93.2646
934.98
-332.895
173.174
478.152
-890.136
106.797
-201.957
-1132.44
-124.429
-432.845
-1168.36
-289.767
63.6537
-1249.38
-175.116
601.992
-1397.17
-44.869
1154.58
-1204.9
-40.7927
1196.08
-8.32591
503.098
1232.3
24.2849
768.645
1330.91
61.2595
1561.93
1130.38
84.4799
1531.46
844.352
81.1486
1484.38
561.844
57.5646
1282.42
339.525
40.9471
1051.59
236.258
86.2289
932.984
-141.927
211.889
565.819
-662.698
186.616
-106.271
-975.104
-127.937
-561.621
-1120.36
-421.751
-148.974
-1234.87
-227.298
537.583
-1389.43
-35.3641
1163.27
-1204.18
-45.3623
1191.73
-10.3787
506.349
1239.3
20.7554
762.487
1348.08
61.4577
1554.91
1148.6
81.1432
1526.12
859.703
80.9111
1478.74
577.178
56.3959
1278.15
358.874
35.9698
1049.23
284.145
53.3176
929.078
37.6894
179.629
629.359
-363.437
147.703
88.4155
-714.662
-132.923
-576.288
-1026.43
-380.416
-385.93
-1217.48
-134.244
418.287
-1383.14
-9.85983
1152.07
-1205.54
-50.6059
1182.25
-19.0747
507.456
1241.92
16.7378
756.988
1360.89
53.8183
1547.3
1166.59
70.4658
1519.43
879.205
74.0213
1471.56
595.92
51.3395
1272.84
375.262
29.011
1045.6
297.291
28.2771
929.462
93.1218
132.283
655.579
-264.64
97.8506
201.165
-631.192
-141.178
-490.288
-995.892
-287.207
-415.608
-1188.88
-30.5384
388.955
-1349.78
2.90365
1160.18
-1206.31
-38.2029
1236.15
-16.3752
531.364
1247.86
748.208
1380.8
1535.56
1191.19
1511.54
904.211
1463.39
617.328
1265.77
393.984
1042.55
309.973
930.559
107.968
672.949
-261.103
245.167
-655.195
-437.514
-1006.85
-369.578
-1174.27
421.07
-1336.73
1161
-1208.28
1261.62
544.614
1268.88
-6.37689
484.494
1585.23
-41.8705
1230.63
1678.05
-57.6971
1429.99
1580.4
-78.3831
1576.28
1324.76
-77.8334
1534.78
998.341
-64.0746
1379.54
720.375
-38.9774
1214.94
425.583
-63.8882
982.255
-11.9774
-48.5547
678.071
-538.537
126.944
47.9182
-943.373
284.563
-34.6901
-1038.95
15.5381
509.888
-1190.69
0.511833
1302.84
-1063.13
92.1396
1072.71
47.2038
431.656
1268.45
-7.56781
486.964
1577.61
-45.4932
1241.68
1661.31
-64.1737
1442.31
1552.18
-86.2392
1588.64
1286.77
-84.2202
1544.17
953.039
-70.2333
1384.22
673.323
-49.6605
1215.5
368.516
-83.0628
973.714
-66.5541
-72.2492
648.355
-523.592
85.7499
-0.904748
-893.064
342.473
-98.1007
-1030.21
175.204
401.592
-1199.93
29.4446
1293.71
-1058.28
112.883
1046.49
67.9503
437.79
1270.24
-10.1032
488.535
1574.97
-43.1254
1247.44
1650.51
-62.7454
1449.2
1531.84
-85.2218
1596.55
1258.04
-83.2891
1550.62
919.361
-71.216
1387.87
641.509
-64.0722
1216.56
329.198
-108.117
964.848
-113.318
-125.334
606.178
-542.09
5.78791
-66.8827
-879.463
385.371
-146.169
-1035.41
402.022
332.162
-1221.92
77.9021
1276.97
-1055.37
104.884
997.735
68.7876
445.394
1268.71
-10.8662
490.98
1566.94
-35.1935
1255.01
1635.34
-57.1384
1457.44
1510.36
-80.5757
1605.08
1231.29
-79.0829
1557.13
887.192
-67.2709
1391.23
601.399
-69.5545
1219.34
225.085
-107.474
952.732
-348.758
-121.03
494.274
-811.068
18.4768
-158.516
-1014.69
346.838
-13.0874
-1074.59
362.882
601.853
-1239.6
87.383
1309.99
-1063.12
97.1949
997.415
60.9507
452.38
1266.88
-10.6387
492.864
1559.4
-22.8227
1259.05
1620.22
-44.4891
1462.13
1487.29
-67.4851
1611.4
1200.11
-66.9175
1562.89
848.82
-55.807
1394.36
543.705
-56.1661
1222.48
57.0801
-59.6993
929.27
-653.592
10.4213
372.742
-1076.86
105.637
-151.406
-1127.65
148.603
249.929
-1101.87
118.134
813.612
-1244.22
74.4976
1307.01
-1064.61
88.067
1002.78
57.6224
452.431
1260.53
-5.15266
494.928
1547.54
-8.7996
1261.29
1602.83
-27.1197
1464.09
1463.63
-46.1915
1615.31
1169.77
-46.9817
1566.98
814.484
-38.6117
1396.41
497.461
-33.3218
1224.47
-17.047
-11.0495
909.768
-721.398
148.753
346.913
-1140.05
224.571
-126.307
-1186.3
-30.2955
335.908
-1127.76
-182.934
882.979
-1242.56
31.9521
1314.91
-1062.57
76.6807
1005.26
50.3907
464.57
1253.53
4.02507
496.253
1538.81
0.578327
1258.15
1591.43
-6.62624
1459.78
1446.53
-13.9812
1614.19
1145.28
-15.6529
1568.39
786.359
-13.9607
1397.95
471.315
-16.0738
1224.42
9.4182
-0.360821
901.007
-533.213
134.847
378.673
-910.56
225.65
-167.155
-1097.02
-47.0955
123.419
-1124.31
-292.759
727.374
-1239.71
-10.4841
1337.12
-1053.8
51.5504
999.086
47.0161
473.953
1253.52
10.032
496.501
1540.15
5.76139
1254.85
1592.92
14.2589
1455.64
1446.55
22.4118
1611.35
1141.36
21.8497
1567.58
778.96
16.2287
1398.46
449.36
12.0583
1226.88
-25.5265
3.0986
890.361
-411.105
-32.8787
381.894
-591.418
-53.1098
-201.673
-876.002
24.4991
-185.921
-1065.2
84.4136
278.998
-1225.34
17.0965
1291.52
-1035.73
5.12762
993.889
37.4563
502.231
1259.58
12.0045
496.309
1546.33
15.8428
1258.34
1598.77
35.6606
1460.3
1453.44
54.6888
1614.5
1151.26
53.4532
1569.02
790.728
41.4094
1399.26
471.367
31.7911
1227.32
9.40134
10.5018
903.098
-439.604
-140.437
402.335
-710.382
-222.112
-180.681
-960.928
85.3884
-102.647
-1083.23
278.397
445.152
-1223.48
15.8454
1320.69
-1050.39
-22.388
1034.16
11.6362
523.176
1264.62
12.8731
495.535
1553.1
29.6457
1261.61
1608.87
52.8076
1464.35
1469.73
75.4455
1615.45
1175.47
73.1312
1567.68
819.46
58.1092
1397.99
505.656
50.5506
1227.89
21.6723
39.2817
917.858
-630.748
-59.1888
386.224
-1057.28
-126.159
-132.276
-1155.6
-23.6106
257.147
-1117.88
29.2151
828.492
-1237.58
-30.3801
1335.67
-1060.15
-45.8063
1041.51
-14.5091
522.793
1268.52
12.0636
493.761
1562.38
41.2394
1259.82
1624.34
64.1311
1462.58
1491.94
87.3051
1611.72
1204.06
85.0946
1563.87
850.31
70.4139
1396.28
537.086
71.1861
1227.57
22.3779
100.699
931.441
-719.697
104.026
376.901
-1133.8
-28.9264
-115.974
-1147.53
-265.235
319.001
-1092.81
-272.923
849.41
-1229.61
-54.8437
1315.85
-1054.25
-65.664
1040.58
-19.4216
507.009
1269.82
10.9333
491.813
1569.32
48.1038
1255.57
1638.98
68.2582
1457.68
1514.67
90.6379
1605.36
1235.14
88.7881
1558.27
888.659
74.9461
1393.54
597.227
70.6544
1224.95
191.901
114.845
956.996
-444.474
155.475
478.652
-918.189
29.2317
-146.067
-1065.65
-374.768
108.022
-1075.49
-428.796
703.296
-1231.76
-65.7776
1330.47
-1057.5
-84.5549
1036.37
-29.9752
505.706
1271.25
8.1252
489.268
1577.19
49.3608
1247.7
1653.91
68.394
1449.27
1535.85
90.5168
1596.91
1261.67
89.0539
1552.07
921.084
74.0048
1390.76
641.209
56.8215
1222.79
321.778
91.4962
972.136
-150.038
107.329
608.374
-604.62
-19.5398
-72.9383
-913.955
-344.402
-106.962
-1029.31
-317.807
422.657
-1216.08
-38.7534
1311.82
-1053.65
-101.519
1036.79
-37.2736
501.53
1269.3
6.78261
487.651
1579.59
44.6171
1241.76
1664.47
60.6891
1442.25
1556
81.5284
1589.02
1290.43
81.7026
1545.76
955.28
67.3376
1387.41
674.851
44.6572
1222.05
371.473
68.4836
981.967
-54.9292
66.3603
668.532
-503.986
-74.58
13.8037
-874.03
-297.896
-92.0718
-999.427
-135.093
331.638
-1187.77
-3.94842
1313.72
-1057.2
-84.4072
1088.48
-28.4889
496.832
1269.81
485.138
1587.19
1230.6
1680.97
1429.98
1583.78
1576.96
1327.84
1536.84
999.907
1383.41
720.638
1222.31
423.333
991.581
-12.3057
700.159
-513.674
66.6444
-911.279
-39.1439
-1002.29
414.275
-1175.03
1322.56
-1060.8
1116.3
492.222
1267.76
-2.51063
434.814
1512.47
-25.6851
992.731
1739.06
-40.0249
1210.9
1881.26
-61.811
1445.69
1867.35
-76.0848
1561.64
1713.04
-78.9018
1546.54
1477.97
-65.8836
1460.68
1200.49
-57.4163
1270.82
813.371
-26.3954
1067.88
239.793
-41.8641
648.4
-412.811
309.314
525.759
-598.798
316.027
537.366
-886.718
-46.2548
1578.49
-896.963
131.383
1044.68
93.021
588.725
1266.78
-2.33839
434.927
1511.03
-27.0806
998.828
1735.03
-43.0715
1221.35
1869.29
-67.3601
1459.93
1843.16
-82.0624
1576.27
1674.33
-84.6275
1558.77
1426.67
-71.6662
1468.95
1134.67
-65.532
1273.82
741.839
-44.0953
1058.89
205.748
-134.5
627.821
-341.492
269.665
488.788
-537.732
518.721
395.139
-900.236
61.7159
1548.25
-890.917
144.666
1023.89
128.935
617.85
1268.47
-3.84624
435.024
1513.71
-26.2958
1001.41
1734.63
-40.6929
1225.9
1862.02
-65.2114
1467.02
1825.99
-79.7521
1584.33
1645.89
-82.6087
1565.96
1389.52
-73.0163
1474.27
1085.59
-71.7128
1274.96
678.815
-79.9678
1048.82
119.392
-236.384
594.423
-337.186
150.66
429.413
-485.14
699.769
299.068
-909.546
229.559
1533.53
-889.385
135.935
986.307
106.603
677.142
1267.71
-4.09838
435.457
1511.89
-21.756
1006.3
1729.61
-34.6144
1233.64
1850.81
-58.8885
1477.56
1806.64
-73.6651
1595.21
1616.81
-76.6895
1575.15
1350.73
-68.9376
1481.33
1019.06
-65.6502
1278.34
486.752
-84.5419
1031.16
-248.399
-171.89
512.14
-698.508
163.703
423.977
-670.583
556.135
717.563
-928.945
213.113
1584.8
-896.765
122.824
978.347
82.8682
690.309
1267.02
-3.36804
436.267
1510.37
-15.2268
1009.18
1724.53
-24.4576
1237.81
1838.9
-45.882
1484.03
1784.95
-59.6927
1602.86
1583.09
-62.6171
1582.15
1303.69
-54.4547
1487.4
927.74
-40.7756
1280.35
209.263
1.70228
1004.97
-609.276
46.082
449.159
-929.437
156.334
577.458
-774.714
190.424
1024.6
-928.89
97.2394
1577.06
-894.431
114.886
976.263
82.475
682.438
1264.12
0.910247
437.765
1504.64
-6.57315
1012.11
1715.36
-12.3185
1241.23
1823.7
-28.061
1489.16
1761.06
-39.1324
1609.06
1549.19
-42.0383
1587.7
1260.9
-33.9308
1492.23
866.043
-15.6025
1279.45
142.717
79.6801
992.26
-649.062
265.615
445.937
-987.372
225.333
605.219
-827.99
-183
1097.02
-943.233
-67.4224
1594.81
-905.526
100.913
981.526
62.4682
704.443
1262.98
5.40465
438.99
1500.27
1.36086
1012.93
1708.08
-0.856985
1240.51
1811.67
-6.29826
1488.84
1741.14
-10.5566
1610.34
1519.31
-12.0729
1589.81
1224.12
-8.87166
1494.55
833.976
-0.864879
1276.42
241.345
59.5023
991.48
-380.219
250.888
469.135