/*--------------------------------*- C++ -*----------------------------------*\
| =========                 |                                                 |
| \\      /  F ield         | OpenFOAM: The Open Source CFD Toolbox           |
|  \\    /   O peration     | Version:  4.1                                   |
|   \\  /    A nd           | Web:      www.OpenFOAM.org                      |
|    \\/     M anipulation  |                                                 |
\*---------------------------------------------------------------------------*/
FoamFile
{
    version     2.0;
    format      ascii;
    class       volVectorField;
    location    "16";
    object      U;
}
// * * * * * * * * * * * * * * * * * * * * * * * * * * * * * * * * * * * * * //

dimensions      [0 1 -1 0 0 0 0];

internalField   nonuniform List<vector> 
6750
(
(4.84201 -0.00557125 19.3341)
(-0.942838 -0.091154 13.8411)
(1.6279 -0.0421524 10.8696)
(0.511153 0.0018739 11.8101)
(1.2495 -0.0155361 10.3677)
(0.834395 -0.00903056 9.35422)
(1.28269 -0.121163 11.8359)
(1.87171 -0.706548 -4.19554)
(-2.58382 -0.283888 -13.952)
(-4.6899 0.972237 -17.255)
(-4.84939 0.649288 -8.71018)
(-1.95963 0.176801 3.4955)
(-3.53414 0.0288486 8.06478)
(-0.690185 -0.0842833 14.7127)
(-6.76209 0.0039202 20.2918)
(4.80857 -0.0123343 19.2944)
(-0.926974 -0.159709 14.0444)
(1.61426 -0.066857 11.3542)
(0.503876 0.00234845 12.1329)
(1.2255 -0.0373407 10.4969)
(0.765347 -0.0232278 9.35347)
(1.29406 -0.234385 11.5831)
(1.7849 -1.3046 -4.87623)
(-2.56191 -0.582463 -14.2823)
(-4.22123 1.44862 -17.6182)
(-4.65299 1.01823 -8.91525)
(-1.76979 0.307704 3.96972)
(-3.41995 0.133637 8.71955)
(-0.688209 -0.128286 14.9229)
(-6.8541 0.0160182 19.9338)
(4.7827 -0.0167231 19.2629)
(-0.910988 -0.158807 14.2324)
(1.60969 -0.0596424 11.6849)
(0.496016 -0.00107394 12.3016)
(1.20897 -0.0533427 10.5596)
(0.704072 -0.039102 9.39736)
(1.32964 -0.302456 11.2642)
(1.68899 -1.64944 -5.49339)
(-2.85267 -0.81981 -14.7282)
(-4.05693 1.58401 -17.9335)
(-4.50316 1.39651 -9.40053)
(-1.67032 0.364107 3.89743)
(-3.4588 0.281923 8.78792)
(-0.713911 -0.0209446 15.0828)
(-7.05699 0.0240991 19.3143)
(4.76224 -0.0196932 19.1777)
(-0.896962 -0.170007 14.416)
(1.61549 -0.0575494 12.0108)
(0.487976 -0.00123731 12.4643)
(1.18938 -0.0626771 10.6238)
(0.604719 -0.0489514 9.46553)
(1.34992 -0.390756 11.0013)
(1.17667 -1.97514 -6.75826)
(-3.82846 -0.791569 -15.5166)
(-4.58319 1.80862 -17.2462)
(-4.47152 1.6464 -8.58783)
(-1.69668 0.450439 3.22465)
(-3.61984 0.41345 8.44002)
(-0.745668 0.0620353 15.2715)
(-7.0155 0.0321061 19.4882)
(4.75676 -0.018747 19.0509)
(-0.879216 -0.154634 14.6499)
(1.61626 -0.0443153 12.3423)
(0.477321 0.00102707 12.6187)
(1.17039 -0.0586373 10.6777)
(0.50344 -0.0490235 9.53307)
(1.3714 -0.349637 10.6246)
(0.367413 -1.85177 -8.09776)
(-5.28302 -0.384721 -15.8976)
(-5.42587 1.62338 -15.6082)
(-4.28772 1.3394 -7.49663)
(-1.80875 0.419799 2.12996)
(-3.81828 0.453622 7.95104)
(-0.801032 0.0685184 15.2833)
(-7.02779 0.0358714 19.5334)
(4.77132 -0.0151487 18.8627)
(-0.863744 -0.124983 14.9033)
(1.61166 -0.0313433 12.6884)
(0.467728 0.00264518 12.7825)
(1.15294 -0.0396417 10.718)
(0.435279 -0.0354885 9.61257)
(1.36204 -0.15548 10.2341)
(0.0992959 -1.22421 -8.44227)
(-5.668 0.103941 -15.7703)
(-5.68878 0.825235 -14.5032)
(-4.26846 0.720617 -6.77621)
(-1.96938 0.475083 1.34758)
(-3.97701 0.468344 7.54586)
(-0.840742 0.00431441 15.4312)
(-7.05612 0.0312351 19.5171)
(4.81625 -0.00769068 18.6052)
(-0.859528 -0.0654546 15.0802)
(1.60357 -0.0160672 12.9806)
(0.463078 -0.000528542 12.9577)
(1.14183 -0.0257008 10.761)
(0.43712 -0.0206265 9.69379)
(1.37599 -0.113101 9.88469)
(0.487252 -0.64253 -7.88323)
(-4.2832 0.53113 -15.8675)
(-4.33353 0.548031 -17.1078)
(-5.02707 0.0567495 -9.5355)
(-2.55448 0.276572 1.79452)
(-3.86388 0.397353 7.75351)
(-0.903421 -0.0569056 15.55)
(-7.12059 0.0235762 19.3283)
(4.8393 0.00332771 18.4968)
(-0.864907 0.0083975 15.0867)
(1.60299 -0.0017359 13.0416)
(0.459403 -0.00429794 13.017)
(1.13658 -0.00667671 10.7812)
(0.387399 -0.0111324 9.75194)
(1.39729 -0.0168818 9.44657)
(-0.140019 -0.111862 -8.69092)
(-4.21148 0.195315 -16.2318)
(-2.61196 0.19118 -19.3722)
(-4.31504 -0.0641024 -13.6813)
(-3.69615 -0.0379236 1.29708)
(-3.78478 0.0591025 8.02388)
(-0.950512 -0.00540877 15.6172)
(-7.2586 0.00491104 18.9176)
(4.80282 0.013 18.672)
(-0.863824 0.078847 15.0331)
(1.60305 0.0141097 12.9357)
(0.461707 -0.00674304 12.9373)
(1.1395 0.0140884 10.7585)
(0.433587 -0.00127144 9.67713)
(1.36321 0.0974097 9.8391)
(0.498841 0.449911 -7.76379)
(-3.94385 -0.551599 -15.8078)
(-3.4814 -0.648164 -18.2393)
(-4.90124 -0.0859093 -11.6475)
(-3.05779 -0.27075 1.66006)
(-3.81436 -0.431084 7.90583)
(-0.919543 0.0416398 15.5636)
(-7.10364 -0.0165236 19.3768)
(4.76342 0.0187387 18.9218)
(-0.87218 0.133479 14.8418)
(1.60806 0.030993 12.6352)
(0.464911 -0.00795216 12.7607)
(1.14836 0.027423 10.7103)
(0.434856 0.0139764 9.58456)
(1.33756 0.0999591 10.2644)
(0.220608 0.955615 -8.24823)
(-5.28118 -0.190156 -15.7241)
(-5.48745 -0.47619 -14.7113)
(-4.28036 -0.388588 -6.68134)
(-1.8298 -0.501014 1.63432)
(-3.89749 -0.542146 7.71587)
(-0.82854 -0.00590225 15.4067)
(-7.03265 -0.0242096 19.5835)
(4.75242 0.0213266 19.1062)
(-0.889673 0.160262 14.59)
(1.60991 0.044674 12.2858)
(0.471764 -0.00492204 12.5927)
(1.16319 0.0485267 10.663)
(0.477848 0.0322989 9.50343)
(1.33935 0.299017 10.6079)
(0.156949 1.57848 -8.31928)
(-5.59204 0.233236 -15.7945)
(-5.51864 -1.41605 -14.9618)
(-4.04408 -1.17036 -6.99873)
(-1.72314 -0.423702 2.00554)
(-3.79466 -0.449312 8.03631)
(-0.783361 -0.062809 15.3111)
(-7.01603 -0.0264738 19.5809)
(4.76114 0.0214297 19.2265)
(-0.908538 0.173365 14.3582)
(1.60773 0.0587235 11.9488)
(0.481273 -0.00115116 12.4329)
(1.1813 0.057601 10.602)
(0.581708 0.0388884 9.42815)
(1.32327 0.396148 10.9916)
(1.00911 1.87579 -7.01266)
(-4.13197 0.684633 -15.5908)
(-4.77254 -1.78888 -16.6732)
(-4.34459 -1.53473 -7.89586)
(-1.618 -0.439195 3.17669)
(-3.60971 -0.419426 8.51257)
(-0.721879 -0.065669 15.32)
(-7.00398 -0.0231845 19.5385)
(4.78396 0.017849 19.3062)
(-0.923055 0.16072 14.1799)
(1.6009 0.0610207 11.6205)
(0.488218 -0.000234246 12.2663)
(1.20019 0.0505926 10.5322)
(0.685154 0.0331563 9.35821)
(1.30394 0.317525 11.2344)
(1.63775 1.61855 -5.60547)
(-2.96926 0.831138 -14.814)
(-4.14928 -1.61315 -17.6493)
(-4.45073 -1.46973 -8.89913)
(-1.58118 -0.376407 3.94935)
(-3.44271 -0.271305 8.87582)
(-0.685722 0.0168703 15.1391)
(-7.04736 -0.0155021 19.3639)
(4.81157 0.0131111 19.3331)
(-0.939293 0.160576 13.9959)
(1.605 0.0685929 11.2866)
(0.495735 -0.00266494 12.0932)
(1.21682 0.0364873 10.4642)
(0.752988 0.0202288 9.31043)
(1.26917 0.248566 11.5325)
(1.79398 1.29784 -4.85316)
(-2.50858 0.643498 -14.2779)
(-4.14281 -1.47727 -17.629)
(-4.63254 -1.10704 -8.94316)
(-1.73602 -0.31325 4.06088)
(-3.39995 -0.117879 8.81516)
(-0.660976 0.122138 14.9797)
(-6.84858 -0.00851683 19.975)
(4.84628 0.00596157 19.369)
(-0.954896 0.0912867 13.8006)
(1.61792 0.0432489 10.8042)
(0.502313 -0.00171197 11.7683)
(1.24057 0.015166 10.3318)
(0.824967 0.00785491 9.31282)
(1.25838 0.125786 11.7545)
(1.88423 0.704011 -4.11393)
(-2.47138 0.314225 -13.9001)
(-4.58877 -0.983415 -17.3127)
(-4.84833 -0.684144 -8.80576)
(-1.94099 -0.177487 3.60335)
(-3.51242 -0.0238151 8.1635)
(-0.661631 0.0814912 14.7763)
(-6.75743 -0.000648423 20.3331)
(13.9706 -0.0354938 20.0253)
(-0.483236 -0.201321 14.8843)
(4.002 -0.163936 10.542)
(1.24493 -0.0473722 11.4889)
(3.14211 -0.0431372 10.512)
(2.57836 -0.0218283 9.18179)
(3.83612 -0.151864 10.7492)
(5.04967 -1.04053 2.68806)
(1.0587 -1.03003 -7.5375)
(-4.11143 0.919676 -15.6683)
(-6.78179 0.789746 -10.9239)
(-6.08181 0.275458 1.49143)
(-8.27786 0.025681 8.44841)
(-5.18631 -0.162858 15.6761)
(-17.0065 0.0513884 18.6446)
(13.8863 -0.0679347 20.0063)
(-0.603655 -0.341847 14.9565)
(4.00689 -0.254251 10.9719)
(1.27471 -0.0732659 11.8528)
(3.12325 -0.0959995 10.6822)
(2.45731 -0.0653869 9.18297)
(3.75775 -0.298937 10.5534)
(4.98457 -1.97454 2.22123)
(0.767077 -1.52519 -8.10513)
(-3.70734 1.61418 -16.1742)
(-6.52699 1.48269 -11.3378)
(-6.08252 0.619756 2.0922)
(-8.21899 0.179154 8.90406)
(-5.33572 -0.256329 15.7551)
(-17.1436 0.132864 18.2657)
(13.8245 -0.0726542 19.9855)
(-0.673436 -0.345023 15.064)
(4.01171 -0.241502 11.2915)
(1.28536 -0.0672073 12.0616)
(3.10564 -0.128992 10.7668)
(2.34315 -0.114075 9.22157)
(3.71519 -0.407568 10.3081)
(4.90156 -2.56427 1.5506)
(-0.115198 -1.85417 -9.26937)
(-3.7846 1.62952 -16.6762)
(-6.34642 2.2277 -11.8428)
(-6.18748 1.07503 2.21003)
(-8.38247 0.479612 9.04958)
(-5.72173 -0.0757822 15.7732)
(-17.4363 0.125865 17.6055)
(13.7639 -0.073847 19.9067)
(-0.741899 -0.385797 15.1581)
(4.03977 -0.261763 11.6082)
(1.3089 -0.0628883 12.2554)
(3.07992 -0.146674 10.8426)
(2.15744 -0.142271 9.2687)
(3.58307 -0.556214 10.144)
(4.33028 -2.99481 0.257957)
(-2.26812 -1.72493 -11.3232)
(-5.63525 1.89117 -16.1398)
(-7.06773 2.73693 -10.1834)
(-6.46764 1.46519 2.0337)
(-8.66374 0.720569 8.94533)
(-5.75117 0.0693409 15.9893)
(-17.3726 0.115074 17.733)
(13.7334 -0.0588665 19.7771)
(-0.766757 -0.362999 15.3113)
(4.05479 -0.236775 11.9498)
(1.31802 -0.0419144 12.4491)
(3.04902 -0.13508 10.9086)
(1.96246 -0.144854 9.31832)
(3.46033 -0.566884 9.87524)
(3.28185 -2.53901 -1.39657)
(-4.70934 -0.886923 -12.4833)
(-7.73049 1.64823 -14.2542)
(-7.69152 2.17919 -8.01412)
(-6.81461 1.36004 1.49831)
(-9.01795 0.725943 8.72483)
(-5.91247 0.0842475 16.0649)
(-17.3749 0.125171 17.7444)
(13.7416 -0.0348558 19.5783)
(-0.752321 -0.306941 15.4841)
(4.05523 -0.202891 12.3075)
(1.32016 -0.0240308 12.6514)
(3.0173 -0.0910947 10.9569)
(1.79132 -0.114414 9.38114)
(3.31689 -0.340647 9.5483)
(2.56857 -1.5144 -2.3654)
(-5.25084 0.0376335 -12.4404)
(-8.21622 0.81733 -13.0799)
(-8.04716 0.938482 -6.77568)
(-7.13374 1.0086 1.13315)
(-9.25793 0.648478 8.57824)
(-6.05402 -0.0124741 16.2092)
(-17.4007 0.110293 17.6839)
(13.818 -0.00822506 19.3095)
(-0.682115 -0.165981 15.6098)
(4.0332 -0.116835 12.6041)
(1.31384 -0.0139438 12.8574)
(2.99296 -0.0584031 11.0105)
(1.74411 -0.0676334 9.45662)
(3.27897 -0.235134 9.22393)
(2.63255 -0.754051 -2.47477)
(-3.52804 0.627543 -11.9827)
(-5.97481 0.593914 -14.6937)
(-8.18633 -0.107375 -8.35531)
(-7.81472 0.384122 1.6759)
(-9.14609 0.429501 8.81333)
(-6.29138 -0.0870395 16.2572)
(-17.4641 0.0947352 17.4523)
(13.8632 0.0078192 19.2028)
(-0.653165 0.0259488 15.6104)
(4.02279 0.00941168 12.659)
(1.30067 -0.0107353 12.9195)
(2.98234 -0.0200808 11.0312)
(1.64384 -0.0318496 9.51432)
(3.2916 -0.0636876 8.90132)
(1.86044 -0.0970626 -3.44559)
(-3.67399 0.307297 -12.1913)
(-3.90977 0.306896 -16.3616)
(-6.89256 -0.118727 -11.2898)
(-8.88153 -0.102562 1.65179)
(-9.18 0.0632292 9.11601)
(-6.52711 0.0109463 16.1975)
(-17.6437 0.0146557 17.0159)
(13.798 0.02354 19.3877)
(-0.718546 0.205177 15.5688)
(4.03148 0.128755 12.5502)
(1.30531 -0.00334104 12.8309)
(2.98511 0.0259597 11.0077)
(1.72428 0.00673771 9.44654)
(3.24727 0.162008 9.18162)
(2.4827 0.591804 -2.60811)
(-3.23264 -0.596024 -11.8271)
(-4.70278 -0.793916 -15.6851)
(-7.55816 -0.0315583 -10.1985)
(-8.22864 -0.33257 1.56528)
(-9.09098 -0.478774 8.94337)
(-6.27015 0.0957486 16.2774)
(-17.4395 -0.0648008 17.5043)
(13.7349 0.0476848 19.6498)
(-0.783375 0.329751 15.4333)
(4.04415 0.207128 12.2438)
(1.30144 0.0125 12.6229)
(3.00174 0.0614057 10.9497)
(1.77255 0.0581665 9.36227)
(3.26058 0.229134 9.57273)
(2.60289 1.21918 -2.22667)
(-4.61794 -0.176153 -12.2386)
(-7.72219 -0.411507 -13.3512)
(-8.03309 -0.385163 -6.80828)
(-7.00794 -0.957953 1.3191)
(-9.1392 -0.705944 8.65328)
(-6.00109 0.0356748 16.2141)
(-17.3727 -0.0806169 17.7695)
(13.7343 0.0683207 19.8433)
(-0.794165 0.377364 15.2635)
(4.03673 0.239669 11.8844)
(1.28841 0.0339721 12.4174)
(3.0263 0.111627 10.8946)
(1.89646 0.0995705 9.2974)
(3.36764 0.48202 9.87863)
(2.89209 2.13957 -1.75105)
(-5.26645 0.611656 -12.4629)
(-8.11472 -1.34775 -13.5685)
(-7.64177 -1.76799 -7.344)
(-6.72426 -1.23576 1.48931)
(-8.9858 -0.701994 8.7801)
(-5.84072 -0.0587596 16.1068)
(-17.3733 -0.0925037 17.8196)
(13.7715 0.0810501 19.9651)
(-0.76563 0.393014 15.114)
(4.01822 0.264009 11.5383)
(1.27491 0.0588183 12.2181)
(3.05292 0.135013 10.8216)
(2.0951 0.112715 9.24187)
(3.48619 0.55775 10.1554)
(4.02884 2.87358 -0.132618)
(-3.03116 1.51931 -11.6885)
(-6.32103 -1.85705 -15.4655)
(-7.25688 -2.56709 -9.18478)
(-6.36625 -1.43326 2.13673)
(-8.64736 -0.716359 9.00992)
(-5.6606 -0.0647026 16.0504)
(-17.3735 -0.0816 17.8216)
(13.8368 0.0776742 20.0371)
(-0.693757 0.34829 15.0264)
(3.98781 0.243492 11.2209)
(1.24714 0.0656321 12.0212)
(3.07554 0.122597 10.7402)
(2.28412 0.0961789 9.19444)
(3.62357 0.422352 10.3007)
(4.75153 2.59571 1.34485)
(-0.531846 1.85377 -9.6429)
(-4.19989 -1.6097 -16.4777)
(-6.57292 -2.36232 -11.194)
(-6.08796 -1.14466 2.33868)
(-8.35366 -0.450912 9.12611)
(-5.61779 0.0746773 15.8364)
(-17.4447 -0.0933332 17.7024)
(13.9018 0.0717212 20.0521)
(-0.620779 0.342333 14.924)
(3.9819 0.256526 10.8998)
(1.23491 0.0740871 11.8078)
(3.09181 0.0945839 10.6502)
(2.40765 0.0553684 9.15355)
(3.67375 0.317207 10.5219)
(4.90274 2.00915 2.14254)
(0.668 1.57289 -8.19053)
(-3.67891 -1.57156 -16.1785)
(-6.51865 -1.64874 -11.4153)
(-6.08019 -0.692835 2.15488)
(-8.16169 -0.15102 8.99351)
(-5.23672 0.2471 15.8117)
(-17.1563 -0.104315 18.3626)
(13.9883 0.0373699 20.0661)
(-0.497528 0.200871 14.8598)
(3.97584 0.165518 10.4741)
(1.20248 0.0487492 11.4428)
(3.10862 0.0427153 10.4767)
(2.5317 0.0177799 9.15474)
(3.7564 0.157958 10.6895)
(4.95798 1.04525 2.62414)
(1.00924 1.00938 -7.52281)
(-4.10758 -0.942087 -15.6781)
(-6.77063 -0.866553 -11.0696)
(-6.08599 -0.291729 1.57271)
(-8.21006 -0.0198492 8.53527)
(-5.07923 0.159811 15.735)
(-17.0209 -0.0396407 18.7476)
(20.6917 -0.0772554 17.6309)
(6.62129 -0.22781 18.4743)
(8.38838 -0.284162 12.7309)
(3.95987 -0.176329 11.3257)
(4.13302 -0.0836224 9.88527)
(3.02606 -0.056227 8.65465)
(3.91171 -0.126577 9.40312)
(4.6314 -0.94388 3.4601)
(1.66554 -0.798217 -3.84107)
(-3.85937 0.840838 -11.0487)
(-8.47125 0.770519 -8.16621)
(-10.6479 -0.0578696 2.78367)
(-12.5825 0.000797385 10.2706)
(-11.0754 -0.0718292 16.3912)
(-22.0381 0.0853619 13.5746)
(20.6608 -0.141401 17.7206)
(6.31077 -0.371416 18.4748)
(8.23576 -0.430687 12.8634)
(3.88108 -0.248013 11.6162)
(4.12353 -0.146636 10.1377)
(2.94968 -0.139408 8.75031)
(3.78296 -0.293747 9.30965)
(4.51531 -1.6506 3.03182)
(1.22871 -1.07846 -4.39395)
(-3.65376 1.49616 -11.6408)
(-8.14173 1.51143 -8.85885)
(-10.8921 0.116685 2.95318)
(-12.6417 0.0218643 10.4982)
(-11.318 -0.0687111 16.2701)
(-22.0546 0.208906 13.1636)
(20.6409 -0.147266 17.7702)
(6.10783 -0.361809 18.5114)
(8.12565 -0.411871 13.0018)
(3.80825 -0.219629 11.8138)
(4.09931 -0.173486 10.2817)
(2.84537 -0.198788 8.84792)
(3.70257 -0.464029 9.17317)
(4.32822 -1.93745 2.33847)
(0.138189 -1.3184 -5.68277)
(-4.01833 1.27732 -12.4062)
(-7.99726 2.1569 -9.36471)
(-11.1383 0.837487 2.97524)
(-13.0207 0.226351 10.5854)
(-11.8774 0.0462159 15.9689)
(-22.0902 0.181813 12.4645)
(20.6038 -0.153808 17.7749)
(5.87398 -0.398657 18.506)
(8.03229 -0.465048 13.1305)
(3.78972 -0.231797 11.9993)
(4.0935 -0.191251 10.4141)
(2.66256 -0.226367 8.93439)
(3.52909 -0.645723 9.11945)
(3.44556 -2.14047 0.736263)
(-2.58465 -1.16917 -7.88365)
(-6.81192 1.43766 -12.2386)
(-9.41638 2.49799 -7.30535)
(-11.2718 1.31802 3.18681)
(-13.2564 0.429795 10.6329)
(-11.8347 0.136843 16.1929)
(-22.0529 0.145558 12.5163)
(20.5778 -0.127255 17.7085)
(5.70125 -0.359656 18.5179)
(7.94605 -0.438545 13.3066)
(3.74699 -0.194355 12.2128)
(4.06672 -0.166118 10.5458)
(2.46032 -0.210858 9.02431)
(3.38367 -0.644503 8.97788)
(1.95841 -1.53076 -1.2518)
(-5.6086 -0.412965 -8.93517)
(-9.51678 1.15587 -10.3145)
(-10.5469 1.665 -4.62043)
(-11.4605 1.07998 3.2367)
(-13.577 0.444788 10.5743)
(-11.9431 0.16165 16.2909)
(-22.0344 0.15895 12.4808)
(20.5582 -0.0774259 17.556)
(5.59416 -0.293546 18.5057)
(7.8744 -0.396916 13.5018)
(3.70263 -0.164287 12.4456)
(4.04072 -0.112434 10.6652)
(2.29004 -0.153811 9.12086)
(3.24831 -0.375242 8.77653)
(1.039 -0.510666 -2.12)
(-6.1344 0.376162 -8.78693)
(-9.95481 0.439944 -9.31655)
(-11.1124 0.247539 -3.33317)
(-11.7851 0.539371 3.37378)
(-13.7747 0.456313 10.589)
(-12.0753 0.0868864 16.3647)
(-22.0061 0.140304 12.3783)
(20.5652 -0.0122531 17.3011)
(5.66264 -0.147932 18.4487)
(7.84934 -0.235612 13.6782)
(3.65519 -0.0987988 12.6809)
(4.00737 -0.0700766 10.7859)
(2.24216 -0.0878446 9.23085)
(3.23158 -0.238038 8.57054)
(1.21115 -0.0559325 -1.9172)
(-4.33073 0.885133 -8.55363)
(-7.3717 0.390736 -11.2812)
(-10.7706 -0.777516 -5.26245)
(-12.4432 -0.260355 3.80738)
(-13.7867 0.26186 10.8298)
(-12.2738 0.0624475 16.2497)
(-21.9907 0.120583 12.1545)
(20.5777 0.022209 17.1959)
(5.74205 0.0285187 18.4042)
(7.86098 0.029925 13.7098)
(3.63347 -0.000877866 12.743)
(3.98765 -0.0211393 10.8182)
(2.13137 -0.0340954 9.28858)
(3.23 -0.0738205 8.36365)
(0.253376 0.038565 -2.70608)
(-4.23715 0.44323 -8.69453)
(-5.05722 0.41859 -13.1396)
(-8.80414 -0.155797 -8.38017)
(-13.0493 -0.241068 3.58967)
(-14.0237 0.0686233 11.0083)
(-12.453 0.0551616 15.9656)
(-22.0223 0.0306291 11.7662)
(20.5725 0.0512299 17.3879)
(5.63975 0.195753 18.4615)
(7.84849 0.276088 13.6407)
(3.64534 0.0942534 12.6409)
(3.99432 0.0372901 10.7694)
(2.21191 0.0250885 9.22237)
(3.2032 0.163587 8.54841)
(0.986566 0.0820487 -1.98413)
(-3.98156 -0.791808 -8.4364)
(-5.81882 -0.685471 -12.4545)
(-9.65568 0.423181 -7.31759)
(-12.6341 0.306788 3.64968)
(-13.7218 -0.217702 10.9172)
(-12.1403 0.0162577 16.2863)
(-22.0068 -0.0371449 12.2593)
(20.5718 0.103742 17.6308)
(5.59401 0.328116 18.5075)
(7.87603 0.417471 13.4595)
(3.68356 0.160027 12.4041)
(4.01823 0.0837859 10.646)
(2.26373 0.0943612 9.1075)
(3.20825 0.253658 8.81698)
(1.19781 0.312111 -1.82944)
(-5.37858 -0.455921 -8.59744)
(-9.21829 -0.0411817 -9.79264)
(-11.0586 0.417981 -3.7391)
(-11.7594 -0.346327 3.45054)
(-13.6256 -0.452995 10.622)
(-11.9764 -0.0138521 16.4172)
(-22.0214 -0.0533587 12.5262)
(20.5941 0.143958 17.7737)
(5.7074 0.384666 18.5173)
(7.94465 0.453471 13.2651)
(3.71472 0.193066 12.171)
(4.03349 0.144714 10.5215)
(2.37725 0.159819 9.00755)
(3.29848 0.536322 9.00922)
(1.49991 1.19627 -1.52961)
(-6.23766 0.179534 -8.80067)
(-9.97598 -0.901001 -9.63397)
(-10.6007 -1.19218 -4.00992)
(-11.3546 -0.883348 3.20356)
(-13.4999 -0.420493 10.5955)
(-11.832 -0.0958448 16.3763)
(-22.0817 -0.0774141 12.6264)
(20.623 0.165703 17.8282)
(5.88631 0.414758 18.5046)
(8.03017 0.474133 13.0898)
(3.75459 0.233026 11.9553)
(4.05508 0.183713 10.3838)
(2.57919 0.193614 8.91423)
(3.43945 0.645629 9.16152)
(3.03768 2.04408 0.302223)
(-3.55253 1.0177 -8.21091)
(-7.79394 -1.38596 -11.5629)
(-9.84998 -2.2547 -6.23023)
(-11.1555 -1.21948 3.30603)
(-13.1973 -0.40426 10.6762)
(-11.7041 -0.0991815 16.3036)
(-22.1131 -0.0602378 12.6895)
(20.6621 0.154924 17.8135)
(6.1253 0.371644 18.5119)
(8.12342 0.418133 12.965)
(3.76967 0.222612 11.7705)
(4.05607 0.171497 10.2483)
(2.76764 0.179106 8.82924)
(3.60913 0.489741 9.20368)
(4.15084 1.95737 2.20696)
(-0.389164 1.35931 -6.04653)
(-4.632 -1.20233 -12.3094)
(-8.46717 -2.25352 -8.70997)
(-11.0086 -0.955319 3.05198)
(-12.9471 -0.193646 10.6322)
(-11.7353 -0.023153 16.0835)
(-22.1671 -0.103983 12.6613)
(20.6831 0.146836 17.7559)
(6.33215 0.376901 18.4765)
(8.23423 0.43513 12.8294)
(3.84306 0.252863 11.572)
(4.07858 0.150254 10.1002)
(2.883 0.128847 8.7306)
(3.69493 0.32089 9.31989)
(4.42789 1.67908 3.05119)
(1.09574 1.13285 -4.42765)
(-3.6334 -1.3722 -11.657)
(-8.1201 -1.65666 -8.99525)
(-10.8426 -0.261765 2.85596)
(-12.5343 0.0179867 10.5522)
(-11.1666 0.078813 16.3739)
(-22.1413 -0.144095 13.3812)
(20.7148 0.0798444 17.6597)
(6.64429 0.229861 18.4792)
(8.38654 0.286649 12.7039)
(3.92004 0.180515 11.285)
(4.08442 0.0865916 9.84715)
(2.96223 0.0523072 8.63794)
(3.82536 0.136968 9.39519)
(4.53063 0.951798 3.47424)
(1.5314 0.751014 -3.81905)
(-3.92636 -0.870297 -11.0523)
(-8.40977 -0.879431 -8.38678)
(-10.6349 0.0428727 2.70094)
(-12.4518 0.0137728 10.3241)
(-10.9074 0.0781739 16.4956)
(-22.1322 -0.0587544 13.8096)
(22.5247 -0.0611357 10.8621)
(13.573 -0.22127 18.8155)
(15.2042 -0.307697 16.7425)
(11.874 -0.329895 14.8632)
(8.52443 -0.22569 12.0157)
(5.3472 -0.117724 9.57806)
(3.67273 -0.066481 9.09339)
(3.50507 -0.530688 5.78973)
(-0.819555 -0.393882 -0.138536)
(-4.91299 0.707675 -7.35393)
(-10.0322 0.967263 -5.59394)
(-12.8501 -0.190312 4.48941)
(-14.3654 0.027695 12.2641)
(-13.5582 0.142458 14.8826)
(-22.5162 0.0993231 7.03256)
(22.571 -0.11031 11.0006)
(13.357 -0.348202 18.9287)
(14.9653 -0.45983 16.792)
(11.5626 -0.468948 14.9507)
(8.2604 -0.315615 12.1272)
(5.12059 -0.192926 9.65766)
(3.48638 -0.188047 9.10104)
(3.36489 -0.903482 5.57985)
(-1.14724 -0.501086 -0.642863)
(-4.90642 1.17238 -7.90913)
(-9.56377 1.7737 -6.25404)
(-13.029 0.000744197 4.27392)
(-14.5268 0.0173461 12.3171)
(-13.6488 0.332803 14.6129)
(-22.4686 0.232216 6.7601)
(22.6094 -0.119514 11.0846)
(13.2307 -0.315641 19.0105)
(14.7998 -0.430251 16.8547)
(11.3273 -0.420651 15.033)
(8.05511 -0.296362 12.2008)
(4.90722 -0.223451 9.73353)
(3.37562 -0.362539 9.08956)
(3.22069 -1.08643 5.25843)
(-1.76178 -0.888835 -1.74432)
(-5.35415 0.723746 -8.75026)
(-9.43331 2.23159 -6.61997)
(-13.1588 0.948411 4.12413)
(-14.9547 0.165698 12.2295)
(-13.9502 0.332402 14.0483)
(-22.294 0.227845 6.31492)
(22.6345 -0.134241 11.1651)
(13.0362 -0.319828 19.0653)
(14.5975 -0.476329 16.8897)
(11.1202 -0.454906 15.0964)
(7.90988 -0.320477 12.2677)
(4.69538 -0.249223 9.79819)
(3.20426 -0.541601 9.14794)
(2.47402 -1.28888 4.39566)
(-4.25776 -1.00918 -3.97289)
(-8.66822 0.825594 -8.83355)
(-11.3862 2.51676 -4.43249)
(-13.231 1.4495 4.88518)
(-15.116 0.318672 12.3313)
(-13.9534 0.325195 14.2316)
(-22.2935 0.193262 6.34121)
(22.6512 -0.12153 11.1872)
(12.8705 -0.24636 19.0826)
(14.4085 -0.426987 16.9333)
(10.8992 -0.399243 15.1896)
(7.72422 -0.274392 12.3516)
(4.42058 -0.21731 9.86952)
(3.03877 -0.552607 9.1703)
(0.989722 -0.925481 2.97407)
(-7.21678 -0.409522 -5.00359)
(-11.8448 0.770173 -7.11526)
(-12.883 1.57777 -1.53588)
(-13.3872 0.992162 5.52567)
(-15.2912 0.342252 12.299)
(-14.0093 0.341542 14.3283)
(-22.2933 0.199662 6.31705)
(22.6425 -0.0867785 11.1489)
(12.7067 -0.163549 19.0365)
(14.2322 -0.367121 16.9511)
(10.693 -0.347424 15.2882)
(7.55405 -0.220984 12.4389)
(4.18462 -0.159695 9.95)
(2.91517 -0.313264 9.14138)
(0.0636925 -0.243039 2.28504)
(-7.65179 0.532033 -4.93467)
(-12.2195 0.54836 -6.30102)
(-13.5358 0.145901 -0.253434)
(-13.7392 0.158284 5.93376)
(-15.3838 0.399793 12.3555)
(-14.0563 0.276323 14.336)
(-22.2714 0.174496 6.27603)
(22.5978 -0.0173639 11.0222)
(12.6555 -0.0535921 18.8939)
(14.1628 -0.202171 16.933)
(10.56 -0.202324 15.3899)
(7.40879 -0.135007 12.5398)
(4.03336 -0.0959111 10.0517)
(2.87473 -0.203195 9.07355)
(0.220121 0.0610157 2.47871)
(-5.83296 1.09471 -4.52222)
(-9.23911 0.782027 -7.88988)
(-12.6707 -0.920574 -2.28205)
(-14.2381 -0.847461 5.82642)
(-15.4517 0.200251 12.5708)
(-14.0323 0.270079 14.1585)
(-22.2922 0.150753 6.21504)
(22.5768 0.0398997 10.9655)
(12.6965 0.0182906 18.8131)
(14.1961 0.0304556 16.9073)
(10.5576 0.0178517 15.4127)
(7.38117 -0.00489596 12.5696)
(3.91679 -0.0233604 10.0944)
(2.84178 -0.0667212 9.01164)
(-0.732199 0.0643588 1.99591)
(-5.50413 0.563024 -4.44239)
(-6.36133 0.6665 -9.5026)
(-9.78039 -0.0567718 -5.69166)
(-14.3957 -0.403182 4.94922)
(-15.6879 0.053127 12.536)
(-13.9449 0.126163 13.8172)
(-22.2867 0.11238 6.07738)
(22.6251 0.0744727 11.0777)
(12.6989 0.0939815 18.9347)
(14.2047 0.253576 16.945)
(10.5908 0.230415 15.3782)
(7.42244 0.129835 12.5277)
(4.01409 0.0568657 10.0416)
(2.84095 0.147404 9.06727)
(-0.0203356 -0.0156315 2.44273)
(-5.41784 -0.931796 -4.32476)
(-7.3522 -1.04245 -8.95469)
(-10.976 0.427525 -4.56503)
(-14.2263 0.834818 5.24936)
(-15.4077 -0.0357405 12.6638)
(-13.8693 -0.0847525 14.2762)
(-22.4162 0.0559602 6.42411)
(22.6635 0.113081 11.1949)
(12.749 0.205814 19.0613)
(14.2784 0.407814 16.9541)
(10.7238 0.370367 15.2746)
(7.56519 0.218528 12.4283)
(4.17645 0.123212 9.94038)
(2.88692 0.215453 9.16638)
(0.297682 0.100387 2.55954)
(-6.81456 -0.635949 -4.67511)
(-11.2282 -0.240843 -6.77826)
(-13.3364 0.700035 -0.840777)
(-13.7516 0.272687 5.8296)
(-15.2505 -0.284582 12.4225)
(-13.9514 -0.129973 14.497)
(-22.3777 -0.0154275 6.54831)
(22.6674 0.135984 11.2236)
(12.9028 0.282081 19.0997)
(14.4486 0.459315 16.9322)
(10.9211 0.420045 15.1757)
(7.7253 0.276654 12.3406)
(4.36604 0.185904 9.8572)
(2.96096 0.457157 9.20875)
(0.554552 0.685039 2.73336)
(-7.81049 0.13036 -4.87524)
(-12.4254 -0.677098 -6.45095)
(-13.0364 -1.0884 -0.886798)
(-13.2975 -0.685236 5.51462)
(-15.1756 -0.274471 12.3166)
(-13.8851 -0.215425 14.5088)
(-22.4079 -0.0549308 6.57783)
(22.649 0.143362 11.1913)
(13.0664 0.347657 19.0754)
(14.6346 0.499605 16.8867)
(11.141 0.472529 15.0835)
(7.90881 0.331858 12.2567)
(4.64429 0.235289 9.78697)
(3.12465 0.554195 9.19659)
(2.12838 1.24787 4.14238)
(-5.16619 0.991032 -4.26459)
(-9.91781 -0.780475 -8.19101)
(-12.047 -2.27784 -3.28832)
(-13.1597 -1.30729 5.12311)
(-15.024 -0.237324 12.3764)
(-13.8385 -0.242689 14.4508)
(-22.4274 -0.0366973 6.64023)
(22.6236 0.125311 11.1023)
(13.2613 0.335874 19.0164)
(14.8351 0.44681 16.8528)
(11.3463 0.435328 15.0235)
(8.05013 0.30944 12.1919)
(4.86157 0.218216 9.72735)
(3.29708 0.395204 9.13256)
(3.09844 1.12264 5.2341)
(-2.18304 1.07808 -2.11115)
(-6.06815 -0.569351 -8.6903)
(-10.0863 -2.37775 -5.97375)
(-12.9926 -1.20114 4.24395)
(-14.8374 -0.145957 12.2824)
(-13.8419 -0.272227 14.2742)
(-22.4531 -0.0861013 6.64718)
(22.585 0.114263 11.0123)
(13.3875 0.363036 18.9313)
(14.9992 0.471924 16.7905)
(11.5824 0.481826 14.943)
(8.25543 0.331315 12.1187)
(5.085 0.193945 9.65387)
(3.41584 0.21877 9.13357)
(3.30421 0.926916 5.63184)
(-1.17377 0.668542 -0.577701)
(-4.79265 -0.910086 -7.85639)
(-9.53738 -1.96647 -6.37369)
(-12.8296 -0.355434 3.97356)
(-14.4008 0.0206302 12.3715)
(-13.4989 -0.290207 14.836)
(-22.6731 -0.122362 7.14169)
(22.5394 0.0629939 10.8689)
(13.6032 0.228502 18.8173)
(15.2355 0.314297 16.7444)
(11.8909 0.338294 14.8607)
(8.51431 0.236399 12.011)
(5.31107 0.120837 9.57943)
(3.59567 0.0806751 9.12105)
(3.4217 0.534497 5.83059)
(-0.966293 0.400025 -0.0586159)
(-4.93248 -0.693079 -7.2854)
(-9.88461 -1.18217 -5.82057)
(-12.7488 0.0680409 4.22061)
(-14.1888 0.0162929 12.2952)
(-13.39 -0.123752 15.1111)
(-22.7422 -0.0531277 7.43986)
(23.3957 -0.0223011 5.97938)
(15.3652 -0.18024 15.5446)
(18.3766 -0.262303 17.3011)
(19.2162 -0.359281 17.9975)
(16.5899 -0.36394 16.3958)
(13.1451 -0.298199 13.83)
(9.33579 -0.169 11.7582)
(6.89436 -0.261765 9.13535)
(2.54308 -0.224727 5.19864)
(-2.85756 0.546848 -3.01904)
(-9.13632 1.14604 -2.2529)
(-11.7589 -0.157275 6.08298)
(-12.3948 -0.0245857 13.7541)
(-11.8676 0.346468 12.6603)
(-22.6291 0.14598 4.31991)
(23.414 -0.0408433 6.03248)
(15.306 -0.276546 15.6951)
(18.2629 -0.382927 17.433)
(18.9614 -0.513461 18.1024)
(16.2077 -0.502418 16.4556)
(12.6715 -0.412072 13.836)
(8.79162 -0.255602 11.7287)
(6.38907 -0.430358 8.97315)
(1.72839 -0.302675 4.72687)
(-3.2173 0.874052 -3.70166)
(-8.50753 1.95152 -2.96448)
(-11.2333 0.242921 5.39202)
(-12.6926 0.0232583 13.6406)
(-11.7531 0.66905 12.3896)
(-22.7172 0.350475 4.33992)
(23.431 -0.0491348 6.06517)
(15.3035 -0.243094 15.7792)
(18.204 -0.343117 17.5182)
(18.782 -0.46181 18.1831)
(15.928 -0.45048 16.5052)
(12.3028 -0.384604 13.8513)
(8.40763 -0.313645 11.7193)
(6.05789 -0.527201 8.81056)
(1.14163 -0.555196 4.01877)
(-3.62258 0.0822339 -4.54505)
(-8.55464 1.9522 -3.26446)
(-10.9053 1.85223 5.08353)
(-13.0825 0.340242 13.402)
(-11.8411 0.616271 11.7769)
(-22.6342 0.407409 4.3449)
(23.4491 -0.0605089 6.11263)
(15.2356 -0.235696 15.8758)
(18.0821 -0.359643 17.6011)
(18.5676 -0.492788 18.2514)
(15.6585 -0.481746 16.5425)
(11.9668 -0.411263 13.8553)
(8.02999 -0.399276 11.7396)
(5.53131 -0.681575 8.55478)
(-0.701283 -0.875859 2.02387)
(-7.01315 -0.0653112 -5.08172)
(-11.2254 2.3416 -1.27286)
(-11.4065 2.57848 6.52408)
(-13.3285 0.509949 13.6486)
(-12.021 0.558265 11.8251)
(-22.6469 0.361035 4.38639)
(23.4669 -0.0636013 6.14456)
(15.1751 -0.163278 15.9237)
(17.9633 -0.285249 17.6499)
(18.3496 -0.415597 18.3124)
(15.3587 -0.409436 16.5875)
(11.56 -0.346343 13.8658)
(7.58927 -0.374992 11.7669)
(4.66058 -0.514336 8.05925)
(-3.62161 -0.439267 0.0551989)
(-10.9052 0.340747 -4.00711)
(-13.3197 1.58389 1.57141)
(-11.9236 1.50926 7.93282)
(-13.3714 0.46652 13.6255)
(-12.0844 0.534391 11.8923)
(-22.6778 0.33298 4.37783)
(23.4733 -0.0528458 6.16993)
(15.0523 -0.0924061 15.9347)
(17.8041 -0.213288 17.6556)
(18.1176 -0.341215 18.3451)
(15.0601 -0.340074 16.6186)
(11.1706 -0.278059 13.8725)
(7.22124 -0.245204 11.7793)
(3.9628 -0.147844 7.6969)
(-4.58223 0.579338 -0.289515)
(-11.4569 0.883024 -3.41403)
(-14.1694 0.190805 2.79211)
(-12.4513 -0.160025 8.54459)
(-13.3893 0.374535 13.6942)
(-12.0202 0.45192 11.9021)
(-22.7439 0.30478 4.45748)
(23.4642 -0.00353441 6.17649)
(14.9461 -0.0107363 15.8643)
(17.6984 -0.0925846 17.5853)
(17.9654 -0.179286 18.3355)
(14.8303 -0.190223 16.6413)
(10.8476 -0.159186 13.8938)
(6.91737 -0.147552 11.7666)
(3.65438 -0.00883232 7.59065)
(-3.63738 1.06699 0.262574)
(-8.16929 1.58087 -4.50056)
(-12.3586 -0.712434 0.554115)
(-12.2132 -2.00795 7.50815)
(-13.5374 -0.0260121 13.9938)
(-11.7812 0.411439 11.7686)
(-22.8758 0.268903 4.4669)
(23.4621 0.046683 6.17656)
(14.9512 0.0183842 15.8077)
(17.7184 0.0203214 17.5298)
(17.9789 0.0237183 18.3101)
(14.8195 0.0172382 16.6439)
(10.7686 0.00566486 13.9096)
(6.83886 -0.0182097 11.7977)
(3.21472 -0.00234792 7.36516)
(-3.99313 0.469155 0.320684)
(-5.03925 0.988278 -5.58526)
(-8.39138 0.262374 -3.21467)
(-11.0039 -1.02877 5.75849)
(-13.5753 -0.0501195 13.5585)
(-11.3225 0.170524 11.5973)
(-23.0302 0.25267 4.63399)
(23.4817 0.064645 6.18503)
(15.0307 0.0486454 15.8769)
(17.7858 0.138113 17.6016)
(18.0453 0.226771 18.3456)
(14.9049 0.22582 16.6522)
(10.908 0.174095 13.9087)
(6.95639 0.14226 11.7968)
(3.60886 0.0466619 7.59218)
(-3.5965 -0.838708 0.589789)
(-6.10598 -1.62161 -5.21777)
(-9.93184 0.0163496 -1.94159)
(-11.4996 1.80132 6.49008)