/*--------------------------------*- C++ -*----------------------------------*\
| =========                 |                                                 |
| \\      /  F ield         | OpenFOAM: The Open Source CFD Toolbox           |
|  \\    /   O peration     | Version:  4.1                                   |
|   \\  /    A nd           | Web:      www.OpenFOAM.org                      |
|    \\/     M anipulation  |                                                 |
\*---------------------------------------------------------------------------*/
FoamFile
{
    version     2.0;
    format      ascii;
    class       volScalarField;
    location    "1";
    object      epsilon;
}
// * * * * * * * * * * * * * * * * * * * * * * * * * * * * * * * * * * * * * //

dimensions      [0 2 -3 0 0 0 0];

internalField   nonuniform List<scalar> 
204246
(
2.16
2.36227
2.43903
2.52998
2.57561
2.61639
2.65976
2.67843
2.71298
2.72432
2.73912
2.73938
2.73756
2.73067
2.72892
2.72593
2.72803
2.71717
2.72329
2.73033
2.73184
2.73725
2.73732
2.74068
2.74133
2.74295
2.74247
2.74112
2.74015
2.73894
2.73472
2.73202
2.72967
2.73065
2.72999
2.73372
2.72703
2.73457
2.74198
2.74285
2.7457
2.74598
2.74616
2.74549
2.74355
2.74279
2.74167
2.73824
2.73569
2.72893
2.72765
2.72668
2.72946
2.72288
2.73086
2.74128
2.7441
2.74995
2.75104
2.75123
2.75061
2.74865
2.7484
2.74761
2.74475
2.74263
2.73407
2.73104
2.72829
2.73115
2.72493
2.73257
2.74195
2.74437
2.74587
2.74587
2.74647
2.74781
2.74902
2.75211
2.75403
2.75346
2.75269
2.74806
2.74573
2.73773
2.73407
2.71781
2.72072
2.725
2.72662
2.73603
2.73988
2.74809
2.75244
2.7542
2.75471
2.75501
2.75363
2.7523
2.74715
2.74489
2.73492
2.73026
2.72291
2.72187
2.71549
2.72246
2.73407
2.73811
2.74618
2.75007
2.75139
2.74995
2.75126
2.74802
2.7467
2.74273
2.73981
2.73331
2.73131
2.73102
2.73375
2.72733
2.73453
2.74283
2.7461
2.75222
2.75524
2.75795
2.75856
2.75826
2.7566
2.75501
2.75058
2.74687
2.74216
2.74218
2.74346
2.74923
2.74509
2.75903
2.77435
2.78196
2.7973
2.80504
2.81596
2.82308
2.82997
2.83951
2.84833
2.86285
2.87295
2.89069
2.90382
2.92774
2.94539
2.96875
3.01414
3.04589
3.11178
3.1793
3.28465
3.40798
3.58611
3.73648
3.78058
3.71839
3.41649
2.76132
1.97758
1.51657
1.3534
1.26853
1.19347
1.1434
1.09424
0.99174
0.797086
0.594207
0.496722
0.44886
0.414229
0.363839
0.324114
0.275409
0.246197
0.209132
0.192067
0.166706
0.155575
0.142557
0.138062
0.0298049
0.162025
0.146728
0.15716
0.167829
0.170956
0.180903
0.184438
0.197443
0.202946
0.213845
0.211462
0.212796
0.202251
0.205479
0.198884
0.206282
0.203794
0.207493
0.217584
0.212451
0.220123
0.213427
0.220335
0.216837
0.223628
0.219675
0.224756
0.217023
0.222544
0.211901
0.216313
0.207267
0.214754
0.209189
0.218069
0.217153
0.218593
0.227397
0.220148
0.226358
0.221329
0.226963
0.221995
0.226869
0.21863
0.224443
0.213326
0.217694
0.206069
0.210959
0.20654
0.214111
0.214063
0.21626
0.228338
0.223405
0.230704
0.225164
0.230086
0.224038
0.228567
0.219176
0.224854
0.214241
0.218709
0.204848
0.208031
0.202741
0.209469
0.209912
0.212971
0.225683
0.2234
0.229432
0.223017
0.22798
0.222995
0.229095
0.222618
0.229994
0.221657
0.227632
0.217618
0.221478
0.210803
0.212636
0.205814
0.203163
0.211285
0.21022
0.227175
0.228275
0.237669
0.229714
0.235878
0.224886
0.230625
0.220696
0.226164
0.215266
0.218771
0.207223
0.208965
0.200606
0.205767
0.203228
0.210415
0.226576
0.228691
0.236052
0.22779
0.233946
0.223252
0.228956
0.219536
0.224612
0.216324
0.220077
0.208891
0.213622
0.207679
0.215836
0.214227
0.21906
0.230328
0.226579
0.234368
0.227642
0.233807
0.22664
0.23235
0.224825
0.230021
0.219545
0.223526
0.213483
0.219266
0.213644
0.224627
0.22223
0.229556
0.246013
0.244173
0.260078
0.255627
0.268397
0.263194
0.281753
0.279702
0.306033
0.306145
0.336299
0.338059
0.372355
0.37705
0.426434
0.440725
0.483194
0.571824
0.630182
0.796526
0.908067
1.15846
1.35747
1.75489
2.16495
2.50477
2.52989
2.25654
1.4301
0.518536
0.216877
0.143162
0.126147
0.126704
0.13028
0.132484
0.132318
0.118902
0.114436
0.11087
0.110743
0.110235
0.11128
0.110883
0.111087
0.111066
0.114126
0.119199
0.129306
0.134263
0.136236
0.0425733
0.0520524
0.0512722
0.0507908
0.0508402
0.0505568
0.0507361
0.0506321
0.0508986
0.0508728
0.0511343
0.0511079
0.0512401
0.0509378
0.0509208
0.0507043
0.0510379
0.0509044
0.0509656
0.0512313
0.0512229
0.0515873
0.0512903
0.0516818
0.0514676
0.0518287
0.0515766
0.0518811
0.0514561
0.0517604
0.0512244
0.0515311
0.0510627
0.0514489
0.0510966
0.0515043
0.0513913
0.0514374
0.0518797
0.0514837
0.0518717
0.0516083
0.051966
0.0516786
0.0519767
0.0515194
0.0518038
0.0512215
0.0514955
0.0509887
0.0512788
0.0510361
0.0513749
0.0512888
0.0513465
0.0519
0.0515717
0.0519871
0.0517183
0.0520861
0.0517836
0.0520827
0.0516109
0.0519129
0.0513302
0.0515491
0.0509511
0.0511828
0.0508971
0.051194
0.0511014
0.0512016
0.0517686
0.0516366
0.0519301
0.0515802
0.0518946
0.0516204
0.0520181
0.0516883
0.0521739
0.0517121
0.0520737
0.0515078
0.0517306
0.0511976
0.0513272
0.0509889
0.05083
0.0510723
0.051091
0.0516406
0.0517923
0.0523467
0.0519542
0.0523983
0.0518646
0.0522492
0.0517003
0.052014
0.051434
0.0516405
0.0510821
0.0512011
0.0508212
0.0510574
0.0508628
0.05106
0.0516094
0.0518322
0.052292
0.0518923
0.0523272
0.051806
0.0521836
0.0516442
0.0519001
0.0514633
0.0516227
0.051112
0.0513839
0.0510333
0.0514101
0.051239
0.0513181
0.0518166
0.0516743
0.0521769
0.0518755
0.0523345
0.051956
0.0523213
0.0518497
0.0521241
0.0515668
0.0517772
0.0512696
0.0515986
0.0512797
0.0517344
0.0515871
0.0518767
0.0527354
0.0526629
0.0537152
0.0535032
0.0544244
0.0541771
0.0555187
0.0554819
0.0576475
0.0578719
0.0608031
0.0613221
0.0654149
0.0665043
0.0727697
0.0753531
0.0841085
0.0973886
0.115074
0.150065
0.191031
0.266985
0.356613
0.519453
0.736592
1.02856
1.10998
1.08773
0.790594
0.300877
0.117914
0.0791598
0.0720553
0.0719167
0.0753326
0.0790257
0.0796415
0.0780976
0.0748686
0.073054
0.0730529
0.0742675
0.0780518
0.0816157
0.0834084
0.0838757
0.0851013
0.0858585
0.0866028
0.0850891
0.0840441
0.0526076
0.051148
0.0506475
0.050409
0.0501532
0.0500528
0.0499708
0.0499294
0.0499104
0.0498928
0.0498907
0.0498809
0.0498761
0.0498935
0.0499143
0.0499201
0.049924
0.0499239
0.0499168
0.0499054
0.0499052
0.0498997
0.0498912
0.0498926
0.0498934
0.0498942
0.0498901
0.0498989
0.049898
0.049887
0.0498864
0.0499086
0.0499101
0.0499196
0.0499162
0.0499024
0.0499029
0.0498978
0.0498923
0.0498908
0.049889
0.0498802
0.0498803
0.0498744
0.0498839
0.0498825
0.0498706
0.0498679
0.0498941
0.0499041
0.0499128
0.0499183
0.0499223
0.0499229
0.0499189
0.0499157
0.0499184
0.0499269
0.049926
0.0499261
0.0499096
0.0499104
0.0498953
0.0498922
0.0498911
0.0498806
0.0498659
0.0498685
0.0498693
0.0498646
0.0498635
0.0498876
0.0499177
0.0499211
0.0499209
0.049913
0.0499202
0.0499169
0.0499029
0.0498954
0.0499077
0.0499048
0.0499041
0.0498832
0.0498851
0.049879
0.0498718
0.0498711
0.0498678
0.0498607
0.0498711
0.0499003
0.0499022
0.049905
0.0498968
0.0498967
0.0498876
0.0498829
0.0498669
0.0498733
0.0498732
0.0498726
0.0498606
0.0498635
0.0498586
0.0498516
0.049859
0.0498965
0.04993
0.049937
0.0499359
0.049927
0.0499334
0.0499277
0.0499229
0.0499099
0.0499178
0.0499259
0.0499326
0.0499313
0.049928
0.049916
0.0499157
0.0499094
0.0499085
0.0499087
0.0498975
0.0499008
0.0498943
0.0498944
0.0498865
0.0498863
0.0498739
0.049881
0.0498776
0.0498773
0.0498583
0.049859
0.0498476
0.0498468
0.0498422
0.0498374
0.0498606
0.0499108
0.0499692
0.0499797
0.0499946
0.0499876
0.0500093
0.0500079
0.0500899
0.0501125
0.0502329
0.0502872
0.0505444
0.0507015
0.0512054
0.051602
0.0525716
0.0542481
0.0569882
0.0625956
0.0711821
0.0876317
0.112639
0.159441
0.232932
0.355202
0.439505
0.454772
0.402758
0.252666
0.110595
0.0726338
0.0641082
0.0631388
0.0634965
0.0637141
0.0633019
0.0616813
0.0602717
0.0599116
0.0599293
0.0601033
0.0603822
0.0606454
0.0612358
0.061845
0.0628875
0.0641163
0.0657215
0.0666404
0.0670342
0.05193
0.0514646
0.050831
0.050587
0.0503432
0.0502488
0.0501228
0.0500693
0.0500172
0.0499945
0.0499774
0.0499727
0.0499653
0.0499735
0.0499746
0.0499739
0.0499741
0.0499744
0.049971
0.0499582
0.0499587
0.0499562
0.049949
0.0499474
0.0499393
0.0499399
0.0499361
0.0499245
0.0499242
0.0499129
0.0499058
0.0499037
0.0498951
0.0498933
0.0498917
0.0498902
0.049888
0.0498844
0.0499038
0.0499494
0.0499626
0.0499592
0.0499519
0.0499489
0.0499371
0.0499339
0.0499271
0.0499159
0.049915
0.0499148
0.0499109
0.0499084
0.0499076
0.0499033
0.0499062
0.0499336
0.0499499
0.0499496
0.0499394
0.0499392
0.0499327
0.0499207
0.0499205
0.0499169
0.0499102
0.0499075
0.0499081
0.0499062
0.0499047
0.0499167
0.0499334
0.0499336
0.0499253
0.0499252
0.0499196
0.0499082
0.049908
0.0498991
0.049889
0.0498889
0.0498866
0.0498786
0.0498771
0.0498778
0.0498768
0.0498756
0.0498835
0.049916
0.0499644
0.0499818
0.0499824
0.0499826
0.0499822
0.0499674
0.0499676
0.049966
0.0499507
0.0499507
0.0499463
0.0499313
0.049931
0.0499207
0.049911
0.0499078
0.0498966
0.0498939
0.0498906
0.0498795
0.0498782
0.0498785
0.0498725
0.0498726
0.0498701
0.0498657
0.0498779
0.0499095
0.0499174
0.0499172
0.0499168
0.0499167
0.0499119
0.0499073
0.0499067
0.0499052
0.0499043
0.049902
0.0498994
0.0499151
0.0499626
0.0499804
0.0499839
0.049982
0.0499693
0.0499694
0.0499649
0.0499506
0.0499506
0.0499429
0.0499314
0.0499313
0.0499212
0.0499119
0.0499115
0.0499005
0.0498966
0.0498966
0.0498878
0.0498835
0.0498838
0.0498823
0.0498791
0.0498798
0.0498778
0.0498752
0.0499027
0.0499615
0.0500302
0.0500892
0.0502113
0.0504567
0.0509114
0.051826
0.0534473
0.0566054
0.0621502
0.0731047
0.092574
0.127632
0.168396
0.181673
0.175832
0.14199
0.0873722
0.0668563
0.0613995
0.0600116
0.0597828
0.0600096
0.0608945
0.0614062
0.0613919
0.0605492
0.0591592
0.0586137
0.0586001
0.0587812
0.0590459
0.0590928
0.0594594
0.0596549
0.0601889
0.0604052
0.0605837
0.0517653
0.0512938
0.0507715
0.0505349
0.0503083
0.0502081
0.0500813
0.0500256
0.049965
0.0499379
0.0499193
0.0499105
0.0498861
0.04988
0.0498799
0.0498674
0.0498587
0.0498579
0.049856
0.0498556
0.0498536
0.0498496
0.0498644
0.0499016
0.0499224
0.0499274
0.0499294
0.0499289
0.049917
0.0499173
0.0499135
0.0499004
0.0499
0.0498902
0.0498805
0.0498806
0.049871
0.0498639
0.049864
0.0498537
0.0498493
0.0498485
0.0498469
0.0498471
0.0498435
0.0498413
0.0498667
0.0499103
0.0499241
0.0499274
0.0499284
0.0499274
0.0499125
0.0499129
0.0499089
0.0498962
0.049896
0.0498927
0.0498886
0.0498878
0.0498869
0.0498841
0.0498782
0.0498848
0.0499075
0.0499183
0.0499275
0.0499318
0.0499333
0.0499335
0.0499211
0.0499209
0.0499197
0.0499173
0.0499173
0.0499063
0.0499063
0.0498983
0.0498878
0.049887
0.0498844
0.0498804
0.0498785
0.0498763
0.0498711
0.04988
0.0499157
0.0499304
0.0499287
0.0499203
0.0499205
0.049913
0.0499069
0.0499073
0.0498988
0.0498989
0.0498961
0.0498956
0.049908
0.0499117
0.0499108
0.0499085
0.0499062
0.0499026
0.0499108
0.0499378
0.049942
0.0499427
0.0499371
0.0499265
0.0499257
0.0499105
0.0499022
0.0499001
0.0498933
0.0498866
0.049883
0.0498814
0.0498746
0.0498737
0.0498721
0.049871
0.0498691
0.0498728
0.0499008
0.0499424
0.0499545
0.0499578
0.0499573
0.0499539
0.0499575
0.0499568
0.0499507
0.0499517
0.0499518
0.0499459
0.0499414
0.049942
0.0499388
0.0499303
0.0499311
0.0499295
0.0499254
0.0499247
0.04992
0.0499205
0.049914
0.0499126
0.0499402
0.0499876
0.0500076
0.0500211
0.0500293
0.050033
0.0500304
0.0500239
0.050029
0.050058
0.0501174
0.0502339
0.0503971
0.0506728
0.0510729
0.0517622
0.0529798
0.0554054
0.059975
0.0686375
0.0817442
0.0905559
0.0913236
0.0862971
0.0721787
0.0634071
0.0606849
0.0594536
0.0584036
0.0572368
0.0560538
0.0556031
0.05535
0.0550271
0.0547485
0.0546498
0.0547054
0.0550394
0.0554615
0.0557756
0.0564921
0.0569636
0.057185
0.0572792
0.0574033
0.0515827
0.0512388
0.0508063
0.0505576
0.0502991
0.0501933
0.0500981
0.050054
0.0500031
0.0499844
0.0499737
0.0499549
0.0499413
0.0499407
0.0499324
0.0499216
0.0499201
0.0499154
0.049915
0.0499107
0.0499129
0.0499293
0.0499379
0.0499369
0.0499263
0.0499267
0.0499205
0.0499102
0.0499099
0.0498974
0.0498912
0.0498892
0.0498757
0.0498721
0.0498701
0.0498673
0.0498659
0.0498587
0.049858
0.0498568
0.0498547
0.0498535
0.0498487
0.049847
0.0498444
0.0498542
0.0498956
0.0499423
0.0499542
0.0499538
0.0499544
0.0499517
0.0499385
0.049938
0.0499258
0.0499171
0.0499172
0.0499074
0.0499015
0.0499013
0.0498934
0.0498878
0.0498876
0.0498809
0.0498779
0.0498783
0.0498747
0.0498751
0.0498707
0.0498714
0.0499046
0.0499337
0.049936
0.0499347
0.0499329
0.0499221
0.0499204
0.0499196
0.0499126
0.0499114
0.0499051
0.0499037
0.0498997
0.0499041
0.0499366
0.0499501
0.0499525
0.0499501
0.0499382
0.0499383
0.0499283
0.0499182
0.0499186
0.0499102
0.0499034
0.0499057
0.0499048
0.0498986
0.0498964
0.0498911
0.049896
0.0499267
0.0499364
0.0499374
0.0499311
0.0499278
0.0499253
0.0499096
0.0499087
0.0499075
0.0498984
0.0498983
0.049896
0.0498911
0.0498893
0.0498851
0.0498948
0.0499325
0.0499469
0.04995
0.0499479
0.0499391
0.0499393
0.0499314
0.0499202
0.0499196
0.0499074
0.0498987
0.0498988
0.0498924
0.0498881
0.0498886
0.0498826
0.0498828
0.0498799
0.0498795
0.0499071
0.0499404
0.0499427
0.0499371
0.0499374
0.0499323
0.0499231
0.0499221
0.0499227
0.0499212
0.0499158
0.0499156
0.0499127
0.049913
0.0499357
0.0499746
0.0499888
0.0499932
0.049995
0.0499958
0.0499968
0.0500004
0.0500286
0.0500978
0.0502223
0.0504008
0.0506289
0.0509173
0.0513025
0.0519324
0.053047
0.0551481
0.0584831
0.0622059
0.0631796
0.0628987
0.0606683
0.0599133
0.0603861
0.0611029
0.0602739
0.0573298
0.0551068
0.0546596
0.0546514
0.0546419
0.0543978
0.0540575
0.0540032
0.0540914
0.0543233
0.0544945
0.0549501
0.0554251
0.0556621
0.0557906
0.0558607
0.0513894
0.0512365
0.0507767
0.0505789
0.0503224
0.0502194
0.0501165
0.0500657
0.0500006
0.0499741
0.0499535
0.0499439
0.0499408
0.0499499
0.0499473
0.0499416
0.0499387
0.0499269
0.0499239
0.0499176
0.0499068
0.0499054
0.0499026
0.0498999
0.0498969
0.0498942
0.0499152
0.049937
0.0499406
0.0499378
0.0499323
0.0499308
0.0499294
0.0499258
0.0499233
0.0499219
0.0499188
0.04993
0.0499426
0.0499453
0.0499446
0.0499364
0.0499379
0.049938
0.049937
0.0499408
0.049935
0.0499355
0.0499328
0.0499185
0.0499189
0.0499147
0.049901
0.0499014
0.049897
0.0498863
0.0498858
0.0498829
0.0498789
0.0498765
0.0498751
0.0498912
0.0499141
0.0499158
0.0499165
0.0499159
0.0499037
0.0499032
0.0498997
0.0498944
0.0498913
0.0498915
0.0498885
0.0498854
0.0499036
0.0499527
0.049971
0.0499713
0.049964
0.0499663
0.0499649
0.0499522
0.0499528
0.0499533
0.049941
0.0499411
0.0499401
0.0499282
0.0499282
0.0499234
0.0499138
0.0499132
0.0499054
0.0499027
0.0499023
0.0498931
0.0498929
0.0498887
0.0498813
0.0498795
0.0498745
0.0498744
0.0498695
0.0498609
0.0498602
0.0498571
0.0498563
0.0498519
0.0498467
0.0498601
0.0498884
0.0499271
0.0499568
0.0499625
0.0499613
0.0499524
0.0499497
0.0499503
0.0499499
0.0499426
0.0499427
0.0499412
0.0499283
0.0499289
0.0499251
0.0499136
0.0499136
0.0499082
0.0499004
0.0499005
0.0498944
0.0498905
0.0498916
0.0498856
0.0498858
0.0498815
0.0498811
0.0499015
0.0499186
0.0499197
0.04992
0.0499136
0.049903
0.0499028
0.0499012
0.0498983
0.0498959
0.0498946
0.0498917
0.0498888
0.0499111
0.0499641
0.05
0.0500153
0.0500239
0.0500249
0.0500254
0.0500223
0.0500222
0.050056
0.0501255
0.05024
0.0504029
0.0506027
0.050847
0.0511654
0.0516149
0.0523275
0.0532534
0.0543504
0.0550717
0.0554164
0.0556098
0.0568404
0.0597971
0.0617094
0.0616037
0.0587627
0.0547118
0.0535072
0.0532919
0.0532848
0.053288
0.0532658
0.0533998
0.0537384
0.0539089
0.0540863
0.0544807
0.0549827
0.0552305
0.0553584
0.0554271
0.0511852
0.0510217
0.0507181
0.0505447
0.0502966
0.0501939
0.0501003
0.0500569
0.0500332
0.0500224
0.0500168
0.0499987
0.0499986
0.0499934
0.049981
0.0499809
0.0499718
0.0499591
0.0499593
0.0499473
0.0499433
0.0499436
0.0499318
0.0499318
0.0499305
0.0499171
0.0499177
0.049915
0.0499008
0.049901
0.0498925
0.0498819
0.049882
0.0498699
0.0498629
0.0498621
0.0498608
0.0498594
0.0498584
0.0498559
0.0498533
0.0498686
0.0499171
0.0499542
0.0499607
0.0499573
0.0499577
0.0499525
0.0499416
0.0499416
0.0499331
0.0499251
0.0499249
0.049917
0.0499104
0.0499101
0.0499052
0.0498992
0.0498984
0.0498982
0.0498968
0.0498929
0.0498967
0.0499062
0.04991
0.049909
0.0498993
0.0498985
0.0498978
0.0498945
0.0498927
0.0498911
0.0498873
0.0498899
0.0499188
0.049945
0.0499471
0.0499418
0.0499425
0.0499384
0.0499267
0.049927
0.049921
0.0499099
0.0499102
0.0499049
0.0499003
0.0499005
0.0498967
0.0498949
0.0498893
0.0498921
0.0499297
0.0499634
0.0499674
0.0499666
0.0499628
0.0499602
0.0499561
0.0499451
0.0499448
0.0499363
0.0499294
0.0499295
0.0499257
0.049926
0.0499231
0.0499116
0.0499115
0.0499048
0.0499008
0.0499009
0.0498983
0.0498995
0.0499006
0.0498999
0.0499
0.0498978
0.0499023
0.0499022
0.0499014
0.0499019
0.0498943
0.0498944
0.0498891
0.0498881
0.0499132
0.0499496
0.0499594
0.049962
0.0499602
0.0499497
0.0499498
0.0499395
0.0499286
0.0499286
0.0499183
0.0499123
0.0499113
0.0499108
0.0499055
0.0498973
0.0498967
0.0498957
0.0498928
0.0498866
0.0498883
0.0498874
0.049883
0.0498838
0.0498761
0.0498762
0.0498732
0.0498715
0.0498993
0.0499461
0.0499765
0.0499938
0.0500229
0.0500703
0.0501363
0.0502326
0.050361
0.0505242
0.0507096
0.0509293
0.0512105
0.0515872
0.052014
0.0524446
0.0527249
0.0529618
0.0534496
0.0550406
0.0585263
0.0621802
0.0628394
0.0609128
0.0557315
0.0531944
0.0526979
0.052647
0.0527201
0.0528346
0.0531477
0.0536613
0.053935
0.0541881
0.0546474
0.0552331
0.0555929
0.0558326
0.0559269
0.0511776
0.0510376
0.0507592
0.0505817
0.0503752
0.0502335
0.0501459
0.050096
0.0500509
0.0500149
0.0499844
0.0499594
0.0499512
0.0499419
0.0499394
0.0499359
0.0499439
0.0499492
0.0499489
0.0499428
0.0499429
0.0499419
0.0499277
0.0499285
0.0499287
0.0499181
0.0499198
0.0499192
0.0499062
0.0499061
0.0498997
0.0498941
0.0499015
0.0499093
0.0499106
0.0499096
0.0499063
0.049904
0.0498971
0.0498958
0.0498906
0.0498801
0.0498802
0.0498747
0.0498681
0.0498696
0.0498693
0.0498592
0.0498591
0.0498549
0.0498542
0.049891
0.0499499
0.0499637
0.0499619
0.049958
0.0499581
0.0499506
0.0499504
0.0499498
0.0499376
0.0499379
0.0499367
0.049922
0.0499222
0.0499189
0.0499165
0.0499187
0.0499186
0.0499135
0.0499147
0.0499133
0.0499124
0.0499334
0.0499461
0.0499483
0.0499431
0.0499342
0.0499323
0.0499202
0.0499184
0.0499158
0.0499018
0.0499018
0.0498994
0.049889
0.0498893
0.0498868
0.0498821
0.049881
0.0498793
0.0498891
0.0499176
0.049938
0.0499443
0.0499482
0.0499552
0.0499579
0.0499586
0.0499576
0.0499445
0.0499447
0.049937
0.0499263
0.0499258
0.0499121
0.0499054
0.0499041
0.0499036
0.0498978
0.0498907
0.0498905
0.0498904
0.0498881
0.049888
0.0498842
0.0498787
0.0498912
0.0499308
0.0499537
0.0499578
0.0499595
0.049957
0.0499459
0.0499455
0.0499384
0.0499337
0.0499302
0.0499214
0.0499204
0.0499198
0.0499178
0.049917
0.0499284
0.0499397
0.0499407
0.0499368
0.0499354
0.0499351
0.0499281
0.0499246
0.0499252
0.04992
0.04992
0.0499323
0.0499352
0.0499354
0.0499337
0.0499298
0.049931
0.0499299
0.0499299
0.0499271
0.049924
0.0499399
0.0499997
0.0500266
0.0500279
0.0500299
0.0500481
0.0500914
0.0501679
0.050274
0.0504162
0.0505819
0.0507603
0.050967
0.0512439
0.0515535
0.0518598
0.0520576
0.0521833
0.0525395
0.0538244
0.0568737
0.0617963
0.0635141
0.0627012
0.0576694
0.0534238
0.0525508
0.0524582
0.0525602
0.0528337
0.0534426
0.054449
0.0553323
0.056105
0.0571292
0.058405
0.0592648
0.0599098
0.0601259
0.0509846
0.0508616
0.050681
0.0505301
0.0503162
0.0501933
0.0501061
0.0500637
0.0500268
0.0500024
0.0499725
0.0499587
0.0499516
0.0499375
0.0499339
0.0499232
0.0499118
0.0499098
0.0498972
0.049886
0.049884
0.0498767
0.0498673
0.0498645
0.0498631
0.0498574
0.049858
0.0498539
0.0498524
0.0498822
0.0499211
0.0499288
0.0499266
0.0499161
0.0499165
0.0499111
0.0498991
0.0498991
0.0498914
0.0498816
0.0498817
0.0498745
0.0498674
0.049868
0.0498673
0.0498674
0.0498619
0.0498621
0.04986
0.049859
0.0498878
0.0499514
0.0499705
0.0499709
0.049969
0.0499614
0.0499596
0.0499553
0.0499474
0.049947
0.0499342
0.0499247
0.0499235
0.0499187
0.0499175
0.0499161
0.0499085
0.0499088
0.0499068
0.0499025
0.0499009
0.0498973
0.0498964
0.0498927
0.0499009
0.049941
0.049965
0.0499662
0.0499598
0.0499608
0.049959
0.049944
0.0499445
0.0499418
0.0499273
0.049929
0.0499276
0.0499169
0.0499198
0.0499204
0.0499181
0.0499177
0.0499108
0.0499115
0.0499091
0.0499046
0.0499028
0.0498993
0.049908
0.049928
0.0499331
0.0499341
0.0499291
0.0499294
0.0499246
0.0499133
0.0499125
0.0499105
0.0499064
0.0499045
0.0499027
0.0498982
0.0499008
0.0499203
0.0499261
0.049924
0.0499139
0.049914
0.049906
0.0498961
0.0498956
0.0498847
0.0498782
0.0498782
0.0498769
0.0498725
0.0498712
0.0498672
0.0498699
0.0499096
0.0499592
0.0499683
0.0499663
0.0499656
0.0499629
0.0499621
0.0499604
0.0499506
0.0499499
0.0499468
0.0499404
0.0499354
0.0499358
0.0499319
0.0499251
0.0499235
0.049924
0.0499217
0.0499175
0.0499181
0.0499142
0.049911
0.0499302
0.0499633
0.0499709
0.049973
0.0499738
0.0499643
0.0499632
0.0499784
0.0500106
0.0500813
0.0501843
0.0503129
0.0504452
0.0506007
0.0507932
0.0510466
0.0513289
0.051627
0.0518538
0.0519601
0.052172
0.0530638
0.0554876
0.0603794
0.0637831
0.063942
0.0600077
0.0543192
0.0529553
0.0528643
0.0532958
0.0543641
0.056054
0.0585387
0.0611561
0.0639026
0.0665671
0.0696368
0.0717611
0.073509
0.0740234
0.0509777
0.0508417
0.0506871
0.0505526
0.0503981
0.0502416
0.0501388
0.0500913
0.0500568
0.0500134
0.0499811
0.0499521
0.0499439
0.0499396
0.0499357
0.0499309
0.04995
0.0499636
0.049966
0.0499636
0.0499519
0.0499523
0.0499467
0.0499332
0.0499329
0.0499289
0.0499151
0.0499153
0.0499121
0.0499025
0.0499057
0.0499082
0.0499128
0.049919
0.0499143
0.0499137
0.0499122
0.049908
0.0499045
0.0499044
0.0499005
0.0498976
0.049906
0.0499167
0.0499184
0.049919
0.0499162
0.0499168
0.0499389
0.0499568
0.0499565
0.0499559
0.049949
0.0499455
0.049944
0.0499408
0.0499413
0.0499321
0.0499324
0.0499306
0.0499164
0.0499168
0.0499144
0.0499029
0.0499035
0.0499032
0.0498935
0.0498944
0.0498922
0.0498868
0.0498849
0.0498758
0.049879
0.0499046
0.0499158
0.0499196
0.0499183
0.0499088
0.0499091
0.049903
0.0498955
0.0498945
0.049895
0.049893
0.0498904
0.0499028
0.0499441
0.0499678
0.0499685
0.0499689
0.0499669
0.0499536
0.049954
0.0499485
0.0499352
0.0499349
0.0499264
0.0499147
0.049915
0.0499072
0.0499023
0.049902
0.0498977
0.0498961
0.049891
0.0498938
0.0499316
0.0499566
0.0499589
0.0499529
0.0499528
0.0499478
0.0499357
0.0499354
0.0499278
0.049919
0.0499195
0.0499178
0.0499096
0.0499107
0.0499103
0.0499045
0.0499041
0.0498933
0.0498932
0.0499197
0.0499427
0.0499527
0.0499555
0.0499561
0.0499545
0.0499399
0.0499404
0.0499384
0.0499234
0.0499234
0.0499167
0.049904
0.0499035
0.0498957
0.0498877
0.0498866
0.0498812
0.0498811
0.0498818
0.0498752
0.0498736
0.0498668
0.0498696
0.0499094
0.0499568
0.0499741
0.0499836
0.049991
0.0499935
0.0499937
0.0499934
0.0499922
0.0499906
0.0499962
0.0500258
0.0500854
0.0501854
0.0503105
0.050435
0.0505592
0.0507236
0.0509416
0.0511855
0.0514604
0.0517012
0.0518461
0.0520059
0.0526107
0.0543836
0.0584572
0.0633189
0.0643482
0.062087
0.0563626
0.0548292
0.0550302
0.0569429
0.0606193
0.0653835
0.0717369
0.0787819
0.0866284
0.0936693
0.100925
0.105742
0.109913
0.111055
0.0508843
0.0507452
0.0506044
0.0504844
0.0503235
0.0501977
0.0500887
0.050043
0.0500117
0.0499994
0.0499883
0.0499683
0.0499733
0.0499887
0.0499889
0.0499844
0.0499813
0.049971
0.0499655
0.049958
0.0499451
0.0499433
0.0499371
0.0499342
0.0499333
0.0499257
0.0499258
0.0499168
0.0499086
0.0499073
0.0499037
0.0499005
0.0498939
0.0498944
0.0498916
0.0498812
0.0498808
0.0498762
0.0498697
0.0498703
0.0498665
0.0498671
0.0498644
0.049862
0.0498892
0.0499523
0.0499754
0.0499776
0.0499784
0.0499774
0.0499657
0.0499659
0.0499635
0.0499499
0.0499498
0.0499438
0.049932
0.0499312
0.0499186
0.0499137
0.0499109
0.0498996
0.0498992
0.0498993
0.0498896
0.04989
0.0498859
0.0498844
0.0499053
0.0499205
0.0499253
0.0499259
0.0499261
0.0499241
0.0499096
0.0499099
0.0499017
0.0498917
0.0498905
0.0498862
0.0498864
0.0498833
0.0498839
0.0499111
0.0499266
0.0499275
0.0499198
0.0499206
0.0499202
0.0499124
0.0499132
0.0499125
0.0499068
0.0499047
0.0498995
0.0499034
0.0499335
0.0499493
0.0499524
0.0499517
0.0499449
0.0499453
0.0499443
0.0499322
0.049932
0.0499272
0.0499146
0.0499145
0.0499059
0.0498953
0.0498955
0.0498933
0.0498878
0.0498876
0.049887
0.049883
0.0498819
0.0498785
0.0498831
0.0499187
0.0499608
0.0499699
0.049969
0.0499639
0.0499644
0.0499582
0.0499492
0.0499488
0.0499442
0.0499389
0.049935
0.0499366
0.0499372
0.0499298
0.0499311
0.049927
0.0499189
0.0499182
0.049916
0.0499162
0.0499098
0.0499011
0.0499103
0.049937
0.049947
0.0499507
0.049949
0.0499491
0.0499414
0.0499355
0.049944
0.0499609
0.0499726
0.0499751
0.049974
0.0499672
0.0499668
0.0499667
0.0499659
0.0499651
0.0499707
0.0500014
0.0500644
0.0501727
0.050303
0.0504398
0.0506003
0.0507938
0.0510167
0.0512858
0.0515842
0.0518142
0.0519975
0.0523827
0.0535568
0.0565346
0.0620374
0.0645123
0.0640626
0.0600874
0.0590301
0.0610562
0.0679278
0.0787691
0.0912533
0.106794
0.124271
0.144019
0.160735
0.176391
0.186191
0.19495
0.197226
0.050887
0.0507491
0.0506404
0.0505284
0.0504136
0.0502848
0.0501807
0.0501341
0.050101
0.0500698
0.0500528
0.0500226
0.0499968
0.0499815
0.0499787
0.0499567
0.0499454
0.0499445
0.0499337
0.0499223
0.0499186
0.0499186
0.0499172
0.0499111
0.0499111
0.0499068
0.0499042
0.0499235
0.049947
0.0499539
0.0499558
0.0499576
0.0499576
0.0499514
0.0499546
0.0499536
0.0499453
0.0499466
0.049944
0.0499305
0.0499312
0.0499287
0.0499184
0.0499208
0.0499192
0.0499129
0.0499118
0.0499081
0.0499134
0.0499384
0.0499552
0.0499546
0.0499506
0.049949
0.0499419
0.0499384
0.0499333
0.049922
0.049918
0.0499137
0.0499115
0.0499084
0.0499018
0.0499
0.0499003
0.0499002
0.0498937
0.0498938
0.0498873
0.0498849
0.0499085
0.0499463
0.0499618
0.0499688
0.0499698
0.0499704
0.0499688
0.0499555
0.049956
0.0499514
0.0499373
0.0499372
0.0499303
0.0499185
0.0499184
0.0499156
0.0499041
0.0499046
0.0499042
0.0499025
0.0499192
0.0499416
0.0499496
0.0499491
0.0499491
0.0499476
0.0499334
0.0499331
0.0499234
0.0499135
0.0499134
0.0499081
0.0498988
0.0498974
0.0498975
0.0498932
0.049892
0.0498889
0.0498916
0.0499213
0.0499404
0.0499401
0.0499326
0.0499322
0.049921
0.049914
0.0499141
0.0499037
0.0498977
0.0498971
0.0498936
0.0498909
0.0498888
0.0498833
0.049889
0.0499194
0.0499303
0.0499336
0.0499319
0.0499245
0.0499237
0.049917
0.0499194
0.0499424
0.0499592
0.0499598
0.0499599
0.0499525
0.0499466
0.0499471
0.0499387
0.0499353
0.0499355
0.0499274
0.0499217
0.0499216
0.049921
0.0499159
0.0499192
0.0499202
0.0499122
0.049913
0.049912
0.0499112
0.0499113
0.0499096
0.0499336
0.0499861
0.0500026
0.0500027
0.0500042
0.0500181
0.0500585
0.0501328
0.0502412
0.0503777
0.0505516
0.0507628
0.050996
0.0512688
0.0515716
0.0518457
0.0520689
0.0523874
0.0531718
0.0552473
0.0598053
0.0644025
0.0654154
0.0652133
0.0666506
0.0755838
0.0951832
0.12311
0.153038
0.187354
0.225382
0.26861
0.303427
0.332932
0.350821
0.366331
0.370202
0.050872
0.0507517
0.0506213
0.0505338
0.0504319
0.0502944
0.0501734
0.0500911
0.0500433
0.0500186
0.0499977
0.0499704
0.0499453
0.0499358
0.0499346
0.0499321
0.0499323
0.0499248
0.0499258
0.0499215
0.0499209
0.0499351
0.0499407
0.0499461
0.0499577
0.0499624
0.0499622
0.0499553
0.0499554
0.0499525
0.049937
0.0499368
0.0499293
0.0499192
0.0499212
0.0499201
0.0499151
0.0499164
0.0499159
0.0499082
0.0499066
0.0499031
0.0499051
0.0499319
0.0499413
0.0499432
0.0499412
0.0499284
0.0499302
0.0499292
0.0499253
0.049926
0.0499187
0.0499193
0.049917
0.0499151
0.0499152
0.0499106
0.0499117
0.0499078
0.0499077
0.0499006
0.0498896
0.0499034
0.0499429
0.0499536
0.0499521
0.0499532
0.0499545
0.0499537
0.0499538
0.0499442
0.0499454
0.049946
0.0499354
0.049936
0.0499356
0.0499209
0.0499211
0.0499208
0.0499134
0.0499163
0.049915
0.0499079
0.049906
0.0499012
0.0499046
0.0499263
0.0499321
0.0499341
0.0499341
0.0499248
0.0499273
0.0499279
0.0499206
0.0499235
0.0499237
0.0499115
0.0499128
0.0499103
0.0498977
0.0498975
0.0498906
0.0498801
0.0498799
0.0498789
0.0498746
0.0498721
0.0498664
0.0498742
0.0499107
0.049926
0.0499266
0.0499184
0.0499188
0.0499177
0.0499061
0.0499059
0.0499003
0.0498896
0.0498897
0.0498854
0.0498758
0.0498754
0.0498729
0.0498709
0.0498689
0.0498667
0.0498893
0.0499242
0.0499315
0.0499288
0.0499234
0.0499197
0.0499086
0.0499063
0.0499006
0.0498913
0.0498906
0.0498779
0.049871
0.0498697
0.0498595
0.0498562
0.0498546
0.0498519
0.0498512
0.0498516
0.0498482
0.0498443
0.0498622
0.0499128
0.0499512
0.049963
0.0499667
0.049966
0.0499637
0.0499734
0.0499978
0.0500112
0.0500104
0.0500105
0.0500272
0.0500673
0.0501361
0.050244
0.0504214
0.050658
0.0509173
0.0511963
0.0515165
0.0518585
0.052174
0.0524708
0.0529747
0.0541247
0.0568809
0.0619227
0.0678948
0.0735168
0.0817227
0.104868
0.151555
0.216026
0.281099
0.346308
0.414912
0.494372
0.556948
0.604558
0.633067
0.655404
0.660911
0.0507896
0.0507162
0.0505719
0.0505124
0.0504008
0.0503289
0.0502096
0.0501482
0.0500988
0.0500778
0.0500573
0.0500219
0.0499864
0.0499708
0.0499664
0.0499542
0.0499479
0.0499453
0.0499409
0.0499509
0.0499802
0.0499881
0.0499864
0.0499781
0.049971
0.049965
0.0499495
0.0499481
0.0499416
0.0499253
0.0499236
0.0499194
0.0499033
0.0499016
0.0498997
0.0498904
0.0498901
0.049885
0.0498852
0.0498813
0.0498815
0.0499015
0.0499131
0.049914
0.0499139
0.0499094
0.0499094
0.0499055
0.0499027
0.0499198
0.0499485
0.0499559
0.0499543
0.0499541
0.0499514
0.0499367
0.0499362
0.0499255
0.0499145
0.0499141
0.0499037
0.0498975
0.0498971
0.0498951
0.049891
0.0498978
0.0499316
0.0499605
0.0499621
0.0499625
0.0499597
0.0499454
0.0499453
0.0499346
0.0499233
0.0499231
0.0499107
0.0499046
0.0499029
0.0498993
0.0498989
0.0498964
0.0498949
0.0498922
0.0498992
0.0499373
0.0499536
0.0499529
0.0499534
0.0499484
0.0499449
0.0499456
0.0499402
0.0499386
0.0499441
0.0499614
0.0499675
0.049963
0.0499622
0.0499616
0.0499614
0.0499616
0.0499506
0.0499505
0.0499484
0.0499447
0.0499437
0.0499367
0.0499385
0.0499385
0.0499362
0.0499351
0.0499266
0.049928