/*--------------------------------*- C++ -*----------------------------------*\
| =========                 |                                                 |
| \\      /  F ield         | OpenFOAM: The Open Source CFD Toolbox           |
|  \\    /   O peration     | Version:  4.1                                   |
|   \\  /    A nd           | Web:      www.OpenFOAM.org                      |
|    \\/     M anipulation  |                                                 |
\*---------------------------------------------------------------------------*/
FoamFile
{
    version     2.0;
    format      ascii;
    class       volScalarField;
    location    "1";
    object      k;
}
// * * * * * * * * * * * * * * * * * * * * * * * * * * * * * * * * * * * * * //

dimensions      [0 2 -2 0 0 0 0];

internalField   nonuniform List<scalar> 
204246
(
1.75863
1.8631
1.90715
1.94949
1.97732
1.99461
2.01967
2.02596
2.04643
2.04874
2.05898
2.05567
2.0586
2.05048
2.05427
2.04827
2.054
2.04859
2.04708
2.05525
2.0514
2.05871
2.05482
2.05975
2.05681
2.06085
2.0573
2.0605
2.05534
2.05932
2.05252
2.05582
2.05013
2.05532
2.05112
2.05628
2.05364
2.05282
2.06112
2.05759
2.06225
2.05911
2.06244
2.0588
2.06172
2.05666
2.0607
2.05431
2.05763
2.05033
2.05306
2.04943
2.05416
2.05157
2.05101
2.06088
2.05836
2.06442
2.06164
2.06496
2.06135
2.06429
2.05949
2.06368
2.05756
2.06109
2.05284
2.05463
2.05023
2.05504
2.05265
2.05261
2.06048
2.05835
2.06228
2.05905
2.06265
2.06008
2.06464
2.06148
2.06702
2.06203
2.06624
2.05992
2.06198
2.05463
2.05605
2.04877
2.04645
2.05195
2.04958
2.05763
2.05634
2.06426
2.06169
2.06714
2.06271
2.06746
2.06207
2.06602
2.05942
2.06152
2.05321
2.05412
2.04738
2.05095
2.04719
2.04754
2.05666
2.05545
2.06328
2.06048
2.0657
2.06071
2.06508
2.0597
2.06297
2.05696
2.05939
2.05227
2.05532
2.05133
2.0567
2.05346
2.05324
2.06135
2.05905
2.06602
2.06357
2.0688
2.06508
2.06883
2.06399
2.06713
2.06078
2.06294
2.05682
2.0609
2.05767
2.06464
2.06262
2.06587
2.07748
2.07732
2.08884
2.08876
2.09814
2.09765
2.1051
2.1059
2.11439
2.1176
2.12673
2.13152
2.14223
2.14998
2.16306
2.17485
2.19322
2.21349
2.24199
2.27984
2.32709
2.3917
2.47207
2.53913
2.55016
2.51766
2.35456
2.02381
1.6083
1.37489
1.28097
1.23206
1.1803
1.15089
1.11449
1.03256
0.886252
0.728662
0.655276
0.613376
0.581755
0.53131
0.492708
0.440896
0.410114
0.367342
0.347871
0.316065
0.302475
0.284847
0.279376
0.918633
0.193548
0.154931
0.167689
0.1778
0.18255
0.192273
0.197087
0.210486
0.216456
0.225754
0.223877
0.224866
0.215265
0.217415
0.212256
0.218376
0.216416
0.220118
0.228751
0.225364
0.231618
0.226644
0.232045
0.229421
0.234712
0.231505
0.235244
0.229137
0.233276
0.224489
0.227644
0.220241
0.226018
0.221791
0.22945
0.228701
0.2309
0.238201
0.232758
0.237384
0.233381
0.237462
0.233517
0.237142
0.23056
0.234898
0.22578
0.228899
0.219137
0.222633
0.219169
0.225685
0.225778
0.228631
0.238938
0.235536
0.241418
0.23699
0.240455
0.235531
0.238786
0.231158
0.235365
0.226497
0.229596
0.217894
0.219975
0.215631
0.221231
0.221883
0.225703
0.236681
0.235191
0.240035
0.234745
0.238375
0.234726
0.239702
0.235008
0.240638
0.234217
0.238722
0.230521
0.233182
0.223716
0.224609
0.218124
0.216055
0.222824
0.222391
0.237758
0.239493
0.247314
0.241245
0.245811
0.236933
0.241167
0.233183
0.23723
0.228065
0.230361
0.220086
0.220936
0.21355
0.217569
0.215781
0.222498
0.237398
0.239549
0.245893
0.23965
0.244242
0.235507
0.239632
0.231804
0.235516
0.228481
0.231049
0.221598
0.225022
0.220434
0.227347
0.226286
0.231254
0.240932
0.238452
0.244958
0.239719
0.244151
0.238462
0.242588
0.236615
0.240387
0.231642
0.2344
0.225776
0.229937
0.225648
0.235016
0.233678
0.241767
0.256135
0.255547
0.269368
0.266472
0.277123
0.27366
0.289148
0.28833
0.310454
0.311765
0.337679
0.340825
0.37049
0.376143
0.418051
0.431794
0.472141
0.546144
0.602033
0.741762
0.838545
1.04163
1.19732
1.50088
1.80093
2.01465
2.01643
1.80469
1.23209
0.492845
0.201914
0.129598
0.111724
0.111759
0.113732
0.115794
0.115578
0.100839
0.0954959
0.090741
0.090492
0.0887364
0.089229
0.0878602
0.0876962
0.0865372
0.0870481
0.0874722
0.0902049
0.0909436
0.0916753
0.0106201
0.0486162
0.0481046
0.0477224
0.0478836
0.0476657
0.0478495
0.0478306
0.0481414
0.0481446
0.048455
0.0484333
0.0485918
0.0482273
0.04822
0.0479651
0.0483377
0.0481976
0.0482698
0.0485732
0.0485668
0.0489736
0.0486331
0.0490612
0.0488278
0.049223
0.0489521
0.049286
0.0488302
0.0491572
0.0485672
0.0488946
0.0483745
0.048795
0.0484074
0.0488559
0.0487414
0.0487994
0.049278
0.0488459
0.0492664
0.0489789
0.0493663
0.0490566
0.0493807
0.0488901
0.0492023
0.048568
0.0488576
0.0482964
0.048609
0.0483367
0.0487059
0.0486187
0.0486936
0.0493088
0.0489461
0.0493951
0.0491015
0.0494962
0.0491675
0.0494889
0.0489797
0.0493074
0.048677
0.0489214
0.0482556
0.0485006
0.0481802
0.0485095
0.0484133
0.048534
0.0491685
0.0490248
0.0493335
0.0489483
0.0492864
0.0489903
0.0494218
0.0490665
0.0495929
0.0490923
0.0494853
0.0488717
0.0491181
0.0485357
0.0486659
0.0482828
0.0481011
0.0483734
0.0484022
0.0490181
0.0491869
0.0497763
0.0493516
0.0498303
0.0492572
0.0496737
0.0490788
0.0494186
0.0487864
0.0490116
0.0483929
0.0485225
0.0480909
0.0483554
0.0481503
0.048375
0.0489891
0.0492352
0.0497255
0.0492886
0.0497543
0.0491901
0.0496001
0.0490183
0.0492995
0.0488281
0.0490088
0.0484352
0.0487212
0.0483285
0.0487394
0.0485593
0.0486611
0.0492177
0.0490565
0.0495976
0.0492712
0.0497672
0.0493595
0.0497542
0.0492461
0.0495447
0.0489407
0.0491728
0.0486001
0.0489513
0.0486026
0.0491011
0.0489406
0.0492505
0.0502006
0.0501238
0.0512707
0.0510533
0.0520515
0.0517977
0.0532476
0.0532275
0.0555512
0.0558189
0.0589254
0.0595132
0.0638182
0.0650087
0.0715341
0.0742868
0.0834363
0.0969511
0.11522
0.150266
0.191029
0.264495
0.348748
0.497567
0.688826
0.949237
1.02901
1.00717
0.733854
0.284403
0.107802
0.0697015
0.0623664
0.0618295
0.0633402
0.0655285
0.0659347
0.0649678
0.0629711
0.0617949
0.0617752
0.0623689
0.0643838
0.0663008
0.0676226
0.0679635
0.0687606
0.06937
0.069835
0.0687463
0.0681768
0.0487098
0.0477502
0.0474187
0.0472585
0.047088
0.0470202
0.046965
0.0469288
0.0469153
0.0469048
0.0469022
0.0468955
0.0468949
0.0468876
0.0468908
0.0469118
0.0469208
0.0469183
0.0469195
0.0469242
0.0469207
0.0469234
0.0469143
0.0469104
0.0469093
0.0469108
0.0469091
0.0469121
0.0469093
0.0469253
0.0469299
0.0469331
0.0469259
0.0469259
0.0469174
0.0469174
0.0469124
0.0469114
0.0469093
0.0469015
0.0469083
0.0469077
0.0469092
0.0469033
0.0469067
0.046898
0.0468995
0.0469116
0.0469391
0.0469395
0.0469399
0.046936
0.0469396
0.0469356
0.0469268
0.0469318
0.0469292
0.0469292
0.0469204
0.0469229
0.0469166
0.0469148
0.0469073
0.0469124
0.0469053
0.0469056
0.0468949
0.0468943
0.046889
0.0468938
0.0469195
0.0469415
0.0469504
0.0469473
0.0469493
0.046943
0.0469435
0.0469331
0.0469352
0.0469235
0.0469248
0.0469138
0.0469166
0.0469075
0.046907
0.0468952
0.0468945
0.0468909
0.0468899
0.0468851
0.0468861
0.0469039
0.0469195
0.0469285
0.0469223
0.0469233
0.0469093
0.0469132
0.0469024
0.0469023
0.0468877
0.0468892
0.0468815
0.0468834
0.0469006
0.0469279
0.0469285
0.0469281
0.0469304
0.0469341
0.0469408
0.0469349
0.046946
0.046939
0.0469379
0.0469294
0.0469366
0.0469332
0.0469304
0.0469273
0.0469356
0.0469318
0.046925
0.0469221
0.0469222
0.0469261
0.0469203
0.0469224
0.0469129
0.0469148
0.0469023
0.0469038
0.0468901
0.0468924
0.0468799
0.0468811
0.0468695
0.0468697
0.0468628
0.046864
0.0468591
0.0468658
0.0469035
0.0469407
0.0469778
0.0469788
0.0469987
0.0469922
0.0470273
0.0470261
0.047112
0.0471372
0.0472978
0.0473471
0.0476224
0.0477762
0.0482937
0.0486858
0.0496925
0.0514141
0.0542378
0.0600163
0.0688171
0.0855445
0.110566
0.156674
0.227672
0.344638
0.424376
0.438176
0.386926
0.241219
0.102573
0.0655894
0.0572135
0.0561031
0.0561453
0.056242
0.0559673
0.0549199
0.0540203
0.0537907
0.0537985
0.0538963
0.0540669
0.0542299
0.0546017
0.0549771
0.0556155
0.0563522
0.057315
0.0578585
0.0580905
0.0482692
0.04799
0.0475549
0.047391
0.0472276
0.0471639
0.0470793
0.0470432
0.0470086
0.0469938
0.0469761
0.0469723
0.0469718
0.0469704
0.0469665
0.046967
0.0469666
0.0469615
0.0469624
0.046962
0.046954
0.0469547
0.046952
0.0469449
0.046945
0.0469379
0.0469326
0.0469321
0.0469216
0.0469185
0.0469181
0.0469095
0.0469069
0.0469061
0.0469031
0.0469031
0.0469015
0.046901
0.0469179
0.0469496
0.0469565
0.046956
0.0469521
0.0469502
0.0469468
0.0469406
0.0469406
0.046935
0.0469261
0.0469261
0.0469245
0.0469192
0.0469186
0.0469162
0.0469187
0.0469368
0.0469465
0.0469462
0.0469422
0.0469424
0.046939
0.046933
0.0469321
0.0469282
0.0469281
0.0469252
0.0469199
0.0469241
0.04693
0.0469303
0.0469283
0.0469286
0.0469282
0.0469198
0.0469197
0.0469152
0.04691
0.0469092
0.0469004
0.046898
0.0468972
0.0468954
0.0468944
0.046893
0.0469041
0.0469467
0.0469744
0.0469766
0.0469727
0.0469684
0.0469595
0.0469545
0.0469546
0.0469531
0.0469445
0.0469445
0.0469429
0.0469338
0.0469338
0.0469299
0.0469236
0.0469235
0.046914
0.0469083
0.0469082
0.0469065
0.0469051
0.0469017
0.0468921
0.0468891
0.0468888
0.0468858
0.0468844
0.0468832
0.0468803
0.0468851
0.0469164
0.0469358
0.0469365
0.0469318
0.0469321
0.0469309
0.0469269
0.0469261
0.0469245
0.046927
0.0469497
0.046971
0.046973
0.0469701
0.0469654
0.0469612
0.0469547
0.0469435
0.046941
0.0469408
0.0469321
0.0469279
0.0469279
0.0469219
0.0469171
0.0469174
0.0469141
0.0469078
0.046908
0.0469063
0.0468993
0.0468994
0.0468973
0.0468931
0.046895
0.0468947
0.0468934
0.0468971
0.0469214
0.0469685
0.0470428
0.0471143
0.0472252
0.0474469
0.0478742
0.0487516
0.0503492
0.0535356
0.0591438
0.0701982
0.0896699
0.124583
0.16503
0.178098
0.171919
0.137396
0.0814794
0.0604814
0.0552071
0.0539649
0.0537549
0.0538529
0.054333
0.0546458
0.0546391
0.0541075
0.053219
0.0528722
0.0528633
0.0529707
0.0531267
0.0531526
0.0533909
0.0535137
0.0538308
0.053957
0.0540622
0.0482049
0.0478456
0.0475195
0.0473452
0.047195
0.0471258
0.047037
0.046998
0.0469554
0.0469356
0.0469134
0.0469015
0.0468897
0.0468875
0.0468847
0.0468761
0.0468729
0.0468725
0.0468723
0.0468696
0.0468714
0.0468926
0.0469215
0.0469273
0.0469256
0.046921
0.0469213
0.046921
0.0469212
0.0469213
0.0469147
0.0469145
0.046909
0.0469038
0.0469022
0.0468952
0.0468938
0.0468906
0.0468857
0.0468859
0.0468819
0.0468759
0.0468762
0.0468728
0.0468697
0.0468786
0.0469076
0.0469187
0.0469183
0.0469171
0.0469165
0.0469112
0.0469095
0.0469095
0.0469047
0.0469024
0.0469029
0.0469001
0.0469006
0.0469122
0.0469168
0.0469166
0.0469155
0.0469106
0.0469073
0.0469042
0.0468939
0.0468926
0.0468908
0.0468909
0.0468896
0.0468881
0.0468975
0.0469128
0.0469166
0.0469167
0.0469168
0.0469147
0.0469091
0.0469084
0.0469031
0.0469012
0.0469
0.0468962
0.0468964
0.0468927
0.046893
0.0469161
0.0469377
0.0469417
0.0469409
0.0469376
0.0469374
0.0469302
0.0469246
0.0469235
0.0469138
0.0469107
0.0469104
0.0469072
0.0469043
0.0469043
0.0469021
0.0469023
0.0469185
0.0469337
0.0469355
0.0469349
0.0469326
0.0469278
0.0469258
0.0469192
0.0469131
0.0469126
0.0469054
0.0469011
0.046901
0.0468955
0.0468909
0.0468911
0.0468886
0.0468888
0.0469085
0.0469319
0.0469358
0.046933
0.0469297
0.0469286
0.0469192
0.0469161
0.0469152
0.0469153
0.046914
0.0469125
0.0469207
0.046943
0.0469473
0.0469475
0.0469476
0.0469443
0.0469445
0.0469427
0.0469398
0.0469398
0.0469384
0.0469386
0.0469348
0.0469327
0.0469416
0.0469618
0.0469766
0.0469855
0.0469883
0.0469882
0.0469874
0.0469931
0.0470112
0.047047
0.0470932
0.0471877
0.0473136
0.047512
0.0478351
0.0484637
0.0496368
0.0520257
0.0565525
0.0652124
0.0783801
0.0870721
0.0877319
0.0822366
0.0670119
0.0574269
0.0546594
0.0535645
0.0528855
0.0521488
0.0512279
0.0508765
0.0506988
0.0504933
0.0503238
0.0502648
0.0503037
0.0505164
0.0507826
0.0509841
0.0514347
0.0517373
0.0518925
0.0519649
0.0520452
0.0480737
0.0478292
0.0475395
0.0473653
0.0471869
0.0471122
0.0470431
0.047013
0.0469825
0.0469701
0.0469531
0.0469439
0.0469407
0.0469396
0.0469312
0.0469276
0.0469256
0.0469258
0.0469236
0.0469221
0.046931
0.0469363
0.0469355
0.0469332
0.0469325
0.0469266
0.0469234
0.0469216
0.046909
0.0469042
0.0469033
0.0469009
0.0468983
0.0468941
0.0468875
0.0468819
0.0468801
0.0468689
0.0468648
0.0468644
0.0468629
0.0468622
0.0468605
0.0468642
0.0468963
0.0469404
0.0469483
0.0469461
0.0469406
0.046938
0.0469321
0.0469264
0.0469263
0.0469227
0.0469165
0.0469172
0.0469155
0.0469157
0.046914
0.0469073
0.0469074
0.0469007
0.0468949
0.0468945
0.046888
0.0468854
0.0468857
0.0468844
0.0468826
0.0468881
0.0469163
0.0469386
0.0469421
0.0469422
0.0469378
0.0469379
0.0469366
0.0469298
0.0469297
0.0469278
0.046925
0.0469242
0.0469233
0.0469338
0.0469481
0.0469504
0.04695
0.0469496
0.0469491
0.0469429
0.0469352
0.0469337
0.0469292
0.046924
0.0469239
0.046919
0.0469112
0.0469115
0.0469082
0.0469071
0.0469204
0.0469277
0.0469285
0.0469279
0.0469243
0.0469242
0.0469176
0.0469112
0.046911
0.0469056
0.046902
0.0469012
0.0468999
0.0468991
0.0468972
0.046905
0.0469336
0.0469457
0.0469461
0.0469416
0.0469417
0.0469394
0.0469337
0.0469333
0.0469244
0.0469208
0.0469193
0.0469107
0.0469085
0.0469066
0.0469026
0.0469022
0.0469022
0.046901
0.0468994
0.0469094
0.0469417
0.0469546
0.0469537
0.0469537
0.0469482
0.0469443
0.0469443
0.0469366
0.0469322
0.0469323
0.0469304
0.0469288
0.0469414
0.046972
0.0469812
0.0469822
0.0469824
0.0469766
0.0469779
0.0469765
0.0469745
0.0469839
0.0470112
0.0470661
0.0471532
0.0472645
0.0474111
0.0476286
0.0479721
0.0485513
0.0495772
0.0515644
0.0548444
0.0584804
0.0593568
0.0589218
0.0560601
0.0545237
0.0543696
0.0546702
0.0542202
0.0522578
0.0505992
0.050237
0.0502194
0.0502072
0.0500443
0.0498364
0.0498083
0.0499011
0.0500788
0.0502026
0.0505212
0.0508584
0.0510336
0.0511327
0.051184
0.0479333
0.0478299
0.0475143
0.0473779
0.0472003
0.0471291
0.0470567
0.047021
0.0469769
0.0469583
0.0469385
0.0469322
0.0469375
0.0469452
0.0469452
0.0469436
0.0469409
0.0469393
0.0469349
0.0469288
0.0469287
0.0469254
0.04692
0.0469201
0.0469192
0.0469172
0.0469239
0.0469517
0.0469659
0.0469676
0.0469668
0.0469631
0.046963
0.0469607
0.0469533
0.0469531
0.0469496
0.0469427
0.0469425
0.046937
0.0469311
0.0469312
0.046925
0.0469241
0.0469233
0.0469178
0.0469176
0.0469133
0.0469088
0.0469073
0.0469016
0.0469005
0.046899
0.0468993
0.0468971
0.0468965
0.0468964
0.0468924
0.0468916
0.0468894
0.0468906
0.0469082
0.0469207
0.0469227
0.0469208
0.046916
0.0469153
0.0469122
0.0469117
0.0469105
0.046909
0.0469081
0.046907
0.0469189
0.0469568
0.046978
0.046979
0.0469792
0.046978
0.0469703
0.0469701
0.0469659
0.0469587
0.0469586
0.0469541
0.0469477
0.046948
0.0469472
0.0469427
0.0469427
0.0469386
0.0469334
0.0469331
0.0469247
0.0469204
0.0469194
0.0469085
0.0469051
0.0469034
0.0468934
0.046891
0.0468901
0.046882
0.0468784
0.0468785
0.0468763
0.0468753
0.0468874
0.0469294
0.0469574
0.0469597
0.0469563
0.0469496
0.0469454
0.0469348
0.0469304
0.0469304
0.0469267
0.0469202
0.0469205
0.0469207
0.0469173
0.0469196
0.0469201
0.0469213
0.0469229
0.0469223
0.0469225
0.0469217
0.0469187
0.0469182
0.04691
0.0469064
0.0469048
0.046903
0.046902
0.046899
0.0469027
0.0469208
0.046927
0.046928
0.0469272
0.046927
0.0469217
0.0469175
0.046915
0.0469095
0.0469098
0.046908
0.0469081
0.0469275
0.0469612
0.0469813
0.0469911
0.0469984
0.0470008
0.0470004
0.0470003
0.0470063
0.047033
0.0470852
0.0471648
0.047273
0.047416
0.0476006
0.0478469
0.0481992
0.0487751
0.0495879
0.0506351
0.0512896
0.0514964
0.0514649
0.0519767
0.0537574
0.0550896
0.0550541
0.0532499
0.0504162
0.0495009
0.0493254
0.0493128
0.0493128
0.0493057
0.0494416
0.0497316
0.049869
0.049998
0.0502898
0.0506573
0.0508478
0.0509537
0.0510055
0.0478004
0.0476867
0.0474745
0.047354
0.047176
0.0471006
0.0470197
0.0469809
0.0469515
0.0469392
0.0469297
0.0469296
0.0469431
0.0469454
0.0469444
0.046944
0.0469388
0.0469345
0.0469332
0.0469332
0.0469331
0.0469277
0.0469285
0.0469275
0.0469209
0.0469208
0.0469142
0.0469109
0.0469107
0.0469001
0.0468965
0.0468966
0.0468881
0.0468841
0.0468841
0.0468801
0.0468772
0.0468763
0.0468739
0.0468769
0.0469058
0.0469482
0.0469583
0.0469577
0.0469511
0.0469511
0.0469499
0.046942
0.046942
0.0469373
0.0469323
0.0469307
0.0469233
0.0469222
0.0469208
0.0469143
0.046914
0.0469134
0.0469134
0.0469128
0.0469084
0.0469082
0.0469016
0.0468973
0.0468971
0.0468888
0.046885
0.0468848
0.0468826
0.0468818
0.0468808
0.0468789
0.0468915
0.0469338
0.0469526
0.0469516
0.0469482
0.0469468
0.0469396
0.0469373
0.046934
0.0469249
0.046925
0.0469203
0.0469136
0.0469133
0.0469125
0.0469116
0.0469102
0.0469092
0.0469224
0.0469448
0.0469499
0.0469474
0.0469425
0.0469413
0.0469411
0.0469371
0.0469367
0.0469365
0.0469334
0.0469332
0.0469281
0.0469214
0.0469213
0.0469183
0.0469143
0.0469134
0.0469014
0.046896
0.0468959
0.0468934
0.0468914
0.0468905
0.04689
0.046888
0.0468892
0.0469067
0.0469169
0.0469173
0.0469168
0.0469166
0.0469152
0.0469131
0.0469203
0.0469414
0.0469478
0.0469467
0.046945
0.0469429
0.0469383
0.0469359
0.046932
0.0469262
0.0469263
0.0469242
0.0469237
0.0469234
0.0469179
0.046918
0.0469165
0.0469106
0.0469107
0.0469053
0.0469003
0.0469004
0.0468958
0.0468926
0.0468938
0.0468928
0.0468911
0.046891
0.0468899
0.0468936
0.0469156
0.0469543
0.0469952
0.0470145
0.0470309
0.0470602
0.0471035
0.0471628
0.0472465
0.0473629
0.0475029
0.0476739
0.0478893
0.0481652
0.04848
0.0488072
0.049032
0.0492259
0.0495484
0.0505668
0.05287
0.0553665
0.0558292
0.0546109
0.0511823
0.0493362
0.0489799
0.0489457
0.0490075
0.0491133
0.0493586
0.0497683
0.050041
0.0502892
0.0506997
0.0512225
0.0515694
0.0518243
0.0519172
0.0477978
0.0477018
0.0475072
0.047386
0.0472452
0.0471461
0.0470875
0.047055
0.047025
0.0469947
0.0469748
0.0469572
0.0469497
0.046944
0.046943
0.0469389
0.0469389
0.0469354
0.0469312
0.0469311
0.0469267
0.0469221
0.0469222
0.0469186
0.0469164
0.0469277
0.046937
0.0469385
0.0469378
0.0469361
0.046935
0.0469294
0.0469267
0.0469223
0.0469155
0.0469152
0.0469115
0.0469089
0.0469086
0.0469049
0.0469049
0.0469006
0.0468957
0.0468955
0.0468889
0.0468842
0.0468827
0.0468736
0.0468717
0.0468696
0.046867
0.0468802
0.0469244
0.0469434
0.0469449
0.046944
0.0469407
0.0469333
0.0469301
0.0469279
0.0469251
0.046922
0.0469129
0.0469103
0.0469085
0.0469043
0.0469031
0.0469003
0.0469057
0.0469368
0.0469548
0.046956
0.0469552
0.0469515
0.0469467
0.0469405
0.0469273
0.0469247
0.0469244
0.0469149
0.0469119
0.0469118
0.0469032
0.0469005
0.0469004
0.0469
0.0469002
0.0468988
0.0468973
0.0469082
0.0469429
0.046955
0.0469546
0.0469533
0.0469428
0.0469365
0.0469366
0.0469317
0.0469263
0.0469286
0.0469292
0.0469302
0.0469315
0.0469277
0.0469276
0.0469252
0.0469205
0.0469199
0.0469164
0.046914
0.046912
0.0469121
0.046909
0.046904
0.0469035
0.0469016
0.0469008
0.0468961
0.0468885
0.0468942
0.0469218
0.046945
0.0469569
0.0469665
0.0469688
0.0469699
0.046969
0.0469618
0.046962
0.0469596
0.0469513
0.0469512
0.0469465
0.046939
0.0469392
0.0469365
0.0469329
0.0469348
0.0469347
0.0469311
0.046931
0.0469306
0.04693
0.0469286
0.0469264
0.0469336
0.0469457
0.0469479
0.0469476
0.0469477
0.046947
0.0469451
0.0469451
0.0469447
0.0469435
0.0469566
0.0469838
0.0470043
0.0470155
0.0470341
0.0470655
0.0471187
0.0471929
0.0472991
0.0474235
0.0475562
0.0476949
0.0478705
0.0480744
0.0482774
0.0484231
0.0485304
0.048789
0.0496684
0.051729
0.0550769
0.0562474
0.0557492
0.0524928
0.0495491
0.0489319
0.0488744
0.0489869
0.0492878
0.0498828
0.0508294
0.0517483
0.0526486
0.0536994
0.0550092
0.0559107
0.056649
0.0568825
0.047667
0.0475826
0.0474558
0.0473487
0.0472044
0.0471161
0.0470584
0.0470311
0.0470089
0.046986
0.0469685
0.046957
0.0469516
0.0469433
0.046938
0.0469304
0.0469271
0.0469202
0.046912
0.0469043
0.0468982
0.0468942
0.0468907
0.0468795
0.0468763
0.0468752
0.0468749
0.0468726
0.0468721
0.046887
0.0469123
0.04692
0.0469204
0.0469205
0.046918
0.0469104
0.0469101
0.0469029
0.0468978
0.0468959
0.0468896
0.046889
0.0468861
0.0468822
0.0468824
0.0468806
0.0468798
0.0468776
0.0468798
0.0469117
0.0469637
0.0469775
0.0469781
0.0469789
0.0469779
0.0469723
0.0469721
0.0469688
0.0469651
0.0469635
0.0469574
0.0469558
0.0469517
0.046945
0.046944
0.0469371
0.0469309
0.04693
0.0469288
0.0469207
0.0469186
0.0469179
0.0469154
0.0469201
0.0469478
0.0469659
0.0469662
0.0469663
0.0469649
0.0469568
0.0469567
0.0469521
0.0469447
0.0469446
0.0469358
0.0469323
0.046932
0.0469214
0.0469185
0.0469185
0.0469107
0.0469064
0.0469062
0.0469018
0.0468983
0.0468976
0.0468955
0.0468945
0.0468922
0.0468959
0.0469212
0.0469344
0.0469353
0.0469331
0.0469302
0.0469285
0.0469227
0.0469217
0.0469207
0.0469151
0.0469143
0.0469183
0.0469247
0.0469243
0.04692
0.04692
0.0469145
0.0469109
0.0469099
0.0469025
0.0469004
0.0468983
0.0468932
0.0468922
0.0468882
0.0468864
0.0468853
0.0468843
0.046899
0.0469433
0.0469736
0.0469786
0.0469795
0.0469792
0.0469774
0.046978
0.0469749
0.0469765
0.0469765
0.0469689
0.0469693
0.0469692
0.0469664
0.0469663
0.0469634
0.0469635
0.0469627
0.0469559
0.0469561
0.0469528
0.0469459
0.0469459
0.0469393
0.0469355
0.046936
0.0469366
0.0469366
0.0469364
0.0469409
0.0469652
0.0470152
0.0470925
0.0471798
0.047269
0.0473531
0.0474532
0.0475817
0.0477419
0.0479152
0.0481003
0.0482631
0.048349
0.0485023
0.0491236
0.0507775
0.0540991
0.0564001
0.0565233
0.0540196
0.0503151
0.0494562
0.0494527
0.0499951
0.0511851
0.0529531
0.0555017
0.0583089
0.0614281
0.0644171
0.0677419
0.0701041
0.0721113
0.0726912
0.0476608
0.0475665
0.0474579
0.0473585
0.0472521
0.0471397
0.0470656
0.0470331
0.0470117
0.0469826
0.0469687
0.0469532
0.0469512
0.046949
0.0469528
0.0469515
0.0469482
0.0469451
0.0469387
0.0469348
0.0469346
0.0469258
0.046921
0.0469209
0.0469146
0.0469113
0.0469116
0.0469091
0.0469077
0.0469076
0.046905
0.0469054
0.0469173
0.0469275
0.0469279
0.0469279
0.0469255
0.0469203
0.0469194
0.0469148
0.0469146
0.0469134
0.0469134
0.0469246
0.0469325
0.0469316
0.0469317
0.0469489
0.0469721
0.0469759
0.0469746
0.0469744
0.0469697
0.046964
0.0469629
0.0469533
0.0469461
0.046946
0.0469373
0.0469307
0.0469307
0.0469257
0.0469206
0.0469194
0.0469133
0.046912
0.0469071
0.0469002
0.0468996
0.0468972
0.0468929
0.0468905
0.0468904
0.0468866
0.0468857
0.0469007
0.0469161
0.0469188
0.0469195
0.046919
0.0469172
0.046916
0.0469134
0.0469174
0.0469399
0.0469492
0.0469487
0.0469474
0.0469392
0.0469359
0.0469359
0.0469317
0.0469309
0.0469306
0.0469244
0.0469244
0.0469241
0.0469166
0.0469164
0.046913
0.0469087
0.0469083
0.0469069
0.0469058
0.0469046
0.0469043
0.0469219
0.0469468
0.0469505
0.04695
0.0469468
0.046943
0.046941
0.0469341
0.0469302
0.0469266
0.046918
0.0469148
0.0469113
0.0469047
0.0469015
0.0468983
0.0468934
0.0468926
0.04689
0.0468861
0.0468932
0.0469173
0.0469233
0.0469228
0.0469181
0.0469164
0.0469159
0.0469107
0.046911
0.0469106
0.0469029
0.0469037
0.0469025
0.0468958
0.046896
0.0468942
0.046891
0.0468914
0.0468904
0.0468874
0.0468865
0.046884
0.0468871
0.0469109
0.0469549
0.0469737
0.0469801
0.0469823
0.0469822
0.0469798
0.0469802
0.04698
0.0469802
0.046993
0.0470272
0.0470857
0.0471735
0.04727
0.0473548
0.0474334
0.0475342
0.0476662
0.0478187
0.0479928
0.0481512
0.0482588
0.0483766
0.0488022
0.0500252
0.0527949
0.0560798
0.0567785
0.0553779
0.05204
0.0512977
0.0518337
0.0541824
0.0582645
0.0634562
0.0704208
0.0783487
0.0873911
0.0955001
0.103752
0.109269
0.114168
0.115497
0.0476034
0.047502
0.0474017
0.0473147
0.0472013
0.0471138
0.0470353
0.0470052
0.0469884
0.0469797
0.0469687
0.0469659
0.0469776
0.0469769
0.0469739
0.0469739
0.0469682
0.0469617
0.0469614
0.0469548
0.0469488
0.0469486
0.0469411
0.0469366
0.0469363
0.0469355
0.0469345
0.0469302
0.0469265
0.0469239
0.046918
0.0469168
0.0469108
0.0469053
0.0469047
0.0468973
0.0468942
0.0468934
0.0468864
0.0468831
0.0468834
0.0468815
0.04688
0.0468893
0.0469276
0.0469648
0.0469689
0.0469688
0.0469667
0.0469639
0.0469637
0.0469533
0.0469493
0.046949
0.04694
0.0469345
0.0469346
0.0469305
0.0469239
0.0469237
0.0469182
0.0469128
0.0469128
0.0469101
0.0469067
0.046906
0.0469036
0.0469047
0.046919
0.0469277
0.046927
0.0469247
0.0469235
0.0469173
0.0469145
0.0469119
0.0469062
0.0469056
0.0469044
0.0469024
0.0469003
0.0468995
0.0468973
0.0468984
0.0469193
0.0469387
0.0469422
0.0469409
0.0469359
0.0469359
0.0469288
0.0469239
0.0469236
0.0469235
0.0469228
0.0469208
0.0469261
0.0469488
0.0469562
0.0469552
0.0469555
0.0469524
0.0469476
0.0469474
0.0469401
0.0469344
0.0469344
0.0469249
0.0469183
0.0469181
0.0469121
0.0469065
0.0469063
0.0469049
0.046904
0.046902
0.0469055
0.0469336
0.0469617
0.0469644
0.0469608
0.0469606
0.0469569
0.0469527
0.046954
0.0469536
0.0469501
0.0469516
0.0469514
0.0469459
0.0469459
0.0469455
0.0469431
0.0469444
0.0469445
0.0469417
0.0469438
0.0469418
0.0469369
0.0469366
0.0469317
0.0469278
0.0469257
0.046921
0.0469201
0.046916
0.0469156
0.0469333
0.046957
0.0469659
0.0469675
0.0469678
0.0469677
0.0469642
0.0469658
0.0469657
0.0469597
0.0469612
0.0469602
0.0469597
0.0469721
0.0470053
0.0470678
0.0471639
0.047269
0.0473656
0.0474553
0.0475607
0.0477006
0.0478829
0.0480736
0.0482275
0.0483623
0.0486352
0.0494508
0.0514871
0.0552223
0.0569598
0.0567942
0.0552495
0.0552543
0.0585531
0.0667193
0.0788925
0.0930087
0.11092
0.131368
0.154604
0.174242
0.192569
0.20411
0.214567
0.217272
0.0476093
0.0475127
0.0474378
0.0473628
0.0472796
0.0471922
0.0471164
0.0470833
0.0470588
0.0470354
0.0470204
0.0469911
0.0469748
0.0469636
0.0469571
0.0469462
0.0469428
0.0469411
0.0469407
0.0469311
0.046925
0.0469245
0.0469245
0.046923
0.0469212
0.0469208
0.0469181
0.0469189
0.0469338
0.0469467
0.0469507
0.0469529
0.0469536
0.0469525
0.0469447
0.046945
0.0469418
0.0469343
0.0469341
0.0469323
0.0469264
0.0469246
0.0469245
0.0469233
0.0469224
0.0469211
0.0469198
0.0469337
0.0469643
0.0469728
0.0469715
0.046969
0.0469683
0.0469582
0.0469547
0.0469531
0.0469458
0.0469441
0.0469404
0.0469338
0.0469328
0.0469277
0.0469227
0.046922
0.0469186
0.0469111
0.0469105
0.0469093
0.0469077
0.046917
0.0469386
0.0469446
0.0469443
0.0469383
0.0469384
0.0469381
0.0469307
0.046931
0.0469291
0.0469205
0.0469208
0.0469158
0.0469103
0.0469102
0.0469103
0.0469094
0.0469088
0.0469201
0.0469466
0.0469529
0.0469526
0.0469473
0.0469443
0.0469433
0.0469394
0.0469403
0.04694
0.0469331
0.0469332
0.046931
0.0469233
0.0469233
0.0469173
0.0469133
0.0469122
0.0469103
0.0469092
0.0469074
0.0469132
0.0469346
0.0469416
0.0469413
0.0469406
0.0469397
0.046938
0.0469362
0.0469343
0.0469246
0.0469214
0.0469206
0.0469119
0.0469072
0.0469074
0.0469046
0.0469032
0.046914
0.0469269
0.0469275
0.0469275
0.0469259
0.0469253
0.0469446
0.0469722
0.0469768
0.0469758
0.0469738
0.0469693
0.0469569
0.0469532
0.0469529
0.0469431
0.0469371
0.046937
0.0469277
0.0469216
0.0469211
0.0469195
0.0469121
0.0469085
0.0469086
0.0469067
0.0469054
0.0469218
0.0469604
0.0469744
0.0469747
0.0469703
0.0469702
0.046968
0.0469667
0.0469746
0.046993
0.0470349
0.0471044
0.0471953
0.0472992
0.0474168
0.0475486
0.0476985
0.0478778
0.048068
0.0482486
0.0484056
0.0486313
0.0491738
0.0505739
0.0534599
0.0570616
0.0586017
0.0594445
0.0632238
0.0752764
0.0981775
0.130347
0.165441
0.206558
0.252336
0.304018
0.345611
0.380814
0.402051
0.420742
0.425367
0.0476013
0.0475183
0.0474291
0.0473735
0.0472992
0.0472076
0.047123
0.0470657
0.0470287
0.0470109
0.0469977
0.0469776
0.0469534
0.046939
0.0469372
0.0469346
0.0469323
0.0469454
0.0469651
0.0469677
0.0469659
0.0469574
0.0469454
0.0469331
0.0469273
0.0469218
0.0469145
0.0469125
0.0469046
0.0468986
0.046898
0.0468934
0.0468919
0.0468908
0.0468923
0.04691
0.0469231
0.0469236
0.0469238
0.0469233
0.0469236
0.0469294
0.0469303
0.0469288
0.0469241
0.0469226
0.0469182
0.0469115
0.0469111
0.0469048
0.0468982
0.0468976
0.0468949
0.0468934
0.0468923
0.0468919
0.0469064
0.0469295
0.0469331
0.0469327
0.046932
0.0469305
0.0469278
0.0469136
0.046906
0.0469054
0.0469036
0.0469057
0.0469194
0.0469249
0.0469239
0.0469241
0.0469214
0.0469164
0.0469161
0.046907
0.0469025
0.0469025
0.0468991
0.0468957
0.0468969
0.0469096
0.0469207
0.0469216
0.0469207
0.0469188
0.0469147
0.046909
0.0469043
0.0468987
0.0468877
0.0468845
0.0468838
0.0468832
0.0468821
0.0468807
0.0468908
0.0469122
0.0469159
0.0469158
0.0469126
0.0469081
0.0469064
0.0468997
0.0468991
0.0468965
0.046893
0.0468922
0.0468888
0.0468927
0.0469179
0.0469304
0.0469321
0.0469308
0.0469278
0.0469267
0.0469203
0.0469177
0.0469146
0.0469072
0.0469058
0.0469008
0.0468951
0.0468932
0.0468911
0.0468903
0.0468884
0.0468929
0.0469185
0.0469348
0.0469354
0.0469349
0.0469315
0.0469283
0.0469262
0.0469177
0.046915
0.046911
0.0469025
0.0469008
0.0468931
0.0468855
0.0468846
0.0468754
0.0468679
0.0468667
0.0468664
0.0468658
0.0468638
0.0468685
0.0468968
0.0469408
0.0469603
0.0469704
0.0469812
0.046986
0.0469859
0.0469826
0.0469827
0.0469813
0.0469809
0.0469876
0.0470052
0.0470409
0.0470969
0.0471806
0.0473117
0.0474779
0.0476497
0.0478336
0.0480426
0.0482618
0.0484678
0.0486739
0.0490245
0.0498165
0.0517085
0.0553042
0.0602272
0.066848
0.0795784
0.109019
0.164172
0.240861
0.319472
0.400034
0.484099
0.580038
0.655433
0.712119
0.745611
0.772337
0.778819
0.0475524
0.0474969
0.0473989
0.0473573
0.0472786
0.0472277
0.0471427
0.0470979
0.0470608
0.0470457
0.0470321
0.0470045
0.0469739
0.0469618
0.046958
0.0469549
0.0469454
0.0469446
0.0469595
0.0469805
0.0469827
0.0469809
0.0469746
0.046968
0.0469544
0.0469449
0.0469417
0.0469335
0.0469248
0.0469232
0.0469142
0.0469064
0.0469059
0.0469036
0.046897
0.0468946
0.0468941
0.0468895
0.0468883
0.0468868
0.0468839
0.0468903
0.0469154
0.0469313
0.0469359
0.0469368
0.046936
0.0469342
0.0469338
0.0469315
0.046931
0.046924
0.0469188
0.0469174
0.0469119
0.0469102
0.0469067
0.0469003
0.0469004
0.0469008
0.0468981
0.0468982
0.046897
0.0468955
0.0469023
0.0469356
0.0469577
0.0469593
0.0469585
0.0469566
0.0469491
0.0469453
0.0469426
0.0469342
0.0469319
0.0469284
0.046919
0.0469175
0.046916
0.0469138
0.0469126
0.0469122
0.0469202
0.0469295
0.0469302
0.0469293
0.0469251
0.0469201
0.0469193
0.0469176
0.0469166
0.0469159
0.0469159
0.0469322
0.0469571
0.046963
0.0469637
0.046964
0.0469639
0.0469568
0.0469565
0.0469561
0.0469558
0.0469553
0.0469489
0.046949
0.0469445
0.0469378
0.0469381
0.0469346
0.0469312
0.0469316
0.0469319
0.0469275