/*--------------------------------*- C++ -*----------------------------------*\
| =========                 |                                                 |
| \\      /  F ield         | OpenFOAM: The Open Source CFD Toolbox           |
|  \\    /   O peration     | Version:  4.1                                   |
|   \\  /    A nd           | Web:      www.OpenFOAM.org                      |
|    \\/     M anipulation  |                                                 |
\*---------------------------------------------------------------------------*/
FoamFile
{
    version     2.0;
    format      ascii;
    class       volScalarField;
    location    "1";
    object      p;
}
// * * * * * * * * * * * * * * * * * * * * * * * * * * * * * * * * * * * * * //

dimensions      [0 2 -2 0 0 0 0];

internalField   nonuniform List<scalar> 
204246
(
-82.3931
-82.3588
-77.1055
-71.9659
-67.7708
-64.3093
-61.4502
-59.3584
-57.8648
-56.5265
-55.5999
-54.6271
-53.8668
-53.1705
-52.6236
-52.2299
-52.1291
-51.9613
-51.4996
-51.3079
-51.0425
-50.8367
-50.6064
-50.4241
-50.244
-50.1069
-49.9861
-49.9054
-49.7949
-49.7206
-49.6029
-49.4929
-49.3526
-49.2801
-49.0866
-49.2926
-49.4891
-49.1893
-49.2007
-49.137
-49.0612
-48.9372
-48.8895
-48.8424
-48.8064
-48.7423
-48.6771
-48.6086
-48.6618
-48.4033
-48.2882
-48.2646
-48.4769
-48.6724
-48.3704
-48.3925
-48.3498
-48.2789
-48.1682
-48.1132
-48.0554
-48.005
-47.9371
-47.9335
-47.9094
-47.9118
-47.6586
-47.5245
-47.5018
-47.7151
-47.9696
-47.7574
-47.7283
-47.6392
-47.5562
-47.4319
-47.3802
-47.336
-47.2911
-47.2174
-47.1949
-47.1717
-47.1199
-46.9461
-46.7995
-46.7485
-46.9048
-47.1398
-46.954
-47.0127
-46.8286
-46.8479
-46.7868
-46.7529
-46.6216
-46.623
-46.5705
-46.5518
-46.512
-46.5115
-46.4601
-46.3743
-46.2438
-46.1656
-46.217
-46.4221
-46.483
-46.2641
-46.2466
-46.2025
-46.1856
-46.1075
-46.0583
-45.9651
-45.9004
-45.8828
-45.9358
-45.9231
-45.8381
-45.6726
-45.5567
-45.5549
-45.7725
-45.9129
-45.671
-45.6653
-45.5879
-45.5516
-45.4846
-45.4122
-45.2755
-45.3782
-45.2915
-45.2339
-45.2069
-45.2214
-45.1233
-44.9874
-44.8368
-45.1553
-45.2661
-45.1041
-45.1789
-44.9624
-45.0477
-44.8026
-44.8781
-44.6605
-44.6021
-44.501
-44.411
-44.2904
-44.1427
-43.913
-43.7202
-43.6107
-43.518
-43.2547
-42.8508
-42.5022
-41.9709
-41.4428
-40.9013
-40.6071
-40.6924
-41.5864
-43.5376
-47.2172
-52.9105
-60.6491
-69.2608
-76.3984
-77.3225
-74.5622
-68.9719
-61.142
-53.8108
-45.9783
-38.4456
-30.9178
-21.0499
-8.7109
6.09136
23.3535
42.3849
62.7558
84.8623
110.14
139.69
178.983
238.442
332.004
457.109
-98.6666
-87.6211
-79.8617
-74.0509
-69.5955
-65.9588
-63.1008
-60.836
-58.9853
-57.6099
-56.5147
-55.4498
-54.4701
-53.6902
-53.094
-52.6967
-52.3263
-52.0061
-51.743
-51.5201
-51.3397
-51.1329
-50.9128
-50.7057
-50.5274
-50.3932
-50.2641
-50.1978
-50.1028
-50.0224
-49.9139
-49.8111
-49.6813
-49.5562
-49.4726
-49.5579
-49.61
-49.5657
-49.5003
-49.447
-49.3745
-49.3186
-49.2763
-49.2026
-49.1861
-49.0707
-48.9697
-48.9103
-48.8949
-48.7897
-48.6658
-48.6219
-48.7555
-48.8147
-48.7618
-48.6951
-48.6546
-48.5899
-48.5406
-48.4967
-48.4184
-48.3493
-48.2729
-48.225
-48.1693
-48.1272
-48.0396
-47.9181
-47.8346
-47.9562
-48.0717
-48.1214
-48.0633
-47.9987
-47.9069
-47.8484
-47.8165
-47.7382
-47.6576
-47.552
-47.4957
-47.4461
-47.3996
-47.2897
-47.2214
-47.1645
-47.2198
-47.2806
-47.2737
-47.2441
-47.2277
-47.2051
-47.2089
-47.1267
-47.0328
-46.9344
-46.8754
-46.8646
-46.8121
-46.7867
-46.7539
-46.7207
-46.6311
-46.5521
-46.5572
-46.6765
-46.7189
-46.6849
-46.6152
-46.6252
-46.5586
-46.4994
-46.4281
-46.3207
-46.2449
-46.1958
-46.2003
-46.1692
-46.196
-46.1065
-46.0006
-45.918
-46.0409
-46.1253
-46.1078
-46.0413
-46
-45.9288
-45.8439
-45.7528
-45.6775
-45.6558
-45.6128
-45.5756
-45.5706
-45.593
-45.509
-45.4322
-45.3417
-45.3834
-45.4312
-45.428
-45.3566
-45.3377
-45.3093
-45.2709
-45.1674
-45.0524
-44.9634
-44.9076
-44.8956
-44.8322
-44.7288
-44.582
-44.5062
-44.4305
-44.3173
-44.1315
-43.9188
-43.6123
-43.2144
-42.7821
-42.3178
-41.801
-41.4422
-41.6956
-43.1003
-46.4329
-52.6862
-61.6946
-71.9373
-79.1901
-82.106
-82.7965
-77.9753
-71.4
-63.8972
-56.5205
-50.6382
-43.5561
-35.1802
-25.1665
-12.9118
1.20736
16.9899
34.4851
53.2066
73.2982
95.1586
120.66
156.756
222.94
321.331
-96.0585
-86.2662
-78.8626
-73.4599
-69.0371
-65.5182
-62.6943
-60.4944
-58.8197
-57.4482
-56.2576
-55.3135
-54.4632
-53.7258
-53.1723
-52.6961
-52.3053
-51.9791
-51.6887
-51.3908
-51.1593
-50.9624
-50.7193
-50.4736
-50.257
-50.0614
-49.8876
-49.7449
-49.6498
-49.5763
-49.5335
-49.4671
-49.3648
-49.2441
-49.1253
-49.0192
-48.9801
-48.9706
-48.9973
-48.9522
-48.8668
-48.7602
-48.6689
-48.6178
-48.5924
-48.5785
-48.5438
-48.505
-48.4507
-48.3831
-48.2963
-48.223
-48.1539
-48.151
-48.1587
-48.192
-48.1393
-48.0606
-47.972
-47.912
-47.8537
-47.7974
-47.7757
-47.7616
-47.7373
-47.6844
-47.6259
-47.5581
-47.4905
-47.4077
-47.4213
-47.4361
-47.4798
-47.4216
-47.3353
-47.2259
-47.1509
-47.1115
-47.079
-47.057
-47.0294
-46.9937
-46.9343
-46.8438
-46.7759
-46.7392
-46.6524
-46.6087
-46.6222
-46.5702
-46.5661
-46.6095
-46.5562
-46.5265
-46.4555
-46.4426
-46.4263
-46.3836
-46.3568
-46.2977
-46.2025
-46.1022
-46.0851
-46.0727
-46.1064
-46.1071
-46.0706
-45.9798
-45.9291
-45.8212
-45.8742
-45.8953
-45.8682
-45.8202
-45.7562
-45.682
-45.6305
-45.6122
-45.57
-45.557
-45.5629
-45.5387
-45.4395
-45.3875
-45.3473
-45.3461
-45.3253
-45.3299
-45.2672
-45.1978
-45.1396
-45.0927
-45.0521
-44.9882
-44.9271
-44.9173
-44.9526
-44.937
-44.9082
-44.9136
-44.9011
-44.873
-44.9016
-44.8116
-44.8025
-44.7534
-44.6991
-44.6441
-44.5558
-44.4243
-44.2686
-44.1664
-44.0796
-44.0274
-43.9672
-43.8718
-43.7434
-43.6038
-43.4554
-43.3079
-43.1751
-43.0274
-42.9293
-42.9601
-43.2502
-43.9328
-45.3087
-47.922
-52.6771
-59.8871
-68.6431
-76.6283
-81.4073
-81.4161
-79.6686
-73.0886
-63.7398
-55.2955
-47.6846
-39.8499
-32.286
-23.2825
-12.0535
1.29734
16.8652
34.3661
53.0216
72.1381
92.1589
114.058
143.295
186.876
244.237
-86.7646
-81.2697
-76.5684
-72.4305
-68.657
-65.5557
-63.0304
-60.9542
-59.2579
-57.8854
-56.6616
-55.7103
-54.7913
-53.9932
-53.4998
-53.0283
-52.6271
-52.2741
-51.9471
-51.6915
-51.4753
-51.3092
-51.1598
-51.0261
-50.8884
-50.7613
-50.6109
-50.5057
-50.4014
-50.3218
-50.2269
-50.125
-50.0307
-49.9734
-49.9303
-49.9689
-49.9347
-49.8644
-49.7991
-49.776
-49.7284
-49.6962
-49.6671
-49.618
-49.5271
-49.4144
-49.3155
-49.2428
-49.1919
-49.1332
-49.1161
-49.0969
-49.1558
-49.1481
-49.1
-49.0088
-48.9819
-48.9415
-48.935
-48.8946
-48.8657
-48.796
-48.6823
-48.5684
-48.4779
-48.4221
-48.3629
-48.3394
-48.3053
-48.337
-48.3725
-48.4147
-48.3858
-48.356
-48.2862
-48.2659
-48.2291
-48.183
-48.075
-47.9661
-47.8699
-47.7954
-47.7378
-47.6914
-47.6717
-47.6464
-47.7121
-47.7395
-47.6533
-47.5912
-47.5287
-47.4922
-47.6003
-47.5333
-47.4716
-47.3394
-47.2642
-47.2017
-47.1399
-47.1124
-47.0654
-47.0229
-46.9432
-46.9242
-46.9025
-47.1052
-47.2743
-47.2421
-47.1022
-47.0803
-46.9178
-46.8615
-46.7519
-46.6998
-46.6478
-46.576
-46.5413
-46.5015
-46.4653
-46.4023
-46.4117
-46.4368
-46.5152
-46.5629
-46.5466
-46.4542
-46.4034
-46.3042
-46.2566
-46.1752
-46.1035
-46.0526
-46.0058
-45.9614
-45.9349
-45.8789
-45.8305
-45.7967
-45.7574
-45.8173
-45.8443
-45.7863
-45.6386
-45.6214
-45.5984
-45.5748
-45.5346
-45.4837
-45.449
-45.3716
-45.2608
-45.1427
-45.0162
-44.9007
-44.8085
-44.7184
-44.6174
-44.5073
-44.3611
-44.196
-44.0229
-43.88
-43.8175
-44.1006
-44.773
-45.8189
-47.6139
-50.6069
-55.4463
-62.4596
-70.9406
-78.9483
-85.1909
-87.9522
-86.522
-81.658
-74.4567
-66.6996
-59.8168
-53.1427
-45.8181
-37.2945
-27.1913
-15.3439
-1.93352
12.8783
28.7899
45.7265
64.0278
85.9073
114.24
149.771
188.407
-75.7026
-73.6324
-71.2285
-68.6983
-66.1539
-63.7238
-61.615
-59.8656
-58.3577
-57.1168
-56.058
-55.1587
-54.4029
-53.6678
-53.0883
-52.6818
-52.3706
-52.0031
-51.5727
-51.1988
-50.9725
-50.8151
-50.6193
-50.3611
-50.1471
-49.9676
-49.7389
-49.5431
-49.4227
-49.3302
-49.3346
-49.2909
-49.187
-49.0531
-48.9074
-48.7257
-48.6805
-48.6891
-48.6862
-48.6297
-48.5746
-48.4799
-48.3867
-48.3392
-48.318
-48.3248
-48.3209
-48.2933
-48.2244
-48.1647
-48.0694
-47.974
-47.8348
-47.8302
-47.8808
-47.9203
-47.8412
-47.7681
-47.6668
-47.5971
-47.5605
-47.535
-47.5515
-47.554
-47.5262
-47.4615
-47.4249
-47.349
-47.2772
-47.1123
-47.0707
-47.0856
-47.1452
-47.0875
-47.0108
-46.8947
-46.8558
-46.824
-46.797
-46.7919
-46.7906
-46.7609
-46.7042
-46.6206
-46.5385
-46.4764
-46.27
-46.1767
-46.2856
-46.2128
-46.2078
-46.1671
-46.1018
-46.1982
-46.1826
-46.1994
-46.1669
-46.1526
-46.1176
-46.0661
-45.9799
-45.8792
-45.8414
-45.7898
-45.7838
-45.6087
-45.5501
-45.5854
-45.5347
-45.4592
-45.5735
-45.5803
-45.6298
-45.5998
-45.5841
-45.5329
-45.4286
-45.3253
-45.2088
-45.1561
-45.0992
-45.1651
-45.0982
-45.0049
-44.9979
-45.0154
-44.9942
-45.0387
-44.9609
-44.9315
-44.8585
-44.8206
-44.7205
-44.674
-44.6517
-44.6485
-44.6879
-44.6626
-44.6244
-44.6013
-44.692
-44.7584
-44.7728
-44.6098
-44.5235
-44.5615
-44.5788
-44.5582
-44.5226
-44.4774
-44.3729
-44.2711
-44.2187
-44.2249
-44.2415
-44.2455
-44.2663
-44.2931
-44.3103
-44.3294
-44.3815
-44.4947
-44.7355
-45.1127
-45.7503
-46.8533
-48.6177
-51.3103
-55.3763
-61.072
-68.1238
-75.5279
-82.259
-86.5273
-86.8285
-84.4036
-78.1315
-70.478
-62.2744
-54.7258
-47.5755
-40.1324
-31.2171
-20.6062
-8.89015
3.57747
16.8833
30.9017
46.2613
64.8125
88.4194
116.89
145.04
-65.6737
-65.5558
-65.2782
-64.417
-63.1931
-61.8129
-60.3381
-59.1018
-57.8983
-56.7445
-55.8726
-55.0721
-54.4531
-53.8289
-53.3134
-52.9378
-52.6622
-52.3618
-52.018
-51.7282
-51.5029
-51.3855
-51.2143
-51.1686
-51.0405
-50.9651
-50.8505
-50.7546
-50.635
-50.5724
-50.4906
-50.4261
-50.3455
-50.2891
-50.2375
-50.2972
-50.2818
-50.2069
-50.0969
-50.0616
-50.0243
-50.0085
-49.9975
-49.9491
-49.836
-49.708
-49.6053
-49.537
-49.5059
-49.46
-49.4572
-49.4488
-49.4994
-49.4571
-49.3771
-49.3074
-49.3218
-49.2756
-49.2554
-49.2345
-49.2163
-49.1127
-48.9797
-48.8657
-48.7762
-48.7207
-48.6531
-48.6676
-48.6699
-48.7447
-48.7314
-48.6909
-48.6262
-48.6648
-48.6297
-48.6225
-48.5855
-48.5631
-48.4435
-48.2954
-48.1632
-48.0889
-48.0648
-48.0458
-48.0494
-48.0407
-48.1566
-48.1643
-48.0213
-47.9759
-47.9099
-47.873
-47.9344
-47.8574
-47.8713
-47.732
-47.5898
-47.4875
-47.4036
-47.3664
-47.3429
-47.3301
-47.2669
-47.2869
-47.2771
-47.4977
-47.6277
-47.5941
-47.5758
-47.5405
-47.2945
-47.1878
-47.0457
-47.0038
-46.967
-46.9274
-46.9062
-46.8684
-46.8387
-46.7538
-46.7451
-46.6715
-46.8381
-47.0027
-46.9992
-46.828
-46.7416
-46.6103
-46.6083
-46.5629
-46.514
-46.4473
-46.3893
-46.2939
-46.2468
-46.1963
-46.1567
-46.1287
-46.0935
-46.1153
-46.1008
-46.0766
-45.9591
-45.9389
-45.9052
-45.8435
-45.8121
-45.7484
-45.6688
-45.6139
-45.559
-45.3801
-45.1187
-44.9162
-44.8515
-44.834
-44.8231
-44.8209
-44.8121
-44.81
-44.8514
-45.0297
-45.3613
-45.8755
-46.6947
-47.9438
-49.771
-52.3837
-56.1594
-61.3926
-68.0308
-75.5206
-82.974
-88.8995
-91.9018
-90.0842
-84.8899
-78.6853
-71.0808
-63.6627
-56.76
-49.6256
-41.3047
-31.4608
-20.8113
-9.59811
2.51982
15.488
29.4632
45.8632
65.6574
88.5112
110.033
-56.7315
-57.9205
-58.9105
-59.2913
-59.1277
-58.6063
-57.88
-57.0833
-56.3046
-55.427
-54.746
-54.1175
-53.6222
-53.1134
-52.6095
-52.2808
-52.0483
-51.7806
-51.3937
-50.9956
-50.6904
-50.5329
-50.4787
-50.301
-50.0865
-49.8596
-49.6074
-49.3572
-49.2274
-49.1311
-49.1544
-49.1012
-49.0005
-48.8681
-48.7114
-48.4963
-48.4319
-48.465
-48.4905
-48.4184
-48.3559
-48.2574
-48.1645
-48.1236
-48.1269
-48.1399
-48.137
-48.1135
-48.0496
-47.9963
-47.8893
-47.7921
-47.6339
-47.619
-47.65
-47.6817
-47.6216
-47.5719
-47.4708
-47.397
-47.3498
-47.3597
-47.383
-47.3933
-47.3714
-47.2962
-47.2385
-47.1186
-47.0555
-46.9001
-46.8707
-46.8888
-46.9116
-46.7939
-46.7403
-46.6462
-46.6202
-46.5997
-46.6038
-46.6261
-46.6373
-46.6093
-46.5388
-46.4544
-46.3464
-46.2731
-46.0802
-45.9262
-46.025
-45.9369
-45.9301
-45.8911
-45.824
-45.9472
-45.9647
-46.0221
-46.0027
-45.9885
-45.9813
-45.9245
-45.7864
-45.6301
-45.5689
-45.4981
-45.5236
-45.3349
-45.2779
-45.336
-45.2842
-45.2226
-45.3852
-45.3741
-45.41
-45.3698
-45.3968
-45.3537
-45.2849
-45.1475
-44.9741
-44.9215
-44.8565
-44.854
-44.661
-44.6368
-44.7829
-44.8245
-44.7074
-44.7355
-44.6897
-44.6808
-44.6362
-44.6554
-44.5849
-44.5437
-44.4213
-44.4131
-44.4468
-44.4563
-44.4829
-44.4131
-44.4886
-44.5634
-44.6151
-44.493
-44.4633
-44.5209
-44.5707
-44.5784
-44.5605
-44.5874
-44.6148
-44.6019
-44.498
-44.4118
-44.4313
-44.5368
-44.657
-44.8019
-44.9603
-45.1026
-45.2997
-45.5484
-45.8888
-46.4431
-47.316
-48.6031
-50.4468
-52.9935
-56.4762
-61.1379
-66.9945
-73.6742
-80.5313
-86.5646
-90.645
-91.4404
-88.5174
-83.2797
-76.6442
-69.6977
-63.0676
-56.4791
-48.9794
-40.3702
-31.3159
-21.7673
-11.0621
0.754061
13.5694
28.2109
45.1715
63.9951
81.0853
-48.9917
-50.92
-52.761
-54.1219
-54.8905
-55.3777
-55.416
-55.1525
-54.8862
-54.3661
-53.9415
-53.553
-53.2496
-52.9221
-52.5721
-52.3618
-52.2372
-52.0837
-51.8287
-51.5696
-51.3784
-51.2408
-51.1338
-51.1104
-50.9998
-50.974
-50.9015
-50.8734
-50.7397
-50.7584
-50.6608
-50.6435
-50.5544
-50.5357
-50.4908
-50.5556
-50.5157
-50.4074
-50.3106
-50.2988
-50.265
-50.2509
-50.2464
-50.2005
-50.0838
-49.9444
-49.8324
-49.7532
-49.7253
-49.7058
-49.7415
-49.7319
-49.7934
-49.7323
-49.6239
-49.5297
-49.5441
-49.4991
-49.4894
-49.4807
-49.4577
-49.34
-49.205
-49.0997
-49.01
-48.9465
-48.8907
-48.946
-48.9423
-49.0114
-48.972
-48.9146
-48.8694
-48.9371
-48.8936
-48.8993
-48.865
-48.8415
-48.6931
-48.5255
-48.3905
-48.3353
-48.3165
-48.3005
-48.3148
-48.3072
-48.4274
-48.4974
-48.3207
-48.3256
-48.22
-48.1476
-48.1836
-48.0906
-48.1176
-47.9716
-47.8218
-47.7019
-47.6627
-47.6295
-47.6062
-47.5959
-47.5152
-47.5372
-47.5401
-47.7936
-47.9417
-47.9335
-47.9712
-47.8676
-47.5633
-47.4339
-47.2953
-47.2584
-47.2228
-47.2105
-47.2004
-47.1687
-47.1403
-47.0336
-47.0301
-46.959
-47.1234
-47.2183
-47.1638
-47.2365
-47.2348
-46.9731
-46.9301
-46.8013
-46.7628
-46.7042
-46.6325
-46.5307
-46.4831
-46.397
-46.3745
-46.2627
-46.204
-46.3523
-46.3934
-46.3663
-46.1945
-46.1528
-46.1078
-46.0705
-46.0025
-45.869
-45.7443
-45.6977
-45.7202
-45.6191
-45.3342
-45.0153
-44.8921
-44.9213
-44.9864
-45.0598
-45.1763
-45.3368
-45.5371
-45.838
-46.2556
-46.8589
-47.7413
-49.011
-50.8035
-53.2052
-56.4134
-60.6806
-66.0753
-72.3749
-79.1576
-85.7058
-91.0123
-93.931
-93.0787
-88.6107
-83.2525
-76.8983
-70.4495
-63.9397
-56.8295
-49.1194
-41.3514
-33.2158
-23.8301
-13.116
-1.42302
11.662
26.4683
42.4262
56.4924
-42.2835
-44.7738
-47.1372
-49.087
-50.5109
-51.6721
-52.3048
-52.5413
-52.683
-52.5369
-52.396
-52.2247
-52.0786
-51.8972
-51.6243
-51.4299
-51.2889
-51.1641
-50.9732
-50.7419
-50.511
-50.2957
-50.1644
-50.0731
-49.9574
-49.7609
-49.5043
-49.2292
-49.0691
-48.9455
-48.9889
-48.9459
-48.8384
-48.7074
-48.5694
-48.3576
-48.2963
-48.3199
-48.3352
-48.27
-48.2144
-48.1193
-48.0308
-48.0002
-48.0095
-48.0258
-48.0237
-48.0014
-47.9173
-47.8405
-47.739
-47.6741
-47.5408
-47.5219
-47.5321
-47.552
-47.4951
-47.4604
-47.3626
-47.2959
-47.2496
-47.2661
-47.2884
-47.2988
-47.2877
-47.2076
-47.1107
-46.9683
-46.9315
-46.8
-46.7578
-46.7165
-46.7008
-46.5983
-46.587
-46.5112
-46.4808
-46.4532
-46.4965
-46.5326
-46.5499
-46.5254
-46.4471
-46.3409
-46.2132
-46.1437
-45.9321
-45.7906
-45.8584
-45.7762
-45.7941
-45.7577
-45.6764
-45.8195
-45.8557
-45.9169
-45.8872
-45.8568
-45.8149
-45.8005
-45.6797
-45.4905
-45.3918
-45.2741
-45.3344
-45.1464
-45.0963
-45.1723
-45.1344
-45.1161
-45.301
-45.2882
-45.3142
-45.259
-45.2854
-45.2357
-45.1868
-45.0538
-44.8744
-44.7857
-44.655
-44.6855
-44.4752
-44.4064
-44.5099
-44.5175
-44.4652
-44.6272
-44.5989
-44.5998
-44.5134
-44.5687
-44.5369
-44.5337
-44.4369
-44.3072
-44.2778
-44.2968
-44.3276
-44.2411
-44.3362
-44.4785
-44.5977
-44.4565
-44.4219
-44.5235
-44.6203
-44.6714
-44.6958
-44.7486
-44.7854
-44.7918
-44.742
-44.685
-44.6629
-44.746
-44.8913
-45.0634
-45.2853
-45.5171
-45.7671
-46.0931
-46.5496
-47.1774
-48.0522
-49.2781
-50.9765
-53.2324
-56.2099
-60.1284
-65.081
-70.9284
-77.4161
-84.0254
-89.894
-94.0692
-95.5053
-92.4115
-88.5567
-83.2617
-77.5959
-71.6289
-64.9529
-57.7931
-50.9033
-43.9607
-35.8258
-26.2336
-15.6384
-3.86328
9.27464
23.1134
35.0603
-36.2946
-39.2489
-42.0441
-44.4534
-46.2903
-47.9121
-49.1479
-49.9725
-50.6263
-50.8732
-51.0654
-51.2133
-51.3269
-51.3708
-51.3108
-51.269
-51.2979
-51.339
-51.2811
-51.1678
-51.0609
-50.9632
-50.893
-50.8916
-50.8609
-50.8364
-50.813
-50.8508
-50.7821
-50.7754
-50.7212
-50.7722
-50.678
-50.6737
-50.6248
-50.6692
-50.6602
-50.5792
-50.4518
-50.4258
-50.3863
-50.3917
-50.3994
-50.3497
-50.2283
-50.0864
-49.9845
-49.9277
-49.9242
-49.8787
-49.8789
-49.871
-49.9589
-49.9393
-49.8349
-49.6923
-49.6609
-49.6195
-49.6325
-49.6313
-49.6069
-49.4851
-49.3421
-49.2267
-49.1562
-49.1251
-49.0558
-49.0795
-49.0939
-49.1697
-49.1789
-49.1591
-49.0591
-49.0846
-49.0273
-49.0326
-49.0044
-48.9776
-48.8376
-48.6777
-48.5454
-48.4912
-48.4764
-48.4668
-48.4894
-48.4868
-48.6245
-48.6518
-48.4837
-48.486
-48.39
-48.3428
-48.3613
-48.2362
-48.2455
-48.1129
-47.9765
-47.8625
-47.842
-47.8225
-47.7961
-47.7869
-47.6938
-47.7113
-47.6819
-47.9279
-48.1272
-48.1507
-48.1931
-48.0602
-47.7303
-47.5839
-47.4459
-47.4233
-47.3904
-47.3766
-47.3797
-47.3801
-47.3903
-47.2903
-47.2557
-47.1286
-47.3066
-47.3964
-47.3532
-47.3947
-47.4128
-47.1471
-47.0423
-46.8807
-46.8987
-46.8277
-46.7832
-46.7286
-46.6764
-46.5972
-46.4838
-46.4144
-46.3709
-46.4912
-46.5331
-46.4927
-46.3092
-46.3143
-46.2474
-46.1472
-46.0795
-46.008
-45.9158
-45.7979
-45.7281
-45.6684
-45.558
-45.3192
-45.1109
-45.0574
-45.129
-45.2436
-45.4006
-45.6197
-45.884
-46.2162
-46.6681
-47.2934
-48.1233
-49.2616
-50.854
-52.9821
-55.7578
-59.3763
-63.9689
-69.4581
-75.6901
-82.3244
-88.6804
-93.9084
-97.0614
-96.176
-93.164
-88.8366
-84.0357
-78.8744
-72.9293
-66.4638
-60.3158
-54.2806
-47.1562
-38.5615
-29.0494
-18.4888
-6.70093
5.55873
15.9798
-31.1574
-34.3093
-37.386
-40.1862
-42.3752
-44.3382
-45.9353
-47.1619
-48.193
-48.7656
-49.2054
-49.6046
-49.8977
-50.0911
-50.1158
-50.1171
-50.1844
-50.297
-50.3148
-50.2122
-50.0507
-49.8783
-49.8353
-49.823
-49.7485
-49.5804
-49.3592
-49.1055
-48.924
-48.7745
-48.8235
-48.7964
-48.7519
-48.6354
-48.5013
-48.2702
-48.2093
-48.2511
-48.2928
-48.2091
-48.1404
-48.0574
-48.004
-47.9924
-47.9748
-47.9735
-47.9653
-47.9446
-47.8764
-47.8215
-47.7189
-47.6386
-47.4811
-47.4715
-47.5156
-47.5525
-47.4725
-47.4227
-47.3188
-47.2886
-47.2726
-47.2574
-47.2657
-47.2746
-47.2628
-47.1895
-47.1018
-46.9376
-46.8804
-46.7186
-46.6847
-46.6685
-46.6708
-46.5619
-46.5643
-46.4931
-46.4557
-46.4251
-46.4722
-46.5127
-46.5333
-46.5076
-46.4277
-46.3039
-46.1545
-46.0833
-45.8907
-45.7403
-45.791
-45.7091
-45.7499
-45.7289
-45.6472
-45.7953
-45.8338
-45.8918
-45.8572
-45.8294
-45.794
-45.7988
-45.677
-45.4836
-45.36
-45.196
-45.2427
-45.0599
-45.0204
-45.1229
-45.1406
-45.1289
-45.3041
-45.2772
-45.2908
-45.2298
-45.2601
-45.2186
-45.1628
-45.0182
-44.8618
-44.8028
-44.6619
-44.6457
-44.394
-44.3031
-44.4162
-44.4545
-44.4404
-44.6362
-44.6152
-44.5985
-44.5008
-44.6097
-44.5783
-44.5698
-44.4612
-44.3392
-44.2675
-44.1918
-44.2433
-44.1791
-44.2717
-44.4645
-44.6044
-44.4485
-44.4436
-44.5711
-44.7168
-44.8141
-44.8537
-44.8886
-44.8939
-44.9042
-44.9013
-44.8762
-44.8478
-44.8884
-45.017
-45.2075
-45.4205
-45.6598
-45.951
-46.3053
-46.7942
-47.4117
-48.1576
-49.1575
-50.6013
-52.5496
-55.0794
-58.3723
-62.582
-67.6959
-73.6469
-80.2541
-86.9757
-92.9769
-97.4239
-99.3209
-96.8403
-93.9471
-89.9407
-85.5177
-80.362
-74.8007
-69.5156
-64.2772
-57.9712
-50.2709
-41.7918
-32.3147
-21.6469
-10.6128
-1.32929
-26.8473
-30.1057
-33.2855
-36.2948
-38.8118
-41.0539
-42.9472
-44.4463
-45.7704
-46.7096
-47.5154
-48.2406
-48.8184
-49.2676
-49.5824
-49.7932
-50.0225
-50.2823
-50.4373
-50.4799
-50.4928
-50.4746
-50.4761
-50.5445
-50.5815
-50.6107
-50.6327
-50.6719
-50.6865
-50.6996
-50.6789
-50.6833
-50.5911
-50.6236
-50.6232
-50.6788
-50.6771
-50.6227
-50.5004
-50.4679
-50.4268
-50.4343
-50.4537
-50.416
-50.2953
-50.1452
-50.0387
-49.9789
-49.97
-49.9249
-49.9444
-49.9471
-50.0386
-50.0209
-49.9092
-49.7515
-49.7008
-49.66
-49.6868
-49.6963
-49.6815
-49.5578
-49.4089
-49.2866
-49.2214
-49.204
-49.1563
-49.19
-49.1802
-49.2392
-49.2555
-49.24
-49.1257
-49.1256
-49.0555
-49.0608
-49.0433
-49.0133
-48.8773
-48.7314
-48.6137
-48.578
-48.5649
-48.5492
-48.5643
-48.5551
-48.7061
-48.749
-48.5545
-48.5334
-48.4341
-48.4243
-48.4321
-48.2805
-48.27
-48.1549
-48.0291
-47.9201
-47.9113
-47.9092
-47.905
-47.8972
-47.7882
-47.7783
-47.7067
-47.9448
-48.1237
-48.1249
-48.2184
-48.1391
-47.8086
-47.6398
-47.4869
-47.4716
-47.4571
-47.4593
-47.4683
-47.4793
-47.4979
-47.4054
-47.3636
-47.2206
-47.3714
-47.4323
-47.3467
-47.3678
-47.4314
-47.2196
-47.0821
-46.9082
-46.9007
-46.8336
-46.811
-46.8045
-46.7775
-46.7237
-46.601
-46.5119
-46.3959
-46.5139
-46.5664
-46.5251
-46.3619
-46.3892
-46.2389
-46.1508
-46.1487
-46.111
-46.0192
-45.8882
-45.8224
-45.7862
-45.7192
-45.5298
-45.3524
-45.2772
-45.3058
-45.4174
-45.576
-45.7454
-45.9503
-46.2919
-46.7945
-47.3933
-48.073
-48.9639
-50.259
-52.0196
-54.3058
-57.273
-61.092
-65.8168
-71.4219
-77.8437
-84.7683
-91.4659
-97.1272
-100.726
-100.09
-98.5067
-95.2758
-91.6113
-87.3448
-82.6777
-78.1946
-73.7528
-68.3632
-61.624
-54.0265
-45.4269
-35.7277
-25.7078
-17.2904
-23.1913
-26.4954
-29.7075
-32.7779
-35.4722
-37.8916
-40.0278
-41.7865
-43.3256
-44.4993
-45.5061
-46.4347
-47.1855
-47.7666
-48.189
-48.5259
-48.858
-49.1945
-49.3674
-49.3594
-49.3315
-49.3176
-49.4282
-49.5007
-49.4737
-49.3529
-49.1782
-48.9498
-48.7901
-48.7053
-48.7292
-48.6918
-48.6716
-48.586
-48.4794
-48.261
-48.2034
-48.2631
-48.3078
-48.2334
-48.1776
-48.1092
-48.0647
-48.0488
-48.0336
-48.032
-48.0246
-48.0113
-47.9491
-47.8736
-47.7438
-47.6648
-47.5275
-47.5522
-47.6114
-47.6378
-47.5495
-47.4841
-47.3786
-47.3535
-47.3412
-47.3271
-47.3328
-47.3341
-47.3145
-47.2431
-47.165
-47.0072
-46.9415
-46.7651
-46.7223
-46.7306
-46.7728
-46.6767
-46.6504
-46.5622
-46.5354
-46.5143
-46.5567
-46.5814
-46.5936
-46.5697
-46.4926
-46.3636
-46.2059
-46.107
-45.8949
-45.7806
-45.8566
-45.7652
-45.803
-45.7848
-45.7352
-45.8835
-45.9142
-45.958
-45.9182
-45.8831
-45.8633
-45.8808
-45.7895
-45.613
-45.4759
-45.288
-45.2896
-45.0999
-45.0825
-45.2093
-45.2209
-45.2127
-45.3862
-45.3732
-45.382
-45.3316
-45.3261
-45.286
-45.2373
-45.0984
-44.9518
-44.9038
-44.7664
-44.7506
-44.4853
-44.3578
-44.4502
-44.5061
-44.5503
-44.7522
-44.715
-44.6948
-44.6303
-44.7057
-44.6979
-44.6882
-44.5491
-44.4008
-44.3285
-44.2562
-44.2954
-44.2002
-44.2876
-44.5207
-44.6645
-44.4783
-44.5222
-44.6678
-44.7805
-44.8719
-44.9324
-45.0004
-45.0039
-44.9924
-44.979
-44.9633
-44.9491
-44.9683
-45.0387
-45.202
-45.4404
-45.6899
-45.9638
-46.3118
-46.7796
-47.2923
-47.8579
-48.6495
-49.8167
-51.3759
-53.3948
-56.0434
-59.4762
-63.7888
-69.0033
-75.1147
-81.9967
-89.1291
-95.6965
-100.631
-102.727
-101.972
-100.069
-97.2648
-93.8704
-89.9486
-86.238
-82.8121
-78.4494
-72.4892
-65.6312
-58.0054
-49.2653
-40.008
-32.1695
-20.2409
-23.501
-26.7101
-29.7808
-32.5773
-35.1368
-37.4485
-39.421
-41.1535
-42.5521
-43.8024
-44.9881
-45.9796
-46.7733
-47.4777
-48.0883
-48.5907
-48.9964
-49.2994
-49.4923
-49.6613
-49.8235
-49.9832
-50.1006
-50.1789
-50.2671
-50.3417
-50.4064
-50.4331
-50.484
-50.4814
-50.5658
-50.5023
-50.5037
-50.5146
-50.5922
-50.5998
-50.5566
-50.4344
-50.3994
-50.3557
-50.366
-50.395
-50.3694
-50.2639
-50.1219
-50.0063
-49.9276
-49.9153
-49.9069
-49.9354
-49.9173
-49.9847
-49.9501
-49.8589
-49.7399
-49.6962
-49.6402
-49.6548
-49.6659
-49.6541
-49.5384
-49.4036
-49.2887
-49.2055
-49.1799
-49.157
-49.2068
-49.1776
-49.2053
-49.1812
-49.1415
-49.0554
-49.0695
-49.0127
-49.0342
-49.0136
-48.9526
-48.8291
-48.7008
-48.5965
-48.5657
-48.5455
-48.5263
-48.537
-48.5398
-48.697
-48.7145
-48.5015
-48.4616
-48.3505
-48.3492
-48.3685
-48.2135
-48.1912
-48.1019
-48.0015
-47.8983
-47.8823
-47.9014
-47.9095
-47.8918
-47.7787
-47.7475
-47.6775
-47.8809
-47.9907
-47.9755
-48.0593
-48.0475
-47.7476
-47.5777
-47.4325
-47.4293
-47.4241
-47.4333
-47.4421
-47.4385
-47.4594
-47.3968
-47.3713
-47.2126
-47.3359
-47.3638
-47.2301
-47.2347
-47.2947
-47.128
-47.017
-46.8485
-46.8356
-46.7793
-46.7653
-46.7679
-46.7721
-46.7453
-46.62
-46.4734
-46.2975
-46.4025
-46.4922
-46.4641
-46.3469
-46.425
-46.1385
-46.055
-46.061
-46.0808
-46.0652
-45.9814
-45.9259
-45.8746
-45.8462
-45.7451
-45.6125
-45.5058
-45.471
-45.5432
-45.703
-45.8914
-46.061
-46.3142
-46.7323
-47.193
-47.6503
-48.303
-49.2936
-50.6436
-52.4008
-54.7157
-57.732
-61.5835
-66.3637
-72.1127
-78.8045
-86.1731
-93.5549
-99.8743
-104.353
-104.623
-104.147
-102.08
-99.5576
-96.5989
-93.9176
-91.4419
-87.8315
-82.6706
-76.9158
-70.3483
-62.3892
-53.6725
-46.188
-17.8415
-21.0172
-24.1681
-27.1937
-29.9562
-32.5489
-34.9099
-36.9897
-38.8379
-40.4135
-41.8749
-43.1811
-44.2656
-45.2023
-46.0333
-46.7401
-47.3323
-47.7962
-48.1341
-48.3451
-48.5059
-48.6571
-48.8543
-48.9866
-49.0366
-49.0054
-48.9225
-48.795
-48.7214
-48.6407
-48.6565
-48.6254
-48.6507
-48.5877
-48.5149
-48.3198
-48.276
-48.3637
-48.4303
-48.3704
-48.3092
-48.249
-48.2097
-48.1863
-48.1768
-48.1816
-48.1765
-48.1568
-48.0794
-48.0019
-47.888
-47.8251
-47.6893
-47.6939
-47.7455
-47.7905
-47.7138
-47.6463
-47.5418
-47.5114
-47.4971
-47.4878
-47.493
-47.4954
-47.4668
-47.3725
-47.2895
-47.1688
-47.1113
-46.9499
-46.9082
-46.9067
-46.9409
-46.8501
-46.8228
-46.7512
-46.7223
-46.6979
-46.7283
-46.7444
-46.7529
-46.7385
-46.6707
-46.5288
-46.3669
-46.255
-46.0515
-45.9693
-46.0774
-45.9676
-45.9799
-45.951
-45.9218
-46.0552
-46.0706
-46.1012
-46.0617
-46.0208
-46.0089
-46.0038
-45.9518
-45.8464
-45.7021
-45.4865
-45.4509
-45.2682
-45.2569
-45.3862
-45.3833
-45.3775
-45.5515
-45.5371
-45.5311
-45.4885
-45.4849
-45.4664
-45.4187
-45.2735
-45.1212
-45.0739
-44.9747
-44.9823
-44.7313
-44.5962
-44.6709
-44.6698
-44.7295
-44.9452
-44.9118
-44.8923
-44.843
-44.8976
-44.8985
-44.8625
-44.6943
-44.5476
-44.5397
-44.5257
-44.5515
-44.379
-44.3559
-44.5112
-44.6524
-44.4992
-44.6594
-44.7495
-44.8402
-44.8829
-44.9333
-45.041
-45.0846
-45.066
-45.032
-45.018
-45.0235
-45.0474
-45.0566
-45.1385
-45.3111
-45.4984
-45.7245
-46.0351
-46.5245
-47.0883
-47.579
-48.1002
-48.8901
-49.9845
-51.4329
-53.3829
-55.9746
-59.347
-63.6032
-68.846
-75.1682
-82.4598
-90.2784
-97.6608
-103.615
-106.189
-107.059
-106.331
-104.937
-102.829
-100.881
-99.0465
-96.5038
-92.6703
-87.9793
-82.1916
-75.013
-66.9207
-59.7659
-16.0345
-19.096
-22.1349
-25.0388
-27.7462
-30.3379
-32.7589
-34.9463
-36.9249
-38.6705
-40.3236
-41.8619
-43.1811
-44.2625
-45.2445
-46.1306
-46.913
-47.5302
-48.0414
-48.4171
-48.7384
-49.0399
-49.3081
-49.5046
-49.654
-49.7909
-49.9045
-50.0132
-50.0882
-50.1979
-50.201
-50.306
-50.2699
-50.291
-50.3058
-50.3813
-50.3715
-50.3153
-50.2526
-50.2543
-50.2209
-50.2164
-50.24
-50.2194
-50.1308
-50.0087
-49.9042
-49.826
-49.8005
-49.7843
-49.8155
-49.8071
-49.8572
-49.7862
-49.6656
-49.5801
-49.5868
-49.543
-49.5403
-49.5418
-49.5373
-49.4408
-49.3171
-49.2049
-49.1189
-49.0795
-49.0468
-49.0824
-49.0604
-49.0703
-49.0211
-48.9652
-48.9103
-48.939
-48.8878
-48.9016
-48.8907
-48.827
-48.7058
-48.5841
-48.49
-48.4145
-48.3736
-48.3949
-48.4114
-48.4033
-48.5403
-48.5576
-48.3573
-48.3216
-48.1908
-48.1639
-48.1916
-48.0569
-48.0433
-47.9807
-47.8928
-47.7951
-47.772
-47.7775
-47.7968
-47.7922
-47.6866
-47.6317
-47.5705
-47.7537
-47.8294
-47.7857
-47.8182
-47.8189
-47.5681
-47.4261
-47.3084
-47.2992
-47.2938
-47.3173
-47.3211
-47.3216
-47.3353
-47.2723
-47.2426
-47.0947
-47.2004
-47.2071
-47.0452
-47.0013
-47.0203
-46.8925
-46.8292
-46.701
-46.6881
-46.6688
-46.6679
-46.677
-46.6674
-46.6184
-46.4507
-46.3295
-46.2065
-46.2982
-46.3351
-46.2705
-46.1644
-46.1778
-45.9565
-45.9808
-45.9546
-45.9634
-45.945
-45.9066
-45.9247
-45.948
-45.9475
-45.85
-45.7543
-45.7206
-45.7257
-45.7221
-45.7737
-45.9382
-46.1039
-46.2522
-46.5323
-46.9615
-47.3777
-47.818
-48.4558
-49.3336
-50.5091
-52.1018
-54.2508
-57.0917
-60.7373
-65.3453
-71.1
-78.0361
-85.9715
-94.1442
-101.55
-107.237
-109.401
-110.007
-109.245
-107.969
-106.876
-106.094
-104.819
-102.073
-98.3044
-93.6414
-87.4676
-79.9628
-73.1646
-14.814
-17.7026
-20.5331
-23.2859
-25.8571
-28.3653
-30.7509
-32.9177
-34.901
-36.7302
-38.4522
-40.099
-41.5119
-42.7332
-43.809
-44.7824
-45.5782
-46.2432
-46.7789
-47.1982
-47.5792
-47.9267
-48.2239
-48.4116
-48.5613
-48.6321
-48.6738
-48.6411
-48.6506
-48.6098
-48.6726
-48.6218
-48.6992
-48.6291
-48.5909
-48.5078
-48.4916
-48.5365
-48.5979
-48.559
-48.5227
-48.4643
-48.4266
-48.4094
-48.4076
-48.4175
-48.4127
-48.3805
-48.2972
-48.1978
-48.0651
-48.0429
-47.9835
-48.0003
-47.9957
-47.9908
-47.9286
-47.8926
-47.8092
-47.7433
-47.7022
-47.7228
-47.7516
-47.7564
-47.7143
-47.605
-47.4885
-47.3599
-47.333
-47.2176
-47.1903
-47.1749
-47.1683
-47.0933
-47.0854
-47.0278
-46.9897
-46.9713
-46.9998
-47.0171
-47.0259
-47.0077
-46.9306
-46.7794
-46.621
-46.5188
-46.3748
-46.3298
-46.4096
-46.3021
-46.3078
-46.2536
-46.2006
-46.3043
-46.3132
-46.3406
-46.3084
-46.27
-46.2482
-46.2596
-46.2359
-46.1454
-46.0109
-45.8072
-45.7288
-45.5153
-45.4863
-45.6066
-45.6395
-45.6554
-45.7851
-45.7643
-45.7971
-45.7551
-45.7298
-45.7169
-45.6505
-45.5245
-45.3924
-45.346
-45.2611
-45.2646
-45.0328
-44.9292
-44.9958
-45.0018
-44.9935
-45.1464
-45.1703
-45.1631
-45.1284
-45.1445
-45.1555
-45.1052
-44.9756
-44.8534
-44.8423
-44.814
-44.8322
-44.6762
-44.6258
-44.717
-44.7704
-44.7114
-44.848
-44.8845
-44.9158
-44.9554
-45.0425
-45.1244
-45.1162
-45.1072
-45.127
-45.1576
-45.1394
-45.0983
-45.0634
-45.0871
-45.1949
-45.338
-45.4922
-45.6736
-46.0117
-46.4677
-46.9232
-47.4334
-48.0974
-48.9054
-49.8559
-51.113
-52.8316
-55.1049
-58.0935
-61.9839
-67.0015
-73.2872
-80.8888
-89.3762
-97.8332
-105.003
-108.827
-111.502
-112.285
-112.559
-112.351
-112.412
-112.031
-110.494
-108.142
-104.877
-99.7682
-93.039
-86.6229
-14.6111
-17.2701
-19.7514
-22.2329