/*--------------------------------*- C++ -*----------------------------------*\
| =========                 |                                                 |
| \\      /  F ield         | OpenFOAM: The Open Source CFD Toolbox           |
|  \\    /   O peration     | Version:  4.1                                   |
|   \\  /    A nd           | Web:      www.OpenFOAM.org                      |
|    \\/     M anipulation  |                                                 |
\*---------------------------------------------------------------------------*/
FoamFile
{
    version     2.0;
    format      ascii;
    class       volScalarField;
    location    "7";
    object      p;
}
// * * * * * * * * * * * * * * * * * * * * * * * * * * * * * * * * * * * * * //

dimensions      [0 2 -2 0 0 0 0];

internalField   nonuniform List<scalar> 
6750
(
-704.703
-288.346
-803.522
-778.289
-694.582
-585.841
-454.349
-339.988
-263.504
-193.442
-174.04
-149.596
-209.179
-129.038
-280.002
-702.558
-291.27
-805.003
-778.563
-695.148
-586.545
-455.116
-340.748
-264.313
-195.415
-173.173
-147.625
-205.405
-130.079
-279.394
-701.434
-293.022
-805.524
-778.406
-695.123
-586.547
-455.235
-341.107
-264.837
-197.003
-173.445
-149.796
-201.629
-128.459
-279.571
-699.75
-295.631
-806.578
-778.596
-695.561
-587.09
-455.885
-341.891
-265.66
-198.811
-174.076
-153.385
-197.728
-126.978
-278.683
-698.433
-297.586
-807.086
-778.487
-695.56
-587.105
-456.046
-342.33
-266.344
-200.527
-175.407
-157.119
-192.972
-126.077
-277.48
-697.01
-299.54
-807.676
-778.511
-695.766
-587.381
-456.451
-342.922
-267.132
-202.247
-176.706
-159.515
-187.049
-124.455
-276.355
-695.812
-300.89
-807.913
-778.344
-695.649
-587.283
-456.454
-343.109
-267.66
-203.595
-178.991
-159.311
-182.117
-123.338
-275.434
-695.292
-301.402
-808.007
-778.332
-695.713
-587.395
-456.587
-343.249
-267.859
-203.9
-179.885
-158.32
-180.843
-122.991
-275.561
-695.801
-300.8
-807.886
-778.342
-695.64
-587.294
-456.5
-343.211
-267.825
-203.808
-179.398
-159.458
-181.854
-123.244
-275.462
-696.977
-299.405
-807.626
-778.504
-695.746
-587.402
-456.541
-343.122
-267.439
-202.64
-177.295
-160.082
-186.833
-124.449
-276.463
-698.385
-297.41
-807.011
-778.474
-695.526
-587.132
-456.174
-342.617
-266.79
-201.094
-176.22
-157.876
-193.185
-126.141
-277.702
-699.689
-295.432
-806.484
-778.579
-695.518
-587.127
-456.052
-342.262
-266.225
-199.531
-175.066
-154.407
-198.16
-127.137
-279.01
-701.364
-292.807
-805.409
-778.382
-695.062
-586.581
-455.425
-341.544
-265.505
-197.871
-174.633
-151.107
-202.226
-128.652
-280.01
-702.483
-291.046
-804.876
-778.536
-695.082
-586.587
-455.333
-341.24
-265.057
-196.386
-174.499
-149.188
-206.148
-130.229
-279.965
-704.623
-288.117
-803.376
-778.251
-694.492
-585.866
-454.567
-340.515
-264.31
-194.517
-175.506
-151.355
-209.985
-129.248
-280.664
-892.514
-225.008
-499.285
-591.05
-507.726
-434.186
-363.604
-303.616
-273.294
-237.263
-219.147
-178.271
-236.574
-130.951
-398.466
-891.183
-223.82
-502.485
-593.468
-510.028
-436.134
-365.041
-304.358
-273.217
-236.695
-217.763
-177.622
-231.153
-123.659
-405.39
-890.529
-223.575
-504.224
-594.206
-510.682
-436.683
-365.387
-304.486
-273.02
-237.059
-218.736
-179.043
-228.378
-123.575
-405.061
-889.412
-223.124
-506.623
-595.913
-512.384
-438.163
-366.482
-305.082
-273.133
-237.222
-219.543
-180.311
-227.299
-122.27
-403.402
-888.522
-223.04
-508.459
-596.908
-513.274
-438.88
-366.964
-305.299
-273.119
-237.668
-221.034
-181.985
-226.692
-122.145
-401.793
-887.465
-223.012
-510.281
-598.022
-514.395
-439.833
-367.68
-305.783
-273.4
-238.298
-222.736
-183.083
-227.069
-122.492
-399.236
-886.367
-223.336
-511.567
-598.655
-515.014
-440.331
-368.041
-306.051
-273.531
-238.679
-224.959
-184.52
-226.859
-123.512
-397.926
-885.717
-223.654
-512.015
-598.893
-515.29
-440.579
-368.236
-306.202
-273.67
-238.88
-226.281
-184.531
-226.476
-123.864
-398.13
-886.225
-223.442
-511.435
-598.568
-514.938
-440.297
-368.063
-306.138
-273.704
-238.932
-225.403
-184.804
-226.911
-123.822
-397.547
-887.275
-223.101
-510.069
-597.872
-514.262
-439.77
-367.717
-305.948
-273.723
-238.808
-223.383
-183.749
-227.312
-123.035
-398.967
-888.283
-223.097
-508.181
-596.691
-513.077
-438.778
-367.005
-305.536
-273.587
-238.393
-221.935
-182.913
-227.02
-122.821
-401.567
-889.143
-223.147
-506.292
-595.641
-512.135
-438.03
-366.527
-305.381
-273.73
-238.154
-220.665
-181.516
-227.721
-123.066
-403.272
-890.235
-223.561
-503.843
-593.873
-510.37
-436.502
-365.415
-304.824
-273.711
-238.158
-220.072
-180.523
-228.878
-124.502
-404.961
-890.873
-223.78
-502.071
-593.099
-509.682
-435.93
-365.068
-304.731
-273.995
-237.937
-219.287
-179.267
-231.718
-124.759
-405.262
-892.19
-224.938
-498.828
-590.627
-507.316
-433.927
-363.598
-303.994
-274.099
-238.557
-220.798
-180.046
-237.079
-132.182
-398.514
-886.015
-257.951
-226.49
-369.387
-329.969
-295.576
-281.733
-270.447
-285.868
-287.91
-287.345
-232.406
-271.185
-123.561
-624.166
-885.825
-256.591
-227.03
-370.245
-331.046
-296.722
-282.595
-270.455
-282.981
-282.579
-281.799
-230.663
-272.325
-114.279
-623.541
-885.73
-256.03
-227.635
-370.73
-331.575
-297.217
-282.805
-270.003
-280.399
-279.373
-280.254
-231.656
-267.486
-107.178
-632.82
-885.602
-255.03
-228.134
-371.385
-332.433
-298.13
-283.464
-269.984
-278.627
-276.416
-277.942
-229.639
-268.099
-103.638
-629.583
-885.513
-254.402
-228.713
-371.959
-333.08
-298.742
-283.813
-269.726
-276.987
-274.277
-276.61
-227.976
-268.626
-103.765
-627.3
-885.426
-253.703
-229.193
-372.466
-333.687
-299.362
-284.3
-269.807
-275.984
-272.712
-275.842
-226.343
-269.245
-103.035
-625.71
-885.366
-253.249
-229.65
-372.905
-334.152
-299.809
-284.667
-269.926
-275.141
-271.218
-275.89
-225.117
-267.854
-100.194
-629.841
-885.286
-253.128
-229.782
-373.01
-334.271
-299.93
-284.78
-269.973
-275.034
-271.125
-276.574
-224.42
-266.637
-96.7915
-633.557
-885.214
-253.391
-229.566
-372.806
-334.072
-299.767
-284.685
-270.016
-275.353
-271.559
-276.312
-225.255
-267.81
-100.267
-629.68
-885.169
-253.857
-229.052
-372.307
-333.541
-299.27
-284.308
-269.955
-276.379
-273.415
-276.442
-226.844
-269.158
-102.901
-625.648
-885.181
-254.523
-228.535
-371.733
-332.858
-298.592
-283.802
-269.931
-277.542
-275.251
-277.425
-228.699
-268.521
-103.576
-627.054
-885.231
-255.103
-227.921
-371.098
-332.145
-297.923
-283.423
-270.226
-279.338
-277.654
-278.954
-230.575
-268.04
-103.373
-629.362
-885.33
-256.047
-227.385
-370.38
-331.211
-296.938
-282.714
-270.261
-281.23
-280.829
-281.43
-232.745
-267.424
-106.821
-632.613
-885.405
-256.566
-226.762
-369.856
-330.636
-296.399
-282.479
-270.743
-283.954
-284.217
-283.096
-231.916
-272.123
-113.898
-623.616
-885.579
-257.87
-226.184
-368.944
-329.488
-295.185
-281.572
-270.727
-286.839
-289.571
-288.65
-233.842
-270.863
-122.779
-624.667
-888.099
-297.502
-178.961
-310.859
-274.689
-246.209
-250.382
-260.299
-315.132
-347.658
-350.59
-280.352
-263.362
-3.18126
-947.249
-887.927
-297.053
-178.844
-311.105
-275.402
-247.2
-251.532
-260.503
-309.792
-341.129
-344.572
-280.364
-268.38
-6.4626
-937.387
-887.825
-296.898
-178.995
-311.424
-275.913
-247.688
-251.732
-259.351
-303.252
-335.293
-341.74
-280.46
-268.113
2.19787
-939.682
-887.64
-296.602
-179.023
-311.72
-276.559
-248.452
-252.387
-259.155
-299.312
-330.506
-338.179
-278.686
-271.732
3.33216
-935.164
-887.484
-296.458
-179.16
-312.056
-277.125
-249.011
-252.727
-258.639
-295.984
-326.725
-335.676
-277.037
-273.24
1.6632
-933.661
-887.303
-296.277
-179.202
-312.276
-277.582
-249.514
-253.158
-258.469
-293.5
-324.032
-334.036
-275.585
-275.096
2.01206
-930.802
-887.157
-296.194
-179.249
-312.439
-277.922
-249.88
-253.549
-258.391
-291.376
-322.081
-333.226
-274.783
-276.154
5.98515
-930.781
-886.962
-296.209
-179.263
-312.454
-278
-249.955
-253.653
-258.301
-291.029
-322.203
-333.315
-274.096
-275.986
10.062
-931.63
-886.904
-296.277
-179.24
-312.371
-277.861
-249.824
-253.521
-258.438
-291.629
-322.419
-333.348
-274.865
-276.031
5.9686
-929.725
-887
-296.301
-179.129
-312.125
-277.431
-249.381
-253.08
-258.54
-294.017
-324.697
-334.196
-275.759
-274.921
1.97325
-928.451
-887.112
-296.407
-179.052
-311.835
-276.887
-248.802
-252.597
-258.752
-296.7
-327.621
-335.88
-277.229
-273.022
1.53837
-930.433
-887.217
-296.498
-178.877
-311.427
-276.235
-248.167
-252.195
-259.286
-300.233
-331.587
-338.431
-278.917
-271.5
3.41435
-931.813
-887.356
-296.728
-178.807
-311.06
-275.497
-247.314
-251.46
-259.487
-304.32
-336.4
-342.02
-280.659
-267.869
2.5991
-936.137
-887.427
-296.843
-178.634
-310.692
-274.924
-246.77
-251.219
-260.665
-310.971
-342.13
-344.882
-280.554
-268.065
-5.60131
-934.064
-887.569
-297.236
-178.708
-310.38
-274.124
-245.691
-250.002
-260.383
-316.234
-348.435
-350.691
-280.466
-263.114
-2.08584
-943.625
-894.29
-302.916
-153.837
-267.592
-233.377
-204.883
-207.856
-226.099
-300.823
-348.145
-363.329
-319.266
-285.98
62.7616
-1225.77
-894.277
-302.766
-153.929
-268.043
-234.351
-206.436
-210.867
-228.908
-303.961
-345.851
-359.163
-317.602
-288.188
65.0588
-1222.84
-894.32
-302.718
-154.099
-268.466
-235.063
-207.362
-212.273
-228.748
-301.258
-344.214
-356.364
-317.091
-287.468
65.3859
-1222.27
-894.32
-302.624
-154.24
-268.934
-235.939
-208.538
-213.988
-229.627
-298.939
-342.278
-353.799
-316.581
-289.162
65.3353
-1217.93
-894.341
-302.592
-154.409
-269.38
-236.702
-209.458
-215.169
-229.842
-296.212
-340.168
-351.851
-315.719
-289.751
63.6547
-1215.79
-894.333
-302.531
-154.517
-269.723
-237.335
-210.273
-216.259
-230.091
-293.543
-338.472
-351.388
-315.623
-290.5
61.5917
-1210.98
-894.335
-302.489
-154.593
-269.964
-237.782
-210.874
-217.183
-230.181
-290.783
-337.008
-351.516
-316.015
-290.562
58.7797
-1208.01
-894.323
-302.427
-154.59
-270.017
-237.874
-211.016
-217.41
-229.916
-290.065
-336.59
-351.525
-316.066
-289.549
57.1497
-1205.84
-894.322
-302.382
-154.523
-269.898
-237.648
-210.762
-217.052
-230.171
-290.906
-337.033
-351.371
-316.238
-290.219
56.1404
-1204.35
-894.285
-302.332
-154.381
-269.579
-237.076
-210.047
-215.992
-230.025
-293.83
-338.551
-351.057
-315.949
-289.861
56.9273
-1204.58
-894.249
-302.309
-154.216
-269.153
-236.326
-209.122
-214.789
-229.792
-296.505
-340.232
-351.359
-316.097
-288.851
58.6335
-1208.18
-894.171
-302.275
-154.007
-268.632
-235.466
-208.101
-213.478
-229.564
-299.216
-342.308
-353.198
-316.959
-288.106
60.4362
-1210.08
-894.107
-302.312
-153.825
-268.078
-234.491
-206.813
-211.63
-228.665
-301.373
-344.094
-355.683
-317.415
-286.288
60.7688
-1213.94
-893.989
-302.338
-153.646
-267.597
-233.719
-205.818
-210.144
-228.782
-303.69
-345.713
-358.621
-317.95
-286.948
60.7364
-1214.48
-893.931
-302.443
-153.526
-267.079
-232.657
-204.167
-207.038
-225.798
-300.42
-347.986
-362.516
-319.612
-284.531
58.3637
-1217.07
-926.393
-297.402
-141.55
-249.497
-208.85
-173.514
-161.957
-171.353
-232.394
-295.431
-323.979
-355.147
-300.421
-12.7192
-1528.58
-926.462
-297.421
-141.697
-250.011
-209.918
-175.303
-165.744
-176.046
-236.892
-302.507
-328.429
-354.829
-300.143
-4.39266
-1526.46
-926.547
-297.465
-141.867
-250.502
-210.815
-176.701
-168.365
-178.344
-236.615
-303.332
-328.541
-354.69
-300.14
-5.10845
-1525.44
-926.605
-297.517
-142.056
-251.062
-211.871
-178.266
-170.98
-180.926
-237.146
-303.1
-328.796
-354.823
-299.664
-3.32195
-1521.27
-926.655
-297.59
-142.245
-251.576
-212.828
-179.609
-173.122
-182.572
-237.082
-301.482
-327.524
-354.197
-299.351
-4.36586
-1518.8
-926.673
-297.629
-142.392
-251.992
-213.649
-180.836
-175.13
-183.81
-236.852
-300.008
-326.864
-354.095
-298.834
-6.42689
-1513.25
-926.682
-297.644
-142.493
-252.272
-214.232
-181.784
-176.844
-184.114
-236.041
-298.326
-326.222
-354.113
-298.104
-10.2528
-1509.7
-926.667
-297.591
-142.503
-252.343
-214.371
-182.053
-177.341
-183.601
-235.494
-297.673
-325.563
-354.143
-297.189
-14.6154
-1505.15
-926.648
-297.499
-142.432
-252.207
-214.075
-181.652
-176.708
-184.14
-236.063
-298.263
-326.073
-354.529
-297.807
-17.1745
-1501.59
-926.587
-297.362
-142.281
-251.847
-213.351
-180.563
-174.805
-183.676
-236.872
-299.963
-326.607
-354.752
-297.812
-16.4352
-1502.31
-926.502
-297.22
-142.083
-251.341
-212.4
-179.199
-172.654
-182.312
-237.063
-301.301
-327.105
-355.067
-297.782
-13.9338
-1507.46
-926.381
-297.069
-141.853
-250.745
-211.333
-177.726
-170.333
-180.515
-237.126
-302.793
-328.188
-355.657
-297.66
-12.3622
-1510.2
-926.244
-296.951
-141.619
-250.095
-210.167
-176.027
-167.559
-177.848
-236.544
-302.709
-327.759
-355.494
-297.832
-13.6765
-1513.83
-926.073
-296.887
-141.434
-249.547
-209.203
-174.547
-164.845
-175.545
-236.701
-301.591
-327.589
-355.597
-297.669
-12.7631
-1514.9
-925.926
-296.82
-141.25
-248.969
-208.047
-172.669
-160.982
-170.791
-231.98
-294.442
-323.042
-355.824
-297.718
-20.7207
-1516.61
-958.271
-289.458
-135.096
-238.689
-190.127
-152.827
-133.038
-131.36
-171.317
-231.103
-281.446
-374.273
-356.606
-73.3323
-1902.29
-958.368
-289.553
-135.259
-239.181
-191.02
-154.302
-135.254
-134.278
-175.033
-234.707
-284.246
-375.045
-353.196
-66.1238
-1894.04
-958.47
-289.642
-135.415
-239.656
-191.819
-155.629
-137.056
-135.698
-176.008
-234.513
-283.926
-374.983
-351.368
-66.4679
-1890.84
-958.555
-289.763
-135.61
-240.219
-192.785
-157.103
-138.99
-137.46
-177.808
-235.523
-284.705
-375.923
-349.529
-63.9272
-1879.7
-958.622
-289.888
-135.794
-240.738
-193.701
-158.472
-140.908
-138.777
-178.732
-235.395
-284.143
-375.324
-346.811
-66.8572
-1875.84
-958.656
-289.978
-135.946
-241.176
-194.526
-159.821
-142.995
-139.932
-179.458
-235.326
-284.353
-376.877
-346.671
-68.8253
-1861.8
-958.675
-290.021
-136.046
-241.472
-195.14
-160.957
-145.094
-140.347
-179.123
-234.486
-283.716
-376.197
-343.836
-74.2458
-1858.3
-958.658
-289.976
-136.063
-241.552
-195.304
-161.334
-145.871
-140.246
-178.515
-233.885
-283.645
-377.524
-344.555
-78.6842
-1846.48
-958.629
-289.863
-135.992
-241.405
-194.986
-160.836
-145
-140.368
-179.173
-234.413
-283.824
-377.214
-344.476
-84.8858
-1843.95
-958.554
-289.681
-135.841
-241.025
-194.236
-159.566
-142.712
-139.876
-179.393
-235.311
-284.526
-377.984
-345.008
-82.2399
-1847.15
-958.443
-289.477
-135.639
-240.495
-193.284
-158.089
-140.516
-138.644
-178.575
-235.364
-284.435
-377.343
-345.091
-78.9822
-1858.97
-958.295
-289.263
-135.415
-239.892
-192.262
-156.59
-138.448
-137.224
-177.616
-235.527
-284.872
-377.647
-346.411
-75.3437
-1864.72
-958.12
-289.066
-135.173
-239.235
-191.191
-154.981
-136.401
-135.379
-175.833
-234.53
-284.127
-376.98
-347.94
-76.7235
-1874.27
-957.917
-288.955
-135.004
-238.702
-190.328
-153.574
-134.546
-133.914
-174.916
-234.699
-284.345
-376.878
-349.338
-76.1649
-1877.96
-957.728
-288.803
-134.802
-238.142
-189.352
-152.028
-132.283
-130.933
-171.171
-231.039
-281.51
-376.039
-352.27
-82.3874
-1885.31
-1009.2
-288.041
-136.915
-244.15
-190.047
-152.97
-132.91
-122.982
-159.177
-222.917
-293.664
-395.475
-437.263
-56.2841
-2339.17
-1009.3
-288.16
-137.072
-244.571
-190.767
-154.009
-134.151
-124.385
-159.815
-223.519
-294.657
-396.998
-435.03
-57.5751
-2331.03
-1009.39
-288.257
-137.207
-244.971
-191.407
-155.042
-135.216
-125.142
-159.142
-222.843
-294.167
-397.81
-432.91
-61.484
-2327.86
-1009.48
-288.391
-137.387
-245.462
-192.21
-156.22
-136.395
-126.246
-159.032
-222.853
-294.806
-400.524
-433.346
-66.4424
-2307.44
-1009.54
-288.519
-137.551
-245.916
-192.986
-157.397
-137.716
-127.27
-158.305
-222.089
-294.264
-400.946
-429.24
-74.502
-2302.21
-1009.57
-288.609
-137.69
-246.308
-193.7
-158.629
-139.228
-128.482
-157.362
-221.424
-294.855
-403.53
-429.857
-82.3235
-2278.89
-1009.59
-288.645
-137.78
-246.575
-194.239
-159.708
-140.793
-129.295
-155.819
-220.228
-294.337
-403.618
-426.212
-90.7832
-2273.44
-1009.57
-288.59
-137.798
-246.648
-194.382
-160.089
-141.41
-129.494
-155.168
-219.784
-294.897
-405.546
-428.449
-98.4599
-2252.61
-1009.54
-288.466
-137.733
-246.514
-194.107
-159.638
-140.76
-129.354
-155.949
-220.379
-294.776
-405.397
-430.277
-105.335
-2248.78
-1009.45
-288.27
-137.595
-246.167
-193.443
-158.451
-139.048
-128.484
-157.532
-221.822
-295.377
-405.762
-429.166
-97.7628
-2258.32
-1009.33
-288.049
-137.407
-245.685
-192.611
-157.115
-137.463
-127.249
-158.525
-222.661
-295.15
-404.909
-427.898
-88.238
-2278.07
-1009.18
-287.822
-137.204
-245.149
-191.734
-155.82
-136.017
-126.15
-159.309
-223.539
-295.492
-404.119
-428.984
-78.9805
-2288.7
-1008.99
-287.603
-136.975
-244.562
-190.826
-154.51
-134.742
-124.993
-159.501
-223.661
-295.058
-402.047
-428.418
-73.0135
-2306.32
-1008.78
-287.484
-136.829
-244.105
-190.124
-153.398
-133.625
-124.207
-160.218
-224.362
-295.409
-400.977
-429.753
-69.4059
-2310.81
-1008.58
-287.302
-136.631
-243.613
-189.316
-152.289
-132.338
-122.765
-159.539
-223.771
-294.453
-399.56
-431.718
-67.4713
-2317.87
-1073.69
-291.473
-143.395
-259.822
-202.411
-169.195
-155.013
-145.01
-187.681
-250.029
-348.063
-406.314
-547.297
-0.386517
-3078.11
-1073.77
-291.587
-143.528
-260.16
-202.958
-169.864
-155.599
-145.348
-187.104
-250.246
-350.131
-413.134
-563.291
-6.85777
-2977.02
-1073.84
-291.675
-143.635
-260.47
-203.433
-170.61
-156.299
-145.673
-186.055
-249.575
-349.226
-412.898
-551.372
-18.3711
-2959.66
-1073.9
-291.792
-143.782
-260.862
-204.052
-171.46
-156.973
-146.146
-185.365
-249.653
-350.999
-420.972
-559.22
-20.4318
-2888.15
-1073.95
-291.897
-143.913
-261.222
-204.66
-172.367
-157.955
-146.731
-184.243
-248.647
-348.871
-418.423
-538.362
-40.4063
-2884.73
-1073.97
-291.96
-144.026
-261.535
-205.228
-173.335
-159.227
-147.489
-183.275
-248.476
-350.905
-428.204
-555.845
-59.3457
-2787.18
-1073.98
-291.97
-144.096
-261.745
-205.656
-174.168
-160.656
-147.813
-181.646
-247.117
-348.809
-423.943
-530.301
-70.312
-2811.7
-1073.96
-291.891
-144.105
-261.795
-205.76
-174.454
-161.285
-147.909
-181.26
-247.173
-351.254
-430.972
-552.653
-81.0945
-2754.72
-1073.92
-291.755
-144.045
-261.676
-205.523
-174.116
-160.631
-147.904
-181.767
-247.433
-349.87
-426.939
-545.343
-92.5992
-2761.01
-1073.82
-291.555
-143.924
-261.38
-204.965
-173.19
-159.069
-147.536
-183.366
-248.923
-351.144
-430.988
-545.603
-71.6292
-2785.74
-1073.69
-291.332
-143.757
-260.968
-204.274
-172.128
-157.733
-146.787
-184.414
-249.518
-349.681
-425.413
-539.251
-56.7548
-2840.61
-1073.53
-291.109
-143.584
-260.521
-203.564
-171.117
-156.62
-146.113
-185.503
-250.53
-350.871
-425.896
-550.902
-39.8875
-2860.86
-1073.34
-290.89
-143.379
-260.024
-202.831
-170.139
-155.834
-145.594
-186.276
-250.676
-349.399
-419.287
-545.577
-33.4164
-2924.22
-1073.12
-290.78
-143.262
-259.656
-202.292
-169.317
-155.061
-145.202
-187.329
-251.32
-349.832
-418.533
-555.812
-22.2951
-2947.1
-1072.91
-290.59
-143.079
-259.236
-201.641
-168.562
-154.405
-144.801
-187.86
-251.119
-347.769
-411.806
-538.941
-13.7217
-3047.23
-1153.42
-304.493
-155.977
-287.03
-229.155
-201.441
-197.708
-188.571
-241.65
-285.916
-423.233
-399.716
-691.908
84.0115
-3662.97
-1153.48
-304.591
-156.086
-287.301
-229.593
-201.912
-198.01
-188.445
-241.14
-285.908
-426.986
-400.315
-669.574
88.1237
-3679.71
-1153.52
-304.661
-156.168
-287.537
-229.962
-202.463
-198.724
-188.628
-240.397
-285.538
-427.378
-405.433
-678.169
61.3407
-3658.99
-1153.57
-304.752
-156.286
-287.844
-230.457
-203.104
-199.296
-188.827
-240.114
-286.456
-431.491
-410.493
-719.047
5.92436
-3497.02
-1153.6
-304.824
-156.385
-288.118
-230.935
-203.791
-200.204
-189.248
-239.355
-285.777
-428.881
-416.523
-686.204
-17.5246
-3509.58
-1153.6
-304.851
-156.474
-288.353
-231.384
-204.515
-201.467
-189.894
-239.38
-285.93
-433.71
-423.218
-687.008
-12.8621
-3461.3
-1153.61
-304.829
-156.525
-288.504
-231.709
-205.092
-202.748
-190.19
-238.101
-284.301
-430.962
-422.963
-661.629
-18.8327
-3516.84
-1153.57
-304.729
-156.524
-288.527
-231.774
-205.284
-203.339
-190.467
-238.384
-284.975
-438.551
-425.617
-738.282
-61.4542
-3343
-1153.51
-304.588
-156.468
-288.418
-231.564
-205.043
-202.745
-190.308
-238.489
-285.258
-435.217
-427.343
-696.315
-49.7741
-3416.65
-1153.41
-304.392
-156.362
-288.168
-231.095
-204.377
-201.337
-189.983
-239.656
-287.132
-435.172
-430.471
-690.772
-24.5286
-3437.13
-1153.27
-304.182
-156.216
-287.818
-230.506
-203.559
-200.003
-189.4
-239.8
-287.74
-431.331
-428.816
-687.317
-20.6743
-3462.6
-1153.1
-303.977
-156.069
-287.448
-229.915
-202.775
-198.94
-188.891
-240.332
-288.409
-431.856
-421.56
-705.411
1.89639
-3482.49
-1152.9
-303.773
-155.887
-287.022
-229.286
-202.005
-198.216
-188.668
-240.634
-287.785
-428.005
-416.309
-672.61
51.5593
-3614.18
-1152.67
-303.685
-155.795
-286.723
-228.848
-201.384
-197.397
-188.417
-241.245
-288.077
-426.696
-409.48
-663.802
71.5831
-3642.99
-1152.45
-303.499
-155.629
-286.355
-228.282
-200.801
-196.989
-188.47
-241.646
-288.061
-422.846
-409.209
-684.761
69.073
-3631.44
-1245.09
-327.954
-173.666
-324.524
-269.389
-247.045
-260.237
-246.767
-326.561
-329.183
-541.304
-372.457
-783.015
234.998
-5428.13
-1245.12
-328.016
-173.742
-324.738
-269.755
-247.457
-260.578
-246.782
-327.198
-330.971
-558.006
-366.92
-1061.87
57.8477
-4782.44
-1245.14
-328.054
-173.797
-324.907
-270.025
-247.84
-261.169
-246.907
-326.464
-330.558
-554.88
-382.792
-917.792
129.33
-4716.17
-1245.15
-328.092
-173.875
-325.133
-270.411
-248.345
-261.744
-247.096
-326.845
-332.875
-559.818
-409.42
-938.877
103.873
-4460.84
-1245.16
-328.099
-173.937
-325.319
-270.746
-248.831
-262.384
-247.341
-325.698
-330.822
-548.148
-399.941
-824.88
80.7953
-4625.32
-1245.15
-328.059
-173.986
-325.475
-271.062
-249.358
-263.435
-248.286
-327.136
-332.574
-566.18
-402.501
-1079.72
-54.309
-4174.63
-1245.12
-327.989
-174.003
-325.564
-271.253
-249.724
-264.209
-248.779
-325.455
-330.702
-555.748
-410.595
-864.469
23.1885
-4407.2
-1245.06
-327.855
-173.979
-325.549
-271.258
-249.841
-264.642
-249.358
-326.928
-332.681
-573.205
-425.807
-995.432
-7.09199
-4147.43
-1244.96
-327.696
-173.914
-325.429
-271.047
-249.621
-264.143
-248.903
-326.209
-332.358
-564.265
-414.325
-983.548
-41.8928
-4178.63
-1244.82
-327.495
-173.81
-325.2
-270.649
-249.114
-263.143
-248.282
-327.231
-334.427
-567.014
-423.555
-969.689
63.8277
-4377.8
-1244.65
-327.288
-173.672
-324.883
-270.128
-248.44
-261.932
-247.375
-325.997
-333.363
-552.998
-412.315
-859.017
88.8896
-4470.76
-1244.44
-327.094
-173.543
-324.561
-269.63
-247.814
-261.032
-246.925
-326.3
-334.854
-558.287
-418.695
-921.722
83.413
-4407.67
-1244.21
-326.9
-173.371
-324.172
-269.052
-247.13
-260.209
-246.638
-325.729
-332.699
-553.696
-394.781
-905.404
125.435
-4649.15
-1243.95
-326.835
-173.299
-323.92
-268.684
-246.651
-259.442
-246.369
-325.992
-332.711
-554.655
-375.099
-1059.93
35.9639
-4711.63
-1243.7
-326.651
-173.138
-323.569
-268.133
-246.063
-258.89
-246.192
-325.074
-330.676
-537.712
-380.888
-771.263
210.679
-5386.34
-1345.22
-363.363
-195.183
-369.686
-319.304
-299.803
-333.267
-308.022
-426.101
-364.164
-667.829
-337.373
-1034.8
154.745
-6082.38
-1345.23
-363.389
-195.237
-369.872
-319.656
-300.32
-334.056
-308.882
-429.714
-364.869
-697.418
-318.915
-1312.58
-146.788
-5191.52
-1345.23
-363.393
-195.274
-370.003
-319.865
-300.679
-334.604
-309.504
-429.429
-365.918
-695.882
-347.139
-1074.1
80.8403
-5617.57
-1345.22
-363.385
-195.327
-370.181
-320.201
-301.226
-335.494
-310.433
-432.205
-369.465
-708.128
-342.408
-1113.31
173.022
-5655.29
-1345.21
-363.353
-195.36
-370.317
-320.432
-301.668
-335.991
-311.092
-431.109
-368.882
-691.179
-351.328
-980.685
94.1285
-5980.48
-1345.17
-363.279
-195.38
-370.422
-320.663
-302.165
-337.113
-312.862
-436.332
-372.342
-745.02
-348.511
-1487.87
-243.709
-5010.21
-1345.11
-363.185
-195.373
-370.465
-320.741
-302.453
-337.439
-313.812
-433.6
-371.865
-711.051
-376.803
-1024.06
41.4168
-5711.13
-1345.01
-363.038
-195.332
-370.413
-320.699
-302.552
-337.922
-314.844
-438.226
-376.064
-759.759
-397.919
-1497.01
-67.2802
-4966.25
-1344.88
-362.878
-195.257
-370.269
-320.455
-302.286
-337.316
-314.052
-435.245
-374.682
-731.764
-391.912
-1245.3
-27.8615
-5230.16
-1344.7
-362.687
-195.153
-370.033
-320.091
-301.797
-336.639
-312.981
-436.731
-376.208
-750.979
-379.27
-1493.93
-76.5701
-5083.06
-1344.49
-362.497
-195.018
-369.714
-319.575
-301.083
-335.291
-311.213
-432.294
-373.089
-707.775
-374.109
-1073.73
103.663
-5832.84
-1344.25
-362.325
-194.898
-369.398
-319.111
-300.442
-334.383
-310.203
-431.578
-372.535
-709.438
-358.099
-1112.14
170.613
-5584.55
-1343.98
-362.154
-194.73
-369.007
-318.511
-299.643
-333.146
-309.032
-428.521
-368.991
-696.107
-366.964
-1040.68
112.344
-5593.87
-1343.7
-362.117
-194.667
-368.764
-318.163
-299.151
-332.332
-308.127
-427.789
-366.919
-692.047
-329.468
-1305.01
-156.926
-5214.45
-1343.43
-361.944
-194.507
-368.398
-317.556
-298.376
-331.208
-306.963
-423.686
-365.665
-660.537
-352.084
-988.079
151.938
-6180.94
-1446.99
-413.967
-223.208
-424.507
-385.101
-367.33
-429.492
-388.15
-573.615
-426.874
-946.258
-302.263
-1686.23
415.465
-6338.69
-1446.97
-413.911
-223.194
-424.611
-385.303
-367.774
-430.174
-389.137
-576.959
-427.368
-965.222
-324.022
-1733.82
-111.692
-6301.83
-1446.93
-413.847
-223.18
-424.672
-385.334
-367.987
-430.075
-389.539
-573.339
-426.991
-933.38
-355.9
-1326.71
171.996
-7459.51
-1446.87
-413.748
-223.154
-424.749
-385.463
-368.391
-430.672
-390.494
-576.275
-428.994
-953.097
-351.158
-1468.96
417.408
-7476.79
-1446.8
-413.631
-223.112
-424.79
-385.446
-368.629
-430.356
-390.733
-571.408
-427.303
-920.768
-365.116
-1502.49
140.125
-7422.83
-1446.68
-413.47
-223.057
-424.79
-385.467
-368.942
-431.127
-392.312
-577.603
-430.24
-974.061
-358.177
-1806.86
-137.998
-6375.71
-1446.54
-413.299
-222.984
-424.74
-385.334
-369.043
-430.626
-392.811
-570.791
-427.696
-904.482
-362.978
-1207.57
19.1888
-7558.66
-1446.35
-413.087
-222.888
-424.605
-385.185
-369.038
-431.151
-393.849
-578.844
-434.241
-984.359
-386.278
-1950.15
-29.9678
-6240.58
-1446.12
-412.875
-222.771
-424.399
-384.856
-368.689
-430.262
-392.945
-572.874
-432.407
-929.628
-395.839
-1325.66
125.084
-7223.89
-1445.86
-412.646
-222.643
-424.123
-384.517
-368.209
-430.096
-392.146
-577.684
-435.273
-983.675
-381.862
-1883.81
88.7601
-6398.34
-1445.56
-412.431
-222.49
-423.777
-384.02
-367.479
-428.874
-390.27
-572.769
-432.398
-943.959
-382.699
-1615.86
101.362
-7004.54
-1445.25
-412.249
-222.369
-423.454
-383.637
-366.878
-428.462
-389.402
-574.755
-433.074
-958.372
-377.336
-1551.12
384.699
-7159.88
-1444.91
-412.072
-222.192
-423.047
-383.067
-366.022
-427.26
-387.787
-571.439
-429.744
-938.004
-373.481
-1336.42
174.159
-7284.59
-1444.56
-412.052
-222.14
-422.809
-382.793
-365.56
-426.881
-386.847
-573.308
-428.604
-959.85
-337.427
-1726.39
-120.685
-6224.51
-1444.25
-411.866
-221.969
-422.423
-382.179
-364.665
-425.576
-385.116
-568.928
-426.481
-938.256
-318.437
-1660.43
340.62
-6386.32
-1546.28
-478.632
-254.206
-483.834
-455.152
-433.915
-522.422
-460.123
-700.573
-481.229
-1122.2
-395.805
-2204.6
61.7098
-8460.52
-1546.24
-478.544
-254.149
-483.893
-455.228
-434.412
-523.161
-461.823
-704.733
-483.179
-1130.89
-400.789
-1841.16
261.741
-8665.55
-1546.19
-478.457
-254.1
-483.923
-455.122
-434.644
-522.732
-462.363
-700.115
-476.995
-1083.85
-312.109
-1640.51
326.837
-9677.16
-1546.1
-478.323
-254.021
-483.939
-455.089
-435.07
-523.404
-464.124
-707.448
-482.729
-1171.08
-351.903
-2333.59
-29.4704
-9160.25
-1545.99
-478.177
-253.927
-483.915
-454.863
-435.255
-522.524
-464.508
-700.38
-480.969
-1124.38
-347.539
-2122.53
-21.1204
-8894.24
-1545.83
-477.988
-253.816
-483.83
-454.701
-435.473
-523.107
-466.14
-707.57
-485.806
-1176.01
-360.721
-2290.9
-40.1157
-8618.13
-1545.65
-477.797
-253.692
-483.695
-454.357
-435.402
-521.866
-465.933
-697.296
-480.266
-1076.26
-342.597
-1447.2
-17.5142
-10228.1
-1545.42
-477.573
-253.553
-483.473
-454.078
-435.26
-522.332
-466.797
-706.635
-488.658
-1167.83
-374.505
-2342.07
-277.5
-8265.02
-1545.16
-477.358
-253.403
-483.189
-453.617
-434.756
-520.971
-465.61
-698.335
-485.841
-1100.3
-386.905
-1559.8
218.55
-10005.5
-1544.86
-477.134
-253.254
-482.843
-453.241
-434.171
-520.987
-464.962
-704.341
-489.731
-1163.43
-392.939
-2218.53
93.4652
-8853.62
-1544.54
-476.935
-253.089
-482.432
-452.693
-433.256
-519.562
-462.469
-698.291
-484.11
-1127.62
-375.905
-2125.51
-47.0946
-8723.98
-1544.2
-476.77
-252.961
-482.048
-452.318
-432.478
-519.315
-460.907
-701.195
-482.751
-1151.35
-375.806
-2314.36
-17.1438
-8834.83
-1543.85
-476.617
-252.783
-481.586
-451.717
-431.367
-517.772
-458.047
-693.979
-475.641
-1075.09
-338.53
-1573.2
234.234
-9613.53
-1543.49
-476.612
-252.728
-481.306
-451.462
-430.751
-517.524
-456.596
-696.064
-478.549
-1101.64
-413.632
-1695.73
276.158
-8660.16
-1543.17
-476.445
-252.56
-480.877
-450.813
-429.614
-515.967
-453.909
-691.325
-475.234
-1091.18
-414.802
-1973.98
87.3471
-8614.31
-1614.4
-579.402
-301.774
-546.462
-558.287
-529.456
-667.626
-569.125
-916.052
-575.494
-1433.71
-339.377
-2326.81
2189.16
-14866.7
-1614.3
-579.145
-301.507
-546.306
-557.713
-529.28
-666.235
-567.952
-912.834
-563.051
-1423.84
-292.827
-2089.7
2235.11
-14669.8
-1614.17
-578.926
-301.31
-546.208
-557.07
-529.108
-664.06
-566.808
-904.883
-553.52
-1405.24
-276.822
-2209.67
959.894
-15064.8
-1613.98
-578.603
-301.003
-545.992
-556.303
-528.908
-662.52
-566.716
-906.329
-557.665
-1481.8
-308.615
-3096.27
-4.08453
-12584
-1613.75
-578.267
-300.703
-545.778
-555.397
-528.593
-659.499
-565.3
-893.127
-549.989
-1414.1
-307.507
-2790.76
425.57
-12158.4
-1613.45
-577.879
-300.376
-545.468
-554.589
-528.284
-658.276
-565.617
-896.087
-557.826
-1453.41
-432.688
-3303.23
172.326
-12447.6
-1613.12
-577.494
-300.068
-545.141
-553.735
-527.818
-655.835
-564.175
-885.977
-548.018
-1386.2
-354.706
-2233.07
685.792
-13552
-1612.74
-577.09
-299.772
-544.729
-553.086
-527.303
-655.487
-563.989
-893.642
-552.932
-1479.56
-375.654
-3170.55
-204.417
-11224.1
-1612.33
-576.704
-299.503
-544.299
-552.416
-526.637
-653.718
-562.932
-883.127
-551.468
-1395.11
-357.821
-2288.48
893.069
-13577.6
-1611.88
-576.334
-299.278