/*--------------------------------*- C++ -*----------------------------------*\
| =========                 |                                                 |
| \\      /  F ield         | OpenFOAM: The Open Source CFD Toolbox           |
|  \\    /   O peration     | Version:  4.1                                   |
|   \\  /    A nd           | Web:      www.OpenFOAM.org                      |
|    \\/     M anipulation  |                                                 |
\*---------------------------------------------------------------------------*/
FoamFile
{
    version     2.0;
    format      ascii;
    class       surfaceScalarField;
    location    "7";
    object      phi;
}
// * * * * * * * * * * * * * * * * * * * * * * * * * * * * * * * * * * * * * //

dimensions      [0 3 -1 0 0 0 0];

internalField   nonuniform List<scalar> 
19125
(
803.495
-19.2258
832.195
996.684
18.9318
1323.91
1097.34
30.692
439.395
1129.85
34.8759
-307.655
1109.75
47.2355
-939.175
1052.43
55.5089
-1375.52
952.705
53.8026
-1561.5
814.423
52.5632
-1542.16
637.792
53.7816
-1419.96
406.937
60.8943
-1071.75
147.583
1.15199
-362.966
65.8795
-10.1084
690.558
-12.1464
-28.3805
1169.22
-61.2178
-1.28167
939.76
-2.84928
2113.24
790.951
-19.1263
860.997
986.007
20.6623
1339.97
1087.32
31.563
444.727
1121.28
35.5123
-303.528
1106.5
47.8791
-934.06
1056.03
56.5278
-1370.25
962.987
54.909
-1556.86
828.511
57.1218
-1537.47
658.133
62.3097
-1414.32
447.444
63.0113
-1097.97
176.422
23.4594
-456.163
63.8751
49.6614
673.711
-13.017
-39.173
1228.67
-85.5986
-13.3326
1114.57
-2.1994
2043.85
788.235
-18.9823
871.32
982.951
21.4552
1343.47
1082.92
30.8161
446.053
1116.19
34.0198
-302.368
1102.2
45.7095
-932.08
1054.01
54.1222
-1367.11
963.656
52.968
-1553.21
833.624
56.7365
-1534.27
672.951
62.2288
-1412.13
474.55
58.3974
-1120.23
201.018
48.3914
-495.688
65.6384
114.379
578.896
-12.9649
-48.3862
1187.64
-88.131
-17.9838
1155.93
-4.26419
2015.91
783.453
-17.9098
887.619
978.59
19.6265
1349.68
1077.44
26.9363
447.768
1110.25
29.3764
-300.481
1097.49
40.3304
-928.935
1051.85
48.3751
-1362.99
964.827
47.653
-1549.03
839.295
51.889
-1531.08
680.225
61.4707
-1411.79
477.035
58.9205
-1130.59
210.853
63.0118
-497.764
67.6041
158.673
465.19
-16.0406
-61.8194
1139.5
-84.5837
-15.8488
1155.71
-5.86985
2037.06
780.547
-16.6923
898.431
975.223
16.8488
1353.65
1072.12
22.2014
449.502
1104.17
23.1457
-298.803
1092.78
31.8312
-926.336
1049.98
38.8299
-1359.2
966.855
38.2544
-1544.68
846.15
42.2639
-1527.31
690.523
58.2452
-1411.23
487.803
58.9553
-1140.98
227.588
73.4721
-509.723
74.1751
179.8
337.273
-16.9239
-78.0918
1106.21
-81.2025
-15.1759
1155.24
-6.43821
2044.65
775.649
-13.2447
911.748
970.6
11.8619
1360.14
1066.6
14.9285
451.852
1098.14
14.7326
-297.221
1087.87
20.3907
-924.264
1047.98
25.4241
-1356.28
968.621
24.9811
-1541.32
853.385
27.1587
-1523.89
709.746
44.025
-1408.41
523.237
45.8171
-1158.33
272.328
79.5672
-553.452
108.784
151.205
184.896
-15.1341
-71.7629
1076.17
-75.3707
-9.29015
1144.89
-5.42226
2061.08
769.67
-5.20658
923.463
965.473
4.07962
1367.63
1061.29
4.96692
454.551
1092.47
4.73604
-296.06
1083.21
6.45764
-922.864
1045.87
8.13062
-1354.26
968.88
7.88269
-1539.08
855.384
8.36788
-1521.02
725.102
15.6764
-1403.74
559.844
16.1518
-1174.4
362.793
38.3597
-606.893
172.241
72.3223
-24.9049
-6.75894
-27.8343
959.007
-69.9267
-2.52733
1160.29
-1.46904
2058.66
767.152
5.17941
927.638
963.412
-4.87866
1370.84
1059.23
-5.82162
455.67
1090.68
-5.81794
-295.733
1082.25
-8.37809
-922.572
1045.97
-10.4262
-1354.09
968.952
-10.0112
-1539.3
853.093
-9.52605
-1521.35
724.635
-15.9302
-1403.28
561.427
-14.9679
-1177.64
394.502
-28.2715
-613.719
204.518
-39.3016
-111.091
-4.93606
27.1233
826.488
-70.6156
1.65803
1183.88
1.75609
2037.9
770.013
13.1361
922.461
965.746
-12.4113
1367.35
1061.62
-15.614
454.401
1092.79
-15.6851
-296.285
1083.38
-22.1103
-923.158
1045.82
-27.475
-1354.57
968.553
-26.8627
-1539.37
854.871
-28.2015
-1521.34
725.168
-44.9476
-1404.25
560.777
-45.6438
-1174.72
366.584
-72.355
-606.881
176.279
-125.877
-38.6212
-6.14142
73.6589
952.081
-69.3374
9.57436
1157.71
5.85382
2059.68
775.961
16.5725
910.602
970.923
-17.2314
1359.83
1067.08
-22.7657
451.627
1098.69
-23.977
-297.595
1088.32
-33.3539
-924.749
1048.25
-40.6693
-1356.81
968.703
-39.9752
-1541.83
853.459
-43.3504
-1524.5
710.049
-59.5116
-1409.46
523.358
-59.0902
-1158.24
271.362
-66.1329
-550.861
111.174
-165.915
180.865
-14.9474
81.6834
1075.54
-75.0556
15.7139
1144.65
7.01043
2061.52
780.855
17.81
897.149
975.602
-19.8834
1353.26
1072.73
-27.395
449.2
1104.91
-30.086
-299.322
1093.48
-41.6607
-927.018
1050.56
-50.0229
-1359.97
967.308
-49.2572
-1545.47
846.662
-53.0599
-1528.26
691.223
-63.0508
-1412.72
488.057
-59.2927
-1140.83
226.19
-55.5993
-506.131
73.0155
-147.961
337.292
-17.3232
64.384
1106.2
-81.1381
16.3875
1156.2
6.50576
2044.78
783.759
18.9093
886.274
979.014
-21.6218
1349.21
1078.17
-31.1884
447.386
1111.17
-34.6204
-301.138
1098.43
-46.8572
-929.794
1052.72
-55.5836
-1363.99
965.604
-54.4504
-1550.1
840.153
-57.9502
-1532.43
681.157
-64.0136
-1413.75
477.213
-58.9358
-1130.32
209.597
-41.5752
-493.186
66.0873
-106.079
466.818
-16.7305
50.1755
1139.12
-84.6789
18.0716
1157.75
4.98037
2036.98
788.546
19.081
869.921
983.418
-20.7614
1342.9
1083.75
-31.8505
445.579
1117.27
-36.0013
-303.176
1103.36
-48.847
-933.134
1055.13
-57.8055
-1368.36
964.751
-56.2917
-1554.56
834.839
-58.3471
-1536
674.023
-64.0946
-1414.54
474.728
-63.8155
-1119.92
199.943
-17.8808
-490.475
63.9142
-43.6575
581.404
-13.9085
40.3647
1187.27
-88.3128
13.3456
1158.13
2.86438
2015.76
791.265
19.2025
859.561
986.502
-18.977
1339.33
1088.22
-30.9009
444.191
1122.49
-35.2668
-304.429
1107.83
-48.0321
-935.234
1057.37
-56.593
-1371.66
964.298
-55.0482
-1558.42
829.915
-53.695
-1539.52
659.103
-55.3368
-1416.99
447.236
-62.0076
-1097.21
175.327
2.44582
-449.84
61.941
13.6591
677.442
-14.2465
28.8727
1228.42
-85.8428
2.20494
1116.28
3.18997
2043.61
803.832
830.747
997.237
1323.18
1098.33
438.758
1131.14
-308.717
1111.11
-940.542
1053.76
-1377.13
953.939
-1563.25
815.719
-1544.43
638.699
-1422.91
406.769
-1071.39
146.507
-356.789
63.4833
694.473
-13.5596
1168.17
-61.7735
944.254
2112.08
1746.35
-19.3665
176.214
2279.48
-14.1203
794.088
2434.46
20.6555
274.369
2421.44
39.4549
-306.476
2260.72
46.7986
-790.106
1998.94
46.2658
-1124.33
1682.88
42.4017
-1254.82
1371.02
44.9989
-1240.1
1071.67
44.9264
-1127.28
725.016
24.5764
-713.534
335.053
-54.1017
61.0599
97.6263
-3.0452
913.811
72.5999
-110.809
1232.03
-123.207
-163.688
1136.69
65.4531
2340.63
1744.98
-20.064
189.01
2271
-11.7971
811.622
2426.45
22.6686
287.255
2416.66
42.0621
-296.344
2262.17
49.3989
-782.173
2007.28
48.9501
-1118.04
1697.19
45.2181
-1249.59
1387.25
50.1404
-1232.67
1100.56
45.4286
-1128.14
781.87
7.5082
-762.204
383.765
-61.5749
-50.5863
111.371
73.1511
869.908
-7.18223
-101.603
1338.02
-221.758
-74.2748
1239.73
19.8199
2250.23
1745.94
-21.0523
194.205
2271.21
-10.1641
816.565
2425.35
24.065
290.506
2415.72
42.3962
-293.075
2262.73
49.0323
-778.718
2010.39
48.5302
-1114.35
1703.26
44.767
-1245.63
1396.05
49.8238
-1226.75
1116.81
41.6384
-1129.1
805.053
-0.553624
-800.417
402.074
-55.1455
-99.1403
102.544
154.143
797.433
-24.6774
-76.3047
1289.57
-238.08
-39.9121
1334.97
-16.774
2204.4
1746.27
-20.8503
202.506
2270.1
-9.43891
825.122
2424.04
21.7962
296.097
2415.56
38.8137
-288.417
2265.05
45.1812
-774.575
2016.11
44.9996
-1110.53
1712.59
41.1075
-1241.85
1406.16
47.5204
-1222.35
1122.24
43.0463
-1129.28
799.023
1.74065
-809.661
398.126
-48.3112
-103.703
90.8026
202.296
724.359
-27.5942
-73.1325
1254.73
-213.983
-25.0179
1327.2
-23.4997
2217.64
1747.06
-20.997
208.371
2269.91
-9.21601
830.576
2422.79
18.5266
299.887
2414.67
32.8336
-284.704
2266.04
38.1997
-770.732
2020.03
38.3417
-1106.53
1719.92
34.2072
-1237.67
1415.26
42.5714
-1217.7
1130.75
45.382
-1129.05
803.99
6.18004
-818.669
406.873
-36.8213
-124.099
91.0203
213.292
642.126
-32.7032
-75.0999
1231.9
-203.146
-1.11711
1301.78
-29.2048
2231.92
1746.46
-18.9435
215.392
2266.8
-7.66136
838.242
2419.07
12.6595
305.443
2411.94
22.7008
-279.956
2265.87
26.5881
-766.583
2023.58
27.1077
-1102.76
1726.98
23.6167
-1234.14
1427.51
30.907
-1212.76
1154.44
37.6896
-1127.65
838.28
7.64709
-843.639
447.281
-16.3488
-182.928
111.106
192.347
542.014
-26.1629
-66.6092
1204.94
-181.087
15.6968
1283
-19.4643
2252
1742.47
-8.8184
221.595
2259.52
-3.12563
846.046
2411.35
4.0211
311.354
2405.66
7.41326
-275.081
2262.97
8.6755
-762.264
2025.43
8.91787
-1098.53
1732.25
7.51466
-1229.8
1438.21
10.1996
-1206.27
1182.4
13.4446
-1123.69
886.158
2.37832
-872.887
518.152
-1.76915
-253.469
173.249
90.6315
421.711
-19.0813
-24.9071
1109.63
-184.789
11.2985
1330.39
-5.15652
2242.27
1739.28
7.38676
223.933
2255.31
2.4714
849.212
2407.16
-5.78671
313.625
2402.3
-9.99501
-273.465
2261.26
-11.7888
-761.067
2025.78
-12.1822
-1097.52
1733.35
-10.6567
-1228.7
1439.82
-13.1077
-1204.51
1189.35
-16.9451
-1122.42
897.488
-4.22051
-879.176
547.664
6.2198
-271.886
211.28
-54.7913
370.713
-23.3797
30.1783
1006.06
-203.72
-4.75155
1380.27
1.78465
2213.44
1742.12
18.1773
221.004
2259.5
6.84296
845.587
2411.41
-14.23
310.928
2405.64
-24.9679
-275.538
2262.76
-29.367
-762.702
2025.07
-30.1749
-1098.89
1731.87
-26.7504
-1230.07
1437.96
-34.2264
-1206.31
1182.6
-42.1634
-1123.68
886.433
-10.2024
-872.57
520.421
18.8624
-253.514
178.148
-166.397
415.255
-16.4674
73.8256
1103.05
-181.545
-9.59042
1327.62
18.8772
2243.75
1746.21
20.5029
214.727
2266.73
8.42128
837.718
2419.09
-19.9083
304.944
2411.89
-34.8294
-280.53
2265.66
-40.7113
-767.179
2023.23
-41.2493
-1103.31
1726.67
-37.3847
-1234.64
1427.44
-46.2806
-1213.22
1154.09
-50.1647
-1128.11
836.649
-8.8779
-842.127
444.026
39.6687
-179.047
109.433
-193.161
542.219
-26.1761
82.4769
1202.5
-181.151
5.62747
1284.41
29.5768
2251.25
1746.79
20.4961
207.631
2269.8
8.75694
829.912
2422.77
-22.9604
299.277
2414.58
-40.5418
-285.416
2265.79
-47.4327
-771.51
2019.62
-47.7306
-1107.32
1719.49
-44.2633
-1238.47
1415.02
-51.4658
-1218.6
1130.07
-47.9648
-1129.98
801.515
-4.32139
-816.828
401.678
51.8308
-118.458
86.5487
-185.549
644.806
-33.6492
79.08
1229.79
-204.444
28.7557
1303.86
24.2147
2230.2
1745.98
20.794
201.733
2269.95
9.61507
824.372
2423.99
-25.0236
295.404
2415.44
-43.8616
-289.266
2264.75
-50.9968
-775.538
2015.59
-51.0022
-1111.56
1711.96
-47.7368
-1242.99
1405.57
-53.6792
-1223.83
1121
-46.4881
-1130.65
795.521
-1.84252
-807.325
391.937
58.8032
-96.5763
85.3119
-140.855
728.747
-29.5926
81.0627
1252.04
-216.42
43.6223
1329.71
17.053
2215.39
1745.6
19.886
193.41
2271.01
11.3852
815.712
2425.27
-23.4116
289.705
2415.56
-43.2397
-294.089
2262.35
-51.036
-779.882
2009.71
-51.0798
-1115.65
1702.39
-47.8627
-1247.11
1395.06
-53.5146
-1228.84
1114.77
-49.8945
-1130.85
800.358
-9.97016
-797.385
394.965
64.3785
-90.6611
95.9899
-63.6365
803.158
-26.8307
104.709
1286.44
-240.265
78.3412
1336.84
-19.5948
2202.08
1744.61
19.2479
188.199
2270.77
13.8466
810.69
2426.35
-21.1895
286.387
2416.48
-40.3342
-297.464
2261.75
-48.0614
-783.48
2006.48
-47.9323
-1119.54
1696.06
-44.4848
-1251.38
1385.79
-47.5037
-1235.27
1097.51
-48.6742
-1129.94
775.786
-27.5709
-757.892
375.749
55.1024
-40.5323
103.413
8.98401
877.152
-8.98473
111.616
1333.9
-222.76
166.898
1241.49
-64.3621
2248.22
1745.95
175.408
2279.24
793.072
2434.33
273.39
2421.2
-307.744
2260.18
-791.581
1997.99
-1126
1681.57
-1256.77
1369.44
-1242.76
1068.26
-1129.08
718.012
-709.411
326.135
70.9083
88.7273
920.27
68.5631
1226.87
-126.768
1142.07
2336.55
1558.28
-0.233894
-42.7755
2079.11
-17.8582
278.688
2266.08
-11.3283
87.5195
2218.68
-3.56428
-261.249
1990.3
4.30795
-565.726
1654.46
13.8225
-794.345
1317.57
27.2868
-926.343
1072.09
47.1773
-1005.46
853.712
50.387
-903.548
552.597
-1.91217
-365.132
249.41
-185.339
450.441
-2.40063
-84.9447
1158.04
-0.654301
-63.8456
1270.88
-445.137
-280.992
1601.46
60.1462
2377.33
1564.21
-0.132182
-41.882
2087.92
-17.2384
287.288
2277.68
-10.3984
96.5522
2233.47
-2.25549
-253.437
2008.66
6.38291
-559.445
1676.46
16.7652
-788.781
1340.56
32.4436
-918.847
1096.43
54.4416
-995.809
901.429
41.6549
-924.408
624.317
-35.2587
-451.747
282.637
-202.664
308.418
-53.1561
-5.38274
1126.14
4.10166
-127.511
1344.42
-385.202
-194.824
1542.86
79.684
2365.47
1566.93
-0.443731
-41.3224
2092.71
-16.7189
290.255
2283.01
-9.03852
98.8461
2239.62
-0.733548
-251.216
2016.38
7.87052
-556.962
1686.43
18.0442
-785.686
1352.77
33.2288
-912.743
1111.74
53.3722
-984.662
928.494
33.8178
-938.014
659.413
-44.8039
-521.792
307.695
-190.572
240.485
-21.66
53.003
1068.4
-108.955
-84.1513
1333.5
-537.142
-97.6928
1666.03
5.87025
2270.68
1570.58
-0.478641
-40.4909
2098.9
-15.307
295.389
2290.71
-8.25192
103.493
2249.25
-0.4213
-247.269
2028.44
7.63367
-553.526
1701.14
17.0557
-782.24
1369.07
30.6135
-907.164
1123.88
52.4787
-976.267
933.872
33.4601
-938.914
655.037
-44.1302
-531.501
301.675
-173.072
232.157
-25.5046
82.5881
1021.95
-121.124
-53.979
1320.17
-516.481
-48.9042
1673.77
-26.8448
2266.38
1573.39
-0.686899
-39.8104
2103.86
-13.9915
298.783
2296.46
-7.26705
106.293
2256.16
-0.13552
-244.692
2037.05
6.80777
-550.797
1712
14.6779
-779.1
1381.54
25.3314
-901.92
1134.04
50.8361
-968.57
941.697
34.4775
-937.727
661.197
-42.4091
-539.891
299.521
-143.881
208.384
-42.3792
96.8444
969.769
-98.9773
-62.6196
1297.14
-459.853
-21.2846
1635.04
-11.156
2288.88
1576.75
-1.05663
-39.0663
2108.93
-10.9579
303.023
2302.47
-5.66861
110.305
2263.68
-0.263377
-241.044
2046.66
4.68732
-547.441
1724.19
10.2166
-775.831
1395.52
16.8227
-896.958
1153.73
39.1803
-959.304
972.912
28.21
-940.566
700.734
-32.9187
-580.953
328.543
-91.1304
136.51
-32.4814
94.9253
904.956
-95.68
-76.1813
1281.7
-441.492
-20.825
1628.35
30.902
2297.82
1579.51
-1.44905
-38.3025
2112.19
-4.56257
306.973
2306.19
-2.56807
114.242
2268.92
-0.709106
-237.363
2054.35
0.927799
-543.935
1735.61
2.73396
-772.308
1409.47
4.67876
-891.521
1178.21
13.0835
-948.913
1018.74
9.07512
-945.09
761.026
-12.9664
-635.124
391.19
-26.3979
51.6318
29.3616
54.1213
824.342
-146.313
-35.4691
1244.59
-521.005
-12.1124
1696.37
25.4136
2255.42
1579.94
-1.06249
-37.9681
2112.32
3.52985
308.725
2306.39
1.11968
115.863
2269.79
-1.52768
-236.049
2056.32
-3.82745
-542.834
1739.09
-6.27252
-771.287
1413.52
-8.57642
-889.874
1186.05
-18.1457
-945.815
1034.89
-15.8831
-946.301
780.008
9.22549
-646.486
419.825
31.0663
30.8302
77.1089
-20.471
788.019
-195.26
40.3572
1202.6
-599.756
18.3209
1754.33
-28.3092
2199.8
1578.58
-0.435136
-38.3334
2111.03
9.80962
306.847
2305.01
4.11251
113.953
2267.76
-1.9806
-237.839
2053.38
-7.68733
-544.465
1735.03
-14.0613
-772.753
1409.64
-21.3416
-891.916
1178.85
-45.4912
-948.17
1019.24
-36.0985
-943.848
760.216
29.3157
-633.641
391.694
93.4593
52.6126
33.8045
-68.2734
820.944
-145.683
81.4672
1241.42
-521.988
25.0237
1697.23
-31.4591
2253.13
1575.92
-0.0828566
-38.9986
2107.94
12.8043
302.694
2301.44
5.68828
109.869
2262.62
-2.067
-241.626
2045.67
-9.80539
-548.114
1723.47
-18.6487
-776.52
1395.58
-30.3379
-897.752
1154.14
-57.9353
-959.337
971.792
-42.3863
-939.474
696.541
39.0173
-576.579
321.118
146.758
143.074
-35.4927
-75.7814
906.335
-100.795
68.3279
1280.94
-449.482
24.6228
1633.5
10.5328
2289.25
1572.68
0.0315947
-39.7402
2102.91
14.1779
298.304
2295.38
6.77488
105.722
2254.94
-1.63078
-245.416
2035.79
-10.4911
-551.673
1710.89
-20.9703
-780.096
1381.08
-35.8383
-903.161
1133.82
-59.9981
-969.278
939.566
-41.0333
-937.078
654.976
41.3754
-534.598
288.845
176.923
217.505
-48.5597
-65.8018
972.228
-105.501
58.671
1296.39
-468.901
51.626
1640.26
26.8891
2277.72
1569.88
0.148041
-40.4506
2097.88
15.7208
294.828
2289.5
7.73317
102.823
2247.82
-1.09837
-248.122
2026.85
-10.4742
-554.595
1699.54
-21.7024
-783.512
1367.89
-38.2773
-908.908
1122.58
-60.6646
-977.847
930.174
-40.8221
-938.462
646.642
42.4975
-524.918
289.036
194.464
243.483
-33.3771
-40.1581
1025.51
-128.656
87.0451
1318.94
-525.618
99.9107
1678.39
-4.87552
2254.46
1566.17
-0.0537524
-41.3243
2091.58
16.4125
289.608
2281.64
9.30596
98.0691
2237.93
0.721317
-252.206
2014.42
-8.61427
-558.232
1684.28
-19.9717
-787.238
1350.77
-36.8561
-915.024
1109.07
-60.589
-987.219
922.874
-48.0177
-937.463
648.818
32.5997
-513.434
293.154
205.283
254.18
-31.0469
14.3732
1072.82
-117.223
128.012
1331.65
-546.424
195.673
1670.28
-76.8768
2257.96
1563.43
0.123662
-41.9382
2086.74
17.2399
286.553
2276.24
10.4839
95.7021
2231.62
2.38358
-254.508
2006.41
-6.04317
-560.851
1673.76
-16.3065
-790.559
1337.68
-30.5394
-921.613
1092.39
-51.5409
-999.027
893.814
-56.2113
-923.177
611.575
-1.72273
-441.333
266.778
185.841
323.702
-62.7005
89.9738
1131.03
-5.87255
64.1082
1340.98
-396.688
278.472
1549.51
-56.656
2352.17
1557.49
-42.8793
2077.86
277.862
2264.51
86.5647
2216.64
-262.451
1987.8
-567.29
1651.5
-796.31
1314.58
-929.239
1068.1
-1008.34
845.653
-902.144
539.278
-355.515
234.033
463.508
-11.7746
1161.26
-13.763
1268.63
-460.616
1608.94
2360.73
1384.69
-0.874996
20.6793
1550.77
-7.92944
115.204
1601.54
-10.0154
38.3932
1493.29
-6.69796
-153.465
1277.7
4.09489
-354.365
1019.78
20.6598
-544.732
811.12
54.8144
-734.636
684.072
94.1932
-897.306
488.98
123.275
-697.325
200.199
10.8054
7.34031
-86.329
-242.007
836.412
-394.432
-49.5692
1460.17
-766.539
-13.2808
1654.38
-1225.37
-194.849
2067.85
-44.7
1857.95
1384.79
-0.909337
20.6681
1554.44
-7.94378
117.643
1608.65
-9.3072
41.6211
1503.92
-5.14142
-150.264
1292.44
7.30527
-351.176
1039.74
25.3407
-540.765
835.88
65.4017
-725.57
731.883
101.087
-898.706
588.982
99.9518
-758.184
309.887
-45.7227
-116.125
-27.2584
-279.303
682.858
-358.922
-8.73338
1416.96
-583.782
-67.1249
1623.12
-1074.66
-185.474
2024.37
13.7657
1950.2
1385.38
-1.45929
20.8091
1557
-8.11344
118.79
1612.53
-8.71369
42.7199
1509.13
-3.93074
-149.028
1299.84
8.96784
-349.335
1050.47
26.5521
-537.533
852.202
65.9238
-714.996
763.903
94.4582
-889.734
652.031
74.4508
-800.643
372.059
-65.2214
-222.323
-8.05495
-267.183
608.479
-363.491
32.7669
1382.34
-699.164
-40.0806
1642.13
-1167.78
-114.336
2063.5
-13.0854
1863.11
1385.46
-1.56965
20.911
1559.58
-7.46521
120.619
1617.34
-7.93569
44.9492
1516.33
-3.52345
-146.677
1309.93
8.49945
-346.652
1063.85
24.2535
-533.868
867.531
61.5918
-706.509
776.869
89.9388
-881.087
667.006
54.1604
-808.761
382.316
-73.4626
-238.571
-4.60963
-243.698
595.596
-363.003
56.7607
1356.35
-720.692
-7.35827
1645.14
-1167.85
-67.6681
2074.26
-38.3779
1852.08
1385.84
-1.77633
21.0591
1562.1
-6.83587
121.884
1621.39
-7.23352
46.2976
1522.04
-3.63573
-145.233
1317.82
6.54435
-344.621
1074.65
18.9419
-530.619
879.671
53.3674
-698.719
786.763
86.4989
-872.223
679.231
35.2116
-811.248
394.455
-77.0814
-251.497
-12.3829
-199.882
571.405
-371.072
64.7967
1320.42
-683.297
-19.822
1621.83
-1125.16
-50.0865
2059.32
-18.6081
1870.9
1386.24
-1.97532
21.1696
1564.77
-5.56312
123.208
1625.75
-5.79632
47.8806
1528.15
-3.4767
-143.599
1326.29
3.53534
-342.579
1085.74
11.393
-527.735
895.313
37.4697
-690.629
815.636
68.4167
-861.545
722.416
17.5736
-829.709
442.157
-62.5185
-315.258
2.53272
-133.434
509.685
-373.066
57.2251
1288.13
-687.835
-40.0036
1616.65
-1117.55
-51.6877
2059.66
23.5951
1865.58
1386.71
-2.26047
21.2903
1567.06
-3.11052
124.161
1629.37
-2.88355
49.0069
1533.25
-2.20872
-142.511
1334.02
-0.000741187
-341.172
1096.66
2.0799
-525.632
913.984
11.239
-682.615
860.057
23.0234
-849.594
789.665
1.96133
-859.087
515.12
-24.3774
-398.721
37.8084
-43.7585
439.265
-367.29
30.8499
1255.81
-762.003
-23.1687
1622.47
-1175.2
-26.1194
2083.99
20.9121
1814.58
1385.57
-0.840729
21.6099
1566.02
0.537268
124.616
1629
0.592355
49.3996
1533.73
-0.76587
-142.225
1335.85
-4.04555
-340.913
1099.53
-7.73708
-525.146
919.858
-18.7172
-680.245
876.977
-34.5325
-845.379
813.844
-14.5384
-866.67
537.926
17.9085
-412.856
48.5915
45.3526
431.05
-373.902
-7.08585
1248.45
-844.752
23.3628
1626.92
-1235.82
22.69
2096.59
-31.5307
1753.84
1385.08
0.852599
21.8369
1564.81
3.4925
124.148
1627.3
3.29559
48.7547
1531.47
0.0540827
-142.824
1332.86
-8.20698
-341.7
1096.15
-17.6853
-526.095
914.341
-45.8486
-682.976
860.058
-80.97
-847.45
788.567
-30.0577
-856.839
511.853
57.3993
-396.42
34.8706
133.461
441.484
-368.83
-38.2723
1255.83
-767.593
40.7242
1622.82
-1181.03
48.1411
2085.21
-34.7221
1804.53
1385.5
1.15039
21.7704
1563.72
4.9644
123.002
1624.61
4.79837
47.4621
1526.8
0.234166
-143.99
1325.11
-11.3241
-343.313
1084.88
-25.412
-528.559
895.268
-62.3768
-691.616
814.499
-99.1651
-860.373
717.87
-46.7994
-826.105
432.921
72.9667
-307.199
-7.26543
199.321
517.399
-380.075
-49.5283
1290.4
-697.736
21.1259
1618.19
-1125.38
47.5751
2061.7
10.0911
1846.81
1385.21
1.00317
21.702
1561.13
5.71742
121.625
1620.21
5.6746
45.7558
1520.47
0.350371
-145.798
1316.19
-13.0757
-345.641
1073.12
-30.5482
-531.887
878.774
-70.8843
-700.31
784.677
-102.553
-871.795
672.831
-64.3132
-807.72
381.831
70.3507
-240.983
-25.9839
242.804
581.834
-380.822
-45.6437
1323.18
-694.852
8.38456
1623.16
-1132.67
65.4425
2060.21
34.9182
1849.08
1384.72
0.996883
21.529
1558.4
6.58433
120.274
1615.88
6.71124
44.3004
1514.42
1.06758
-147.384
1307.8
-13.1645
-347.884
1061.6
-32.3965
-535.463
865.438
-74.8066
-708.826
772.881
-106.318
-881.526
657.771
-83.0828
-804.583
366.706
61.8499
-225.352
-20.6662
265.279
608.379
-375.169
-25.1051
1359.48
-733.847
39.9981
1646.01
-1176.06
111.64
2074.4
12.6738
1829.89
1384.53
0.571977
21.3751
1555.63
6.69771
118.383
1610.8
7.62238
41.9863
1506.85
2.69454
-149.886
1297.15
-10.9245
-350.773
1047.41
-30.4474
-539.449
848.568
-72.8328
-718.16
757.203
-111.07
-891.104
639.371
-107.473
-795.242
353.653
40.4786
-206.348
-26.2482
275.615
623.743
-377.171
13.0436
1385.6
-714.445
66.4992
1642.42
-1177.37
181.75
2063.09
-12.2545
1839.57
1383.92
0.640133
21.1231
1553.01
6.99766
117.156
1606.78
8.72008
40.83
1501.38
4.80086
-151.227
1289.27
-6.90501
-352.759
1035.81
-24.5986
-542.952
830.805
-60.0047
-729.437
722.732
-101.677
-900.35
573.407
-130.354
-750.974
290.184
-17.1615
-100.475
-45.8577
236.099
699.257
-371.976
50.2488
1419.94
-601.805
14.4383
1622.86
-1088.01
191.591
2025.87
44.9184
1925.41
1383.77
21.0327
1549.2
114.625
1599.44
37.5162
1490.43
-154.553
1274.09
-356.109
1015.37
-547.121
805.946
-738.447
674.807
-898.068
473.304
-690.421
181.266
18.7268
-106.121
848.772
-411.765
1462.1
-786.621
1654.3
-1236.55
2065.54
1831.5
1369
0.271934
94.376
1361.7
-2.09511
123.151
1321.48
-2.03274
78.3026
1193.73
3.02895
-28.6792
1003.26
16.5671
-172.015
767.12
38.0106
-323.524
535.705
101.841
-538.321
270.789
171.224
-670.068
-177.544
281.202
-288.855
-602.347
46.6173
497.155
-968.967
-61.8554
1254.79
-1323.09
-15.6416
1810.63
-1649.37
-59.3104
1983.09
-1602.82
-150.302
2034.14
-49.0891
1259.52
1368.58
0.620218
94.5556
1361.65
-1.69458
124.17
1322.74
-1.25646
79.7428
1197.54
4.96688
-27.0024
1012.25
21.0081
-170.33
785.876
44.9401
-321.321
576.895
119.672
-534.419
379.756
174.36
-704.704
63.5429
235.896
-396.666
-345.404
-20.0663
359.505
-786.878
-98.3638
1160.84
-1161.74
3.40837
1772.78
-1492.42
-73.804
1968.29
-1571.27
-131.883
2084.8
-26.009
1339.1
1368.93
0.442203
94.6818
1362.86
-1.60178
124.766
1324.8
-0.843875
80.3551
1201.14
5.77592
-26.1779
1019.21
22.5898
-168.988
798.916
46.0343
-318.333
607.89
118.854
-523.152
452.161
156.98
-716.626
194.776
162.33
-469.693
-249.794
-52.8615
255.042
-762.35
-89.9383
1112.61
-1169.5
32.975
1759.92
-1526.59
-52.9297
1978.34
-1573.47
-100.177
2078.68
-35.3815
1300.93
1368.77
0.399915
94.8437
1363.45
-1.30794
125.64
1326.63
-0.577448
81.4908
1205
5.46292
-24.7373
1026.66
21.4708
-167.188
811.911
42.271
-315.358
626.906
113.042
-515.692
479.8
141.698
-718.698
230.995
96.8586
-494.486
-225.816
-71.7575
237.136
-753.349
-70.9776
1104.17
-1170.91
52.7961
1754.09
-1536.67
-26.9906
1984.96
-1570.55
-74.6158
2082.57
-47.8475
1293.26
1368.9
0.202846
94.9592
1364.52
-1.3243
126.272
1328.79
-0.78289
82.2247
1208.79
3.99512
-23.7679
1033.63
17.6653
-165.659
823.902
33.7136
-312.329
642.085
104.047
-507.907
499.389
129.108
-716.937
254.869
42.3111
-512.181
-212.793
-76.1523
220.558
-749.855
-49.4901
1086.98
-1158.5
47.0485
1734.81
-1511.15
-26.7437
1974.23
-1560.59
-51.3445
2085.49
-44.7628
1301.4
1368.8
0.155693
95.0803
1365.02
-1.2326
126.88
1330.28
-1.15791
82.9945
1211.67
1.79086
-22.7836
1039.78
11.1619
-164.19
834.642
20.8396
-309.724
667.082
78.9477
-497.971
550.436
99.6265
-715.418
318.964
2.5147
-558.441
-170.176
-68.4642
166.193
-738.688
-31.4265
1060.13
-1158.42
29.4505
1725.45
-1509.17
-30.632
1971.29
-1550.21
-31.9226
2081.27
-22.3753
1291.32
1368.85
0.0432696
95.1804
1365.66
-1.15354
127.257
1331.64
-1.59468
83.4592
1213.99
-0.883756
-22.1856
1045.42
1.70875
-163.149
844.434
4.01859
-307.829
701.984
25.8144
-487.033
632.195
32.3015
-712.482
411.762
-8.75641
-627.382
-116.332
-31.761
92.6686
-728.178
-11.6363
1031.32
-1175.65
11.841
1720.9
-1542.93
-16.5822
1975.69
-1554.65
-12.1878
2075.98
-15.6609
1264.36
1368.84
-0.0522701
95.3217
1365.75
-0.904623
127.449
1331.87
-1.92268
83.6011
1214.43
-3.64625
-22.0245
1046.75
-8.6331
-162.886
846.192
-13.2849
-307.288
714.391
-39.2671
-483.363
663.309
-51.6096
-710.387
438.122
-6.79325
-643.448
-115.738
24.4225
84.8208
-748.498
13.1643
1039.01
-1211.88
-3.06005
1726.72
-1589.43
11.7915
1976.1
-1562.99
2.24193
2055.71
-27.7706
1225.64
1369.04
-0.373252
95.3486
1365.83
-0.800496
127.25
1331.53
-2.19656
83.3202
1213.74
-6.33557
-22.3517
1044.77
-17.9622
-163.402
843.5
-30.1053
-308.002
700.705
-92.8332
-486.615
629.429
-118.771
-709.014
408.488
-16.8665
-625.826
-120.152
62.7962
93.8443
-730.154
31.6924
1032.96
-1176.36
-23.0706
1722.05
-1543.43
25.2871
1976.4
-1553.65
23.1703
2074.5
-10.7121
1247.25
1368.9
-0.614687
95.2345
1365.14
-0.766312
126.716
1330.01
-2.34723
82.7356
1211.15
-8.40926
-23.0545
1038.67
-24.1674
-164.635
832.955
-42.7039
-310.241
664.701
-118.036
-498.16
544.311
-146.348
-712.408
308.757
-55.9206
-551.499
-180.683
71.1849
173.85
-745.062
48.7688
1064.7
-1162.24
-42.5939
1727.1
-1510.73
20.6489
1971.32
-1546.3
42.0777
2078.36
26.5233
1268.71
1368.9
-0.987184
95.095
1364.48
-0.75265
126.026
1328.28
-2.2607
81.8656
1207.85
-9.58755
-24.1986
1031.88
-27.4719
-166.363
821.242
-50.6723
-313.284
638.585
-127.096
-508.593
492.101
-157.479
-714.181
241.117
-108.643
-504.015
-228.379
67.9902
231.706
-760.13
68.6768
1093.68
-1166.05
-50.419
1736.92
-1516.32
21.4101
1972.67
-1558.74
66.4028
2078.3
39.9857
1276.78
1368.64
-1.1773
94.9528
1363.22
-0.369811
125.302
1325.87
-1.6459
81.032
1203.66
-9.47003
-25.2993
1024.29
-27.9024
-168.089
808.409
-53.6228
-316.631
621.584
-131.974
-517.125
469.575
-171.018
-715.981
213.056
-172.693
-484.018
-245.559
49.8251
251.421
-766.649
86.2626
1111.88
-1181.21
-31.9451
1755.57
-1543.98
47.9919
1982.19
-1570.96
92.9663
2074.81
31.1017
1270.16
1368.68
-1.48477
94.7504
1362.47
-0.127534
124.344
1323.84
-0.833548
79.7998
1199.4
-8.0435
-26.8766
1016.2
-25.3948
-170.092
794.457
-51.3967
-319.931
600.065
-130.141
-525.603
437.944
-186.176
-713.83
172.17
-245.197
-456.968
-273.002
16.1139
272.53
-778.053
93.5381
1121.52
-1182.01
-3.32068
1760.93
-1535.85
70.1521
1974.09
-1574.64
126.017
2068.83
23.6577
1276.55
1368.06
-0.97555
94.5622
1360.79
0.60863
123.675
1321.31
0.360905
79.1111
1195.22
-5.3826
-27.8058
1008.57
-19.9126
-171.595
780.348
-42.8997
-323.229
567.168
-108.837
-537.566
362.399
-180.629
-701.131
36.1847
-287.266
-382.695
-371.869
-52.6783
376.367
-804.031
55.3829
1169.57
-1175.46
14.9002
1773.15
-1503.65
57.5136
1963.69
-1573.81
146.92
2075.12
46.1215
1314.27
1368.23
94.3371
1360.36
122.583
1319.49
77.5725
1190.75
-29.6023
998.821
-173.429
760.761
-325.566
525.931
-540.998
253.207
-665.48
-201.84
-276.692
-626.45
507.349
-988.121
1260.45
-1338.77
1809.23
-1659.08
1975.76
-1602.74
2021.1
1235.09
1398.73
0.725009
127.188
1352.37
0.72585
169.115
1275.16
1.53095
154.42
1124.43
6.994
118.09
904.398
21.1911
37.9413
618.01
46.329
-57.3883
260.589
126.252
-230.025
-249.932
219.861
-216.649
-882.959
261.905
299.318
-1373.03
185.106
959.28
-1697.25
47.2427
1569.82
-1856.84
-58.1499
1965.96
-1864.95
-123.17
1995.58
-1566.32
-134.341
1754.67
-16.7567
1075.17
1398.99
0.930026
127.231
1353.12
1.17146
169.591
1276.88
2.40665
155.101
1128.71
9.37412
118.781
914.673
26.7849
38.1107
640.734
56.5577
-57.6115
319.193
151.22
-237.845
-115.748
224.585
-274.489
-693.4
224.368
218.523
-1194.3
144.037
901.476
-1558.97
30.1238
1542.62
-1775.04
-43.4939
1974.19
-1849.04
-110.488
2029.62
-1602.03
-107.835
1811.27
-20.5314
1086.8
1399.45
0.727088
127.241
1354.31
1.21292
169.856
1278.92
2.7686
155.375
1132.85
10.1937
119.061
923.481
28.832
38.3355
659.381
58.6549
-56.3297
369.043
151.725
-233.321
-13.4272
200.213
-309.784
-576.1
161.787
155.559
-1126.42
89.579
859.822
-1531.82
22.9986
1525.13
-1767.91
-22.2088
1974.72
-1845
-88.21
2033.15
-1591.49
-89.4106
1806.75
-36.457
1077.27
1399.65
0.526614
127.264
1355.15
1.09611
170.242
1280.82
2.69105
155.893
1137.11
9.51917
119.648
932.279
27.7019
38.7699
675.911
55.0172
-55.3524
395.416
148.102
-231.573
29.5695
174.356
-326.995
-533.459
100.369
129.96
-1109.17
48.8552
853.566
-1529.28
19.3321
1527.95
-1771.29
-8.78264
1982.67
-1847.19
-67.8031
2040.45
-1586.92
-73.5771
1806.47
-45.1942
1064.19
1399.87
0.280571
127.26
1356.16
0.574194
170.493
1282.94
1.93518
156.195
1141.35
7.34998
119.991
941.056
23.2178
39.115
692.164
45.6816
-54.1012
417.417
142.851
-227.91
64.9396
149.76
-339.866
-494.819
42.6094
105.335
-1086.65
15.9967
845.251
-1513.63
10.5627
1522.73
-1758.44
-7.75599
1978.59
-1842.31
-49.6962
2039.99
-1593.35
-50.3952
1813.36
-57.6113
1061.43
1399.96
0.1546
127.27
1356.75
-0.0791578
170.734
1284.5
0.66197
156.51
1144.66
4.03775
120.368
949.046
15.1353
39.5007
708.375
29.6049
-52.9758
459.902
114.305
-220.953
148.893
106.279
-360.93
-414.811
-4.76859
52.6403
-1048.99
-11.2508
827.614
-1497.68
-0.615434
1520
-1750.47
-9.36939
1979.86
-1834.12
-32.1477
2037.39
-1584.75
-24.058
1805.56
-52.4272
1044.19
1400.1
0.000897257
127.274
1357.37
-0.967875
170.861
1285.93
-1.13078
156.686
1147.41
-0.2179
120.589
956.773