/*--------------------------------*- C++ -*----------------------------------*\
| =========                 |                                                 |
| \\      /  F ield         | OpenFOAM: The Open Source CFD Toolbox           |
|  \\    /   O peration     | Version:  4.1                                   |
|   \\  /    A nd           | Web:      www.OpenFOAM.org                      |
|    \\/     M anipulation  |                                                 |
\*---------------------------------------------------------------------------*/
FoamFile
{
    version     2.0;
    format      ascii;
    class       volVectorField;
    location    "7";
    object      U;
}
// * * * * * * * * * * * * * * * * * * * * * * * * * * * * * * * * * * * * * //

dimensions      [0 1 -1 0 0 0 0];

internalField   nonuniform List<vector> 
6750
(
(17.8306 -0.0809981 12.1199)
(6.11179 0.0760734 17.0425)
(13.0888 0.133972 5.23262)
(12.9982 0.164443 -3.88369)
(12.6101 0.227057 -11.293)
(12.3832 0.268982 -16.4218)
(11.4025 0.261684 -18.8245)
(10.0921 0.247987 -18.8948)
(8.15383 0.233912 -17.7862)
(6.36411 0.276347 -14.3306)
(2.56089 0.0113918 -6.65348)
(1.18997 -0.107487 7.04637)
(-0.489206 -0.0973296 12.1865)
(1.4112 -0.00597269 10.0384)
(-4.6646 -0.0122932 22.9411)
(17.5811 -0.120394 12.5371)
(5.94862 0.12342 17.1769)
(13.0044 0.195854 5.20729)
(12.8789 0.221353 -3.89419)
(12.5342 0.296838 -11.2601)
(12.3873 0.347837 -16.3722)
(11.4814 0.336297 -18.776)
(10.2456 0.337076 -18.8525)
(8.31974 0.364838 -17.7055)
(6.6363 0.391305 -14.547)
(3.2357 0.0340397 -7.59986)
(1.13214 0.0488781 7.11985)
(-0.422353 -0.199921 12.905)
(1.14625 -0.0319488 11.5672)
(-4.83057 -0.0150624 22.4349)
(17.5015 -0.102015 12.6784)
(5.91659 0.115799 17.1984)
(12.9725 0.16846 5.19008)
(12.8173 0.18546 -3.91158)
(12.4774 0.24851 -11.2601)
(12.3477 0.294685 -16.3492)
(11.4754 0.287355 -18.7386)
(10.2657 0.309847 -18.8225)
(8.41727 0.339566 -17.6706)
(6.85747 0.322082 -14.7424)
(3.66032 0.218165 -8.06782)
(1.24208 0.486764 5.86419)
(-0.486374 -0.240931 12.4468)
(1.17013 -0.100745 12.0918)
(-4.89995 -0.0153817 22.0953)
(17.3721 -0.107251 12.9027)
(5.86289 0.120626 17.2387)
(12.9329 0.171207 5.16105)
(12.7436 0.19114 -3.92918)
(12.4126 0.259765 -11.2461)
(12.307 0.308295 -16.311)
(11.4681 0.303224 -18.6916)
(10.2991 0.324236 -18.7868)
(8.5144 0.357992 -17.6584)
(6.91257 0.33267 -14.8617)
(3.69678 0.330351 -8.13199)
(1.4137 0.787751 4.2824)
(-0.613615 -0.30688 11.8124)
(1.20373 -0.099052 12.2408)
(-4.83004 -0.0299616 22.3182)
(17.2894 -0.0963189 13.0484)
(5.83028 0.102367 17.2644)
(12.8929 0.135652 5.14896)
(12.6707 0.143418 -3.9385)
(12.3469 0.198058 -11.2377)
(12.2681 0.240085 -16.2798)
(11.4658 0.236523 -18.6453)
(10.3469 0.262033 -18.7449)
(8.62314 0.334934 -17.6435)
(7.02699 0.330906 -14.9851)
(3.848 0.368911 -8.25544)
(1.66564 0.973934 2.50601)
(-0.733471 -0.389873 11.3371)
(1.26538 -0.0862902 12.2694)
(-4.7964 -0.0346499 22.389)
(17.1812 -0.0899327 13.2304)
(5.77182 0.0852163 17.3121)
(12.8483 0.111195 5.13533)
(12.599 0.113872 -3.95383)
(12.2804 0.156476 -11.2366)
(12.2246 0.193206 -16.2583)
(11.4648 0.190443 -18.609)
(10.3874 0.210364 -18.707)
(8.74679 0.318178 -17.6018)
(7.32629 0.329844 -15.1522)
(4.35823 0.468598 -8.71154)
(2.36128 0.995761 0.256219)
(-0.819687 -0.473764 10.9057)
(1.3539 -0.0770781 12.2623)
(-4.73739 -0.0371869 22.54)
(17.077 -0.0570375 13.3927)
(5.70006 0.0474886 17.3728)
(12.8025 0.0579959 5.131)
(12.5331 0.0552135 -3.96812)
(12.2181 0.0761965 -11.2404)
(12.1824 0.0959497 -16.2522)
(11.4602 0.0932603 -18.6007)
(10.3985 0.0969927 -18.6971)
(8.78121 0.176625 -17.559)
(7.6349 0.181009 -15.2843)
(4.85199 0.400464 -9.25994)
(3.82819 0.768213 -2.99045)
(-0.770889 -0.315278 9.42354)
(1.48689 -0.0252939 12.4185)
(-4.73456 -0.0211831 22.4846)
(17.0359 2.67566e-05 13.4515)
(5.67166 -0.00250554 17.4008)
(12.7835 -0.00262362 5.13294)
(12.5093 -0.00323491 -3.97058)
(12.2019 -0.00568809 -11.2395)
(12.1778 -0.00682229 -16.2538)
(11.4677 -0.0064174 -18.6131)
(10.3933 -0.00362735 -18.7179)
(8.73499 0.00022211 -17.5703)
(7.67299 0.00508641 -15.3139)
(4.83431 0.031652 -9.28074)
(4.51535 0.109038 -4.35491)
(-0.724669 -0.00419659 7.74777)
(1.5202 -0.00371021 12.6287)
(-4.78592 0.000734127 22.2338)
(17.083 0.0566333 13.3806)
(5.7044 -0.0513225 17.372)
(12.8051 -0.0623346 5.13205)
(12.5373 -0.0609499 -3.96871)
(12.2213 -0.0864525 -11.2427)
(12.1831 -0.108147 -16.2552)
(11.4582 -0.104399 -18.6041)
(10.3931 -0.102825 -18.7015)
(8.77499 -0.180115 -17.5658)
(7.64315 -0.178141 -15.2894)
(4.86193 -0.352982 -9.2586)
(3.90974 -0.609355 -3.22302)
(-0.765011 0.31814 9.33859)
(1.49574 0.0240359 12.4033)
(-4.73107 0.0230941 22.4909)
(17.1873 0.0891808 13.2164)
(5.77602 -0.0876866 17.3109)
(12.8519 -0.114605 5.13585)
(12.6056 -0.118853 -3.95562)
(12.2863 -0.165565 -11.2406)
(12.2286 -0.204111 -16.2636)
(11.4668 -0.200514 -18.615)
(10.3871 -0.216311 -18.7145)
(8.7487 -0.324998 -17.6149)
(7.33163 -0.330701 -15.1563)
(4.35443 -0.432028 -8.69055)
(2.38437 -0.891581 0.149494)
(-0.824832 0.492403 10.8942)
(1.35967 0.0803888 12.2655)
(-4.7361 0.0400417 22.5421)
(17.2957 0.0957066 13.0326)
(5.83467 -0.104162 17.2625)
(12.8973 -0.138546 5.14915)
(12.6794 -0.147763 -3.94138)
(12.3554 -0.206063 -11.2435)
(12.2752 -0.249832 -16.2875)
(11.4716 -0.245787 -18.6542)
(10.3511 -0.268308 -18.7559)
(8.63043 -0.342495 -17.6617)
(7.03597 -0.331699 -14.9906)
(3.84286 -0.324167 -8.2293)
(1.64624 -0.906602 2.479)
(-0.744085 0.407739 11.3341)
(1.26572 0.0892273 12.2871)
(-4.79615 0.0380725 22.3887)
(17.3786 0.10675 12.8861)
(5.86746 -0.12176 17.2361)
(12.938 -0.173512 5.16076)
(12.7542 -0.194837 -3.93313)
(12.4235 -0.266809 -11.2533)
(12.3171 -0.317194 -16.3208)
(11.4774 -0.312119 -18.7033)
(10.3069 -0.331238 -18.8015)
(8.52588 -0.368228 -17.6819)
(6.92252 -0.336005 -14.8685)
(3.68921 -0.290755 -8.0992)
(1.39465 -0.734879 4.27349)
(-0.627972 0.318723 11.8086)
(1.2016 0.101663 12.2672)
(-4.83119 0.0337245 22.3166)
(17.5081 0.10169 12.6609)
(5.92143 -0.116538 17.1949)
(12.9782 -0.170298 5.18923)
(12.8295 -0.188448 -3.91673)
(12.4903 -0.254261 -11.269)
(12.3604 -0.302106 -16.3614)
(11.488 -0.295041 -18.7531)
(10.2774 -0.31648 -18.8408)
(8.43294 -0.349509 -17.6993)
(6.86634 -0.325143 -14.7512)
(3.6538 -0.182256 -8.03293)
(1.22385 -0.446796 5.86102)
(-0.504087 0.249356 12.4443)
(1.16606 0.0990048 12.1263)
(-4.90194 0.0196943 22.0917)
(17.5879 0.120204 12.5191)
(5.95367 -0.123805 17.1727)
(13.0105 -0.197316 5.20608)
(12.8923 -0.223999 -3.90005)
(12.5489 -0.30217 -11.2701)
(12.4022 -0.354988 -16.3859)
(11.4965 -0.344329 -18.7925)
(10.2597 -0.344288 -18.8737)
(8.33742 -0.374916 -17.7378)
(6.64095 -0.39697 -14.5544)
(3.22496 -0.00638803 -7.557)
(1.1148 -0.0215041 7.12524)
(-0.443336 0.204552 12.9018)
(1.13998 0.0349243 11.6107)
(-4.83324 0.0180215 22.4268)
(17.8375 0.0809321 12.1014)
(6.11725 -0.0761946 17.0372)
(13.0956 -0.134724 5.2306)
(13.0128 -0.166016 -3.89109)
(12.6254 -0.230426 -11.305)
(12.3981 -0.273813 -16.4376)
(11.4172 -0.267554 -18.843)
(10.1046 -0.253611 -18.9187)
(8.17057 -0.241647 -17.8225)
(6.36784 -0.284072 -14.3427)
(2.55209 -0.00133197 -6.61516)
(1.16918 0.118743 7.05433)
(-0.514993 0.0982264 12.1803)
(1.40317 0.0122924 10.1033)
(-4.6709 0.0129941 22.9256)
(27.4621 -0.0809411 5.49969)
(22.2449 -0.0659944 13.052)
(26.5648 0.0753126 5.674)
(28.2356 0.166955 -2.25683)
(26.6838 0.207104 -9.22821)
(24.1692 0.208245 -14.103)
(20.8223 0.191502 -16.0667)
(17.0876 0.201304 -15.7052)
(13.6788 0.214682 -14.1914)
(10.514 0.199295 -9.92843)
(5.54388 -0.136367 -1.70841)
(2.83671 -0.10525 8.52097)
(-2.09335 -0.464418 14.0769)
(6.43676 -0.987826 11.0593)
(-13.8385 0.336702 24.7042)
(27.463 -0.123122 5.74571)
(22.1291 -0.0832546 13.2936)
(26.4749 0.134078 5.81574)
(28.1555 0.257033 -2.15152)
(26.6598 0.303011 -9.14478)
(24.2262 0.299081 -14.0339)
(20.9532 0.275318 -16.0118)
(17.2793 0.298916 -15.6427)
(13.8533 0.291154 -14.148)
(10.9864 0.0875392 -10.2997)
(6.39062 -0.414453 -2.85541)
(2.99425 0.105299 8.0464)
(-1.83179 -0.701002 14.7417)
(4.26532 -0.71585 13.5195)
(-14.0022 0.325316 23.6038)
(27.456 -0.110244 5.84106)
(22.125 -0.0543302 13.3571)
(26.4747 0.131131 5.85554)
(28.1392 0.228905 -2.11212)
(26.6525 0.263802 -9.10204)
(24.2453 0.260685 -13.9875)
(21.0038 0.240873 -15.9676)
(17.3644 0.269993 -15.6006)
(13.9689 0.222294 -14.1352)
(11.2325 -0.0109382 -10.6057)
(6.67609 -0.315028 -3.28291)
(3.08316 0.690099 7.15887)
(-2.08667 -0.450354 14.2591)
(4.07617 -0.200168 13.8793)
(-14.1907 -0.0693202 23.3454)
(27.4414 -0.121836 5.99166)
(22.0984 -0.0573226 13.4668)
(26.4668 0.133482 5.91567)
(28.1267 0.23978 -2.06036)
(26.66 0.280015 -9.0505)
(24.2901 0.278563 -13.9367)
(21.088 0.257237 -15.9226)
(17.4905 0.286751 -15.5648)
(14.072 0.244246 -14.1402)
(11.2519 0.00804859 -10.7174)
(6.51629 -0.293569 -3.2797)
(3.15977 1.05209 6.1657)
(-2.45273 -0.418542 13.7955)
(4.45028 -0.226952 13.7113)
(-14.0594 -0.111799 23.5988)
(27.4306 -0.115293 6.09502)
(22.0918 -0.0501002 13.5371)
(26.4633 0.114246 5.9607)
(28.1103 0.200808 -2.01566)
(26.6566 0.232501 -9.00192)
(24.3167 0.231535 -13.8842)
(21.1503 0.208674 -15.8724)
(17.5935 0.250703 -15.522)
(14.1759 0.242382 -14.1432)
(11.3392 0.0108764 -10.8268)
(6.53549 -0.256615 -3.43794)
(3.3674 1.21101 5.02845)
(-2.683 -0.398348 13.4924)
(4.60984 -0.0605938 13.666)
(-13.9929 -0.157763 23.6985)
(27.4192 -0.119977 6.21925)
(22.0512 -0.0521735 13.6407)
(26.4271 0.091506 6.02218)
(28.0686 0.165559 -1.96641)
(26.6362 0.194131 -8.95728)
(24.3324 0.197036 -13.8404)
(21.2139 0.173754 -15.8331)
(17.6885 0.22605 -15.4823)
(14.3577 0.266043 -14.1212)
(11.6894 0.0559146 -11.0469)
(6.95512 -0.154043 -3.96813)
(3.92562 1.20211 3.7162)
(-2.86881 -0.462237 13.1931)
(4.98486 0.050473 13.417)
(-13.8765 -0.158476 23.9261)
(27.4006 -0.0897841 6.32605)
(21.9667 -0.0355071 13.7508)
(26.3423 0.049327 6.08523)
(27.9838 0.0901399 -1.92403)
(26.5816 0.105557 -8.9209)
(24.322 0.108677 -13.8008)
(21.2662 0.0926943 -15.791)
(17.7547 0.122083 -15.4276)
(14.533 0.158888 -14.0594)
(12.1455 0.0306573 -11.2744)
(7.57083 -0.047282 -4.61723)
(5.03746 0.931763 2.24894)
(-2.76248 -0.282097 11.9744)
(5.01237 0.112016 13.5736)
(-13.9159 -0.0577017 23.9449)
(27.3843 -0.00463289 6.36374)
(21.9184 -0.00188741 13.7956)
(26.2945 -0.00507629 6.10846)
(27.9388 -0.00758687 -1.9128)
(26.5527 -0.00916526 -8.91479)
(24.3131 -0.00947449 -13.7953)
(21.2838 -0.00899187 -15.7839)
(17.7626 -0.00780209 -15.4147)
(14.5617 -0.00823185 -14.0387)
(12.2763 -0.003638 -11.319)
(7.682 0.0135085 -4.76006)
(5.62871 0.120071 1.69514)
(-2.60762 0.0150378 10.6217)
(4.77818 0.017549 13.8746)
(-14.0693 -0.0120367 23.7396)
(27.3969 0.083572 6.31554)
(21.9672 0.0313875 13.7446)
(26.3425 -0.0587744 6.081)
(27.9843 -0.103875 -1.92873)
(26.5803 -0.122162 -8.92556)
(24.3185 -0.126435 -13.8049)
(21.2616 -0.110102 -15.7941)
(17.7508 -0.139264 -15.4304)
(14.5313 -0.18198 -14.0641)
(12.1519 -0.0441354 -11.2764)
(7.56893 0.067552 -4.62002)
(5.11738 -0.768153 2.16975)
(-2.75444 0.312925 11.8989)
(5.07131 -0.0742614 13.5255)
(-13.9121 0.0466022 23.9644)
(27.4161 0.116942 6.20727)
(22.0517 0.0475334 13.6341)
(26.4267 -0.0998944 6.01723)
(28.0687 -0.17748 -1.97294)
(26.6348 -0.208912 -8.96439)
(24.3292 -0.213855 -13.8471)
(21.2094 -0.191639 -15.8387)
(17.6859 -0.246238 -15.4886)
(14.3586 -0.293245 -14.1316)
(11.6803 -0.0715782 -11.0408)
(6.92657 0.165225 -3.93392)
(3.89942 -1.07715 3.70566)
(-2.89086 0.509777 13.1847)
(4.99496 -0.0196924 13.4008)
(-13.88 0.159701 23.9361)
(27.4271 0.112902 6.08188)
(22.0919 0.0458599 13.5294)
(26.4623 -0.121411 5.95468)
(28.11 -0.211255 -2.02402)
(26.6547 -0.245881 -9.0115)
(24.3127 -0.247363 -13.8938)
(21.1449 -0.226511 -15.8811)
(17.5893 -0.272284 -15.5323)
(14.1748 -0.269091 -14.1585)
(11.3247 -0.0254019 -10.818)
(6.49266 0.276288 -3.38746)
(3.30436 -1.10733 5.05095)
(-2.72286 0.434744 13.4917)
(4.60674 0.0814195 13.6612)
(-14.0005 0.161258 23.7036)
(27.4374 0.120156 5.97806)
(22.098 0.0538818 13.4581)
(26.4655 -0.139469 5.90862)
(28.1261 -0.248851 -2.07049)
(26.6578 -0.292066 -9.0624)
(24.2854 -0.293561 -13.9491)
(21.0808 -0.275002 -15.9349)
(17.4831 -0.309644 -15.5802)
(14.066 -0.273022 -14.1607)
(11.2293 -0.022813 -10.7051)
(6.45871 0.313884 -3.21454)
(3.08402 -0.967479 6.20796)
(-2.49781 0.44884 13.7883)
(4.42722 0.24829 13.7213)
(-14.0712 0.11569 23.6)
(27.4514 0.109041 5.82714)
(22.1239 0.0516473 13.3472)
(26.473 -0.135841 5.84725)
(28.1383 -0.236183 -2.12415)
(26.6497 -0.273688 -9.11643)
(24.2394 -0.273337 -14.0031)
(20.9945 -0.256377 -15.9834)
(17.354 -0.290397 -15.6211)
(13.957 -0.247964 -14.1604)
(11.198 -0.00118555 -10.5901)
(6.60345 0.335429 -3.2057)
(2.9982 -0.626757 7.21509)
(-2.14293 0.473561 14.2511)
(4.06131 0.220951 13.883)
(-14.2059 0.0685362 23.3477)
(27.458 0.122272 5.73162)
(22.1277 0.0812521 13.2829)
(26.4731 -0.13787 5.80665)
(28.1545 -0.263208 -2.16479)
(26.6569 -0.311778 -9.16085)
(24.2197 -0.31061 -14.0518)
(20.942 -0.289772 -16.0304)
(17.265 -0.316611 -15.6677)
(13.835 -0.316029 -14.1755)
(10.9355 -0.103588 -10.2758)
(6.30174 0.425553 -2.76101)
(2.90114 -0.0605637 8.12215)
(-1.90699 0.711592 14.7372)
(4.27829 0.739861 13.5005)
(-14.0193 -0.320697 23.6103)
(27.4566 0.0805405 5.48571)
(22.243 0.0650584 13.0403)
(26.5626 -0.0772516 5.66352)
(28.234 -0.170327 -2.27201)
(26.6797 -0.21217 -9.24642)
(24.1608 -0.21514 -14.123)
(20.809 -0.200231 -16.0872)
(17.0709 -0.211685 -15.732)
(13.6599 -0.231817 -14.2209)
(10.4555 -0.21671 -9.90815)
(5.44176 0.134515 -1.61507)
(2.73208 0.12594 8.59888)
(-2.17499 0.464417 14.0578)
(6.40406 0.999225 11.0766)
(-13.8669 -0.330927 24.6973)
(25.1561 0.000590435 -0.835489)
(21.7784 -0.0775608 4.6226)
(23.8194 -0.0599839 1.05169)
(26.1977 -0.0277529 -4.13052)
(24.2132 0.0069227 -8.27719)
(20.6057 0.0502532 -11.0109)
(16.5759 0.110496 -12.0605)
(13.138 0.204359 -12.1435)
(10.8664 0.295002 -11.1306)
(8.38255 0.202158 -6.10187)
(3.61 -0.651652 2.85459)
(2.96475 -0.538177 11.849)
(-4.51232 -0.120413 13.3777)
(7.76852 -1.53312 14.151)
(-24.0534 0.204308 27.915)
(25.1747 -0.000732605 -0.805659)
(21.8518 -0.111164 4.77063)
(23.943 -0.0701504 1.2108)
(26.3444 -0.0188007 -3.99578)
(24.3989 0.0338035 -8.17543)
(20.8327 0.0967654 -10.934)
(16.8437 0.189005 -11.9935)
(13.3837 0.324088 -12.0346)
(11.1758 0.293824 -11.1871)
(9.1552 -0.151435 -6.80361)
(4.49431 -1.27695 1.57289)
(2.78041 -0.37457 11.3668)
(-5.41969 -0.655576 15.0792)
(8.88242 -1.53866 14.0221)
(-24.1123 0.514764 27.0104)
(25.179 -0.00183056 -0.789196)
(21.8925 -0.0896342 4.81657)
(24.0051 -0.0478198 1.25017)
(26.4071 -0.00373903 -3.95867)
(24.4733 0.0421714 -8.13887)
(20.931 0.0968942 -10.8963)
(16.9693 0.181685 -11.9475)
(13.5289 0.293262 -11.9432)
(11.3845 0.177855 -11.2226)
(9.55915 -0.264764 -7.34993)
(4.88647 -1.08431 0.946859)
(2.92376 0.24806 10.6158)
(-4.80819 -0.672579 14.5186)
(5.56888 -0.647544 15.8901)
(-24.1905 0.279273 26.1672)
(25.1877 -0.00251598 -0.76212)
(21.9423 -0.0938865 4.89767)
(24.0894 -0.0528454 1.325)
(26.5029 -0.00580972 -3.89787)
(24.593 0.0438074 -8.09209)
(21.0821 0.102731 -10.8579)
(17.1489 0.188426 -11.9051)
(13.7139 0.303443 -11.8779)
(11.478 0.198733 -11.2196)
(9.592 -0.234966 -7.43675)
(4.73394 -1.03273 0.877255)
(2.9789 0.388082 9.98582)
(-5.03515 -0.323494 14.2014)
(5.68301 -0.450851 15.9006)
(-23.9693 -0.148319 26.2177)
(25.1932 -0.00315193 -0.740529)
(21.9838 -0.080723 4.95008)
(24.1552 -0.0410152 1.37196)
(26.573 0.0011282 -3.85507)
(24.6782 0.0428872 -8.05208)
(21.1911 0.090596 -10.8194)
(17.2848 0.158337 -11.8605)
(13.8575 0.290132 -11.8155)
(11.5688 0.181032 -11.2102)
(9.67956 -0.264512 -7.52288)
(4.75861 -0.922425 0.611812)
(2.96189 0.536753 9.29104)
(-5.46915 -0.281822 14.0002)
(6.79117 -0.131657 15.364)
(-23.9406 -0.154583 26.4467)
(25.2042 -0.0043646 -0.715562)
(22.0267 -0.0748964 5.01932)
(24.2212 -0.0403261 1.44185)
(26.6467 -0.00265021 -3.7922)
(24.7719 0.0332208 -7.99956)
(21.3126 0.0736919 -10.7756)
(17.4368 0.12542 -11.8186)
(14.0184 0.280097 -11.7425)
(11.8544 0.203957 -11.1992)
(10.0984 -0.217193 -7.85914)
(5.20262 -0.692369 -0.1446)
(3.25011 0.558088 8.36491)
(-5.62037 -0.444084 13.7258)
(7.09303 -0.118711 15.2052)
(-23.8531 0.055273 26.6591)
(25.2197 -0.00788805 -0.690763)
(22.0553 -0.0478558 5.08724)
(24.2614 -0.0251297 1.51587)
(26.6943 -0.00170651 -3.72177)
(24.8419 0.0185388 -7.93674)
(21.4156 0.0405233 -10.7191)
(17.5903 0.0632098 -11.7622)
(14.1773 0.160133 -11.6506)
(12.2495 0.117108 -11.172)
(10.7405 -0.142481 -8.28453)
(5.88062 -0.337117 -1.05491)
(4.09064 0.512771 7.16077)
(-5.20438 -0.391472 12.8416)
(5.45593 -0.104703 16.1717)
(-23.8722 0.263638 26.3793)
(25.2253 -0.00820987 -0.679924)
(22.0556 -0.00315218 5.11591)
(24.2627 -0.00388729 1.54599)
(26.6992 -0.00614138 -3.69519)
(24.8574 -0.00795277 -7.91509)
(21.445 -0.00956741 -10.7013)
(17.6398 -0.0103607 -11.7444)
(14.2196 -0.0126208 -11.6241)
(12.3848 -0.0169554 -11.1641)
(10.9711 -0.0100181 -8.37961)
(6.0507 0.0143008 -1.31856)
(4.63021 0.110894 6.58847)
(-4.75426 0.0156612 11.881)
(3.83382 0.0184263 17.0386)
(-23.9488 -0.0116861 25.9094)
(25.2142 -0.0036216 -0.693822)
(22.0441 0.0418865 5.08318)
(24.2475 0.0167638 1.511)
(26.6807 -0.0109636 -3.72769)
(24.8293 -0.0351716 -7.94225)
(21.4064 -0.0612414 -10.7233)
(17.5866 -0.0864977 -11.7656)
(14.1848 -0.19206 -11.649)
(12.2565 -0.160044 -11.1672)
(10.7445 0.120569 -8.27566)
(5.8572 0.356471 -1.05547)
(4.15279 -0.352636 7.09569)
(-5.1896 0.415035 12.7716)
(5.44451 0.135617 16.1631)
(-23.8714 -0.271621 26.3885)
(25.1976 -0.00100326 -0.718323)
(22.0181 0.0683667 5.01386)
(24.2092 0.0311456 1.43576)
(26.6347 -0.0101643 -3.79925)
(24.7598 -0.0504713 -8.00631)
(21.3025 -0.0962394 -10.7817)
(17.4307 -0.152906 -11.8247)
(14.0258 -0.319043 -11.747)
(11.8564 -0.249812 -11.1994)
(10.0694 0.197472 -7.83195)
(5.1375 0.703966 -0.0942804)
(3.16138 -0.424031 8.37724)
(-5.60303 0.480316 13.6856)
(6.93317 0.138229 15.265)
(-23.8551 -0.0564281 26.6245)
(25.1869 -6.48653e-05 -0.74371)
(21.9762 0.074032 4.94252)
(24.1431 0.0323384 1.36424)
(26.5597 -0.0130293 -3.86353)
(24.6637 -0.0592674 -8.06052)
(21.1771 -0.112686 -10.8279)
(17.2738 -0.187199 -11.8703)
(13.8582 -0.331198 -11.8258)
(11.5631 -0.224081 -11.2157)
(9.63463 0.246796 -7.49142)
(4.66442 0.942093 0.684668)
(2.82225 -0.432224 9.32633)
(-5.46327 0.309894 13.9591)
(6.60849 0.14834 15.4293)
(-23.9443 0.150997 26.3946)
(25.1813 0.000511261 -0.765614)
(21.9339 0.0879038 4.88914)
(24.0762 0.0448854 1.31628)
(26.4879 -0.00541813 -3.90765)
(24.5756 -0.0596605 -8.10241)
(21.0638 -0.124766 -10.8691)
(17.1313 -0.218415 -11.9189)
(13.7051 -0.347007 -11.8961)
(11.4574 -0.241143 -11.2301)
(9.52592 0.221298 -7.39825)
(4.61312 1.05619 0.968124)
(2.81711 -0.304375 10.0401)
(-5.04158 0.347033 14.1531)
(5.49385 0.464546 15.9611)
(-23.9729 0.151325 26.1579)
(25.1721 0.000475689 -0.792966)
(21.8828 0.0845205 4.80692)
(23.9906 0.0412012 1.2401)
(26.3899 -0.00549912 -3.97011)
(24.4527 -0.055437 -8.15129)
(20.9075 -0.115823 -10.9103)
(16.9445 -0.208285 -11.9656)
(13.5088 -0.331583 -11.9699)
(11.3442 -0.213944 -11.2368)
(9.46892 0.25246 -7.30015)
(4.74063 1.1042 1.05549)
(2.73776 -0.186532 10.6871)
(-4.81877 0.680414 14.4609)
(5.37154 0.659347 15.9436)
(-24.1946 -0.269843 26.104)
(25.1677 -6.13108e-05 -0.809657)
(21.8416 0.106841 4.76015)
(23.9279 0.0642816 1.19989)
(26.3261 0.0105672 -4.00829)
(24.3761 -0.0458961 -8.18943)
(20.8051 -0.114163 -10.9504)
(16.811 -0.212293 -12.0156)
(13.3518 -0.355227 -12.0685)
(11.116 -0.330458 -11.2005)
(9.03903 0.132655 -6.73518)
(4.32612 1.28624 1.69935)
(2.58319 0.414202 11.453)
(-5.41878 0.654966 14.9971)
(8.63875 1.53303 14.0976)
(-24.1238 -0.492912 26.9482)
(25.1491 -0.000887977 -0.83959)
(21.7672 0.0753122 4.61122)
(23.8031 0.0566828 1.03949)
(26.1776 0.0230845 -4.14459)
(24.1876 -0.0138857 -8.29281)
(20.5747 -0.060364 -11.0289)
(16.5404 -0.12348 -12.0842)
(13.106 -0.222083 -12.1769)
(10.8081 -0.322936 -11.1421)
(8.25416 -0.223332 -6.03565)
(3.4462 0.648482 2.97828)
(2.76821 0.552857 11.9135)
(-4.5015 0.125325 13.2892)
(7.43476 1.51705 14.2795)
(-24.0679 -0.190191 27.8166)
(25.9976 -0.00267912 -0.146632)
(17.8901 -0.0335831 1.49504)
(16.1314 -0.0480064 0.373064)
(18.2551 -0.0383947 -2.12096)
(16.0056 0.00440842 -4.69666)
(12.8319 0.0766459 -7.04855)
(10.0136 0.221347 -8.9553)
(8.37993 0.424867 -10.6327)
(6.75488 0.71191 -9.43364)
(4.07788 0.405638 -2.73109)
(0.209514 -0.88626 6.96192)
(-1.42651 -0.312565 14.1943)
(-8.45401 0.0217517 15.5383)
(-5.39417 -1.04002 22.3867)
(-30.8023 -0.331445 25.2614)
(25.9815 -0.00495999 -0.150862)
(17.9019 -0.0496073 1.536)
(16.2024 -0.0615554 0.419881)
(18.3529 -0.0382656 -2.07906)
(16.145 0.0350129 -4.65609)
(13.0242 0.144963 -6.99865)
(10.2674 0.379992 -8.85029)
(8.67307 0.624462 -10.5195)
(7.57021 0.713926 -9.80436)
(5.53186 -0.143205 -3.89437)
(1.19813 -1.70083 5.01779)
(-1.08624 -0.242856 13.9301)
(-8.0627 -0.240283 15.4543)
(-1.42934 -1.21677 21.1252)
(-31.6015 -0.0788216 25.9326)
(25.9739 -0.00667164 -0.15159)
(17.9177 -0.0431718 1.55393)
(16.2435 -0.0462953 0.43361)
(18.4023 -0.0203324 -2.06515)
(16.211 0.0495968 -4.63572)
(13.1238 0.145855 -6.96458)
(10.4067 0.36655 -8.7538)
(8.88875 0.53015 -10.3523)
(8.11948 0.444732 -10.0325)
(6.4288 -0.366494 -4.79019)
(1.61752 -1.5046 4.10291)
(-1.05814 0.12665 13.386)
(-8.18214 -0.452644 15.7159)
(-3.99737 -0.778785 22.0027)
(-31.1919 0.149004 24.686)
(25.9626 -0.00871197 -0.154373)
(17.9273 -0.0457312 1.58338)
(16.291 -0.0498785 0.4642)
(18.4681 -0.0234021 -2.03648)
(16.3053 0.0497464 -4.60451)
(13.256 0.149426 -6.92387)
(10.5742 0.369687 -8.66724)
(9.05796 0.523215 -10.2251)
(8.26542 0.378724 -10.0392)
(6.63041 -0.3653 -4.87697)
(1.61142 -1.47488 3.97811)
(-0.945692 0.260691 12.955)
(-8.34192 -0.0360271 15.7178)
(-4.24922 -0.528591 22.1607)
(-30.9334 -0.252753 24.5383)
(25.9535 -0.00945749 -0.15587)
(17.9417 -0.039706 1.60347)
(16.3333 -0.0410424 0.481687)
(18.5217 -0.0174297 -2.02012)
(16.3786 0.0456717 -4.58238)
(13.3607 0.124532 -6.89031)
(10.7116 0.326517 -8.59107)
(9.18897 0.493458 -10.1115)
(8.37428 0.23299 -10.013)
(6.80336 -0.46119 -4.95158)
(1.66126 -1.27151 3.68908)
(-1.12219 0.378466 12.4582)
(-8.39145 -0.0306346 15.4012)
(-3.24458 -0.254952 21.8401)
(-31.0474 -0.198176 24.8086)
(25.9436 -0.00996187 -0.158331)
(17.956 -0.0360892 1.62508)
(16.3781 -0.0395434 0.503575)
(18.579 -0.0230326 -1.99982)
(16.4564 0.0279155 -4.55864)
(13.4734 0.0879949 -6.85894)
(10.8469 0.273076 -8.5189)
(9.40064 0.477723 -9.97349)
(8.82738 0.159061 -10.0802)
(7.33163 -0.413321 -5.50631)
(2.09859 -0.978517 2.78223)
(-1.10987 0.355165 11.9087)
(-8.48782 -0.199809 15.3178)
(-3.22649 -0.316535 21.854)
(-30.9092 0.00715708 24.7992)
(25.9363 -0.0130367 -0.160136)
(17.9701 -0.0264729 1.64177)
(16.4152 -0.025953 0.520127)
(18.626 -0.0167552 -1.98586)
(16.523 0.0108385 -4.54189)
(13.5814 0.0390977 -6.83506)
(10.9828 0.14681 -8.45136)
(9.68142 0.291248 -9.83074)
(9.56046 0.0495036 -10.2033)
(8.11818 -0.277737 -6.27683)
(2.79162 -0.522554 1.7109)
(-0.835893 0.282889 11.2719)
(-8.67115 -0.252041 15.346)
(-4.76999 -0.247343 22.404)
(-30.6369 0.24827 24.1504)
(25.9311 -0.0107115 -0.159204)
(17.956 -0.00883572 1.65)
(16.4059 -0.00651943 0.526476)
(18.6257 -0.00771947 -1.98253)
(16.5349 -0.010527 -4.53908)
(13.6115 -0.0151073 -6.82988)
(11.0167 -0.020028 -8.43231)
(9.78102 -0.0305018 -9.78842)
(9.84434 -0.0343111 -10.2384)
(8.37388 -0.0193255 -6.44174)
(2.98122 0.00614773 1.4757)
(-0.697065 0.0775127 11.0205)
(-8.97966 0.00141308 15.3519)
(-6.37999 -0.00902912 22.8257)
(-30.388 -0.0294449 23.3835)
(25.9315 0.00143125 -0.155784)
(17.9475 0.0140937 1.64233)
(16.3872 0.01276 0.517367)
(18.6034 -0.00139081 -1.99058)
(16.5065 -0.0355009 -4.54856)
(13.5715 -0.0726893 -6.8408)
(10.9816 -0.191057 -8.45671)
(9.69033 -0.359965 -9.81504)
(9.55126 -0.12249 -10.1803)
(8.10031 0.243283 -6.25589)
(2.73971 0.526117 1.73593)
(-0.846674 -0.170971 11.2573)
(-8.69689 0.251973 15.344)
(-4.87807 0.226821 22.4366)
(-30.6341 -0.310153 24.0885)
(25.9391 0.00693007 -0.152725)
(17.9473 0.0261366 1.62299)
(16.3637 0.0252871 0.498779)
(18.5642 0.00291051 -2.00546)
(16.4419 -0.0556027 -4.56727)
(13.461 -0.125037 -6.86834)
(10.8403 -0.322978 -8.53051)
(9.40631 -0.549988 -9.96921)
(8.79454 -0.227178 -10.0566)
(7.25696 0.388914 -5.442)
(1.98295 0.976835 2.88599)
(-1.22642 -0.254598 11.9295)
(-8.52233 0.207426 15.3373)
(-3.43529 0.297712 21.9149)
(-30.8642 -0.0679328 24.6427)
(25.9486 0.00580185 -0.149853)
(17.9338 0.0289012 1.6004)
(16.3196 0.0276546 0.475438)
(18.5057 -0.000851087 -2.02764)
(16.3605 -0.0717569 -4.59396)
(13.3419 -0.16031 -6.90424)
(10.6967 -0.378102 -8.60924)
(9.18374 -0.564032 -10.1166)
(8.33025 -0.294776 -9.99514)
(6.69567 0.439825 -4.87428)
(1.5063 1.26658 3.82886)
(-1.2873 -0.306475 12.4833)
(-8.43598 0.0376309 15.4205)
(-3.48536 0.243841 21.8961)
(-30.9737 0.164379 24.6127)
(25.957 0.00585867 -0.148693)
(17.9172 0.0366237 1.57939)
(16.2746 0.0378055 0.456778)
(18.4487 0.00600797 -2.04562)
(16.2827 -0.0751966 -4.6185)
(13.2303 -0.184576 -6.94141)
(10.5501 -0.422701 -8.69271)
(9.03522 -0.594529 -10.2421)
(8.19473 -0.431817 -10.0223)
(6.48405 0.349464 -4.78096)
(1.43148 1.4692 4.15057)
(-1.14317 -0.208563 12.9875)
(-8.40762 0.0404035 15.7336)
(-4.50324 0.515467 22.2083)
(-30.856 0.244021 24.3333)
(25.968 0.00441803 -0.146522)
(17.9056 0.0353534 1.54916)
(16.2246 0.0360288 0.425186)
(18.3796 0.00569273 -2.07603)
(16.1834 -0.071117 -4.65212)
(13.0903 -0.176162 -6.98567)
(10.3723 -0.413124 -8.7872)
(8.84168 -0.592126 -10.3829)
(8.01046 -0.488843 -10.0114)
(6.24332 0.344315 -4.66929)
(1.41518 1.48944 4.31193)
(-1.28163 -0.091509 13.4224)
(-8.25615 0.446596 15.7266)
(-4.2892 0.761309 22.05)
(-31.1064 -0.142783 24.4664)
(25.9752 0.00330542 -0.146906)
(17.8892 0.0431079 1.53016)
(16.1827 0.0525645 0.410792)
(18.3283 0.0250689 -2.0909)
(16.1137 -0.0546108 -4.67401)
(12.9839 -0.172566 -7.02259)
(10.2205 -0.417496 -8.89092)
(8.60624 -0.675797 -10.5584)
(7.4238 -0.756114 -9.77144)
(5.31875 0.105316 -3.74938)
(0.993185 1.66971 5.24592)
(-1.31416 0.255143 13.9634)
(-8.11816 0.241008 15.4526)
(-1.80443 1.19448 21.207)
(-31.5138 0.0856467 25.6997)
(25.991 0.00194379 -0.143747)
(17.8757 0.0301723 1.48798)
(16.1097 0.0429387 0.362998)
(18.2276 0.0308911 -2.13404)
(15.9694 -0.0156019 -4.71628)
(12.7861 -0.0925191 -7.0748)
(9.9609 -0.241592 -8.99703)
(8.31633 -0.456434 -10.6641)
(6.60258 -0.747145 -9.39759)
(3.87414 -0.435143 -2.58752)
(0.00546889 0.858331 7.1439)
(-1.68057 0.309171 14.214)
(-8.58163 -0.0113424 15.5651)
(-5.73751 1.02563 22.4292)
(-30.7058 0.329777 24.9932)
(26.6024 0.000777924 0.710094)
(16.9826 -0.00946307 1.1833)
(12.9207 -0.012208 0.460828)
(14.8296 0.00483011 -1.26603)
(12.7867 0.0570291 -3.24662)
(9.91111 0.145164 -5.18984)
(7.26235 0.403996 -7.55235)
(4.98019 0.777236 -9.57348)
(0.680538 1.39174 -6.39992)
(-4.73518 0.594343 3.04264)
(-8.77773 -0.0866354 12.0128)
(-12.7828 -0.116265 18.6935)
(-17.6424 -0.311358 21.5706)
(-15.9843 -0.780958 24.278)
(-31.5587 -0.288424 16.6806)
(26.6019 0.00289794 0.713089)
(16.9742 -0.0118359 1.19838)
(12.9269 -0.0108405 0.482952)
(14.8555 0.0243551 -1.23991)
(12.8448 0.116994 -3.21846)
(10.0596 0.260446 -5.15483)
(7.52393 0.696897 -7.46494)
(5.65919 1.0955 -9.73071)
(2.37583 1.66203 -7.55363)
(-1.07761 -0.0162172 1.05538)
(-6.51025 -0.562278 10.498)
(-10.9275 -0.0468082 18.0091)
(-15.9239 -0.376314 20.9714)
(-14.048 -0.896277 24.5966)
(-32.6835 -0.238659 18.0385)
(26.6018 0.00317639 0.715794)
(16.9803 -0.00855813 1.20707)
(12.9467 -0.00436168 0.492076)
(14.8851 0.0321731 -1.22742)
(12.8935 0.123386 -3.19843)
(10.1679 0.253842 -5.11774)
(7.69846 0.668265 -7.32757)
(6.17998 0.90608 -9.69144)
(3.54751 1.08895 -8.28037)
(0.609312 -0.245126 -0.602779)
(-6.01368 -0.560994 9.73789)
(-10.8752 0.0775175 17.7752)
(-16.1368 -0.431408 21.158)
(-14.6154 -0.592522 24.5665)
(-32.3219 -0.0820034 17.3251)
(26.6005 0.00236553 0.719179)
(16.9784 -0.00850342 1.22014)
(12.9605 -0.0046207 0.509244)
(14.9153 0.032039 -1.2057)
(12.9486 0.127925 -3.17119)
(10.2813 0.258908 -5.07823)
(7.87041 0.660982 -7.22781)
(6.43056 0.844438 -9.6253)
(3.95432 0.736641 -8.46721)
(1.00308 -0.338435 -0.903265)
(-5.87771 -0.448562 9.56657)
(-10.8134 0.291574 17.615)
(-16.2409 -0.178756 21.2382)
(-14.7201 -0.529908 24.6477)
(-32.1369 -0.287787 17.2218)
(26.599 0.0016875 0.722232)
(16.9824 -0.00702913 1.22975)
(12.9798 -0.00275208 0.52032)
(14.9476 0.0285741 -1.19112)
(13.0005 0.113375 -3.14875)
(10.388 0.21804 -5.04007)
(8.02805 0.615367 -7.13137)
(6.61074 0.755912 -9.54025)
(4.24484 0.362504 -8.55368)
(1.23806 -0.449511 -1.1396)
(-5.83515 -0.343325 9.30963)
(-10.7725 0.307683 17.2989)
(-16.0149 -0.119868 21.0355)
(-14.3335 -0.313877 24.6351)
(-32.2805 -0.272759 17.3795)
(26.5976 0.000949248 0.725274)
(16.9811 -0.00743668 1.23908)
(12.9907 -0.00580995 0.532097)
(14.9713 0.0162962 -1.17626)
(13.0408 0.0847546 -3.12739)
(10.487 0.160088 -5.00727)
(8.16482 0.554912 -7.02258)
(7.02898 0.694423 -9.437)
(5.0173 0.114193 -8.8763)
(1.89332 -0.409589 -2.03876)
(-5.56912 -0.222812 8.83695)
(-10.7652 0.220068 17.1136)
(-16.022 -0.184934 21.009)
(-14.2721 -0.262404 24.6206)
(-32.1481 -0.209377 17.2741)
(26.5965 0.000581223 0.728083)
(16.9827 -0.0067981 1.24504)
(13.0022 -0.00768236 0.53921)
(14.992 0.00298544 -1.16719)
(13.0722 0.0391692 -3.11287)
(10.5843 0.0718853 -4.98421)
(8.28132 0.328526 -6.91059)
(7.69241 0.424875 -9.31128)
(6.23765 -0.0609288 -9.37058)
(2.7344 -0.341097 -3.16956)
(-5.23387 -0.138365 8.35467)
(-10.8384 0.106301 17.0177)
(-16.3242 -0.161587 21.1229)
(-14.7596 -0.103387 24.5921)
(-31.8449 -0.0469728 16.7804)
(26.5968 0.00013059 0.73212)
(16.9822 -0.00583064 1.24852)
(13.0043 -0.0101007 0.541295)
(14.9967 -0.0128034 -1.16491)
(13.0775 -0.0196062 -3.10994)
(10.6098 -0.0261004 -4.97866)
(8.29279 -0.0371512 -6.87648)
(7.96372 -0.0532705 -9.25911)
(6.67197 -0.0443341 -9.49392)
(2.88593 -0.0217608 -3.32077)
(-5.37213 0.00692727 8.43026)
(-11.1598 0.0288692 17.0992)
(-16.8007 -0.0137004 21.2256)
(-15.36 -0.0312611 24.438)
(-31.5125 -0.130077 16.1841)
(26.5979 -0.00113054 0.733235)
(16.9841 -0.00455417 1.24575)
(13.0032 -0.0116515 0.536878)