/*--------------------------------*- C++ -*----------------------------------*\
| =========                 |                                                 |
| \\      /  F ield         | OpenFOAM: The Open Source CFD Toolbox           |
|  \\    /   O peration     | Version:  4.1                                   |
|   \\  /    A nd           | Web:      www.OpenFOAM.org                      |
|    \\/     M anipulation  |                                                 |
\*---------------------------------------------------------------------------*/
FoamFile
{
    version     2.0;
    format      ascii;
    class       volScalarField;
    location    "11";
    object      epsilon;
}
// * * * * * * * * * * * * * * * * * * * * * * * * * * * * * * * * * * * * * //

dimensions      [0 2 -3 0 0 0 0];

internalField   nonuniform List<scalar> 
204246
(
2.62889
2.7466
2.75929
2.78746
2.81104
2.82916
2.859
2.8787
2.90754
2.9281
2.95533
2.97567
2.9985
3.02341
3.0433
3.06664
3.08584
3.09718
3.13285
3.13943
3.17041
3.17558
3.20414
3.2111
3.23736
3.24302
3.26852
3.27209
3.30112
3.3053
3.33202
3.33763
3.36317
3.37102
3.39272
3.40601
3.41382
3.44555
3.45142
3.47473
3.48697
3.50661
3.52089
3.53895
3.55297
3.57332
3.58981
3.6087
3.62681
3.64427
3.66373
3.68107
3.70027
3.70713
3.74476
3.75157
3.77911
3.79324
3.8164
3.83285
3.85449
3.87105
3.89522
3.91477
3.93636
3.95793
3.97794
4.00091
4.02076
4.04346
4.05191
4.0918
4.10203
4.13355
4.14831
4.17663
4.19458
4.22101
4.23912
4.26862
4.29166
4.31681
4.34309
4.36679
4.39572
4.41951
4.44867
4.46023
4.50886
4.52234
4.56213
4.58135
4.61778
4.63833
4.67762
4.70492
4.73794
4.77067
4.80244
4.83666
4.86691
4.90525
4.93561
4.97429
5.00561
5.04369
5.06558
5.1267
5.14445
5.1996
5.21925
5.27775
5.30409
5.3551
5.39268
5.43749
5.47709
5.52279
5.5652
5.61115
5.65755
5.70321
5.75272
5.78201
5.86199
5.88433
5.95919
5.98712
6.0601
6.09386
6.16493
6.20234
6.27327
6.31387
6.38547
6.42895
6.50068
6.54707
6.62
6.66913
6.72361
6.81019
6.85132
6.93628
6.97987
7.06568
7.11014
7.19796
7.24297
7.33286
7.37802
7.46999
7.51484
7.60916
7.65374
7.75075
7.79507
7.87042
7.95874
8.01241
8.10165
8.15358
8.24566
8.29529
8.39041
8.43724
8.53662
8.57973
8.68382
8.72395
8.83467
8.87095
8.99027
9.0238
9.15626
9.18403
9.30496
9.39696
9.48045
9.59951
9.6784
9.8265
9.90986
10.091
10.1904
10.41
10.5399
10.8038
10.9787
11.2627
11.4448
11.6007
11.6208
0.440054
0.652368
0.651992
0.65468
0.664826
0.670903
0.686636
0.687896
0.702135
0.701688
0.717935
0.716773
0.730971
0.727167
0.741494
0.736395
0.749996
0.744715
0.743416
0.754979
0.748844
0.759735
0.753586
0.762414
0.758654
0.76821
0.764771
0.774318
0.769016
0.780592
0.77483
0.786169
0.780247
0.792025
0.786472
0.799435
0.797496
0.795939
0.808469
0.803131
0.81532
0.812189
0.824884
0.821885
0.834522
0.82971
0.84335
0.837872
0.851819
0.846426
0.860354
0.857594
0.873574
0.872389
0.872981
0.888392
0.883632
0.898931
0.896476
0.912338
0.909975
0.925795
0.921438
0.938335
0.933255
0.950458
0.945454
0.962574
0.960346
0.979638
0.97906
0.982769
0.999731
0.998197
1.01704
1.01526
1.03465
1.03284
1.05324
1.05022
1.07145
1.06723
1.08915
1.08515
1.10725
1.10627
1.13173
1.13326
1.14282
1.16382
1.16431
1.18957
1.18947
1.21647
1.21508
1.24328
1.24067
1.26923
1.2662
1.29668
1.29472
1.32574
1.32738
1.35903
1.36085
1.39556
1.39731
1.42261
1.44863
1.45247
1.48852
1.48991
1.52856
1.52846
1.56901
1.56917
1.61249
1.61588
1.66026
1.66471
1.70959
1.71352
1.76463
1.77256
1.80586
1.84537
1.85234
1.90609
1.91437
1.96891
1.97682
2.03566
2.04541
2.10666
2.1175
2.18189
2.19373
2.26136
2.27462
2.34873
2.36596
2.41655
2.47718
2.49313
2.57172
2.58945
2.67105
2.68963
2.77476
2.79452
2.88349
2.90473
2.99534
3.01664
3.11122
3.13398
3.23726
3.26472
3.33228
3.4167
3.441
3.54197
3.56584
3.66747
3.69131
3.79173
3.81476
3.91332
3.93475
4.03033
4.05055
4.14282
4.1614
4.25282
4.27592
4.36214
4.38332
4.41978
4.48676
4.49076
4.55605
4.55288
4.60273
4.59274
4.62786
4.61216
4.64802
4.6361
4.77405
4.89951
5.37578
5.6583
5.80247
0.681646
0.661789
0.658588
0.649157
0.644463
0.640126
0.637737
0.636975
0.636509
0.636775
0.638193
0.640213
0.643071
0.644991
0.648451
0.651363
0.655499
0.658582
0.662003
0.666695
0.66982
0.674988
0.678437
0.683481
0.687552
0.692253
0.696571
0.701221
0.705717
0.710022
0.71457
0.718756
0.723669
0.727881
0.733058
0.737056
0.742316
0.745628
0.75147
0.754765
0.760488
0.764402
0.769813
0.774306
0.779467
0.784403
0.789417
0.794816
0.799761
0.805646
0.810711
0.817267
0.822455
0.82919
0.83383
0.841073
0.845965
0.853045
0.858723
0.865593
0.871936
0.878661
0.885517
0.892167
0.899603
0.906226
0.914243
0.921088
0.929842
0.936945
0.94597
0.952499
0.961902
0.96877
0.977994
0.985684
0.99475
1.00329
1.01226
1.02126
1.03005
1.03962
1.04845
1.05861
1.06785
1.07876
1.08844
1.09964
1.10855
1.12009
1.12932
1.14094
1.15112
1.16279
1.17349
1.18503
1.1963
1.20802
1.22
1.23223
1.24477
1.25707
1.27013
1.28314
1.29693
1.31059
1.32441
1.33733
1.352
1.36464
1.38001
1.39263
1.40871
1.42135
1.43816
1.45087
1.46856
1.48145
1.49975
1.51249
1.53164
1.54457
1.56528
1.57756
1.59581
1.61159
1.62651
1.64548
1.65834
1.67897
1.69027
1.71277
1.72248
1.74573
1.75485
1.77807
1.78671
1.80991
1.81824
1.8416
1.84943
1.86639
1.88062
1.88869
1.90649
1.91078
1.92778
1.93042
1.94506
1.94585
1.95806
1.95707
1.96453
1.96069
1.96499
1.95806
1.9616
1.94776
1.94083
1.93659
1.9144
1.91245
1.88181
1.87737
1.84092
1.83436
1.79317
1.78541
1.74083
1.73222
1.68466
1.67565
1.62549
1.61607
1.567
1.55818
1.50558
1.48217
1.46336
1.42231
1.41671
1.37188
1.36756
1.32581
1.32353
1.28873
1.29033
1.27195
1.28188
1.27073
1.27873
1.16608
1.12409
0.974227
0.877348
0.861868
0.842612
0.832077
0.819087
0.811266
0.805395
0.798827
0.796752
0.793156
0.792926
0.792014
0.793366
0.792956
0.796232
0.79662
0.802083
0.804748
0.807229
0.813128
0.814898
0.822019
0.82443
0.831691
0.834378
0.8418
0.844625
0.852293
0.854754
0.862408
0.864815
0.872566
0.875008
0.882605
0.885135
0.892644
0.896457
0.900563
0.906841
0.909326
0.916119
0.918633
0.925535
0.928099
0.935241
0.937555
0.944911
0.947285
0.954952
0.957697
0.965211
0.968115
0.975992
0.980162
0.985051
0.991663
0.99505
1.00254
1.00566
1.01346
1.01669
1.02475
1.02783
1.03613
1.03932
1.04796
1.05153
1.0602
1.06398
1.07282
1.07775
1.0844
1.09081
1.09636
1.10386
1.10881
1.1171
1.12169
1.13055
1.13465
1.14375
1.1479
1.15712
1.16148
1.17064
1.1751
1.18395
1.18922
1.19619
1.20235
1.20857
1.21529
1.22104
1.22813
1.23336
1.24065
1.24559
1.25299
1.25789
1.26511
1.27003
1.27696
1.28226
1.28884
1.29445
1.30027
1.30569
1.31121
1.31596
1.32172
1.32547
1.33167
1.33422
1.34058
1.34229
1.34822
1.34982
1.3549
1.35592
1.36037
1.36065
1.3646
1.36417
1.36431
1.36546
1.36344
1.36455
1.3605
1.36111
1.35491
1.35496
1.34629
1.34551
1.33436
1.33265
1.31875
1.31586
1.29957
1.29576
1.27494
1.2651
1.25066
1.23157
1.22131
1.19494
1.18613
1.15517
1.14502
1.11117
1.09982
1.06314
1.05054
1.0113
0.997611
0.956786
0.942674
0.898258
0.877162
0.845628
0.813773
0.791771
0.752038
0.737151
0.695244
0.680891
0.640912
0.627546
0.591283
0.579183
0.546623
0.53608
0.507343
0.498391
0.473284
0.465809
0.443918
0.434263
0.420902
0.409107
0.401322
0.387392
0.383545
0.369681
0.366561
0.357702
0.357529
0.357358
0.371097
0.383273
0.406075
0.413677
0.419367
1.27308
1.15744
1.12219
1.06699
1.04075
1.01031
0.992971
0.981091
0.968384
0.963015
0.956159
0.953932
0.950865
0.950562
0.949342
0.950238
0.949793
0.952006
0.953242
0.954022
0.957316
0.957986
0.96232
0.963617
0.968408
0.970135
0.97526
0.977218
0.982681
0.984532
0.990086
0.991968
0.997583
0.999528
1.00495
1.00691
1.01195
1.01447
1.01758
1.02126
1.02321
1.02723
1.02884
1.03288
1.03447
1.03848
1.03993
1.04391
1.04535
1.04933
1.05091
1.05474
1.05635
1.06007
1.06195
1.06455
1.06715
1.06897
1.07194
1.07336
1.07636
1.07774
1.08064
1.08197
1.08476
1.08609
1.08888
1.0903
1.09304
1.09449
1.0971
1.09877
1.10075
1.10265
1.10445
1.10649
1.10829
1.11039
1.11215
1.11408
1.11581
1.11737
1.11903
1.12012
1.12183
1.12252
1.12413
1.12429
1.12448
1.12523
1.12474
1.12515
1.12405
1.12432
1.12211
1.12242
1.11928
1.11939
1.1153
1.11519
1.10988
1.10911
1.10335
1.10214
1.09551
1.09396
1.08503
1.08117
1.07561
1.06785
1.06412
1.0532
1.05043
1.0374
1.03406
1.01946
1.01505
0.999831
0.994598
0.978062
0.972224
0.954279
0.948048
0.927542
0.917688
0.902585
0.886551
0.874901
0.853738
0.844843
0.82048
0.81169
0.785927
0.776683
0.750022
0.740466
0.713032
0.703139
0.675385
0.665349
0.636374
0.62261
0.601322
0.581864
0.565964
0.542066
0.531089
0.505159
0.495721
0.470297
0.461328
0.437278
0.428876
0.40643
0.398723
0.378244
0.371377
0.352239
0.34356
0.331319
0.320539
0.3131
0.301172
0.297102
0.286211
0.283026
0.274269
0.271909
0.265029
0.263357
0.258261
0.257287
0.253853
0.25356
0.251624
0.251945
0.251267
0.251514
0.253391
0.253671
0.256673
0.257386
0.260389
0.261067
0.263415
0.263834
0.267125
0.268451
0.275654
0.280475
0.289464
0.293087
0.295683
1.582
1.50668
1.47088
1.37514
1.29936
1.23329
1.17995
1.14611
1.11631
1.0988
1.084
1.07698
1.07023
1.0676
1.06395
1.06307
1.06102
1.06087
1.05985
1.05873
1.05872
1.05733
1.0574
1.0565
1.05664
1.05626
1.05664
1.05653
1.05734
1.05728
1.05825
1.05827
1.05937
1.0595
1.06052
1.06067
1.06132
1.0615
1.06147
1.06158
1.06119
1.06105
1.06034
1.06002
1.05911
1.05863
1.05753
1.0569
1.05568
1.05493
1.05369
1.05288
1.05153
1.05033
1.04884
1.04734
1.0454
1.04391
1.0415
1.03992
1.037
1.03542
1.03178
1.03049
1.02619
1.02486
1.02007
1.01852
1.01353
1.01182
1.00599
1.00294
0.998991
0.994046
0.991325
0.985105
0.982914
0.976061
0.973788
0.966371
0.964394
0.956318
0.95419
0.945481
0.942854
0.934045
0.931066
0.920894
0.915596
0.908596
0.900197
0.894494
0.88373
0.878815
0.865968
0.861719
0.847373
0.842705
0.827433
0.822384
0.806124
0.800296
0.78378
0.777419
0.76023
0.753557
0.734535
0.725643
0.710791
0.697885
0.685675
0.668934
0.660021
0.640164
0.632944
0.611768
0.603974
0.583276
0.5752
0.554604
0.546561
0.526164
0.518229
0.497077
0.487172
0.471533
0.457925
0.446454
0.429763
0.42194
0.403937
0.397301
0.379697
0.373412
0.356788
0.35093
0.335317
0.329838
0.315396
0.310368
0.296525
0.290164
0.280985
0.272836
0.266736
0.257285
0.2537
0.244267
0.241113
0.232668
0.229898
0.222454
0.220052
0.213579
0.21154
0.205969
0.204259
0.199337
0.197179
0.194468
0.191885
0.190492
0.187916
0.187198
0.185192
0.184778
0.183471
0.183366
0.182839
0.183068
0.183024
0.184113
0.184379
0.186237
0.186901
0.189494
0.190572
0.193716
0.195724
0.199234
0.202169
0.206063
0.209937
0.214291
0.219139
0.223971
0.229727
0.234907
0.241345
0.246506
0.251733
0.254049
0.25536
1.68108
1.72294
1.72949
1.71047
1.64891
1.56057
1.45922
1.36897
1.29219
1.23548
1.19382
1.16727
1.14791
1.13793
1.12858
1.12439
1.11901
1.1167
1.11299
1.11053
1.10718
1.10354
1.09978
1.09507
1.09105
1.08597
1.08205
1.07703
1.07349
1.06867
1.0655
1.06086
1.05793
1.05352
1.05049
1.04629
1.04297
1.03866
1.03528
1.03062
1.02699
1.02202
1.01811
1.01267
1.00865
1.00239
0.998626
0.991552
0.988008
0.98015
0.976616
0.968397
0.964687
0.955901
0.950492
0.943902
0.936019
0.930519
0.921314
0.916149
0.905861
0.900826
0.889336
0.884774
0.872337
0.867538
0.85446
0.849226
0.83602
0.830502
0.816544
0.809216
0.798206
0.788371
0.77909
0.767367
0.75945
0.746356
0.739549
0.725161
0.719741
0.704547
0.699097
0.683532
0.677677
0.662285
0.656137
0.639819
0.631481
0.618887
0.607355
0.596843
0.58287
0.5739
0.557472
0.550722
0.532793
0.526192
0.507953
0.501291
0.482944
0.475926
0.458267
0.451175
0.43391
0.426979
0.409313
0.401156
0.387622
0.37723
0.36655
0.353969
0.346722
0.332554
0.32731
0.313081
0.307892
0.29498
0.290041
0.278119
0.273581
0.26261
0.258475
0.247871
0.243162
0.235764
0.229898
0.22482
0.217897
0.214949
0.20786
0.205442
0.198972
0.196841
0.191095
0.189246
0.184163
0.182552
0.178113
0.176732
0.172699
0.170901
0.168598
0.166268
0.165046
0.162593
0.161848
0.159647
0.159066
0.15726
0.156829
0.155401
0.155112
0.154045
0.153895
0.153182
0.153182
0.152815
0.152739
0.153013
0.15297
0.153642
0.153777
0.154814
0.155148
0.156532
0.157069
0.158891
0.159674
0.161955
0.162996
0.165771
0.167101
0.170362
0.171992
0.175707
0.177654
0.181635
0.184235
0.188323
0.1916
0.195807
0.199645
0.204048
0.208463
0.21319
0.218167
0.2232
0.228477
0.233116
0.237115
0.239058
0.240028
1.48998
1.67542
1.75002
1.80796
1.82497
1.82393
1.79075
1.70623
1.59693
1.48187
1.37979
1.29809
1.23616
1.19602
1.16587
1.14896
1.13322
1.12541
1.11557
1.11057
1.1038
1.09857
1.09171
1.08461
1.07693
1.06843
1.05996
1.05083
1.04191
1.03295
1.02377
1.0149
1.00515
0.996365
0.986215
0.977745
0.967641
0.958485
0.94995
0.939646
0.931721
0.921176
0.913257
0.902172
0.894352
0.882473
0.874963
0.862261
0.854943
0.841558
0.834126
0.820594
0.812941
0.798942
0.789561
0.77818
0.766118
0.75601
0.742527
0.733003
0.718336
0.709155
0.693139
0.684762
0.667363
0.659569
0.641227
0.633348
0.615015
0.606957
0.588237
0.578415
0.563271
0.551009
0.538274
0.524323
0.513618
0.49849
0.489528
0.473221
0.46653
0.449885
0.443523
0.427251
0.420862
0.405523
0.399234
0.383972
0.376339
0.364668
0.3552
0.345771
0.334867
0.32734
0.315027
0.309826
0.296978
0.292221
0.279858
0.275353
0.263646
0.259219
0.248621
0.244432
0.23469
0.23085
0.221491
0.217264
0.210444
0.205547
0.200396
0.194747
0.191517
0.185417
0.183233
0.177383
0.175334
0.170297
0.168441
0.164006
0.162383
0.158476
0.157065
0.153425
0.151844
0.149471
0.147625
0.146008
0.143875
0.143037
0.140889
0.140217
0.138324
0.137762
0.136136
0.135678
0.134294
0.133923
0.132763
0.132476
0.131461
0.131028
0.130657
0.130101
0.13
0.129527
0.129497
0.129177
0.129212
0.129091
0.129217
0.129167
0.129485
0.129517
0.130053
0.130196
0.130943
0.131206
0.132059
0.132684
0.133532
0.134512
0.135464
0.136858
0.138021
0.139792
0.141163
0.143329
0.144991
0.147597
0.149638
0.152746
0.155221
0.158836
0.161786
0.165897
0.169335
0.173835
0.177707
0.182393
0.186523
0.191366
0.195792
0.200753
0.205462
0.210517
0.215441
0.220463
0.225266
0.229601
0.232977
0.234825
0.235644
1.19117
1.37008
1.44335
1.53234
1.63739
1.76651
1.85599
1.87848
1.87582
1.82175
1.71535
1.58343
1.45551
1.34792
1.26126
1.20305
1.15543
1.12604
1.09887
1.08179
1.06618
1.05497
1.04379
1.03252
1.0211
1.00874
0.995796
0.982346
0.968253
0.955032
0.940594
0.927714
0.91283
0.899823
0.884262
0.871309
0.855764
0.842068
0.828489
0.813548
0.801102
0.786166
0.774293
0.759014
0.74752
0.731674
0.720699
0.704036
0.693405
0.676113
0.665503
0.648211
0.637549
0.62005
0.607929
0.59344
0.578902
0.566104
0.550392
0.538567
0.521956
0.510888
0.493317
0.483458
0.464939
0.456097
0.437111
0.428711
0.41027
0.402014
0.38388
0.374729
0.360029
0.349497
0.337397
0.325998
0.316205
0.304336
0.296609
0.284296
0.278871
0.266805
0.262091
0.250931
0.246534
0.236637
0.232601
0.22333
0.218786
0.211945
0.206783
0.201434
0.195771
0.191689
0.185484
0.182832
0.176564
0.174257
0.168452
0.166354
0.161071
0.15909
0.154472
0.152661
0.148551
0.146943
0.143115
0.141396
0.138695
0.136798
0.134768
0.132676
0.131399
0.129172
0.128371
0.126259
0.12553
0.123752
0.123111
0.121585
0.121044
0.119735
0.119284
0.118097
0.117592
0.11691
0.116293
0.115905
0.115254
0.115092
0.114518
0.114406
0.113976
0.11392
0.113616
0.113617
0.113438
0.11349
0.113424
0.11357
0.113555
0.113749
0.113998
0.114131
0.114586
0.114741
0.115341
0.115564
0.116299
0.116599
0.117476
0.117857
0.118882
0.119356
0.120529
0.12113
0.122458
0.123226
0.124639
0.125678
0.127134
0.128454
0.130037
0.13162
0.133347
0.135237
0.137164
0.139438
0.141648
0.144313
0.146855
0.149942
0.15292
0.15652
0.16
0.16414
0.168161
0.172815
0.177273
0.182362
0.187218
0.192599
0.197696
0.203237
0.208378
0.213869
0.218759
0.223895
0.2281
0.232312
0.234933
0.236792
0.237476
0.878106
1.09152
1.15659
1.18665
1.22986
1.30724
1.44672
1.61482
1.79086
1.86842
1.88629
1.86895
1.7964
1.6756
1.53533
1.4065
1.29184
1.20895
1.14078
1.08825
1.04621
1.00899
0.982428
0.957786
0.939799
0.920652
0.90399
0.886141
0.868926
0.852016
0.834392
0.818223
0.800376
0.784526
0.765991
0.750028
0.731334
0.71432
0.697565
0.679176
0.663721
0.645571
0.63098
0.61284
0.598927
0.580793
0.567797
0.549349
0.537002
0.518431
0.506481
0.488251
0.476468
0.458419
0.445763
0.430696
0.416518
0.403454
0.388759
0.377055
0.362123
0.351594
0.336481
0.32745
0.312189
0.304411
0.289272
0.282374
0.268158
0.261677
0.248347
0.241691
0.231073
0.224094
0.215451
0.208515
0.201637
0.194881
0.189587
0.182925
0.179265
0.172829
0.17015
0.164313
0.161941
0.156936
0.154841
0.150323
0.148124
0.144743
0.142425
0.139766
0.137297
0.135216
0.132579
0.131126
0.128397
0.127301
0.124707
0.123714
0.121351
0.12042
0.118354
0.117508
0.115672
0.114922
0.113227
0.112452
0.111254
0.110412
0.1095
0.108634
0.108011
0.107093
0.106727
0.105858
0.10555
0.104832
0.104578
0.103985
0.103787
0.103306
0.103158
0.102753
0.10259
0.102431
0.102257
0.102226
0.102102
0.102134
0.102082
0.10216
0.102148
0.102325
0.102353
0.102634
0.102712
0.103083
0.103213
0.103675
0.103856
0.104356
0.104721
0.105206
0.105737
0.106238
0.106912
0.107458
0.108267
0.108884
0.109823
0.110538
0.111609
0.112445
0.113658
0.114638
0.116003
0.117154
0.118679
0.120111
0.12181
0.123558
0.125471
0.127522
0.129737
0.132131
0.134704
0.13745
0.140385
0.143505
0.146854
0.15042
0.154245
0.158312
0.162682
0.167286
0.172247
0.177409
0.182782
0.188468
0.194195
0.200297
0.206237
0.212571
0.218478
0.224709
0.230169
0.235799
0.240263
0.244623
0.24732
0.249211
0.249885
0.596678
0.859125
0.95184
0.979268
0.98837
0.994299
1.01987
1.09189
1.23009
1.40468
1.60219
1.76349
1.82655
1.8357
1.81386
1.74077
1.62453
1.49226
1.36263
1.24452
1.15339
1.07092
1.00921
0.9486
0.901931
0.857235
0.824203
0.792937
0.768189
0.744144
0.723012
0.702409
0.682992
0.664507
0.645704
0.628295
0.610052
0.592202
0.575655
0.556566
0.541068
0.52251
0.507964
0.489688
0.475741
0.458055
0.445256
0.427929
0.415891
0.399124
0.38792
0.372108
0.361408
0.346163
0.335173
0.322186
0.310662
0.29935
0.28798
0.277967
0.266952
0.258051
0.247427
0.239751
0.229573
0.222992
0.213335
0.207637
0.198739
0.193785
0.185604
0.181081
0.174384
0.170106
0.164512
0.160621
0.155963
0.152463
0.148643
0.14545
0.142399
0.139384
0.136894
0.134018
0.131946
0.12922
0.127451
0.124868
0.123247
0.121057
0.119558
0.117626
0.11624
0.114499
0.113195
0.111636
0.110409
0.109035
0.107881
0.106675
0.1056
0.104551
0.103557
0.102681
0.101778
0.101048
0.100196
0.0995632
0.098927
0.0982973
0.09783
0.0972453
0.0969142
0.0963799
0.0961632
0.0957077
0.0955343
0.0951909
0.0950654
0.0948217
0.0947452
0.0945945
0.0945635
0.0944894
0.0944784
0.094533
0.0945611
0.0947055
0.0947751
0.095007
0.0951129
0.095428
0.0955795
0.0959864
0.0961889
0.0966792
0.096936
0.0975106
0.0978351
0.0984911
0.0989031
0.0996148
0.100171
0.100914
0.101602
0.102413
0.10322
0.104118
0.105046
0.106044
0.1071
0.108214
0.109405
0.110656
0.111994
0.113406
0.114909
0.116524
0.118207
0.120002
0.121877
0.12387
0.125972
0.1282
0.130621
0.133165
0.135975
0.138958
0.142212
0.145707
0.149471
0.153511
0.157851
0.16247
0.167437
0.172643
0.178286
0.184116
0.190202
0.196632
0.203104
0.210002
0.216699
0.223831
0.230448
0.237393
0.243398
0.24952
0.254216
0.258802
0.26145
0.263412
0.264059
0.466191
0.693689
0.847494
0.893593
0.897165
0.881598
0.841341
0.822978
0.829539
0.883896
1.00423
1.17163
1.37055
1.55487
1.70096
1.74936
1.75869
1.74163
1.68733
1.59284
1.47823
1.34907
1.23177
1.11599
1.0243
0.937013
0.867034
0.798881
0.74429
0.691614
0.652668
0.616576
0.590913
0.564898
0.545669
0.525122
0.508966
0.490785
0.476811
0.459023
0.446204
0.43036
0.419014
0.40421
0.392881
0.378938
0.368639
0.355706
0.345841
0.333667
0.324674
0.313743
0.305572
0.295482
0.287582
0.278484
0.270623
0.262336
0.254811
0.247218
0.240092
0.233076
0.226317
0.219905
0.21366
0.207938
0.202369
0.197366
0.192509
0.188198
0.183983
0.180382
0.176706
0.173651
0.170307
0.167806
0.164736
0.162708
0.159784
0.15808
0.155008
0.153422
0.150007
0.148307
0.144514
0.142528
0.138475
0.136321
0.132484
0.129943
0.126746
0.123961
0.121417
0.118522
0.116599
0.113715
0.112317
0.109687
0.108548
0.106258
0.105277
0.103348
0.102491
0.100875
0.100149
0.0987886
0.0981791
0.0970608
0.0965023
0.0955983
0.0951341
0.0944057
0.0940178
0.093446
0.0931361
0.0926996
0.0924566
0.09214
0.0919667
0.0917556
0.0916444
0.0915363
0.0914819
0.0914619
0.0914583
0.0915341
0.0915954
0.0917472
0.0918853
0.092104
0.0923292
0.0926098
0.0929036
0.0932396
0.0936049
0.0940166
0.0944519
0.0949457
0.0954591
0.0960275
0.0966334
0.0972831
0.0979943
0.0987282
0.0995417
0.100378
0.101289
0.102243
0.103259
0.104347
0.10548
0.106721
0.107986
0.109402
0.11082
0.112433
0.114023
0.115869
0.117676
0.11976
0.121837
0.124213
0.126629
0.129315
0.132122
0.135113
0.138366
0.141711
0.14548
0.149304
0.153677
0.158086
0.163162
0.16823
0.174074
0.179834
0.186503
0.193023
0.200222
0.207493
0.215149
0.223016
0.230931
0.239114
0.246911
0.254898
0.261915
0.268897
0.27424
0.279336
0.282242
0.284368
0.285039
0.41703
0.612562
0.80733
0.873609
0.880872
0.865094
0.812261
0.732681
0.656588
0.633351
0.637984
0.683077
0.783014
0.926193
1.11263
1.29607
1.47272
1.59379
1.65433
1.66969
1.66693
1.63981
1.58455
1.49822
1.39208
1.27034
1.15166
1.0305
0.92828
0.828456
0.752132
0.674489
0.620274
0.564307
0.528493
0.489999
0.468325
0.44315
0.428839
0.40981
0.397782
0.38433
0.37527
0.365785
0.35691
0.348609
0.34063
0.333974
0.326653
0.320528
0.314086
0.308939
0.303498
0.29888
0.293898
0.289159
0.284743
0.279952
0.275993
0.271185
0.26761
0.26278
0.259657
0.254542
0.251928
0.246894
0.244996
0.240838
0.239346
0.236141
0.235173
0.233895
0.233042
0.233327
0.233043
0.234081
0.234053
0.23563
0.235662
0.237285
0.236824
0.237538
0.235769
0.235828
0.231531
0.230014
0.223163
0.220285
0.212755
0.205907
0.19952
0.190623
0.185386
0.175645
0.171575
0.162124
0.158527
0.150186
0.147085
0.13999
0.137402
0.131543
0.129271
0.124451
0.122575
0.118541
0.117048
0.113863
0.112106
0.109778
0.108091
0.106409
0.104626
0.1036
0.101802
0.101188
0.0996154
0.0990702
0.0978152
0.0973858
0.0963971
0.0960745
0.0953294
0.0951237
0.094667
0.09441
0.0942311
0.0940813
0.0940846
0.0940392
0.0941761
0.0941861
0.0945019
0.0946016
0.095049
0.0952354
0.0958131
0.096081
0.096789
0.0971404
0.0979874
0.0984807
0.0993678
0.10004
0.10097
0.101832
0.102814
0.10387
0.10492
0.106177
0.107317
0.108787
0.11004
0.111741
0.113128
0.115071
0.116614
0.118832
0.120634
0.122992
0.125154
0.127722
0.130293
0.133132
0.136176
0.139384
0.14295
0.146613
0.150766
0.154971
0.159804
0.164662
0.170299
0.175921
0.182469
0.188925
0.19648
0.20388
0.212116
0.22046
0.229294
0.238389
0.247587
0.257097
0.266231
0.275551
0.283826
0.291947
0.298208
0.303995
0.307269
0.30961
0.31032
0.408756
0.590967
0.810108
0.895456
0.90749
0.890785
0.829646
0.733683
0.620299
0.513473
0.454754
0.441999
0.450059
0.488393
0.570292
0.683921
0.838495
1.00182
1.17704
1.33172
1.44446
1.53515
1.57505
1.58945
1.58906
1.57362
1.53626
1.47395
1.38789
1.2758
1.16054
1.03292
0.924571
0.812459
0.735901
0.655183
0.604735
0.550455
0.513157
0.48154
0.454552
0.438149
0.420319
0.411772
0.39769
0.391586
0.380509
0.376151
0.367643
0.364533
0.358575
0.356589
0.353023
0.352113
0.350388
0.348783
0.348632
0.346706
0.346548
0.344912
0.34492
0.343434
0.343626
0.342041
0.342365
0.3414
0.342339
0.342061
0.343849
0.344113
0.34757
0.350244
0.352949
0.358389
0.361598
0.369239
0.373277
0.382587
0.387124
0.397316
0.401061
0.41029
0.412954
0.418799
0.419469
0.420762
0.418943
0.417831
0.413022
0.403931
0.397546
0.384061
0.37613
0.359503
0.351528
0.332931
0.325456
0.306844
0.299684
0.282348
0.275885
0.260525
0.25448
0.241068
0.235812
0.223937
0.219556
0.2096
0.20384
0.196565
0.189852
0.184925
0.176926
0.174054
0.165858
0.163221
0.155779
0.153099
0.146418
0.143978
0.137943
0.135758
0.130411
0.128602
0.124325
0.121886
0.118944
0.116551
0.114728
0.112179
0.111388
0.10915
0.108612
0.107018
0.106614
0.1056
0.105404
0.104856
0.104877
0.104678
0.10491
0.105011
0.105421
0.105857
0.106368
0.107137
0.107719
0.1088
0.109478
0.110836
0.111652
0.113267
0.114249
0.116124
0.117293
0.119442
0.120819
0.123269
0.124977
0.127561
0.129717
0.132496
0.135149
0.138177
0.141407
0.14478
0.148641
0.152475
0.157032
0.161461
0.166809
0.17197
0.178261
0.184299
0.191691
0.19873
0.207385
0.215608
0.225184
0.234623
0.245041
0.255471
0.266456
0.277495
0.288556
0.299552
0.309731
0.319493
0.327229
0.334277
0.338111
0.340921
0.341721
0.491411
0.699102
0.914041
0.972852
0.977573
0.940794
0.849201
0.72799
0.599284
0.482596
0.37675
0.295077
0.265644
0.260988
0.272219
0.303978
0.368069
0.453741
0.568505
0.706058
0.846575
1.00802
1.1419
1.27645
1.36182
1.442
1.48705
1.53072
1.54673
1.54953
1.53995
1.50945
1.45962
1.38316
1.29487
1.18833
1.09096
0.993071
0.902437
0.833917
0.764345
0.723351
0.675575
0.651607
0.615514
0.600354
0.572367
0.561857
0.540693
0.533507
0.518465
0.51351
0.503865
0.501283
0.496782
0.493165
0.492894
0.489883
0.489992
0.48764
0.487934
0.486235
0.487122
0.486044
0.487695
0.487052
0.490047
0.490246
0.495081
0.496508
0.503528
0.507839
0.513632
0.52166
0.527715
0.538961
0.545885
0.559787
0.567665
0.583622
0.591391
0.608147
0.614984
0.629937
0.635623
0.645955
0.649137
0.653202
0.654174
0.652391
0.651424
0.645017
0.640669
0.629408
0.623067
0.607604
0.600621
0.582777
0.575827
0.557434
0.550482
0.532885
0.525894
0.509765
0.503491
0.488588
0.483265
0.470472
0.46194
0.452861
0.441582
0.435702
0.421806
0.417341
0.402192
0.397478
0.381901
0.376197
0.36011
0.354041
0.337213
0.330774
0.313419
0.307027
0.290795
0.28043
0.267809
0.254635
0.245691
0.230156
0.224351
0.208981
0.203741
0.190343
0.185391
0.174126
0.169981
0.160661
0.157512
0.149809
0.147504
0.142215
0.139267
0.136248
0.133787
0.132312
0.130311
0.1299
0.128643
0.128647
0.128244
0.128641
0.128626
0.12985
0.130161
0.131968
0.132624
0.134998
0.136179
0.138633
0.140577
0.143156
0.14585
0.148627
0.152094
0.155178
0.159439
0.162966
0.168078
0.172215
0.178263
0.183187
0.190332
0.196239
0.204681
0.21176
0.221737
0.230321
0.24145
0.251693
0.26394
0.275644
0.288698
0.301483
0.314754
0.327982
0.340383
0.352701
0.362191
0.371517
0.376061
0.379679
0.380667
0.762514
0.914827
1.06156
1.07917
1.05627
0.965653
0.840926
0.696103
0.549124
0.41793
0.304733
0.216599
0.144684
0.110375
0.102936
0.102953
0.113722
0.135376
0.172901
0.230323
0.297786
0.392269
0.487983
0.611464
0.728289
0.86925
0.989319
1.12379
1.22116
1.32263
1.38217
1.44826
1.48233
1.51944
1.5299
1.53063
1.52093
1.49815
1.4595
1.41394
1.35631
1.29852
1.2356
1.17968
1.12218
1.07911
1.02956
0.999072
0.954621
0.932902
0.893135
0.876045
0.843751
0.830712
0.808252
0.79437
0.783332
0.768874
0.763357
0.750537
0.746404
0.735722
0.733001
0.723467
0.721809
0.714603
0.714366
0.711021
0.71208
0.711251
0.715187
0.71828
0.721885
0.729019
0.733189
0.743346
0.748511
0.761373
0.76776
0.783064
0.789661
0.806277
0.812962
0.829132
0.835629
0.848886
0.853903
0.86274
0.866517
0.867348
0.868224
0.866548
0.865717
0.860391
0.857554
0.848243
0.844344
0.832969
0.828921
0.817272
0.813378
0.802975
0.799437
0.791275
0.788964
0.783099
0.782295
0.779236
0.776887
0.777093
0.774896
0.775763
0.773214
0.774393
0.771447
0.772501
0.768844
0.76897
0.76291
0.761916
0.752864
0.750409
0.738135
0.734567
0.721367
0.709132
0.697859
0.678503
0.668436
0.642202
0.632491
0.60206
0.590927
0.558409
0.545207
0.511774
0.4981
0.464568
0.451468
0.417351
0.404716
0.37474
0.357614
0.335032
0.315041
0.299376
0.27778
0.268465
0.248401
0.241262
0.224845
0.219352
0.20659
0.202602
0.193148
0.190488
0.183951
0.182455
0.179247
0.177182
0.176983
0.176237
0.176871
0.177154
0.179688
0.180437
0.184444
0.185999
0.191261
0.193732
0.200223
0.203807
0.21162
0.216293
0.225586
0.231529
0.242602
0.250498
0.262652
0.273045
0.286425
0.299254
0.313658
0.328635
0.343558
0.35999
0.374434
0.390834
0.402399
0.415254
0.421281
0.426033
0.427333
1.19187
1.15179
1.20566
1.16144
1.07991
0.944348
0.785016
0.613024
0.448653
0.30958
0.196336
0.114035
0.056881
0.0294375
0.0199802
0.0174161
0.0178117
0.0199326
0.0255283
0.0367264
0.0510966
0.0755195
0.103223
0.145907
0.191801
0.256508
0.322032
0.409508
0.494056
0.609345
0.711881
0.844368
0.947875
1.0757
1.15927
1.25791
1.31355
1.37361
1.41493
1.44061
1.46437
1.47327
1.47753
1.47567
1.47098
1.46161
1.45024
1.43736
1.42063
1.40371
1.3794
1.35711
1.32636
1.30168
1.27251
1.24369
1.22317
1.19415
1.179
1.15121
1.13921
1.11452
1.1048
1.08209
1.07409
1.05412
1.04768
1.03185
1.02679
1.0158
1.01304
1.00907
1.0063
1.00716
1.00631
1.00901
1.00879
1.01339
1.01405
1.02061
1.02154
1.02915
1.03053
1.03822
1.03995
1.04641
1.04791
1.05172
1.05246
1.05104
1.05011
1.04611
1.04377
1.03764
1.0342
1.02574
1.02161
1.01182
1.00771
0.998127
0.994526
0.986514
0.983615
0.978697
0.977679
0.976481
0.977672
0.979059
0.981379
0.986831
0.991032
0.999243
1.00419
1.01482
1.02053
1.03313
1.03987
1.05316
1.06047
1.07397
1.0811
1.09443
1.10088
1.11447
1.12185
1.13001
1.13926
1.14334
1.15181
1.15296
1.15906
1.15816
1.16066
1.1568
1.15677
1.14574
1.14262
1.12459
1.11866
1.09233
1.08332
1.05584
1.03083
1.00622
0.969152
0.945747
0.897934
0.876259
0.82242
0.800527
0.744997
0.72313
0.667959
0.646261
0.592411
0.571456
0.52107
0.501779
0.460508
0.436262
0.407765
0.382091
0.364432
0.339957
0.330962
0.311147
0.305282
0.291861
0.288777
0.281362
0.280667
0.278515
0.279884
0.280554
0.286205
0.28778
0.296384
0.300579
0.309492
0.317822
0.327678
0.340083
0.35144
0.367494
0.381049
0.400364
0.415274
0.436595
0.450924
0.468969
0.477494
0.484082
0.485879
1.37327
1.29659
1.2661
1.15121
1.01147
0.825969
0.630915
0.446721
0.285469
0.158166
0.0729702
0.033543
0.0159969
0.00781716
0.00441045
0.00309687
0.00282883
0.00281196
0.00309188
0.00403985
0.00541591
0.00820526
0.0116431
0.0177238
0.024945
0.0364219
0.0491433
0.0683221
0.0885794
0.120281
0.151866
0.200496
0.24614
0.314147
0.374044
0.46226
0.540282
0.636657
0.737276
0.824205
0.927744
0.997479
1.08973
1.14112
1.21824
1.25336
1.31634
1.34363
1.3974
1.42107
1.46557
1.48509
1.51418
1.52604
1.53805
1.54056
1.54154
1.53665
1.533
1.52008
1.51225
1.49445
1.48515
1.46518
1.45644
1.43583
1.42766
1.40724
1.39874
1.38033
1.37301
1.36015
1.35044
1.34384
1.3341
1.33026
1.32024
1.31675
1.30685
1.30371
1.29323
1.29004
1.27928
1.2758
1.26501
1.26067
1.24995
1.24495
1.23568
1.2263
1.21756
1.20596
1.19703
1.18437
1.17537
1.16179
1.15296
1.13932
1.13104
1.11831
1.11119
1.10026