/*--------------------------------*- C++ -*----------------------------------*\
| =========                 |                                                 |
| \\      /  F ield         | OpenFOAM: The Open Source CFD Toolbox           |
|  \\    /   O peration     | Version:  4.1                                   |
|   \\  /    A nd           | Web:      www.OpenFOAM.org                      |
|    \\/     M anipulation  |                                                 |
\*---------------------------------------------------------------------------*/
FoamFile
{
    version     2.0;
    format      ascii;
    class       volScalarField;
    location    "11";
    object      k;
}
// * * * * * * * * * * * * * * * * * * * * * * * * * * * * * * * * * * * * * //

dimensions      [0 2 -2 0 0 0 0];

internalField   nonuniform List<scalar> 
204246
(
2.00882
2.06427
2.07541
2.0849
2.10142
2.10646
2.12462
2.13101
2.14859
2.15529
2.172
2.17848
2.19377
2.20096
2.21547
2.22182
2.236
2.2415
2.25356
2.26178
2.27148
2.27905
2.28828
2.2952
2.30402
2.31034
2.31875
2.32488
2.33335
2.34058
2.34787
2.35581
2.36248
2.37148
2.3771
2.38707
2.39151
2.4009
2.40903
2.41526
2.42474
2.43
2.44044
2.4449
2.45604
2.45988
2.473
2.47609
2.48996
2.49317
2.506
2.50993
2.52264
2.52659
2.53794
2.54674
2.55429
2.56471
2.57106
2.58253
2.58814
2.60051
2.60546
2.62005
2.62376
2.63926
2.64309
2.65745
2.66201
2.67625
2.68086
2.69326
2.70202
2.71155
2.7223
2.73035
2.74251
2.74965
2.7628
2.76936
2.78558
2.79016
2.80778
2.8126
2.82949
2.83519
2.85216
2.85805
2.87328
2.88357
2.89587
2.9086
2.91937
2.93363
2.94355
2.96164
2.9688
2.98917
2.99568
3.01667
3.02345
3.04412
3.05183
3.07261
3.08061
3.10215
3.11009
3.1301
3.14229
3.1597
3.17372
3.1902
3.20802
3.22195
3.24288
3.25491
3.27696
3.28886
3.31201
3.32384
3.34855
3.3601
3.38599
3.39736
3.42217
3.43744
3.4599
3.47735
3.49885
3.51856
3.53908
3.5602
3.58042
3.60274
3.62286
3.64639
3.66643
3.69092
3.71116
3.73665
3.75697
3.78191
3.8044
3.82844
3.85171
3.87591
3.89961
3.92413
3.94803
3.97301
3.99695
4.02239
4.04621
4.07219
4.09592
4.12241
4.14618
4.17286
4.19597
4.2229
4.24605
4.27235
4.29622
4.32171
4.34635
4.37088
4.39655
4.41995
4.4471
4.46934
4.49845
4.5194
4.55111
4.57117
4.60696
4.62512
4.66547
4.68734
4.72411
4.75446
4.78964
4.82912
4.8657
4.9154
4.9571
5.01845
5.0698
5.14404
5.20954
5.28887
5.35597
5.39415
5.41073
1.57182
1.45904
1.43938
1.41432
1.40118
1.39192
1.38793
1.38653
1.38692
1.3872
1.39266
1.39411
1.40132
1.4029
1.41182
1.4136
1.42327
1.42554
1.42965
1.43693
1.43836
1.44631
1.44757
1.4547
1.45636
1.46302
1.46461
1.47049
1.47129
1.47765
1.47834
1.48438
1.48491
1.49107
1.49173
1.49888
1.50081
1.50216
1.50791
1.5087
1.51551
1.51696
1.52398
1.52562
1.53257
1.53376
1.5411
1.54233
1.55004
1.55143
1.56012
1.5624
1.57199
1.57521
1.57951
1.58742
1.58964
1.59964
1.60264
1.61298
1.61623
1.62661
1.6294
1.64028
1.64315
1.65445
1.65752
1.6698
1.67381
1.68699
1.69194
1.69954
1.71091
1.71553
1.72875
1.7335
1.74733
1.75229
1.76657
1.77143
1.78577
1.79057
1.80558
1.81068
1.82691
1.83305
1.85051
1.85784
1.87
1.8843
1.89317
1.91066
1.91811
1.93738
1.94489
1.96453
1.97212
1.9926
2.00039
2.02231
2.03088
2.05382
2.06349
2.0874
2.09764
2.12303
2.13393
2.15564
2.1746
2.19195
2.21589
2.22948
2.25687
2.26899
2.29852
2.31125
2.3431
2.35682
2.38992
2.40466
2.43887
2.45423
2.49118
2.50825
2.54019
2.56628
2.59434
2.62539
2.65249
2.68646
2.71324
2.75118
2.77804
2.81877
2.84653
2.88964
2.91891
2.96424
2.99572
3.04363
3.07871
3.12114
3.16579
3.20692
3.25421
3.29806
3.34701
3.39384
3.44442
3.49452
3.54686
3.60042
3.6531
3.71075
3.76462
3.8271
3.88453
3.95127
4.00316
4.07854
4.13456
4.20491
4.27192
4.33682
4.41347
4.47309
4.5572
4.61293
4.70111
4.75543
4.84355
4.89927
4.97998
5.03888
5.12266
5.18002
5.26215
5.30165
5.39574
5.43169
5.52143
5.55387
5.63904
5.66811
5.75019
5.7764
5.86515
5.89644
6.06318
6.20827
6.62326
6.8804
6.98938
2.51877
2.25726
2.22177
2.17216
2.13217
2.09947
2.06372
2.05001
2.02517
2.01908
2.00492
2.00417
1.99836
2.00235
1.99927
2.00818
2.00665
2.02065
2.02684
2.02783
2.04199
2.0423
2.05789
2.05943
2.07305
2.07472
2.08746
2.08894
2.10172
2.10121
2.11372
2.11302
2.12517
2.1243
2.13554
2.13495
2.14607
2.15149
2.15003
2.15992
2.15908
2.16795
2.16746
2.17653
2.17612
2.18657
2.18526
2.19597
2.19478
2.20602
2.20573
2.21629
2.21645
2.22898
2.23509
2.23469
2.24658
2.24664
2.25819
2.25898
2.27087
2.27196
2.28517
2.2853
2.29958
2.30001
2.31523
2.31693
2.33123
2.33355
2.3496
2.35748
2.36168
2.37484
2.37727
2.39186
2.39458
2.40957
2.4125
2.42823
2.43012
2.44642
2.44847
2.46544
2.46858
2.48472
2.48848
2.50593
2.5145
2.52092
2.53509
2.53886
2.55509
2.55926
2.57638
2.57974
2.59763
2.60135
2.62001
2.62425
2.64334
2.64841
2.66677
2.6726
2.69155
2.69776
2.7184
2.72744
2.73947
2.75501
2.76162
2.78071
2.78667
2.80636
2.81263
2.83276
2.8398
2.85921
2.86645
2.886
2.89341
2.91371
2.92172
2.94226
2.95196
2.96614
2.98018
2.99038
3.0074
3.01518
3.03308
3.04112
3.05851
3.06658
3.0831
3.09111
3.10679
3.11483
3.13005
3.13837
3.1523
3.15903
3.1699
3.1758
3.18473
3.1894
3.19679
3.19833
3.20382
3.20268
3.20514
3.20136
3.20186
3.19093
3.19089
3.17385
3.17251
3.14593
3.13296
3.11717
3.08409
3.07495
3.02899
3.01659
2.9626
2.9472
2.88652
2.86896
2.80318
2.78376
2.71343
2.69279
2.61872
2.59743
2.52353
2.5032
2.42421
2.38755
2.35154
2.28884
2.27335
2.20305
2.18886
2.12133
2.10942
2.05003
2.04331
2.0031
2.00728
1.98104
1.98621
1.85253
1.80295
3.32441
3.07718
3.02781
2.96189
2.92224
2.87835
2.83733
2.81432
2.78249
2.77086
2.74945
2.74373
2.73106
2.73002
2.7206
2.72196
2.717
2.72055
2.72217
2.72028
2.72573
2.72391
2.73092
2.73032
2.73756
2.73753
2.74517
2.74538
2.75374
2.75295
2.76076
2.75981
2.76738
2.76641
2.77316
2.77237
2.77794
2.78076
2.77939
2.78414
2.7829
2.78668
2.78567
2.78945
2.78848
2.793
2.79137
2.79586
2.79429
2.79902
2.79811
2.80242
2.80181
2.8065
2.80899
2.80801
2.81263
2.81186
2.816
2.81556
2.81992
2.81961
2.82473
2.82396
2.82921
2.82857
2.83416
2.83415
2.83975
2.84019
2.84606
2.84899
2.84997
2.85469
2.85512
2.86023
2.86084
2.86603
2.86677
2.87201
2.87226
2.87739
2.87761
2.8826
2.88319
2.88753
2.88827
2.89203
2.89387
2.89391
2.89631
2.89631
2.8984
2.89837
2.90023
2.89994
2.90126
2.90092
2.90182
2.90149
2.90196
2.90142
2.90148
2.90083
2.90072
2.89976
2.89929
2.89802
2.89579
2.89447
2.89167
2.88992
2.88652
2.88415
2.88017
2.87722
2.87254
2.86921
2.86355
2.85953
2.85313
2.84769
2.84125
2.83293
2.82427
2.81622
2.80396
2.79654
2.7798
2.77328
2.75237
2.74551
2.72102
2.71301
2.68476
2.67546
2.64291
2.63195
2.59561
2.58337
2.53927
2.5177
2.48601
2.44765
2.42456
2.37384
2.35439
2.29646
2.27506
2.21308
2.18992
2.12409
2.09913
2.02973
2.00314
1.93161
1.90428
1.82746
1.7903
1.73134
1.67847
1.6331
1.56757
1.53467
1.46263
1.43491
1.36347
1.3373
1.2713
1.2472
1.18719
1.16568
1.112
1.0932
1.04565
1.02943
0.986962
0.967709
0.939785
0.916694
0.898408
0.871871
0.860303
0.833182
0.824614
0.805743
0.802811
0.79871
0.813022
0.830083
0.860085
0.869728
0.876987
4.04763
3.83848
3.77413
3.65981
3.59707
3.52868
3.47162
3.43455
3.39209
3.36877
3.33938
3.32799
3.30914
3.3033
3.28816
3.28508
3.27232
3.27024
3.26174
3.25304
3.25074
3.24071
3.23973
3.23144
3.23043
3.22392
3.22347
3.21803
3.21834
3.21253
3.21299
3.20741
3.20788
3.20243
3.20273
3.19694
3.19615
3.19203
3.18613
3.18514
3.17752
3.17556
3.16799
3.16584
3.15821
3.15625
3.14803
3.14606
3.13777
3.13569
3.12782
3.12526
3.11743
3.11461
3.10812
3.10184
3.09759
3.08943
3.08583
3.07708
3.07337
3.06452
3.06082
3.0516
3.04777
3.03847
3.03449
3.0255
3.02131
3.01237
3.00781
2.99995
2.99316
2.98639
2.97872
2.9725
2.96457
2.9585
2.95045
2.94433
2.93588
2.92948
2.92049
2.91371
2.90458
2.89724
2.88796
2.87956
2.86981
2.85994
2.8498
2.83922
2.82791
2.81716
2.804
2.79372
2.77815
2.76863
2.75054
2.74188
2.72097
2.7126
2.69039
2.68139
2.65779
2.64829
2.621
2.60794
2.58606
2.56591
2.54762
2.52013
2.50673
2.47313
2.46096
2.4236
2.40963
2.3712
2.35589
2.31509
2.29879
2.25564
2.23876
2.19042
2.16679
2.13049
2.0939
2.06553
2.01879
1.99629
1.94307
1.922
1.86594
1.8441
1.78669
1.76433
1.70582
1.68291
1.62406
1.60091
1.53992
1.51047
1.46295
1.42324
1.3854
1.33785
1.30868
1.25529
1.23342
1.17887
1.15789
1.10589
1.08603
1.03703
1.01853
0.973218
0.95638
0.913646
0.893801
0.863813
0.840222
0.819378
0.792889
0.78048
0.754536
0.745374
0.722972
0.715547
0.696973
0.691026
0.676105
0.671619
0.66009
0.656994
0.648563
0.646759
0.640787
0.638537
0.638074
0.636417
0.637241
0.63645
0.637413
0.636526
0.637174
0.635943
0.637428
0.637888
0.64724
0.653014
0.665829
0.670561
0.674363
4.57155
4.49831
4.4637
4.34414
4.22491
4.11168
4.00883
3.93747
3.87104
3.82307
3.77953
3.75345
3.72835
3.71592
3.69635
3.68894
3.67121
3.66456
3.64924
3.63516
3.62263
3.60411
3.59298
3.57318
3.56257
3.54304
3.53309
3.51446
3.50597
3.4878
3.48014
3.46255
3.45515
3.43829
3.43099
3.41442
3.40638
3.39115
3.37955
3.3664
3.35235
3.33978
3.3245
3.31209
3.29608
3.28365
3.26696
3.25456
3.23749
3.22494
3.20808
3.195
3.17826
3.16432
3.14818
3.1327
3.1169
3.10093
3.08498
3.06864
3.05228
3.03569
3.01858
3.00213
2.98398
2.96788
2.94853
2.93294
2.91265
2.89751
2.8759
2.85873
2.84
2.82013
2.8033
2.78132
2.76584
2.7421
2.72778
2.70154
2.6896
2.66095
2.64967
2.61941
2.60725
2.5769
2.56417
2.53162
2.513
2.48836
2.46292
2.44164
2.41126
2.39201
2.35643
2.34067
2.30091
2.28553
2.24358
2.22757
2.18375
2.16626
2.12219
2.10376
2.05859
2.03964
1.99088
1.96756
1.92803
1.89613
1.86246
1.82291
1.79593
1.74909
1.72765
1.67631
1.65554
1.60437
1.58308
1.53215
1.51096
1.46048
1.43955
1.38757
1.3628
1.32226
1.2896
1.2579
1.21889
1.19477
1.15126
1.13331
1.08901
1.07185
1.02971
1.01354
0.973647
0.95837
0.921082
0.906862
0.870994
0.854164
0.828274
0.807768
0.788589
0.76528
0.752054
0.727531
0.717906
0.694449
0.685768
0.664678
0.656918
0.638126
0.63127
0.614623
0.608595
0.593502
0.586611
0.576521
0.568744
0.561728
0.55335
0.549196
0.541186
0.538319
0.531599
0.529422
0.524413
0.522956
0.519593
0.518847
0.51709
0.517057
0.516623
0.517596
0.518014
0.52022
0.522348
0.525263
0.529042
0.532714
0.537973
0.542369
0.54911
0.554472
0.562691
0.568853
0.57838
0.584911
0.592347
0.595328
0.597254
4.63259
4.79581
4.83003
4.82893
4.78054
4.68175
4.54974
4.42151
4.2989
4.19451
4.11034
4.04895
4.00074
3.97011
3.9415
3.92532
3.90352
3.89117
3.8714
3.85412
3.83407
3.81086
3.78869
3.76139
3.73744
3.70805
3.68322
3.65338
3.62879
3.5992
3.5757
3.54647
3.52358
3.49519
3.47309
3.446
3.42407
3.3985
3.376
3.35167
3.32822
3.30413
3.28009
3.25555
3.23131
3.20565
3.18178
3.15507
3.13167
3.10388
3.08075
3.0524
3.02931
2.99972
2.97366
2.9481
2.91766
2.89397
2.86147
2.83821
2.80399
2.78095
2.74453
2.7228
2.68401
2.66312
2.62236
2.60146
2.56045
2.53911
2.49721
2.47083
2.43683
2.40464
2.375
2.33891
2.31241
2.27381
2.24976
2.20849
2.18816
2.14417
2.1261
2.08055
2.06171
2.01677
1.99741
1.95096
1.92625
1.88891
1.85669
1.82447
1.78675
1.75811
1.71508
1.6914
1.64331
1.62353
1.5732
1.55331
1.50282
1.48218
1.43328
1.41254
1.36457
1.34423
1.29536
1.27229
1.23323
1.20458
1.17246
1.13866
1.11455
1.07594
1.05891
1.01874
1.00278
0.96536
0.950079
0.915125
0.900889
0.868344
0.855171
0.823658
0.80925
0.785652
0.768491
0.750711
0.73113
0.71866
0.697577
0.68909
0.668443
0.660753
0.642069
0.63518
0.618302
0.612098
0.59697
0.591428
0.57744
0.570977
0.561409
0.553705
0.546946
0.538429
0.534084
0.525403
0.522167
0.514212
0.511383
0.504423
0.501975
0.495944
0.493856
0.488717
0.487002
0.482615
0.480649
0.478192
0.475901
0.474821
0.472731
0.472224
0.470824
0.470655
0.470093
0.470321
0.47035
0.471658
0.472046
0.474324
0.475201
0.478357
0.479697
0.48365
0.485415
0.489822
0.492542
0.497091
0.500672
0.505489
0.509991
0.515305
0.520822
0.526607
0.53316
0.539518
0.546836
0.552881
0.558363
0.560869
0.56225
4.05874
4.50872
4.69278
4.87802
4.95339
4.97543
4.96926
4.89591
4.76808
4.61214
4.4637
4.32964
4.21882
4.13714
4.07296
4.03069
3.99204
3.96601
3.9368
3.91333
3.88738
3.8602
3.83104
3.79817
3.76486
3.7274
3.6907
3.65108
3.61327
3.57316
3.53527
3.49528
3.4565
3.41658
3.37722
3.33834
3.29873
3.25922
3.2233
3.18269
3.14823
3.10842
3.07443
3.03434
3.00085
2.95953
2.92703
2.8843
2.8524
2.80856
2.77664
2.73303
2.7009
2.65668
2.62092
2.58321
2.54197
2.50707
2.46338
2.42969
2.38408
2.35109
2.30307
2.27187
2.22128
2.19144
2.13886
2.10946
2.05686
2.02748
1.97436
1.94046
1.89652
1.85691
1.81883
1.77557
1.74219
1.69669
1.66725
1.61955
1.59532
1.5458
1.52508
1.47541
1.45468
1.40744
1.38705
1.34002
1.31629
1.27879
1.24987
1.21851
1.18576
1.15941
1.12313
1.10268
1.0636
1.04749
1.00826
0.992864
0.955456
0.940347
0.905955
0.891567
0.859567
0.8462
0.815343
0.80105
0.777276
0.761092
0.74212
0.723951
0.710381
0.690205
0.681411
0.661044
0.653104
0.634929
0.627619
0.611267
0.604695
0.58996
0.584062
0.570203
0.563921
0.553743
0.546761
0.53885
0.531113
0.5255
0.517053
0.513419
0.505003
0.501815
0.494164
0.491303
0.484382
0.481792
0.47554
0.473205
0.467378
0.464667
0.460663
0.457444
0.45451
0.450977
0.449004
0.445342
0.443941
0.44053
0.439317
0.436341
0.435307
0.432784
0.431942
0.429926
0.429312
0.427731
0.427051
0.426522
0.425918
0.425899
0.42571
0.426287
0.426585
0.42802
0.428585
0.430883
0.431875
0.435075
0.436623
0.440762
0.442954
0.448051
0.450905
0.45696
0.460441
0.467138
0.47144
0.478304
0.483296
0.490171
0.495814
0.502575
0.50865
0.515317
0.521635
0.528103
0.534227
0.539714
0.543982
0.546248
0.547348
3.22716
3.73522
3.94545
4.20146
4.39629
4.6543
4.89355
4.9967
5.02065
4.99201
4.88388
4.71679
4.54163
4.3789
4.23586
4.12693
4.03653
3.97187
3.91415
3.86994
3.82982
3.79292
3.75534
3.71649
3.67499
3.63156
3.58453
3.5365
3.48406
3.4342
3.38055
3.33052
3.27515
3.224
3.16768
3.11698
3.06097
3.00867
2.95758
2.90371
2.85576
2.80297
2.75697
2.70474
2.66038
2.60769
2.56506
2.51124
2.46979
2.41503
2.37389
2.31958
2.27856
2.22407
2.17986
2.13316
2.08372
2.04107
1.9896
1.94912
1.89625
1.85745
1.80291
1.76698
1.7107
1.67708
1.61981
1.58773
1.53162
1.50064
1.44532
1.41152
1.36609
1.32836
1.29007
1.25026
1.21801
1.17742
1.15049
1.10928
1.08835
1.04745
1.0302
0.99125
0.974997
0.939813
0.92471
0.891467
0.875006
0.849172
0.830739
0.809634
0.789715
0.77258
0.751171
0.738445
0.71589
0.706498
0.684444
0.67577
0.655454
0.647233
0.629092
0.621484
0.605049
0.598151
0.582717
0.575577
0.563773
0.556103
0.546547
0.538317
0.531219
0.522341
0.517374
0.508213
0.504398
0.495923
0.49242
0.484793
0.481639
0.474742
0.471895
0.465416
0.462439
0.457569
0.454248
0.450347
0.446758
0.443887
0.44003
0.438025
0.434112
0.432548
0.428884
0.427485
0.424186
0.422938
0.42
0.418905
0.416241
0.415006
0.413241
0.411785
0.41063
0.409101
0.408446
0.407028
0.40657
0.405452
0.40514
0.404358
0.404195
0.40376
0.403755
0.403661
0.40391
0.404098
0.404545
0.405287
0.405753
0.40704
0.407696
0.409472
0.41033
0.412678
0.413822
0.416898
0.418477
0.422312
0.424427
0.429122
0.431927
0.437523
0.441152
0.447561
0.45207
0.459013
0.464376
0.471555
0.477504
0.484708
0.490954
0.498276
0.504733
0.511941
0.518312
0.525014
0.530746
0.536058
0.539787
0.541931
0.542865
2.31619
2.93226
3.16127
3.3569
3.47979
3.67016
3.9567
4.29773
4.642
4.86348
4.93669
4.93935
4.88007
4.73976
4.55893
4.37548
4.20044
4.05677
3.93397
3.82877
3.73819
3.6602
3.59675
3.53696
3.48099
3.42563
3.36933
3.31298
3.25227
3.19472
3.13297
3.07651
3.01334
2.9553
2.89018
2.83238
2.76722
2.70593
2.64474
2.58058
2.52296
2.46006
2.40449
2.3425
2.28949
2.2285
2.17823
2.11724
2.06921
2.00859
1.96197
1.90268
1.85666
1.79788
1.74984
1.69906
1.64765
1.60202
1.55011
1.50787
1.45611
1.41682
1.36529
1.32999
1.2788
1.24686
1.19648
1.16708
1.11917
1.09206
1.04643
1.01901
0.981962
0.953341
0.922688
0.894332
0.869218
0.841773
0.821549
0.794862
0.779624
0.75374
0.742285
0.718314
0.707985
0.686949
0.677672
0.658445
0.648986
0.633761
0.623913
0.611342
0.601065
0.590619
0.579878
0.571678
0.560447
0.554134
0.542719
0.537749
0.526786
0.522088
0.512222
0.507872
0.498874
0.494896
0.486444
0.482444
0.47574
0.47151
0.465873
0.461546
0.456959
0.452445
0.448793
0.444165
0.441251
0.436685
0.434382
0.429965
0.42801
0.423889
0.422103
0.418222
0.416401
0.413335
0.411405
0.408843
0.406844
0.404823
0.402701
0.401141
0.398929
0.397781
0.3956
0.394704
0.392712
0.391926
0.390182
0.389504
0.387962
0.387239
0.386272
0.385468
0.384913
0.38413
0.383861
0.383255
0.383106
0.382788
0.382773
0.382709
0.382901
0.383067
0.383582
0.383958
0.384797
0.385419
0.386531
0.387746
0.389098
0.390942
0.392598
0.394995
0.397133
0.40012
0.402819
0.406359
0.409579
0.413649
0.417438
0.422128
0.426574
0.431986
0.437167
0.443345
0.449279
0.456178
0.462685
0.470171
0.477164
0.485075
0.492365
0.500338
0.507562
0.51518
0.521846
0.52853
0.534012
0.539
0.542364
0.544423
0.545247
1.57873
2.19732
2.52249
2.67248
2.741
2.80034
2.92411
3.14429
3.47275
3.84075
4.22751
4.55069
4.72198
4.76004
4.75288
4.67326
4.52664
4.34525
4.15732
3.97569
3.81949
3.67058
3.53938
3.41328
3.30819
3.21382
3.13091
3.05186
2.97591
2.90482
2.8348
2.77106
2.70384
2.64169
2.57409
2.51467
2.44991
2.38853
2.32665
2.26072
2.20192
2.13791
2.0809
2.01702
1.96192
1.9004
1.84868
1.78811
1.73892
1.68036
1.63411
1.5787
1.53442
1.48047
1.43566
1.38798
1.34228
1.29923
1.25471
1.21533
1.1726
1.1365
1.09569
1.0633
1.02469
0.995808
0.959624
0.933648
0.900498
0.87721
0.846939
0.825458
0.800186
0.779815
0.758269
0.739551
0.72123
0.70414
0.688627
0.672881
0.659871
0.645005
0.633792
0.61966
0.60976
0.596454
0.587546
0.575091
0.566773
0.555993
0.548195
0.538592
0.531283
0.522545
0.515694
0.507688
0.501296
0.494023
0.487988
0.481427
0.475714
0.469833
0.464443
0.459246
0.454214
0.449599
0.44479
0.440575
0.436521
0.432389
0.428928
0.424996
0.422008
0.418255
0.415661
0.412121
0.409851
0.406549
0.404578
0.401481
0.399782
0.39688
0.395424
0.392682
0.39136
0.389083
0.387742
0.385857
0.384515
0.383005
0.38164
0.380465
0.379123
0.37827
0.376975
0.376393
0.375251
0.374785
0.373883
0.373533
0.372879
0.372578
0.372313
0.3721
0.372075
0.37202
0.372174
0.372317
0.37272
0.373035
0.37368
0.374197
0.375089
0.375837
0.376992
0.378007
0.379455
0.380789
0.382503
0.384191
0.386129
0.388168
0.390384
0.392824
0.39548
0.398463
0.401673
0.405405
0.409239
0.413808
0.418349
0.42375
0.429068
0.435306
0.441447
0.448484
0.455467
0.463237
0.470813
0.479177
0.487226
0.495978
0.504282
0.513112
0.521283
0.529666
0.537064
0.544241
0.550048
0.555185
0.558551
0.560632
0.561411
1.25615
1.79107
2.18457
2.33754
2.36927
2.37091
2.36773
2.37823
2.45972
2.64616
2.94679
3.31187
3.7173
4.0757
4.37462
4.48862
4.51684
4.49867
4.42539
4.29071
4.12332
3.93146
3.74487
3.55783
3.38977
3.22414
3.0705
2.92105
2.79072
2.67517
2.57669
2.48744
2.40884
2.33553
2.26712
2.20534
2.1462
2.08993
2.03593
1.97668
1.92582
1.87199
1.82544
1.77249
1.72565
1.67502
1.63218
1.58345
1.54198
1.49497
1.45662
1.41383
1.37911
1.33923
1.30538
1.26826
1.23485
1.20026
1.16817
1.13576
1.1053
1.07488
1.04607
1.01768
0.991112
0.965247
0.941598
0.918502
0.897907
0.877622
0.85957
0.842115
0.826116
0.811304
0.796733
0.784513
0.771093
0.760833
0.747784
0.73881
0.724905
0.716302
0.700527
0.691356
0.673761
0.66335
0.644435
0.63316
0.61524
0.602213
0.587245
0.573195
0.561038
0.546771
0.537314
0.523151
0.516023
0.503026
0.497225
0.485627
0.480507
0.470422
0.465808
0.457031
0.452963
0.445236
0.441641
0.434897
0.431487
0.425612
0.422581
0.417392
0.41466
0.41011
0.407589
0.403622
0.40127
0.397802
0.395633
0.392605
0.390571
0.387969
0.38603
0.383817
0.381986
0.380168
0.37845
0.376944
0.375371
0.374133
0.37274
0.371717
0.370465
0.369606
0.36851
0.36787
0.36692
0.366461
0.365733
0.365392
0.36491
0.364681
0.364511
0.364426
0.36442
0.364551
0.364753
0.365083
0.365492
0.366044
0.366673
0.367481
0.368353
0.369451
0.370589
0.372012
0.373434
0.375223
0.376973
0.379181
0.381324
0.384012
0.386645
0.389816
0.392986
0.396597
0.40037
0.404477
0.408962
0.413741
0.41904
0.424629
0.430849
0.437308
0.444494
0.451807
0.45997
0.468119
0.4769
0.48577
0.495028
0.504382
0.513848
0.523327
0.532553
0.541553
0.549785
0.5574
0.56366
0.568943
0.572433
0.574527
0.575278
1.12845
1.59218
2.03301
2.21979
2.25148
2.23937
2.16772
2.0452
1.96337
1.95008
1.99822
2.14663
2.40515
2.73413
3.12969
3.4972
3.84465
4.08018
4.19105
4.21842
4.20858
4.15852
4.05881
3.91634
3.74339
3.54727
3.34907
3.148
2.96154
2.77508
2.60989
2.44716
2.30794
2.17941
2.08238
1.99812
1.93573
1.87639
1.82753
1.77593
1.7329
1.69323
1.66094
1.62886
1.59746
1.566
1.53828
1.51068
1.4845
1.45691
1.43218
1.40789
1.38662
1.36503
1.34568
1.32418
1.30627
1.28439
1.26736
1.24528
1.2292
1.20688
1.19232
1.16887
1.15634
1.13263
1.12273
1.10251
1.0946
1.0789
1.07355
1.06492
1.05893
1.0574
1.05391
1.055
1.05352
1.05587
1.05461
1.05683
1.05252
1.05373
1.04258
1.0405
1.01996
1.01216
0.982701
0.96847
0.936311
0.907373
0.879942
0.842857
0.818998
0.778329
0.760143
0.720232
0.704205
0.668465
0.654467
0.623681
0.611815
0.586
0.575507
0.553822
0.544938
0.5264
0.51905
0.503857
0.495598
0.483843
0.475738
0.466652
0.458138
0.451695
0.442712
0.43842
0.429925
0.426405
0.418872
0.415802
0.409286
0.406623
0.401022
0.398788
0.39425
0.391848
0.388339
0.386234
0.383507
0.381468
0.379528
0.377498
0.376229
0.37432
0.373491
0.371896
0.371248
0.370054
0.369597
0.368763
0.368479
0.368083
0.367856
0.367821
0.367759
0.368002
0.368098
0.368693
0.36894
0.369883
0.37031
0.371615
0.372243
0.373936
0.37479
0.376882
0.377972
0.380486
0.381975
0.384656
0.386709
0.38966
0.39235
0.395656
0.399074
0.402871
0.407056
0.411453
0.416427
0.421545
0.427405
0.433373
0.440257
0.447181
0.455186
0.463102
0.472283
0.481222
0.491161
0.501013
0.511543
0.522012
0.53282
0.543483
0.554072
0.564232
0.573725
0.582289
0.58944
0.595263
0.599061
0.601334
0.602101
1.10862
1.5311
1.99458
2.19683
2.23233
2.21492
2.12096
1.9583
1.75698
1.562
1.4795
1.46815
1.51087
1.63247
1.85374
2.13228
2.48526
2.82873
3.17731
3.47223
3.69293
3.83978
3.88015
3.8867
3.86614
3.81861
3.73258
3.61128
3.45359
3.26131
3.05868
2.84335
2.65251
2.46208
2.31267
2.16368
2.0545
1.95128
1.87339
1.80659
1.74963
1.70817
1.6731
1.65188
1.62785
1.61074
1.58945
1.57845
1.56169
1.55263
1.53809
1.53271
1.52499
1.52323
1.52119
1.51801
1.51845
1.51423
1.51414
1.50868
1.5081
1.5016
1.50112
1.49314
1.49275
1.48496
1.48541
1.48186
1.48428
1.4837
1.49051
1.49747
1.50325
1.51779
1.52595
1.54698
1.55797
1.58383
1.59631
1.62437
1.63378
1.65759
1.66284
1.67481
1.67345
1.67486
1.66281
1.65244
1.62887
1.59515
1.56789
1.51833
1.48496
1.42538
1.39167
1.32429
1.29376
1.22505
1.19671
1.13151
1.10557
1.04734
1.02326
0.97222
0.951248
0.905575
0.887654
0.84858
0.826254
0.7967
0.770768
0.74962
0.718685
0.705582
0.673449
0.661885
0.632079
0.620483
0.593381
0.582696
0.557952
0.548224
0.525971
0.517578
0.498993
0.488699
0.474845
0.464632
0.454845
0.443915
0.438188
0.427552
0.423812
0.414921
0.411694
0.404773
0.402258
0.396893
0.395085
0.39088
0.389602
0.38682
0.385258
0.383804
0.382509
0.381921
0.38098
0.380819
0.380423
0.380525
0.380505
0.381223
0.381431
0.382703
0.383199
0.384979
0.385756
0.388051
0.389314
0.391792
0.393734
0.396466
0.399135
0.402186
0.405686
0.409194
0.413564
0.417688
0.422969
0.427857
0.434149
0.439924
0.447392
0.454205
0.463005
0.470952
0.481208
0.490402
0.501652
0.512003
0.524058
0.535217
0.547699
0.559205
0.57154
0.582714
0.59386
0.603538
0.61184
0.618667
0.622693
0.625364
0.626174
1.27915
1.7009
2.1397
2.27233
2.29074
2.23994
2.09935
1.89378
1.65492
1.41867
1.19228
1.02001
0.966403
0.961811
1.0059
1.10651
1.29013
1.51648
1.8006
2.11849
2.41917
2.74484
2.98718
3.2224
3.36269
3.49149
3.54041
3.5553
3.54908
3.52935
3.48101
3.40248
3.29363
3.15313
2.99708
2.82271
2.66192
2.50784
2.36773
2.26129
2.15742
2.09177
2.02276
1.98683
1.94174
1.92328
1.89336
1.88407
1.86522
1.86116
1.8507
1.85031
1.84766
1.85218
1.85838
1.86242
1.87362
1.87627
1.88808
1.891
1.90231
1.90476
1.91571
1.9167
1.92815
1.92929
1.94302
1.94624
1.96326
1.96921
1.99124
2.00549
2.02379
2.04724
2.06623
2.09808
2.11929
2.1578
2.18105
2.22424
2.24601
2.29041
2.30854
2.34609
2.3594
2.37975
2.38251
2.38586
2.38512
2.37128
2.35975
2.32947
2.30682
2.26291
2.2338
2.17799
2.14649
2.08363
2.05194
1.98597
1.95621
1.89119
1.86259
1.80301
1.77778
1.72287
1.70086
1.6531
1.62124
1.58515
1.54549
1.51967
1.47086
1.45241
1.39922
1.38016
1.326
1.30426
1.24882
1.22611
1.16889
1.14538
1.08743
1.06451
1.01089
0.975535
0.933078
0.889469
0.857834
0.806651
0.785809
0.734678
0.715676
0.670426
0.652506
0.613756
0.598402
0.565719
0.553464
0.525848
0.516202
0.495726
0.484665
0.471029
0.461283
0.45244
0.443409
0.438866
0.431019
0.428505
0.422718
0.421154
0.417362
0.416534
0.41442
0.414216
0.413485
0.413826
0.414378
0.41506
0.41688
0.417853
0.420856
0.422128
0.426239
0.42805
0.433209
0.435601
0.441854
0.445042
0.452418
0.456623
0.46529
0.470713
0.480865
0.48768
0.499521
0.508031
0.520987
0.531268
0.545164
0.556886
0.571257
0.583965
0.59809
0.61116
0.623848
0.636
0.645224
0.654383
0.658706
0.662144
0.663112
1.81927
2.07515
2.35828
2.39505
2.36707
2.23844
2.03578
1.77526
1.49213
1.22073
0.974098
0.765131
0.586527
0.478255
0.453932
0.454074
0.490029
0.559406
0.675479
0.845739
1.03346
1.284
1.51727
1.80374
2.04899
2.33156
2.54634
2.77388
2.91816
3.06766
3.14174
3.21888
3.24052
3.24791
3.24222
3.22422
3.187
3.13569
3.06625
2.99297
2.91101
2.83324
2.75665
2.69067
2.62861
2.58517
2.53888
2.51595
2.48282
2.47085
2.44206
2.43179
2.41229
2.40863
2.40742
2.40493
2.41081
2.41075
2.4203
2.42183
2.4332
2.43539
2.44858
2.45014
2.46482
2.46688
2.48382
2.48806
2.50888
2.51643
2.54337
2.56003
2.58243
2.60858
2.63026
2.66414
2.68689
2.72686
2.75143
2.7958
2.81935
2.8656
2.88694
2.93101
2.94938
2.98336
2.99565
3.01044
3.01455
3.01161
3.01025
2.99731
2.98609
2.95948
2.93973
2.90091
2.87659
2.83075
2.80473
2.75556
2.73016
2.68156
2.65716
2.61256
2.5925
2.55529
2.54154
2.51279
2.49372
2.47572
2.45218
2.44229
2.41573
2.40896
2.38108
2.37413
2.34462
2.33476
2.30125
2.28891
2.24926
2.2331
2.18641
2.16702
2.11956
2.07818
2.03664
1.9788
1.94017
1.86584
1.83015
1.74323
1.70784
1.61502
1.57496
1.48011
1.43892
1.34461
1.3054
1.21155
1.17432
1.09203
1.04279
0.979884
0.923506
0.877976
0.8184
0.788406
0.732353
0.710192
0.662788
0.645087
0.607116
0.593389
0.563864
0.553566
0.531344
0.52397
0.509645
0.501496
0.493758
0.487675
0.484333
0.479904
0.479109
0.477064
0.477413
0.477233
0.479949
0.480841
0.485805
0.487923
0.494954
0.498144
0.507211
0.511756
0.522959
0.529831
0.542041
0.55185
0.565107
0.577622
0.591545
0.606358
0.620266
0.636606
0.649533
0.665708
0.675586
0.687699
0.693216
0.69739
0.698594
2.45894
2.41428
2.51596
2.47566
2.36592
2.15238
1.87407
1.55503
1.23217
0.936147
0.678978
0.467372
0.29966
0.166439
0.11123
0.095392
0.0957363
0.102833
0.123823
0.166124
0.218106
0.303633
0.394519
0.528896
0.66258
0.842527
1.00964
1.22272
1.41186
1.65777
1.85171
2.09639
2.26476
2.47408
2.58831
2.72967
2.79468
2.87376
2.92237
2.94895
2.97256
2.9821
2.99632
2.99959
3.0041
3.00498
3.01028
3.01441
3.02164
3.02522
3.02478
3.0246
3.01944
3.01901
3.01985
3.01956
3.02728
3.02802
3.0374
3.0388
3.04889
3.05072
3.06248
3.06368
3.07697
3.0786
3.0939
3.09742
3.11545
3.12156
3.14442
3.15925
3.17781
3.20218
3.21989
3.24982
3.2672
3.29965
3.3173
3.35141
3.36682
3.40093
3.41431
3.44592
3.45822
3.48381
3.49346
3.50664
3.50987
3.50706
3.50453
3.49358
3.48407
3.46417
3.44775
3.41841
3.39676
3.36152
3.33741
3.29969
3.27545
3.23831
3.21481
3.18093
3.16121
3.13282
3.12099
3.10303
3.09213
3.08553
3.07718
3.07626
3.06967
3.07131
3.06866
3.07308
3.07203
3.07739
3.07682
3.08176
3.0803
3.08279
3.07934
3.08152
3.07937
3.06985
3.06811
3.05139
3.04784
3.0224
3.0161
2.98174
2.97152
2.92839
2.91135
2.85975
2.83376
2.77212
2.73784
2.66109
2.62043
2.54319
2.4716
2.40099
2.30782
2.23952
2.12769
2.06208
1.9377
1.87595
1.74463
1.68804
1.55842
1.50452
1.3816
1.33051
1.21616
1.16919
1.0741
1.01917
0.950581
0.893131
0.847283
0.792075
0.765588
0.718398
0.700931
0.665399
0.65355
0.629387
0.622141
0.607476
0.60392
0.596876
0.596149
0.593512
0.594453
0.596431
0.599308
0.605974
0.611073
0.622446
0.629598
0.645145
0.654887
0.67338
0.68548
0.705055
0.71722
0.732934
0.740395
0.745685
0.747236
2.67045
2.59726
2.56655
2.41373
2.18746
1.8811
1.53538
1.18267
0.852156
0.561336
0.331916
0.166078
0.0804276
0.041461
0.0252844
0.0190287
0.017817
0.0177237
0.0189585
0.0231646
0.0289024
0.040473
0.053985
0.0774931
0.103961
0.144848
0.187614
0.249813
0.311612
0.404884
0.491279
0.619788
0.730865
0.893064
1.02579
1.21675
1.36707
1.55107
1.72852
1.87853
2.05307
2.16628
2.31612
2.3955
2.51983
2.57574
2.68579
2.73538
2.8404
2.88845
2.98234
3.02645
3.10651
3.14546
3.21523
3.25197
3.31417
3.34827
3.39842
3.42648
3.46503
3.48933
3.52233
3.54369
3.57256
3.5907
3.61659
3.63255
3.6566
3.67205
3.69528
3.71392
3.73179
3.75589
3.77223
3.79756
3.811
3.83389
3.84372
3.86175
3.86676
3.87952
3.88169
3.88976
3.88973
3.8919
3.88852
3.88677
3.88002
3.86734
3.85499
3.8357
3.8182
3.7936
3.77166
3.74152
3.71585
3.68203
3.65436
3.6194
3.59176
3.55792
3.53134
3.50046
3.47704
3.45062
3.43307
3.41494
3.40243
3.39563
3.39211
3.39244
3.39232
3.39676
3.40008
3.41077
3.41904
3.4344
3.4462
3.46445
3.47823
3.49799
3.51249
3.53383
3.55003
3.56681
3.58504
3.59867
3.61774
3.62729
3.64575
3.65208
3.66837
3.67315
3.68556
3.68848
3.69719
3.69766
3.70261
3.699
3.70188
3.70023
3.68995
3.68861
3.67039
3.66674
3.6373
3.62955
3.58714
3.57223
3.51328
3.48695
3.40883
3.36499
3.26625
3.20779
3.08762
3.01485
2.89244
2.77006
2.65681
2.50237
2.39047
2.21938
2.11401
1.93532
1.84639
1.66485
1.58496
1.41474
1.34213
1.19752
1.13724
1.02598
0.980959
0.90579
0.876379
0.825803
0.798172
0.77057
0.747484
0.737233
0.722862
0.719341
0.716654
0.722172
0.729133
0.743823
0.757779
0.775609
0.787997
0.794591
0.796769
2.65005
2.46798
2.2812
1.98059
1.67902
1.33286
0.990585
0.664345
0.408134
0.217308
0.116286
0.0680235
0.0448577
0.032791
0.0253949
0.0198216
0.0167149
0.0138478
0.0124914
0.0112082
0.0109185
0.0109681
0.0114116
0.0127425
0.0147333
0.0183007
0.0225546
0.0293816
0.0366189
0.0490954
0.0614056
0.0824321
0.102207
0.135794
0.165579
0.214514
0.258448
0.319158
0.391834
0.460789
0.558662
0.63829
0.757217
0.84864
0.992343
1.09194
1.2601
1.36336
1.55483
1.66796
1.87841
2.00461
2.21788
2.34322
2.52432
2.66378
2.80256
2.9383
3.05019
3.16903
3.25845
3.35974
3.43468
3.52349
3.5887
3.66712
3.72642
3.79423
3.84655