/*--------------------------------*- C++ -*----------------------------------*\
| =========                 |                                                 |
| \\      /  F ield         | OpenFOAM: The Open Source CFD Toolbox           |
|  \\    /   O peration     | Version:  4.1                                   |
|   \\  /    A nd           | Web:      www.OpenFOAM.org                      |
|    \\/     M anipulation  |                                                 |
\*---------------------------------------------------------------------------*/
FoamFile
{
    version     2.0;
    format      ascii;
    class       volScalarField;
    location    "11";
    object      p;
}
// * * * * * * * * * * * * * * * * * * * * * * * * * * * * * * * * * * * * * //

dimensions      [0 2 -2 0 0 0 0];

internalField   nonuniform List<scalar> 
204246
(
10.5881
-5.63888
-5.10752
-4.23891
-4.02214
-3.78386
-3.8412
-3.90989
-4.18992
-4.48811
-4.81563
-5.1513
-5.65482
-5.97357
-6.50666
-6.83375
-8.12873
-8.93475
-9.2027
-9.84103
-9.92592
-10.7711
-10.9496
-11.6212
-11.8786
-12.4539
-12.803
-13.1839
-13.5563
-13.9019
-14.0542
-14.2181
-14.3101
-14.6258
-15.1103
-15.8684
-16.3156
-16.0831
-16.6604
-16.731
-16.8894
-17.0433
-17.2646
-17.4552
-17.6751
-17.8068
-17.9935
-18.1022
-18.2591
-18.3091
-18.3578
-18.3515
-19.3484
-19.7959
-19.4722
-20.0078
-20.0183
-20.1253
-20.2299
-20.4089
-20.5605
-20.7514
-20.8589
-21.0297
-21.121
-21.2608
-21.2854
-21.307
-21.2681
-22.2409
-22.7651
-22.5374
-22.8937
-22.8659
-22.9318
-22.9538
-22.9904
-22.9203
-23.5197
-23.4301
-23.4777
-23.4714
-23.5267
-23.4626
-23.3938
-23.2509
-24.2091
-24.6883
-24.3735
-24.6873
-24.5752
-24.5292
-24.4236
-25.0557
-25.0376
-25.1503
-25.1638
-25.1589
-24.9159
-25.5934
-25.5615
-25.5744
-25.5284
-25.5326
-25.5103
-26.623
-27.0422
-26.8714
-27.0988
-26.8751
-27.5253
-27.505
-27.6536
-27.7341
-27.8102
-27.6738
-28.2416
-27.9266
-28.5161
-28.3985
-28.3488
-28.2143
-29.3841
-29.8753
-29.6625
-30.0519
-29.7138
-30.3923
-30.4561
-30.5244
-30.3774
-31.0349
-30.7881
-31.435
-31.1531
-31.7818
-31.3983
-31.8819
-31.5934
-32.8591
-33.4547
-33.3435
-33.8397
-33.5381
-34.196
-33.9359
-34.6579
-34.3599
-35.0499
-34.7604
-35.4949
-35.5596
-35.6662
-35.5723
-35.4384
-35.0984
-36.3226
-36.6121
-35.9999
-36.1394
-35.5078
-34.9585
-34.2156
-33.4234
-32.325
-31.0683
-29.4041
-27.5005
-25.1343
-22.5059
-19.4592
-16.2198
-11.6025
-6.95959
-1.56595
4.31203
11.1369
19.0598
27.658
37.4639
48.4562
61.1025
75.4606
92.0052
110.703
131.819
155.233
181.513
211.608
251.098
311.09
406.726
535.349
3.39271
0.244083
-2.17564
-3.23476
-3.5003
-3.55505
-3.56478
-3.66062
-3.86236
-4.10412
-4.37535
-4.72305
-5.14842
-5.56711
-6.06239
-6.65009
-7.34848
-8.04117
-8.6362
-9.18332
-9.67955
-10.1811
-10.6481
-11.1242
-11.5964
-12.0315
-12.419
-12.8629
-13.291
-13.6091
-13.8463
-14.0418
-14.2602
-14.578
-14.9542
-15.3669
-15.7268
-15.9985
-16.2626
-16.4868
-16.6919
-16.8883
-17.0891
-17.2922
-17.4957
-17.6876
-17.8643
-18.0117
-18.1292
-18.2224
-18.3445
-18.5528
-18.8745
-19.185
-19.4096
-19.6251
-19.801
-19.9565
-20.1058
-20.264
-20.4302
-20.6029
-20.7683
-20.9209
-21.0468
-21.1443
-21.2177
-21.3207
-21.5106
-21.8314
-22.1583
-22.3938
-22.5862
-22.72
-22.8129
-22.8849
-22.96
-23.0719
-23.2333
-23.3588
-23.4399
-23.4863
-23.4939
-23.4671
-23.4646
-23.5671
-23.8361
-24.1105
-24.2731
-24.3832
-24.4378
-24.4831
-24.5722
-24.7349
-24.8845
-24.9921
-25.0623
-25.1098
-25.1804
-25.3401
-25.454
-25.4995
-25.5268
-25.5932
-25.7775
-26.1245
-26.4495
-26.6564
-26.8286
-26.9908
-27.1888
-27.3654
-27.5079
-27.6296
-27.7243
-27.8353
-28.0001
-28.1293
-28.2739
-28.3334
-28.3863
-28.5592
-28.9205
-29.2813
-29.5223
-29.7213
-29.8859
-30.0961
-30.2859
-30.4125
-30.5586
-30.75
-30.9449
-31.165
-31.3708
-31.5523
-31.6665
-31.7791
-32.0041
-32.4324
-32.8839
-33.2311
-33.5312
-33.7748
-33.9948
-34.2499
-34.476
-34.7373
-34.9447
-35.2295
-35.4907
-35.8219
-35.9789
-36.1646
-36.0938
-36.2937
-36.5
-36.7092
-36.7877
-36.7546
-36.6736
-36.2629
-35.9438
-35.2971
-34.61
-33.613
-32.3929
-30.8547
-29.031
-26.9077
-24.3984
-21.508
-18.0086
-14.0485
-9.45198
-4.33026
1.65725
8.49403
16.0736
24.6041
34.0401
44.7166
56.6973
70.4352
85.9791
103.599
122.911
143.682
165.536
190.564
226.47
291.913
388.679
-5.09372
-2.60313
-2.68368
-2.96324
-3.12976
-3.23156
-3.30379
-3.44528
-3.64834
-3.90437
-4.20029
-4.55471
-4.97805
-5.4392
-5.95524
-6.55227
-7.16547
-7.77589
-8.37597
-8.94175
-9.48709
-10.0006
-10.4899
-10.9748
-11.4502
-11.8859
-12.2906
-12.7229
-13.1347
-13.4804
-13.7666
-14.0206
-14.2979
-14.6075
-14.9371
-15.2592
-15.5615
-15.86
-16.1215
-16.3617
-16.5831
-16.7969
-16.9984
-17.2045
-17.4024
-17.6064
-17.7891
-17.9613
-18.0953
-18.2354
-18.3951
-18.6105
-18.8311
-19.0519
-19.2848
-19.4929
-19.6838
-19.8517
-20.0176
-20.1773
-20.3471
-20.5154
-20.6927
-20.8514
-21.0017
-21.1154
-21.2351
-21.3757
-21.5738
-21.7899
-22.0109
-22.2347
-22.4292
-22.5916
-22.7138
-22.8223
-22.9222
-23.0433
-23.161
-23.2839
-23.389
-23.4704
-23.5023
-23.5278
-23.5725
-23.6898
-23.8313
-23.9824
-24.1319
-24.2458
-24.3386
-24.4236
-24.5333
-24.6435
-24.7665
-24.8722
-24.967
-25.0552
-25.1769
-25.2875
-25.3987
-25.4753
-25.5573
-25.6764
-25.8648
-26.0643
-26.2665
-26.4714
-26.6654
-26.8588
-27.0313
-27.2092
-27.3659
-27.5106
-27.6237
-27.7712
-27.9091
-28.062
-28.188
-28.2989
-28.4232
-28.6185
-28.8275
-29.0493
-29.2789
-29.4975
-29.7082
-29.8983
-30.0765
-30.2333
-30.3962
-30.5608
-30.7442
-30.9446
-31.1507
-31.3363
-31.507
-31.6839
-31.9222
-32.2189
-32.5379
-32.8427
-33.1301
-33.364
-33.6124
-33.845
-34.0925
-34.32
-34.5633
-34.7936
-35.0532
-35.2602
-35.465
-35.561
-35.6969
-35.8276
-36.0583
-36.186
-36.1807
-36.0966
-35.8712
-35.5593
-35.1049
-34.5294
-33.7616
-32.7705
-31.5202
-29.9544
-28.141
-25.9577
-23.4716
-20.5272
-17.216
-13.3694
-8.97651
-3.88785
1.93055
8.47042
15.8991
24.2255
33.565
43.9623
55.6524
68.8254
83.8385
100.782
119.59
139.63
160.582
183.033
211.715
254.872
312.076
-8.06785
-4.9281
-3.99745
-3.46083
-3.14157
-3.02732
-2.98422
-3.04507
-3.23376
-3.48718
-3.79342
-4.17414
-4.604
-5.0871
-5.62043
-6.21104
-6.81842
-7.43368
-8.03198
-8.61751
-9.18303
-9.72575
-10.241
-10.7391
-11.2227
-11.6764
-12.112
-12.5354
-12.9419
-13.2988
-13.618
-13.9105
-14.2097
-14.5151
-14.8277
-15.1268
-15.4189
-15.7019
-15.9703
-16.2208
-16.4529
-16.676
-16.8825
-17.0914
-17.2895
-17.4913
-17.6751
-17.8535
-18.0081
-18.1717
-18.3431
-18.5417
-18.7405
-18.9452
-19.1538
-19.3627
-19.5591
-19.7341
-19.909
-20.0727
-20.2454
-20.4121
-20.5888
-20.7485
-20.9072
-21.0401
-21.1903
-21.3461
-21.5343
-21.7228
-21.9199
-22.1196
-22.3112
-22.4846
-22.6236
-22.7586
-22.8713
-22.9984
-23.1053
-23.2248
-23.3108
-23.4232
-23.457
-23.5293
-23.5918
-23.7007
-23.806
-23.9247
-24.0439
-24.151
-24.2653
-24.3453
-24.4686
-24.5577
-24.6897
-24.7679
-24.8902
-24.968
-25.1083
-25.2015
-25.3405
-25.4185
-25.5373
-25.6609
-25.8536
-26.006
-26.1932
-26.3783
-26.5594
-26.7644
-26.9157
-27.115
-27.2485
-27.4318
-27.5387
-27.7169
-27.8394
-28.0098
-28.1236
-28.2732
-28.4069
-28.6248
-28.7861
-28.9897
-29.2007
-29.3847
-29.6192
-29.7931
-30.0077
-30.1576
-30.3636
-30.51
-30.7264
-30.891
-31.1209
-31.2827
-31.4989
-31.6711
-31.9602
-32.1896
-32.4675
-32.7637
-33.0381
-33.3578
-33.5886
-33.8898
-34.1081
-34.407
-34.6219
-34.9568
-35.1784
-35.5006
-35.6819
-35.9386
-36.0917
-36.3705
-36.5207
-36.7123
-36.8669
-36.9219
-36.9052
-36.7698
-36.5748
-36.2563
-35.8333
-35.2671
-34.4603
-33.419
-31.9978
-30.2489
-28.0973
-25.5723
-22.6106
-19.2098
-15.2827
-10.7893
-5.58741
0.333965
7.02338
14.5736
23.0119
32.4529
42.9654
54.7248
67.819
82.3559
98.3081
115.712
134.756
156.559
183.842
218.6
257.001
-9.44601
-6.60086
-5.18705
-4.16683
-3.46113
-3.06133
-2.86028
-2.83319
-2.9376
-3.15776
-3.45446
-3.83807
-4.27333
-4.77083
-5.31012
-5.90187
-6.50524
-7.12989
-7.73814
-8.33691
-8.92002
-9.48089
-10.021
-10.5318
-11.0291
-11.4956
-11.9527
-12.3805
-12.7952
-13.1601
-13.5056
-13.8183
-14.1352
-14.4351
-14.7414
-15.0251
-15.3103
-15.5876
-15.8535
-16.1115
-16.3464
-16.578
-16.7879
-17.0027
-17.2023
-17.4103
-17.593
-17.7827
-17.9441
-18.1246
-18.2956
-18.4883
-18.6698
-18.8648
-19.0625
-19.2634
-19.4663
-19.6404
-19.822
-19.9863
-20.1646
-20.3292
-20.5121
-20.6689
-20.8406
-20.9735
-21.1523
-21.306
-21.4927
-21.6632
-21.8515
-22.0401
-22.2257
-22.4081
-22.5485
-22.7088
-22.8219
-22.9651
-23.0642
-23.2016
-23.2781
-23.3982
-23.4422
-23.531
-23.5917
-23.7015
-23.7826
-23.891
-23.9992
-24.0864
-24.2063
-24.2839
-24.4078
-24.4923
-24.6277
-24.7016
-24.8404
-24.9115
-25.0584
-25.14
-25.2884
-25.3715
-25.5089
-25.6229
-25.8037
-25.9428
-26.1252
-26.3046
-26.4721
-26.6713
-26.8241
-27.0294
-27.1594
-27.3519
-27.4642
-27.6492
-27.7727
-27.9469
-28.0686
-28.2307
-28.3606
-28.5606
-28.722
-28.9199
-29.1117
-29.2899
-29.5131
-29.6773
-29.8963
-30.0508
-30.2631
-30.4154
-30.6344
-30.7987
-31.0278
-31.1905
-31.4067
-31.5972
-31.8629
-32.0805
-32.349
-32.6134
-32.8863
-33.1743
-33.4177
-33.6944
-33.9434
-34.2073
-34.4635
-34.7317
-34.9953
-35.2383
-35.4691
-35.6522
-35.8556
-36.0393
-36.2564
-36.4341
-36.5321
-36.5614
-36.4946
-36.3252
-36.0274
-35.5737
-34.997
-34.2547
-33.4207
-32.3823
-31.1646
-29.6531
-27.843
-25.6556
-23.0762
-20.0388
-16.5165
-12.4394
-7.74619
-2.42002
3.65649
10.5594
18.3785
27.1785
37.0037
47.841
59.6318
72.2619
85.7048
100.063
115.941
134.699
158.069
186.091
214.057
-10.3976
-7.83691
-6.1289
-4.769
-3.81433
-3.17375
-2.8102
-2.65921
-2.67863
-2.85063
-3.12473
-3.5048
-3.94463
-4.45403
-5.00078
-5.59837
-6.20571
-6.84035
-7.4613
-8.07443
-8.67449
-9.25079
-9.81133
-10.3375
-10.8478
-11.327
-11.7996
-12.2354
-12.6609
-13.0369
-13.4012
-13.7287
-14.0587
-14.36
-14.665
-14.9402
-15.2188
-15.492
-15.7568
-16.0181
-16.2522
-16.4875
-16.7004
-16.9191
-17.1209
-17.3352
-17.5171
-17.7171
-17.8814
-18.0758
-18.2457
-18.4393
-18.6098
-18.7984
-18.9874
-19.1765
-19.3908
-19.5586
-19.7438
-19.9039
-20.0928
-20.2469
-20.4436
-20.5898
-20.7804
-20.9138
-21.1051
-21.2584
-21.4529
-21.6079
-21.795
-21.9797
-22.1527
-22.3446
-22.4877
-22.6535
-22.7788
-22.9253
-23.0324
-23.1706
-23.2544
-23.3748
-23.4314
-23.5275
-23.5855
-23.6912
-23.7659
-23.8679
-23.9624
-24.0423
-24.1539
-24.2316
-24.3475
-24.4341
-24.5619
-24.6375
-24.7744
-24.8542
-24.9977
-25.0832
-25.231
-25.3291
-25.4716
-25.585
-25.754
-25.8901
-26.0661
-26.2339
-26.4028
-26.5852
-26.7396
-26.9373
-27.0763
-27.2638
-27.3908
-27.5751
-27.7072
-27.8749
-28.018
-28.1742
-28.3198
-28.4936
-28.6626
-28.8498
-29.0281
-29.2097
-29.4082
-29.5748
-29.7856
-29.9477
-30.1545
-30.3154
-30.5293
-30.6989
-30.9227
-31.0918
-31.3172
-31.5042
-31.762
-31.9694
-32.2295
-32.4887
-32.7534
-33.0489
-33.2978
-33.5989
-33.845
-34.1512
-34.4008
-34.7228
-34.9801
-35.3091
-35.5452
-35.8864
-36.1152
-36.4508
-36.6011
-36.8442
-37.1706
-37.3101
-37.4824
-37.5334
-37.5726
-37.6033
-37.4652
-37.1705
-36.6097
-35.8205
-34.7534
-33.4163
-31.764
-29.7881
-27.4393
-24.698
-21.5106
-17.8459
-13.6121
-8.79272
-3.30181
2.97378
10.1171
18.2186
27.2892
37.3081
48.1552
59.7046
71.9025
84.8125
98.9178
115.405
135.072
157.774
179.306
-11.5746
-8.78754
-6.93763
-5.29255
-4.15179
-3.31804
-2.80359
-2.53968
-2.46704
-2.58066
-2.81641
-3.17787
-3.61323
-4.12905
-4.68364
-5.29045
-5.90606
-6.55227
-7.18714
-7.81556
-8.43301
-9.02471
-9.60343
-10.1458
-10.6717
-11.1639
-11.6492
-12.0954
-12.5319
-12.9195
-13.2992
-13.6388
-13.9796
-14.286
-14.594
-14.8654
-15.1396
-15.4095
-15.6735
-15.9368
-16.1691
-16.4074
-16.622
-16.8455
-17.0445
-17.2679
-17.4396
-17.6573
-17.8148
-18.0252
-18.1912
-18.3946
-18.5536
-18.7431
-18.928
-19.1025
-19.3173
-19.482
-19.6753
-19.8322
-20.0225
-20.1759
-20.3744
-20.522
-20.7167
-20.8581
-21.0505
-21.2091
-21.4024
-21.5613
-21.743
-21.9293
-22.0971
-22.2873
-22.4367
-22.6056
-22.7367
-22.8876
-23.0003
-23.1445
-23.2329
-23.358
-23.4212
-23.5148
-23.5874
-23.68
-23.7599
-23.8515
-23.936
-24.0194
-24.1119
-24.1961
-24.2959
-24.39
-24.508
-24.5861
-24.722
-24.8059
-24.9505
-25.0381
-25.1762
-25.2922
-25.4285
-25.5551
-25.7072
-25.851
-26.0148
-26.1758
-26.341
-26.5218
-26.6762
-26.8757
-27.0163
-27.2084
-27.3384
-27.5223
-27.6575
-27.831
-27.9673
-28.1396
-28.2775
-28.4597
-28.6065
-28.7852
-28.96
-29.1358
-29.3366
-29.4985
-29.6997
-29.8652
-30.0661
-30.2316
-30.4333
-30.6085
-30.8113
-30.9947
-31.2019
-31.4031
-31.628
-31.8495
-32.0943
-32.3386
-32.5914
-32.8526
-33.1069
-33.3718
-33.6348
-33.8999
-34.1728
-34.4413
-34.7201
-34.9831
-35.2541
-35.4939
-35.7438
-35.9485
-36.214
-36.4512
-36.6302
-36.7552
-36.7987
-36.7566
-36.6138
-36.3792
-36.1213
-35.7826
-35.4225
-34.9212
-34.2559
-33.3445
-32.1566
-30.6392
-28.7657
-26.4963
-23.8058
-20.6583
-17.0008
-12.8256
-8.03777
-2.54886
3.72761
10.8614
18.8669
27.7212
37.3472
47.6575
58.5987
70.2482
82.9906
97.6107
114.439
133.215
150.447
-13.0358
-9.79059
-7.74966
-5.85587
-4.48705
-3.5095
-2.83969
-2.46035
-2.29883
-2.34987
-2.5436
-2.87848
-3.30187
-3.81346
-4.36895
-4.98202
-5.60613
-6.26339
-6.91135
-7.55357
-8.1871
-8.79435
-9.39057
-9.9497
-10.4923
-10.998
-11.4953
-11.9535
-12.4021
-12.8018
-13.195
-13.5456
-13.8957
-14.209
-14.5247
-14.7956
-15.0696
-15.3356
-15.5988
-15.8641
-16.0957
-16.3375
-16.5512
-16.7792
-16.9732
-17.2004
-17.3739
-17.5923
-17.7562
-17.9674
-18.1399
-18.3407
-18.5049
-18.69
-18.8762
-19.0433
-19.2496
-19.4163
-19.6091
-19.7686
-19.9569
-20.1137
-20.3099
-20.4602
-20.6554
-20.8015
-20.9962
-21.1546
-21.3492
-21.5099
-21.6938
-21.8791
-22.0447
-22.2357
-22.3883
-22.5636
-22.6977
-22.8469
-22.971
-23.1173
-23.2103
-23.3365
-23.4069
-23.5026
-23.5809
-23.6685
-23.7475
-23.8334
-23.913
-23.9928
-24.0767
-24.1561
-24.249
-24.3384
-24.4507
-24.5287
-24.6574
-24.7449
-24.8822
-24.9747
-25.115
-25.2256
-25.3694
-25.4916
-25.6468
-25.7822
-25.9477
-26.1059
-26.2614
-26.4392
-26.5903
-26.7786
-26.9243
-27.1075
-27.2486
-27.4289
-27.5705
-27.7418
-27.8834
-28.0532
-28.1971
-28.3726
-28.5198
-28.697
-28.8669
-29.0394
-29.2335
-29.3976
-29.5987
-29.7611
-29.9643
-30.1295
-30.3368
-30.5094
-30.724
-30.9012
-31.1267
-31.3213
-31.5575
-31.7571
-31.9904
-32.2423
-32.501
-32.7772
-33.0375
-33.3236
-33.5918
-33.8894
-34.1679
-34.4784
-34.7681
-35.0908
-35.3909
-35.7228
-36.0237
-36.3491
-36.6197
-36.9257
-37.2464
-37.553
-37.8501
-38.1001
-38.3124
-38.4519
-38.4581
-38.3336
-38.0253
-37.5598
-36.9047
-36.0584
-34.9743
-33.6289
-31.9684
-29.9643
-27.5721
-24.7665
-21.4861
-17.7213
-13.3928
-8.43039
-2.78469
3.58583
10.6905
18.5241
27.0395
36.1898
45.9684
56.4714
68.0098
81.0407
95.6904
111.618
125.872
-14.8095
-11.0984
-8.66225
-6.59161
-4.91579
-3.74267
-2.93383
-2.44438
-2.20463
-2.17107
-2.30668
-2.60636
-3.01339
-3.51725
-4.07087
-4.68459
-5.31193
-5.97472
-6.63205
-7.28562
-7.93438
-8.55658
-9.16736
-9.74096
-10.2998
-10.8204
-11.3305
-11.8028
-12.2649
-12.6774
-13.0833
-13.4445
-13.8057
-14.128
-14.4529
-14.7271
-15.0033
-15.2671
-15.5302
-15.7975
-16.0278
-16.272
-16.4848
-16.7139
-16.9114
-17.1339
-17.3166
-17.5306
-17.703
-17.9105
-18.0878
-18.2886
-18.4545
-18.6397
-18.8256
-18.9905
-19.192
-19.3552
-19.5473
-19.707
-19.8948
-20.0529
-20.2479
-20.3998
-20.595
-20.7445
-20.9405
-21.0988
-21.2945
-21.4554
-21.642
-21.8246
-21.9937
-22.1833
-22.3409
-22.518
-22.6575
-22.8089
-22.9408
-23.0902
-23.1867
-23.3151
-23.3894
-23.4877
-23.5663
-23.6529
-23.7291
-23.8097
-23.8871
-23.9613
-24.0417
-24.1163
-24.2114
-24.2865
-24.3973
-24.4759
-24.5956
-24.687
-24.8164
-24.9145
-25.0487
-25.1628
-25.3036
-25.4298
-25.5798
-25.7127
-25.8748
-26.0344
-26.1903
-26.3633
-26.5149
-26.6959
-26.8455
-27.0236
-27.1697
-27.3462
-27.4952
-27.6624
-27.8092
-27.9756
-28.1233
-28.2902
-28.4341
-28.6053
-28.7758
-28.9492
-29.1303
-29.2883
-29.4647
-29.6314
-29.8169
-29.991
-30.1805
-30.3604
-30.5532
-30.7385
-30.9395
-31.1369
-31.3469
-31.5651
-31.797
-32.0296
-32.2728
-32.5175
-32.7723
-33.0279
-33.2949
-33.5624
-33.841
-34.1181
-34.4058
-34.6883
-34.981
-35.2655
-35.5659
-35.8612
-36.1776
-36.4609
-36.6932
-36.8993
-37.065
-37.2329
-37.352
-37.4304
-37.4885
-37.4891
-37.4967
-37.4073
-37.1941
-36.793
-36.1756
-35.2967
-34.1208
-32.6071
-30.7192
-28.4205
-25.6513
-22.3961
-18.5989
-14.21
-9.20198
-3.55284
2.733
9.64685
17.1648
25.2776
34.0045
43.4639
53.8916
65.5566
78.4934
92.3104
104.455
-16.9207
-12.8726
-9.9331
-7.35336
-5.44538
-4.14557
-3.17098
-2.52777
-2.1913
-2.06929
-2.15282
-2.40155
-2.76488
-3.24168
-3.7856
-4.3948
-5.02494
-5.69143
-6.35542
-7.01599
-7.67248
-8.3034
-8.92687
-9.51679
-10.0926
-10.628
-11.1501
-11.6357
-12.11
-12.537
-12.9571
-13.3327
-13.7069
-14.0381
-14.3687
-14.6513
-14.9326
-15.1998
-15.4629
-15.7308
-15.9627
-16.2066
-16.421
-16.6493
-16.8508
-17.0724
-17.2586
-17.4722
-17.6478
-17.8554
-18.0338
-18.2363
-18.4031
-18.5905
-18.7741
-18.9392
-19.1388
-19.2996
-19.4905
-19.6492
-19.8345
-19.9932
-20.1827
-20.3375
-20.5291
-20.6841
-20.8783
-21.0421
-21.2318
-21.3956
-21.5821
-21.7641
-21.9375
-22.1231
-22.2872
-22.4618
-22.6104
-22.7635
-22.8996
-23.0446
-23.1543
-23.2798
-23.3631
-23.4653
-23.5401
-23.6304
-23.6981
-23.778
-23.8545
-23.9203
-24.0043
-24.0702
-24.1591
-24.2322
-24.3317
-24.4137
-24.524
-24.617
-24.7385
-24.8402
-24.9728
-25.0902
-25.2296
-25.3559
-25.5036
-25.634
-25.7904
-25.9484
-26.1104
-26.2741
-26.4317
-26.6102
-26.7623
-26.9394
-27.0883
-27.2631
-27.4168
-27.5785
-27.7348
-27.8974
-28.0533
-28.2127
-28.3618
-28.5297
-28.6983
-28.8689
-29.0427
-29.214
-29.4134
-29.5697
-29.7715
-29.9332
-30.1311
-30.3028
-30.5025
-30.687
-30.8973
-31.0942
-31.3102
-31.5083
-31.7307
-31.9709
-32.2188
-32.4795
-32.7376
-33.0141
-33.2831
-33.5748
-33.8588
-34.1666
-34.4657
-34.7888
-35.1019
-35.4396
-35.7652
-36.1125
-36.4401
-36.7949
-37.1634
-37.527
-37.8886
-38.2214
-38.5216
-38.7497
-38.8985
-38.9585
-38.9135
-38.7784
-38.5452
-38.2082
-37.7384
-37.0945
-36.232
-35.1023
-33.6531
-31.8276
-29.5611
-26.8299
-23.5855
-19.7895
-15.4265
-10.4859
-4.97808
1.08738
7.6988
14.8694
22.6424
31.1413
40.5486
51.0321
62.5904
74.7958
85.3988
-19.1312
-14.9766
-11.5086
-8.47047
-6.34272
-4.70082
-3.54701
-2.74032
-2.28679
-2.08102
-2.09623
-2.27682
-2.59526
-3.03532
-3.54824
-4.12919
-4.74663
-5.40677
-6.07142
-6.73626
-7.3998
-8.04095
-8.67623
-9.27623
-9.86092
-10.4076
-10.9427
-11.4433
-11.9325
-12.3771
-12.8108
-13.201
-13.5879
-13.9277
-14.2628
-14.5589
-14.8497
-15.1247
-15.3899
-15.6568
-15.8935
-16.1384
-16.3556
-16.5838
-16.7883
-17.0105
-17.1991
-17.4121
-17.5906
-17.798
-17.9782
-18.1799
-18.3501
-18.5392
-18.7191
-18.8844
-19.0816
-19.243
-19.4312
-19.5907
-19.7719
-19.9316
-20.1166
-20.2738
-20.4609
-20.6195
-20.8086
-20.9776
-21.1574
-21.3286
-21.5096
-21.6915
-21.8713
-22.052
-22.2237
-22.3961
-22.5534
-22.7097
-22.8542
-22.9972
-23.1168
-23.2377
-23.3322
-23.4351
-23.5123
-23.598
-23.6633
-23.7415
-23.8144
-23.8782
-23.959
-24.0218
-24.1049
-24.175
-24.2692
-24.3466
-24.4532
-24.5425
-24.66
-24.7591
-24.8915
-25.0115
-25.146
-25.2769
-25.4167
-25.5525
-25.7027
-25.8588
-26.0202
-26.1816
-26.3437
-26.5095
-26.6694
-26.8344
-26.9925
-27.1584
-27.3172
-27.479
-27.6377
-27.7987
-27.9558
-28.1115
-28.2577
-28.4187
-28.5866
-28.7576
-28.9232
-29.0845
-29.2534
-29.4155
-29.587
-29.7557
-29.9377
-30.1231
-30.309
-30.4983
-30.6904
-30.8874
-31.0877
-31.297
-31.5165
-31.7396
-31.972
-32.208
-32.4554
-32.7066
-32.9701
-33.2376
-33.5176
-33.8012
-34.097
-34.3956
-34.7062
-35.0193
-35.3463
-35.6783
-36.0269
-36.3753
-36.7124
-37.046
-37.3666
-37.686
-37.995
-38.3318
-38.6631
-38.9702
-39.2294
-39.394
-39.445
-39.3675
-39.1487
-38.776
-38.2186
-37.4388
-36.3856
-35.0032
-33.2221
-31.0097
-28.3182
-25.1161
-21.3943
-17.1484
-12.3899
-7.12636
-1.36095
4.9305
11.8124
19.4122
27.8816
37.3375
47.7602
58.705
68.1422
-21.2895
-17.0868
-13.3604
-9.93929
-7.49309
-5.56636
-4.18771
-3.19859
-2.5805
-2.23924
-2.14471
-2.23974
-2.50836
-2.89686
-3.36852
-3.91737
-4.51044
-5.1455
-5.7936
-6.45086
-7.11341
-7.75787
-8.39753
-9.00565
-9.60119
-10.1635
-10.7127
-11.2279
-11.7266
-12.1813
-12.6268
-13.0319
-13.4352
-13.7946
-14.1414
-14.4478
-14.7424
-15.0288
-15.2999
-15.5673
-15.8107
-16.0593
-16.2813
-16.5097
-16.7172
-16.9405
-17.1319
-17.3445
-17.5265
-17.7325
-17.9151
-18.1151
-18.2896
-18.479
-18.6589
-18.8258
-19.0175
-19.1816
-19.3656
-19.5299
-19.7029
-19.8673
-20.044
-20.2078
-20.3846
-20.5503
-20.7307
-20.9027
-21.0807
-21.2517
-21.4314
-21.6128
-21.7952
-21.976
-22.1507
-22.3249
-22.4867
-22.6483
-22.7977
-22.9443
-23.0711
-23.1951
-23.2992
-23.4025
-23.4857
-23.5668
-23.6337
-23.7049
-23.7765
-23.8442
-23.9154
-23.98
-24.0556
-24.123
-24.216
-24.2869
-24.3959
-24.4825
-24.5939
-24.6949
-24.8169
-24.9358
-25.0692
-25.2007
-25.3405
-25.476
-25.6226
-25.777
-25.9357
-26.0998
-26.264
-26.4326
-26.5934
-26.7614
-26.9192
-27.0845
-27.2424
-27.4071
-27.5661
-27.7312
-27.8888
-28.0511
-28.1998
-28.3572
-28.5203
-28.6859
-28.8591
-29.0273
-29.2039
-29.3705
-29.5575
-29.7171
-29.9062
-30.0734
-30.2593
-30.443
-30.642
-30.8345
-31.0405
-31.2354
-31.4492
-31.6763
-31.9119
-32.1588
-32.4069
-32.6702
-32.9319
-33.2122
-33.4917
-33.7909
-34.0891
-34.407
-34.724
-35.0614
-35.3994
-35.7583
-36.1164
-36.4967
-36.8853
-37.2721
-37.656
-38.0277
-38.3897
-38.7307
-39.0638
-39.3811
-39.683
-39.9548
-40.1743
-40.3111
-40.3429
-40.2479
-40.0004
-39.5654
-38.8968
-37.9403
-36.6299
-34.9249
-32.7785
-30.1611
-27.0667
-23.4946
-19.4573
-14.9604
-10.0024
-4.55091
1.46979
8.20318
15.7946
24.3398
33.8058
43.7424
52.2816
-23.1511
-18.9308
-15.1832
-11.5383
-8.88516
-6.71792
-5.11201
-3.94467
-3.13072
-2.6372
-2.40472
-2.38566
-2.5315
-2.83343
-3.24427
-3.74434
-4.30091
-4.9061
-5.53522
-6.17619
-6.82323
-7.45921
-8.0967
-8.713
-9.31717
-9.89026
-10.4458
-10.9694
-11.4758
-11.9473
-12.4121
-12.8377
-13.2558
-13.628
-13.9856
-14.3012
-14.6072
-14.9053
-15.1861
-15.4576
-15.7072
-15.9592
-16.1878
-16.4168
-16.6294
-16.8533
-17.0481
-17.2623
-17.448
-17.6541
-17.8397
-18.038
-18.2174
-18.4064
-18.5881
-18.7554
-18.945
-19.1118
-19.2942
-19.4598
-19.631
-19.7955
-19.9708
-20.1338
-20.3076
-20.4722
-20.651
-20.8226
-21.0005
-21.1695
-21.3472
-21.5279
-21.7096
-21.8921
-22.0669
-22.2434
-22.4079
-22.5732
-22.7263
-22.8802
-23.0111
-23.1447
-23.2528
-23.3642
-23.4516
-23.5349
-23.6023
-23.6726
-23.7427
-23.8107
-23.8765
-23.94
-24.0078
-24.0748
-24.1538
-24.2287
-24.3193
-24.4105
-24.514
-24.6171
-24.7331
-24.8509
-24.9807
-25.1115
-25.2503
-25.3866
-25.5326
-25.6833
-25.8405
-26.0025
-26.1667
-26.3327
-26.4939
-26.6592
-26.8186
-26.982
-27.1402
-27.3023
-27.4617
-27.6228
-27.7798
-27.9363
-28.0875
-28.2455
-28.4039
-28.5662
-28.7303
-28.8959
-29.0596
-29.2184
-29.3865
-29.5481
-29.7266
-29.9034
-30.0836
-30.2669
-30.454
-30.6441
-30.8366
-31.0362
-31.2467
-31.4619
-31.6867
-31.9167
-32.1563
-32.4028
-32.6593
-32.9244
-33.2004
-33.4862
-33.7833
-34.0904
-34.4086
-34.7371
-35.0781
-35.4326
-35.8047
-36.196
-36.5989
-37.0177
-37.4471
-37.8854
-38.3249
-38.7618
-39.191
-39.6119
-40.02
-40.4081
-40.766
-41.0783
-41.3262
-41.486
-41.533
-41.4329
-41.1419
-40.6053
-39.7595
-38.5556
-36.9464
-34.9016
-32.4157
-29.4905
-26.1423
-22.3796
-18.2003
-13.568
-8.39701
-2.52751
4.2092
11.9147
20.5495
29.664
37.5086
-24.4688
-20.3216
-16.711
-13.0351
-10.3115
-7.9849
-6.20526
-4.8843
-3.91097
-3.26617
-2.87795
-2.71816
-2.7301
-2.91491
-3.22526
-3.6326
-4.12307
-4.67776
-5.27069
-5.88708
-6.51507
-7.14542
-7.77708
-8.39323
-8.99801
-9.57865
-10.1413
-10.6789
-11.2003
-11.6902
-12.164
-12.6029
-13.0275
-13.4131
-13.7881
-14.1188
-14.444
-14.7478
-15.0392
-15.3196
-15.5819
-15.8371
-16.0723
-16.3048
-16.5216
-16.7441
-16.9447
-17.1591
-17.3511
-17.5582
-17.7475
-17.945
-18.1281
-18.3173
-18.5
-18.6723
-18.8584
-19.0289
-19.21
-19.3775
-19.5515
-19.7145
-19.8917
-20.051
-20.2288
-20.3867
-20.5697
-20.7377
-20.915
-21.0808
-21.2583
-21.4375
-21.6161
-21.7993
-21.9719
-22.151
-22.3164
-22.4862
-22.641
-22.8019
-22.9359
-23.0798
-23.1917
-23.3151
-23.4071
-23.5016
-23.5725
-23.6477
-23.72
-23.7886
-23.8552
-23.9177
-23.9852
-24.0493
-24.1256
-24.1966
-24.2828
-24.3661
-24.4655
-24.5623
-24.6746
-24.7873
-24.9143
-25.0421
-25.1801
-25.314
-25.4586
-25.6078
-25.7627
-25.9237
-26.0883
-26.257
-26.4173
-26.5856
-26.7437
-26.9097
-27.0674
-27.2322
-27.3911
-27.5558
-27.7126
-27.8729
-28.0217
-28.1785
-28.3379
-28.4995
-28.6652
-28.8308
-29.003
-29.1648
-29.3361
-29.4958
-29.6687
-29.8359
-30.0157
-30.1938
-30.3832
-30.5692
-30.7662
-30.953
-31.1553
-31.3691
-31.5916
-31.8243
-32.0601
-32.3086
-32.5586
-32.8244
-33.0933
-33.3799
-33.671
-33.9803
-34.2948
-34.6272
-34.9647
-35.3197
-35.6813
-36.0661
-36.4686
-36.8894
-37.3289
-37.7845
-38.2552
-38.7369
-39.2295
-39.7264
-40.2258
-40.7203
-41.2047
-41.6686
-42.1006
-42.4832
-42.7955
-43.0071
-43.0771
-42.9512
-42.5665
-41.8631
-40.789
-39.3082
-37.4125
-35.1049
-32.4081
-29.342
-25.9118
-22.0858
-17.7709
-12.7837
-6.91681
-0.0323764
7.83937
16.2638
23.5849
-25.1117
-21.3012
-17.854
-14.3425
-11.6268
-9.24548
-7.37086
-5.91859
-4.82636
-4.0474
-3.52702
-3.23455
-3.13051
-3.16912
-3.36233
-3.65168
-4.03537
-4.50201
-5.02292
-5.59201
-6.18409
-6.79676
-7.41378
-8.02727
-8.63221
-9.22228
-9.79571
-10.3468
-10.8775
-11.3813
-11.8674
-12.3238
-12.7619
-13.17
-13.56
-13.9115
-14.2508
-14.5635
-14.8647
-15.1519
-15.4249
-15.6865
-15.9309
-16.1696
-16.3924
-16.6148
-16.8222
-17.0349
-17.2341
-17.4409
-17.6347
-17.8327
-18.0195
-18.211
-18.3958
-18.5752
-18.7573
-18.9322
-19.1122
-19.2831
-19.4582
-19.6242
-19.7997
-19.9618
-20.1376
-20.2978
-20.4769
-20.6438
-20.8214
-20.9879
-21.1651
-21.341
-21.5169
-21.6987
-21.8694
-22.0497
-22.2141
-22.3868
-22.5418
-22.7064
-22.8442
-22.9923
-23.11
-23.2388
-23.3406
-23.4457
-23.5246
-23.6068
-23.6828
-23.7554
-23.8263
-23.8908
-23.9601
-24.0238
-24.0993
-24.1683
-24.2531
-24.3324
-24.429
-24.5198
-24.6281
-24.7345
-24.8571
-24.9803
-25.116
-25.2469
-25.39
-25.5364
-25.6881
-25.8465
-26.0086
-26.1761
-26.3339
-26.5022
-26.6594
-26.8253
-26.982
-27.1454
-27.3029
-27.4653
-27.6209
-27.7789
-27.9282
-28.0831
-28.2364
-28.3939
-28.5531
-28.7159
-28.8789
-29.0378
-29.2028
-29.3634
-29.5313
-29.6962
-29.8697
-30.045
-30.2283
-30.4119
-30.6009
-30.7882
-30.9874
-31.1932
-31.4094
-31.6339
-31.8662
-32.1069
-32.3531
-32.6116
-32.8772
-33.1574
-33.4465
-33.7521
-34.068
-34.4017
-34.7458
-35.1073
-35.4787
-35.8733
-36.2849
-36.7164
-37.1685
-37.6418
-38.1366
-38.6507
-39.1874
-39.7407
-40.3111
-40.8925
-41.483
-42.0749
-42.6624
-43.235
-43.7781
-44.2677
-44.6695
-44.9329
-44.998
-44.7932
-44.256
-43.3377
-42.0215
-40.3082
-38.2244
-35.8058
-33.0797
-30.033
-26.5824
-22.5226
-17.583
-11.5563
-4.44506
3.35753
10.2797
-25.2106
-21.8479
-18.6452
-15.4457
-12.7775
-10.4221
-8.50782
-6.97099
-5.786
-4.90053
-4.26794
-3.84862
-3.62578
-3.55233
-3.62486
-3.80536
-4.07615
-4.43957
-4.86328
-5.35271
-5.87685
-6.43995
-7.01975
-7.61518
-8.20993
-8.8044
-9.38534
-9.94937
-10.491
-11.0115
-11.5142
-11.9911
-12.4483
-12.8769
-13.2846
-13.6598
-14.0189
-14.3501
-14.6648
-14.9634
-15.2471
-15.5178
-15.7715
-16.0162
-16.2462
-16.4717
-16.6849
-16.8994
-17.1024
-17.3108
-17.5087
-17.7097
-17.9001
-18.0937
-18.281
-18.4654
-18.6489
-18.8265
-19.0067
-19.1798
-19.3561
-19.5255
-19.7
-19.8654
-20.0385
-20.2023
-20.3775
-20.5448
-20.7203
-20.8881
-21.0647
-21.2389
-21.4141
-21.5926
-21.7652
-21.9416
-22.108
-22.2796
-22.4374
-22.6017
-22.7446
-22.8944
-23.0189
-23.15
-23.2605
-23.3709
-23.4604
-23.5516
-23.6332
-23.71
-23.7862
-23.8544
-23.9276
-23.9938
-24.0698
-24.1393
-24.2239
-24.3021
-24.3975
-24.4859
-24.5919
-24.6935
-24.8118
-24.9293
-25.062
-25.1897
-25.3314
-25.4754
-25.6246
-25.7817
-25.9396
-26.1077
-26.2635
-26.4348
-26.5911
-26.7611
-26.9178
-27.0842
-27.2409
-27.4062
-27.5615
-27.7238
-27.8726
-28.0305
-28.1858
-28.342
-28.5019
-28.6612
-28.8274
-28.9812
-29.1479
-29.3023
-29.4695
-29.6286
-29.7993
-29.967
-30.1461
-30.322
-30.5077
-30.6855
-30.8784
-31.0774
-31.2851
-31.5017
-31.7263
-31.96
-32.1963
-32.4476
-32.7028
-32.9755
-33.2545
-33.5527
-33.86
-34.1882
-34.5263
-34.8851
-35.2543
-35.6499
-36.0652
-36.5027
-36.964
-37.4497
-37.9619
-38.4975
-39.0652
-39.658
-40.2806
-40.9266
-41.5991
-42.2935
-43.0095
-43.741
-44.4804
-45.2081
-45.9002
-46.5149
-47.0018
-47.2813
-47.2806
-46.9308
-46.1975
-45.0722
-43.5765
-41.7531
-39.6592
-37.3233
-34.7074
-31.6214
-27.7227
-22.6708
-16.4177
-9.25492
-2.71418
-25.0094
-22.0047
-19.1247
-16.2431
-13.6935
-11.4463
-9.5389
-7.97189
-6.71855
-5.75005
-5.02595
-4.50742
-4.18481
-4.00621
-3.96285
-4.03426
-4.19226
-4.45494
-4.78858
-5.19766
-5.64886
-6.14748
-6.67435
-7.22891
-7.795
-8.3724
-8.94355
-9.50743
-10.0548
-10.5878
-11.1028
-11.5964
-12.0721
-12.5223
-12.9535
-13.3537
-13.7378
-14.0931
-14.4297
-14.7476
-15.0477
-15.3331
-15.5988
-15.8545
-16.0936
-16.3262
-16.5447
-16.762
-16.9682
-17.1776
-17.3786
-17.5812
-17.7743
-17.9692
-18.1589
-18.346
-18.5321
-18.7124
-18.8945
-19.0693
-19.2476
-19.4192
-19.5945
-19.7619
-19.9348
-20.0998
-20.2733
-20.4401
-20.6145
-20.7822
-20.9585
-21.132
-21.3061
-21.483
-21.6549
-21.8306
-21.9976
-22.1686
-22.3285
-22.4926
-22.6403
-22.7914
-22.9223
-23.056
-23.1713
-23.2878
-23.3865
-23.4866
-23.5747
-23.6558
-23.7376
-23.8104
-23.8883
-23.9577
-24.0366
-24.1072
-24.1922
-24.27
-24.3645
-24.4521
-24.5565
-24.6554
-24.7699
-24.882
-25.0092
-25.1334
-25.2724
-25.4124
-25.5584
-25.7126
-25.8665
-26.0313
-26.1846
-26.3557
-26.5103
-26.6826
-26.8392
-27.0074
-27.1625
-27.3294
-27.4834
-27.6484
-27.7961
-27.958
-28.1155
-28.2721
-28.434
-28.5893
-28.7585
-28.911
-29.0806
-29.2337
-29.4032
-29.5609
-29.7315
-29.8957
-30.0729
-30.2447
-30.4297
-30.6022
-30.7929
-30.9867
-31.1871
-31.3968
-31.6116
-31.8399
-32.0668
-32.3117
-32.558
-32.8226
-33.0905
-33.3787
-33.6736
-33.9915
-34.3186
-34.6692
-35.0299
-35.42
-35.8302
-36.2648
-36.7261
-37.2159
-37.7377
-38.2857
-38.8747
-39.4929
-40.1536
-40.8446
-41.5786
-42.3483
-43.1648
-44.0188
-44.9114
-45.827
-46.7526
-47.6608
-48.5174
-49.2438
-49.7691
-50.0017
-49.8787
-49.3622
-48.4542
-47.1851
-45.635
-43.894
-42.0087
-39.8841
-37.1726
-33.3483
-28.2028
-21.8644
-15.7425
-24.5181
-21.8328
-19.3391
-16.806
-14.4338
-12.3372
-10.4719
-8.89886
-7.60339
-6.57002
-5.77492
-5.16723
-4.74301
-4.47031
-4.35904
-4.35461