/*--------------------------------*- C++ -*----------------------------------*\
| =========                 |                                                 |
| \\      /  F ield         | OpenFOAM: The Open Source CFD Toolbox           |
|  \\    /   O peration     | Version:  4.1                                   |
|   \\  /    A nd           | Web:      www.OpenFOAM.org                      |
|    \\/     M anipulation  |                                                 |
\*---------------------------------------------------------------------------*/
FoamFile
{
    version     2.0;
    format      ascii;
    class       volScalarField;
    location    "14";
    object      epsilon;
}
// * * * * * * * * * * * * * * * * * * * * * * * * * * * * * * * * * * * * * //

dimensions      [0 2 -3 0 0 0 0];

internalField   nonuniform List<scalar> 
204246
(
2.84857
3.04997
3.06124
3.07623
3.0896
3.10315
3.11481
3.12838
3.13869
3.15335
3.16291
3.17799
3.18599
3.20399
3.21406
3.22901
3.2404
3.24428
3.27247
3.27589
3.29552
3.3047
3.31771
3.32961
3.34218
3.35337
3.36588
3.37575
3.391
3.40191
3.41667
3.42818
3.44317
3.45515
3.46869
3.48247
3.48565
3.51532
3.5192
3.53828
3.55082
3.5647
3.57912
3.59334
3.60697
3.62446
3.63958
3.65686
3.67307
3.68898
3.70685
3.72277
3.74039
3.74579
3.78151
3.7875
3.81221
3.82716
3.84621
3.8643
3.88168
3.89965
3.92055
3.94003
3.96069
3.98127
4.00043
4.02274
4.04188
4.064
4.07177
4.11099
4.12103
4.15138
4.16687
4.19335
4.21273
4.23678
4.25677
4.28351
4.30738
4.33218
4.35799
4.38129
4.4096
4.43296
4.46136
4.47242
4.52015
4.53319
4.57189
4.59074
4.62588
4.64614
4.68397
4.71123
4.7425
4.77477
4.80587
4.83914
4.86872
4.9062
4.93591
4.97371
5.00441
5.04172
5.06302
5.12326
5.14067
5.19467
5.21448
5.27145
5.29846
5.34758
5.38627
5.42886
5.46989
5.51314
5.55721
5.60057
5.6488
5.69178
5.74275
5.77016
5.8506
5.87212
5.94689
5.97414
6.0469
6.08012
6.15081
6.18779
6.25822
6.29846
6.36946
6.41264
6.48368
6.52979
6.60196
6.65085
6.70455
6.79076
6.83116
6.91569
6.95855
7.04387
7.08759
7.17487
7.21914
7.30843
7.35285
7.44416
7.48827
7.58185
7.62571
7.72191
7.76549
7.84006
7.92746
7.9804
8.06869
8.11988
8.21095
8.25983
8.3539
8.39998
8.49824
8.54061
8.64354
8.68294
8.79241
8.82798
8.94596
8.9788
9.1098
9.13692
9.25641
9.34738
9.42968
9.54747
9.62523
9.77183
9.85404
10.0335
10.1316
10.3492
10.4776
10.7392
10.9123
11.1938
11.3742
11.5283
11.5482
0.437105
0.685248
0.694791
0.694726
0.704998
0.700221
0.709364
0.705979
0.715535
0.712014
0.722085
0.718807
0.728811
0.723898
0.734622
0.728916
0.74064
0.735822
0.73503
0.745979
0.740498
0.751034
0.745068
0.755276
0.751759
0.762252
0.758882
0.769119
0.763981
0.775042
0.769249
0.78035
0.774545
0.785655
0.779808
0.792444
0.79082
0.790143
0.802491
0.797491
0.809428
0.806571
0.819037
0.816307
0.828793
0.824248
0.837783
0.832549
0.846395
0.841222
0.854863
0.852159
0.867909
0.866843
0.868553
0.883353
0.878769
0.893915
0.891597
0.907317
0.905085
0.920786
0.916552
0.933353
0.928385
0.94554
0.940666
0.957722
0.955591
0.974893
0.974449
0.979014
0.995775
0.994444
1.01351
1.0119
1.03152
1.02985
1.05046
1.04751
1.06889
1.06467
1.08669
1.08266
1.10479
1.10376
1.12917
1.1306
1.14004
1.16094
1.16132
1.18644
1.18624
1.21302
1.21155
1.23951
1.23681
1.26507
1.26192
1.29214
1.29014
1.32089
1.32248
1.35386
1.35564
1.39011
1.39186
1.41746
1.44316
1.4472
1.48304
1.48452
1.52297
1.52286
1.56325
1.56339
1.60658
1.60997
1.65422
1.65868
1.7034
1.70728
1.75826
1.76617
1.79955
1.83887
1.84586
1.89943
1.90771
1.96204
1.9699
2.02856
2.03826
2.0993
2.11008
2.17425
2.18602
2.25339
2.26656
2.3404
2.35753
2.40793
2.4683
2.48416
2.56242
2.58003
2.66129
2.67974
2.76449
2.78411
2.87268
2.89376
2.98393
3.00507
3.09917
3.12175
3.2245
3.25176
3.31893
3.40286
3.42697
3.52735
3.55101
3.65201
3.67562
3.77538
3.79817
3.89603
3.91722
4.01207
4.03201
4.12357
4.14188
4.23257
4.25538
4.34088
4.36178
4.39775
4.46419
4.468
4.53277
4.52952
4.57893
4.56893
4.60382
4.5882
4.62406
4.61231
4.75028
4.87539
5.35034
5.63132
5.77461
0.586831
0.600609
0.606573
0.609663
0.614274
0.616477
0.620516
0.622627
0.626639
0.628927
0.632914
0.635465
0.639363
0.642114
0.646206
0.649327
0.653553
0.656909
0.660238
0.664528
0.66751
0.672037
0.675261
0.679762
0.6834
0.687817
0.691736
0.696053
0.700129
0.704346
0.708642
0.712834
0.717368
0.721737
0.72668
0.73113
0.736124
0.739932
0.745198
0.749166
0.754372
0.758791
0.763955
0.768729
0.773862
0.778909
0.783884
0.789378
0.79431
0.800195
0.805472
0.81183
0.817414
0.823951
0.82893
0.835792
0.841101
0.847899
0.85385
0.860612
0.867074
0.87383
0.88068
0.887361
0.894757
0.901429
0.909319
0.916361
0.924853
0.932271
0.940996
0.947777
0.956879
0.96395
0.972942
0.980747
0.989712
0.998274
1.00723
1.01619
1.025
1.03455
1.04341
1.05357
1.06288
1.07376
1.08354
1.09471
1.10372
1.11526
1.12458
1.13621
1.14646
1.15814
1.16889
1.18042
1.19175
1.20342
1.21543
1.22764
1.24017
1.25244
1.26543
1.27845
1.29212
1.30581
1.31946
1.33243
1.34689
1.35953
1.3748
1.38739
1.40337
1.41597
1.43269
1.44522
1.46289
1.47556
1.49389
1.50643
1.52555
1.53823
1.55899
1.57101
1.58924
1.6048
1.61966
1.63845
1.65125
1.67167
1.68286
1.70523
1.71477
1.73785
1.74686
1.76988
1.77841
1.80139
1.80959
1.83274
1.84043
1.85716
1.87125
1.8791
1.89669
1.90084
1.91758
1.92008
1.93446
1.93512
1.9471
1.94602
1.95316
1.94918
1.95339
1.94623
1.94968
1.93561
1.92862
1.9242
1.90197
1.89996
1.86929
1.86481
1.82841
1.82186
1.7808
1.77307
1.72869
1.72014
1.67281
1.66387
1.61401
1.60467
1.55593
1.54719
1.49497
1.47175
1.45312
1.41242
1.40691
1.36248
1.35827
1.31693
1.31475
1.28032
1.28199
1.26403
1.27407
1.2631
1.27111
1.15916
1.11743
0.733152
0.719643
0.732699
0.739049
0.743625
0.749936
0.752084
0.757615
0.759384
0.764628
0.76629
0.771492
0.773158
0.778695
0.780162
0.786024
0.78758
0.794075
0.797159
0.800351
0.805811
0.807542
0.814
0.816093
0.822499
0.824809
0.831364
0.833767
0.840594
0.842764
0.849813
0.852036
0.859322
0.861694
0.869167
0.87177
0.879265
0.883079
0.887522
0.893646
0.896455
0.903281
0.905928
0.912915
0.915609
0.92284
0.925331
0.932767
0.935312
0.942996
0.945859
0.953429
0.956462
0.964354
0.968615
0.973729
0.98024
0.983982
0.991495
0.994748
1.00268
1.00605
1.01429
1.01757
1.02604
1.02942
1.03818
1.04188
1.05063
1.05451
1.06333
1.06831
1.07493
1.08124
1.08683
1.09413
1.09916
1.10718
1.11183
1.12046
1.12459
1.13348
1.13759
1.14664
1.15097
1.16
1.16449
1.17326
1.17855
1.18558
1.19175
1.19809
1.20484
1.21074
1.21788
1.2233
1.23063
1.23577
1.24322
1.24834
1.25563
1.26068
1.2677
1.27307
1.27974
1.28539
1.2913
1.29665
1.3023
1.30704
1.31283
1.31659
1.32281
1.32531
1.33167
1.33333
1.33921
1.34077
1.34578
1.34675
1.35112
1.35134
1.35524
1.35476
1.35481
1.35587
1.35372
1.35481
1.35064
1.35121
1.34486
1.34487
1.33603
1.3352
1.32393
1.32216
1.30816
1.30523
1.28886
1.28501
1.26417
1.25431
1.23987
1.22078
1.21057
1.18426
1.17548
1.14465
1.13456
1.1009
1.08962
1.05318
1.04068
1.00173
0.988169
0.947676
0.933711
0.88969
0.868795
0.837618
0.806056
0.784368
0.745039
0.730346
0.6889
0.674737
0.63522
0.622037
0.586204
0.574274
0.542101
0.531708
0.503313
0.494488
0.469678
0.462312
0.440684
0.431151
0.417962
0.406313
0.398642
0.384875
0.381099
0.367396
0.36433
0.355589
0.355442
0.35532
0.369077
0.381211
0.403957
0.411551
0.41722
0.894271
0.863455
0.872924
0.878252
0.883199
0.888916
0.891045
0.895765
0.897265
0.901212
0.902387
0.906054
0.907141
0.910913
0.91182
0.915774
0.916746
0.920963
0.922926
0.925173
0.928733
0.929856
0.934127
0.935531
0.939844
0.94146
0.945952
0.947705
0.952427
0.95411
0.959031
0.960819
0.965941
0.967882
0.973122
0.975234
0.980366
0.982974
0.986588
0.990248
0.992978
0.997076
0.999342
1.00364
1.00565
1.01003
1.01188
1.01619
1.01799
1.02225
1.02412
1.02826
1.03017
1.0342
1.03638
1.03935
1.04219
1.04456
1.04768
1.04973
1.05301
1.05489
1.05826
1.06
1.06332
1.06505
1.06836
1.07015
1.07337
1.07516
1.07818
1.08009
1.08245
1.08445
1.08654
1.08856
1.09045
1.09236
1.09415
1.09579
1.09756
1.09871
1.10049
1.10112
1.10295
1.10329
1.10491
1.10495
1.10508
1.10584
1.10529
1.1058
1.10475
1.10511
1.10301
1.10345
1.10048
1.10073
1.09688
1.09695
1.09192
1.09136
1.08589
1.08486
1.07859
1.07724
1.06864
1.06494
1.05991
1.05215
1.04888
1.03814
1.03553
1.02279
1.01962
1.00533
1.00108
0.986164
0.981092
0.964827
0.959132
0.941454
0.935362
0.91512
0.905394
0.890584
0.874659
0.863265
0.842259
0.833609
0.809473
0.80082
0.775359
0.76626
0.739924
0.730522
0.703439
0.693711
0.666336
0.656476
0.627914
0.614359
0.593446
0.574252
0.558696
0.535101
0.524435
0.498882
0.489632
0.464632
0.455844
0.4322
0.423969
0.401906
0.394357
0.374231
0.367509
0.348701
0.340178
0.32818
0.31757
0.310311
0.298579
0.294598
0.283902
0.280791
0.272192
0.26989
0.263136
0.261509
0.25651
0.25557
0.252208
0.251939
0.250059
0.250398
0.249739
0.25003
0.251914
0.252209
0.255221
0.255945
0.258956
0.259644
0.262001
0.262429
0.265719
0.267051
0.274231
0.279042
0.287998
0.29161
0.294196
1.0012
0.979363
0.984743
0.988082
0.991304
0.994979
0.996207
0.998581
0.999061
1.00028
1.00025
1.00093
1.00069
1.00108
1.00064
1.00098
1.00045
1.00072
1.00062
1.00016
1.00033
0.999798
0.999979
0.999659
0.999806
0.999623
0.999841
0.999763
1.00022
1.0002
1.00085
1.00097
1.00186
1.00214
1.00315
1.00354
1.00455
1.005
1.00553
1.00605
1.00637
1.00677
1.00701
1.00723
1.0074
1.00752
1.00748
1.00748
1.00727
1.00688
1.0065
1.00603
1.00554
1.00468
1.00363
1.00313
1.00136
1.00088
0.998757
0.998192
0.995714
0.995048
0.992089
0.991527
0.988062
0.987392
0.983489
0.982558
0.978553
0.977451
0.972489
0.969876
0.966982
0.962393
0.960464
0.954619
0.952757
0.94625
0.944186
0.936879
0.935018
0.926887
0.924799
0.915961
0.913331
0.904397
0.901411
0.891166
0.885849
0.878939
0.870567
0.865121
0.854446
0.849956
0.837437
0.833491
0.819705
0.815402
0.800834
0.796209
0.78075
0.77538
0.75971
0.75383
0.737549
0.731372
0.713284
0.704885
0.690994
0.678514
0.667261
0.650957
0.643025
0.623824
0.617064
0.596727
0.589357
0.5695
0.56183
0.542011
0.534347
0.514685
0.50711
0.486657
0.477099
0.46207
0.448825
0.437873
0.421548
0.414173
0.396603
0.390202
0.373088
0.367019
0.350848
0.345189
0.329995
0.324696
0.310639
0.305774
0.292292
0.286102
0.277203
0.269234
0.263357
0.254123
0.250648
0.241445
0.238384
0.230143
0.227454
0.220186
0.217854
0.21153
0.20955
0.204105
0.202444
0.197632
0.195525
0.19289
0.190356
0.189019
0.186497
0.185805
0.183851
0.183457
0.182191
0.182102
0.181604
0.181845
0.181813
0.182921
0.183196
0.185062
0.185732
0.188327
0.189409
0.192554
0.194558
0.198068
0.200995
0.204889
0.20875
0.213102
0.217936
0.222766
0.228505
0.233678
0.240096
0.245242
0.250454
0.252764
0.25407
1.07451
1.05903
1.05975
1.06044
1.06081
1.06131
1.06094
1.06045
1.0584
1.05721
1.05401
1.05222
1.04834
1.04616
1.04182
1.0394
1.03474
1.03201
1.02754
1.02399
1.02001
1.0158
1.01216
1.00778
1.00423
0.999885
0.996421
0.992172
0.988633
0.984652
0.981018
0.977328
0.973554
0.9702
0.966184
0.963009
0.958781
0.954978
0.951733
0.94707
0.944213
0.939249
0.936572
0.931203
0.92868
0.922693
0.920504
0.914009
0.911719
0.904779
0.902197
0.895143
0.89235
0.884671
0.880086
0.874906
0.867888
0.863601
0.855474
0.851523
0.842456
0.838657
0.828726
0.825186
0.814565
0.810856
0.799709
0.795582
0.784408
0.780005
0.768026
0.761698
0.752585
0.743764
0.736087
0.725344
0.718709
0.706383
0.700531
0.686793
0.681815
0.667156
0.662011
0.646839
0.641206
0.626187
0.620261
0.604368
0.596275
0.584179
0.573059
0.563167
0.549726
0.541567
0.525879
0.519949
0.503088
0.497115
0.480232
0.474266
0.457379
0.4511
0.434942
0.428601
0.412855
0.406671
0.390506
0.383091
0.370905
0.361272
0.351825
0.339964
0.33381
0.320548
0.315836
0.302622
0.297904
0.2859
0.281378
0.270246
0.266069
0.255782
0.251952
0.241953
0.237526
0.230618
0.224995
0.220284
0.213606
0.210927
0.204106
0.201821
0.195629
0.193611
0.188103
0.186351
0.181474
0.179946
0.175683
0.174374
0.170495
0.168769
0.16658
0.16432
0.163186
0.160813
0.16011
0.157992
0.157447
0.155713
0.155311
0.153945
0.153681
0.152666
0.152539
0.151868
0.151882
0.15156
0.151498
0.151808
0.151778
0.152483
0.152633
0.15369
0.154036
0.155435
0.155981
0.157814
0.158604
0.16089
0.161935
0.164711
0.166043
0.169301
0.17093
0.174641
0.176585
0.18056
0.183156
0.187238
0.19051
0.194708
0.19854
0.202932
0.20734
0.212053
0.217024
0.222037
0.227311
0.231925
0.235919
0.237854
0.238821
1.11117
1.10098
1.09952
1.09596
1.09421
1.09121
1.08836
1.08466
1.08035
1.07588
1.07026
1.06503
1.05847
1.05264
1.04544
1.0392
1.03156
1.02474
1.0169
1.00957
1.00148
0.993809
0.985383
0.977557
0.968917
0.960914
0.95198
0.94396
0.934685
0.926838
0.917208
0.909411
0.89951
0.891816
0.881642
0.873887
0.863596
0.854965
0.846039
0.836327
0.828099
0.817985
0.810188
0.799659
0.792304
0.781191
0.774623
0.762793
0.756787
0.744297
0.738485
0.725881
0.720001
0.70699
0.699294
0.689285
0.678888
0.670368
0.658525
0.650843
0.637921
0.630783
0.61661
0.61059
0.595517
0.589643
0.574222
0.568039
0.552889
0.546556
0.530879
0.522893
0.510564
0.500186
0.489913
0.477738
0.469114
0.455563
0.448339
0.433632
0.427892
0.412781
0.407162
0.39226
0.38651
0.372426
0.366737
0.352705
0.345709
0.335131
0.326455
0.318109
0.308127
0.301714
0.290564
0.286268
0.274846
0.270809
0.260024
0.25625
0.246102
0.2424
0.233269
0.229766
0.221387
0.21818
0.210067
0.206438
0.200656
0.196305
0.192064
0.18689
0.184401
0.17887
0.177014
0.171789
0.170019
0.165497
0.163875
0.159869
0.158437
0.15488
0.153623
0.150274
0.148829
0.146667
0.144931
0.143485
0.141447
0.140733
0.138693
0.138079
0.136299
0.135785
0.134257
0.133841
0.132541
0.132206
0.131119
0.130863
0.129914
0.129513
0.129193
0.128677
0.128598
0.12817
0.128161
0.127884
0.127939
0.127833
0.127995
0.127958
0.128313
0.128361
0.128923
0.129081
0.129851
0.130127
0.131
0.131634
0.1325
0.133488
0.134457
0.135854
0.137031
0.138803
0.140184
0.142348
0.144018
0.146619
0.148665
0.151764
0.154243
0.157843
0.160795
0.164888
0.168326
0.172805
0.176677
0.181339
0.185467
0.190293
0.194716
0.199659
0.204367
0.209399
0.214325
0.21932
0.224126
0.228431
0.231815
0.23365
0.234466
1.12132
1.10926
1.10639
1.09908
1.09573
1.08962
1.08514
1.07864
1.07273
1.06545
1.05811
1.04995
1.04142
1.03229
1.02298
1.01302
1.00309
0.992364
0.981722
0.971086
0.959668
0.948995
0.937194
0.926182
0.914163
0.902862
0.890541
0.879005
0.866275
0.854579
0.841361
0.829387
0.815642
0.803359
0.789012
0.776277
0.761387
0.747598
0.733468
0.718536
0.704647
0.689303
0.675725
0.660092
0.647081
0.631155
0.61926
0.602996
0.592167
0.575681
0.565562
0.549401
0.539833
0.523681
0.513146
0.500275
0.487658
0.476736
0.463141
0.453493
0.439309
0.430732
0.415817
0.408732
0.393378
0.387007
0.37187
0.365558
0.351262
0.345137
0.331102
0.324097
0.313084
0.304833
0.295862
0.28669
0.27951
0.269681
0.264076
0.253796
0.249685
0.239573
0.23578
0.226335
0.222691
0.214231
0.210834
0.202859
0.198963
0.193157
0.188718
0.184289
0.179403
0.176198
0.17091
0.168886
0.16366
0.161843
0.157102
0.155474
0.151186
0.149654
0.145926
0.144526
0.141211
0.139969
0.136849
0.135473
0.133307
0.131713
0.130153
0.128301
0.127414
0.12546
0.124824
0.123012
0.122421
0.120888
0.12036
0.119034
0.118587
0.117443
0.117068
0.116017
0.115575
0.114981
0.114438
0.114111
0.113532
0.113406
0.112898
0.112817
0.112443
0.112414
0.112156
0.112174
0.112055
0.112131
0.112082
0.112272
0.112272
0.11252
0.112767
0.112949
0.113412
0.113591
0.11421
0.114447
0.115204
0.115516
0.116413
0.116805
0.117848
0.118334
0.119522
0.120135
0.121476
0.122252
0.123678
0.124721
0.12619
0.127508
0.129104
0.130682
0.132421
0.134303
0.136243
0.138505
0.140728
0.143376
0.14593
0.148997
0.151985
0.15556
0.159048
0.16316
0.167187
0.171812
0.176275
0.181335
0.186196
0.191546
0.196649
0.202159
0.207308
0.212767
0.217666
0.222771
0.226984
0.231167
0.233797
0.235646
0.236328
1.10159
1.0907
1.08667
1.07611
1.0714
1.06239
1.05672
1.04792
1.04099
1.03181
1.02351
1.01375
1.00418
0.993688
0.983194
0.972021
0.960704
0.948831
0.936745
0.924891
0.912221
0.900075
0.887194
0.874694
0.861795
0.849111
0.8361
0.823277
0.810101
0.79706
0.78358
0.770101
0.756084
0.741941
0.727105
0.711989
0.696025
0.67963
0.662938
0.64531
0.627561
0.609201
0.590732
0.571841
0.553259
0.534232
0.516073
0.497278
0.47991
0.461653
0.445429
0.428048
0.413124
0.396531
0.382413
0.368136
0.354349
0.341828
0.32868
0.317599
0.305082
0.29536
0.283326
0.275133
0.263467
0.256609
0.245373
0.239589
0.229084
0.224168
0.214334
0.209415
0.201646
0.196477
0.190176
0.184903
0.179876
0.174573
0.170655
0.16528
0.162503
0.157235
0.155052
0.150222
0.148245
0.144049
0.142284
0.138481
0.136625
0.133813
0.131855
0.129654
0.127621
0.125952
0.123803
0.122712
0.120543
0.119717
0.117714
0.116988
0.115191
0.11452
0.112968
0.112364
0.110992
0.110462
0.109183
0.108609
0.107714
0.107085
0.106407
0.10571
0.105291
0.104539
0.104285
0.103577
0.103349
0.102768
0.102577
0.102096
0.10195
0.101562
0.101456
0.101122
0.100992
0.10089
0.100758
0.10075
0.100668
0.100718
0.100683
0.1008
0.100797
0.101012
0.101056
0.101367
0.101461
0.101861
0.102007
0.102496
0.102692
0.103216
0.103595
0.104101
0.104645
0.105164
0.10585
0.106413
0.107232
0.107867
0.108814
0.109547
0.110626
0.111478
0.112699
0.113692
0.115065
0.116225
0.117758
0.119195
0.120902
0.122649
0.124569
0.126615
0.128838
0.131224
0.133804
0.13654
0.139482
0.14259
0.145945
0.149494
0.153321
0.157368
0.161736
0.166315
0.171271
0.176405
0.181772
0.187431
0.193151
0.199227
0.20516
0.211469
0.217369
0.223578
0.229032
0.234643
0.239099
0.243446
0.246135
0.248022
0.248695
1.06409
1.05306
1.04757
1.03444
1.02849
1.01778
1.01111
1.00135
0.993772
0.984263
0.975752
0.966049
0.956594
0.946454
0.936141
0.925585
0.914481
0.903426
0.891681
0.880777
0.868776
0.857401
0.845787
0.834301
0.823139
0.811846
0.801128
0.790145
0.77986
0.768993
0.759054
0.748035
0.737974
0.726481
0.715863
0.703455
0.691544
0.677851
0.664099
0.649089
0.632976
0.616645
0.598435
0.580774
0.56101
0.542534
0.521706
0.502948
0.481589
0.462915
0.44173
0.423593
0.403331
0.386167
0.367285
0.351382
0.334801
0.319823
0.305551
0.291765
0.279489
0.266975
0.256482
0.245216
0.236233
0.226116
0.218372
0.20933
0.202623
0.194565
0.188668
0.181421
0.176408
0.169939
0.165458
0.159839
0.155768
0.15092
0.147229
0.143028
0.13971
0.13609
0.133096
0.129992
0.127311
0.124676
0.122281
0.120023
0.11782
0.116043
0.114012
0.112541
0.110742
0.109492
0.107899
0.106827
0.105437
0.104507
0.103303
0.102499
0.101448
0.100772
0.099855
0.0992887
0.098482
0.0980161
0.0972859
0.096878
0.0963271
0.0959344
0.0954905
0.0951288
0.094797
0.0944632
0.0942362
0.0939262
0.0937898
0.0935392
0.0934514
0.0932776
0.0932307
0.0931365
0.0931303
0.0930977
0.0931054
0.0932103
0.0932422
0.0934213
0.0934935
0.0937518
0.0938704
0.0942053
0.0943786
0.0947907
0.0950269
0.095514
0.0958115
0.096379
0.0967444
0.0973952
0.0978418
0.0985508
0.0991345
0.0998764
0.100588
0.101399
0.102229
0.103125
0.104077
0.105074
0.106153
0.107268
0.108479
0.109731
0.111086
0.112498
0.114014
0.115625
0.117318
0.119107
0.120989
0.122973
0.125083
0.127303
0.129731
0.132266
0.135084
0.138056
0.141315
0.144797
0.148562
0.152586
0.156922
0.16152
0.166477
0.17166
0.177289
0.183094
0.189166
0.195572
0.202031
0.208906
0.215594
0.222704
0.229311
0.236235
0.24223
0.248334
0.253021
0.257593
0.260234
0.262189
0.262834
1.043
1.02226
1.014
0.99734
0.989326
0.976388
0.968085
0.957117
0.948504
0.938664
0.929841
0.920598
0.911536
0.90253
0.893188
0.884268
0.874539
0.865528
0.855555
0.846873
0.837111
0.828235
0.81936
0.810542
0.802637
0.794397
0.787527
0.780174
0.774383
0.767739
0.762729
0.75634
0.75181
0.745454
0.741115
0.734365
0.729252
0.722073
0.714294
0.706499
0.695965
0.686613
0.673373
0.662172
0.646376
0.633826
0.615424
0.601991
0.581369
0.567263
0.545194
0.530303
0.50775
0.492812
0.472362
0.454717
0.438028
0.419184
0.405281
0.386578
0.375064
0.357028
0.347996
0.330793
0.323348
0.307543
0.300949
0.28675
0.280598
0.267741
0.262139
0.251397
0.244437
0.235839
0.228018
0.221196
0.21268
0.207307
0.19835
0.194336
0.18525
0.181651
0.17306
0.169705
0.161845
0.158582
0.151474
0.148478
0.142466
0.139071
0.134233
0.13075
0.126994
0.123447
0.120722
0.117074
0.115277
0.111828
0.110457
0.107465
0.106305
0.103834
0.10282
0.100805
0.0999624
0.0983036
0.0976169
0.0963133
0.0956549
0.0946609
0.094124
0.0933537
0.0929052
0.0923297
0.0919464
0.0915455
0.0912245
0.0909708
0.0907239
0.0905888
0.0904303
0.0903662
0.0903104
0.0903005
0.0902986
0.0903967
0.0904527
0.0906224
0.0907672
0.0909881
0.0912247
0.0914968
0.0918167
0.0921453
0.092541
0.0929479
0.0934191
0.0939037
0.0944567
0.0950106
0.0956568
0.0962872
0.0970366
0.0977515
0.0985998
0.0994216
0.100364
0.10131
0.102352
0.10344
0.104593
0.105837
0.107118
0.108536
0.109963
0.111577
0.113171
0.115016
0.116824
0.118907
0.120982
0.123359
0.125773
0.128462
0.131265
0.134257
0.137504
0.140845
0.144604
0.14842
0.152778
0.157175
0.162232
0.167285
0.173108
0.178847
0.185494
0.19199
0.199167
0.206415
0.214053
0.221898
0.229797
0.23796
0.24574
0.253707
0.260706
0.26767
0.272996
0.278076
0.280968
0.28308
0.283747
1.07399
1.0344
1.02132
0.999313
0.987103
0.970178
0.958298
0.9448
0.933566
0.922238
0.911708
0.902006
0.892251
0.883827
0.874718
0.867332
0.858595
0.851827
0.843539
0.837105
0.829723
0.823302
0.817201
0.811008
0.806223
0.800851
0.797528
0.793457
0.791692
0.789221
0.788511
0.787415
0.787471
0.786961
0.787253
0.786745
0.786796
0.786082
0.784161
0.782694
0.778498
0.775295
0.768713
0.763525
0.754386
0.747398
0.735369
0.72688
0.712289
0.702471
0.686023
0.674684
0.657115
0.64485
0.628197
0.613038
0.598767
0.582286
0.569676
0.552952
0.541949
0.525562
0.516439
0.50015
0.492946
0.477583
0.471325
0.457232
0.451304
0.438332
0.432892
0.422157
0.414363
0.406007
0.396517
0.389815
0.378804
0.37325
0.361168
0.356347
0.343213
0.33835
0.32474
0.319696
0.305921
0.300314
0.286489
0.280751
0.268658
0.259781
0.250198
0.23932
0.231802
0.21959
0.214208
0.201489
0.196668
0.184704
0.18025
0.169352
0.165329
0.155717
0.151921
0.14363
0.140338
0.133224
0.130524
0.124823
0.121724
0.117562
0.11468
0.111771
0.10879
0.107108
0.10423
0.103219
0.100838
0.0999946
0.0982033
0.0975734
0.0962338
0.0957813
0.0948135
0.0945279
0.093939
0.0936188
0.0933663
0.0931765
0.0931603
0.0930836
0.0931759
0.093193
0.0934971
0.093594
0.0940484
0.0942394
0.0948291
0.0951055
0.0958251
0.0961838
0.0970413
0.0975406
0.0984365
0.0991138
0.100056
0.100923
0.101919
0.102983
0.104047
0.105312
0.106464
0.107941
0.109201
0.110904
0.112294
0.114236
0.11578
0.117997
0.119798
0.122156
0.124317
0.126885
0.129452
0.132289
0.135323
0.138528
0.14208
0.145735
0.14987
0.154065
0.158877
0.163723
0.169338
0.174946
0.181468
0.187905
0.195429
0.202804
0.211008
0.219324
0.228128
0.237197
0.246372
0.255862
0.264975
0.274273
0.282531
0.290629
0.296878
0.30264
0.305903
0.308215
0.308914
1.19173
1.1223
1.10163
1.07187
1.05258
1.03074
1.01275
0.995696
0.979302
0.96554
0.950734
0.93939
0.926293
0.917183
0.905648
0.898707
0.888604
0.883309
0.875219
0.869603
0.863857
0.858151
0.854405
0.849254
0.847098
0.843587
0.842508
0.841115
0.84131
0.84094
0.84253
0.842948
0.846326
0.847432
0.851578
0.853079
0.857338
0.85944
0.861649
0.863183
0.862894
0.862918
0.860845
0.859329
0.854794
0.85157
0.84419
0.839307
0.829426
0.823
0.811339
0.803174
0.790229
0.780734
0.768122
0.755844
0.744676
0.731301
0.720991
0.707546
0.698318
0.685333
0.677621
0.664952
0.659027
0.647419
0.642825
0.632664
0.628614
0.619923
0.616596
0.610185
0.605443
0.601199
0.595516
0.592649
0.586148
0.583827
0.576779
0.574551
0.566482
0.564091
0.55508
0.552283
0.542365
0.538619
0.527572
0.523164
0.513009
0.503941
0.495214
0.482907
0.474873
0.459961
0.452793
0.435137
0.428244
0.409152
0.401816
0.381895
0.37424
0.354135
0.34578
0.325889
0.31757
0.298209
0.290455
0.272975
0.262379
0.248755
0.23624
0.226429
0.211929
0.205885
0.19155
0.186322
0.173827
0.168986
0.158407
0.154311
0.145399
0.142008
0.134653
0.132025
0.12644
0.123372
0.119596
0.116888
0.114491
0.11178
0.110725
0.108348
0.107735
0.106053
0.105618
0.104583
0.104379
0.103842
0.103867
0.103676
0.103929
0.104041
0.104468
0.10492
0.105449
0.106233
0.106835
0.10793
0.108627
0.109995
0.110827
0.112448
0.113437
0.115316
0.116488
0.118638
0.120017
0.12247
0.12418
0.126766
0.128923
0.131701
0.13435
0.137372
0.140592
0.143954
0.1478
0.15162
0.15616
0.160574
0.165905
0.171048
0.177319
0.183335
0.1907
0.197709
0.206328
0.214511
0.224045
0.233439
0.243819
0.254208
0.265167
0.276176
0.28722
0.298188
0.308356
0.31809
0.32582
0.332839
0.336663
0.339437
0.340222
1.39868
1.3101
1.28265
1.242
1.21476
1.18478
1.15877
1.13559
1.11201
1.09368
1.07263
1.0577
1.039
1.02714
1.01051
1.00184
0.987894
0.981927
0.971909
0.965012
0.959158
0.952147
0.949088
0.943396
0.941414
0.9375
0.936503
0.934515
0.934676
0.933885
0.935184
0.935004
0.937845
0.938325
0.942232
0.943288
0.947295
0.949226
0.9512
0.953321
0.95332
0.953702
0.952275
0.951447
0.948009
0.945764
0.939962
0.936257
0.928361
0.923207
0.913855
0.907108
0.896662
0.888602
0.878238
0.867733
0.858195
0.846744
0.837595
0.826197
0.817727
0.806912
0.799644
0.789474
0.783816
0.774626
0.770597
0.763162
0.760158
0.754556
0.752565
0.749426
0.747303
0.746263
0.744694
0.744695
0.743597
0.743921
0.743152
0.743736
0.742787
0.743456
0.742246
0.742842
0.741378
0.7416
0.739462
0.739447
0.737667
0.73486
0.733685
0.728964
0.727587
0.721465
0.719771
0.711738
0.709525
0.699788
0.696838
0.685332
0.681581
0.668396
0.663207
0.648239
0.641916
0.624926
0.617952
0.601187
0.587996
0.57384
0.555968
0.543825
0.52119
0.511136
0.485717
0.475795
0.449631
0.438727
0.41263
0.401712
0.375988
0.365347
0.340642
0.330839
0.308699
0.29559
0.278569
0.263293
0.251288
0.233833
0.226739
0.209811
0.203867
0.189552
0.184212
0.172534
0.168216
0.158782
0.155581
0.147925
0.14563
0.140444
0.137562
0.134646
0.132282
0.130891
0.129002
0.128637
0.127477
0.127513
0.127157
0.127633
0.127622
0.128887
0.129221
0.131046
0.131718
0.134101
0.135295
0.137754
0.139703
0.142281
0.144971
0.147743
0.151198
0.154275
0.158522
0.162041
0.167137
0.171264
0.177292
0.182201
0.189321
0.195205
0.203615
0.210663
0.220597
0.229137
0.240216
0.250408
0.262607
0.274263
0.287282
0.300033
0.313287
0.326485
0.338871
0.35116
0.360642
0.369943
0.374477
0.378064
0.379037
1.60807
1.53367
1.50774
1.46289
1.43261
1.39818
1.36769
1.33989
1.3117
1.28907
1.26395
1.24528
1.22279
1.20729
1.18664
1.17437
1.15627
1.14719
1.13385
1.12387
1.11576
1.10607
1.10139
1.09321
1.09008
1.08368
1.0815
1.07667
1.07548
1.07167
1.07126
1.06845
1.06855
1.06636
1.06667
1.06493
1.065
1.06391
1.06167
1.06106
1.05753
1.05579
1.05107
1.04813
1.04212
1.03805
1.03041
1.02524
1.01618
1.0099
0.999923
0.99245
0.981877
0.973437
0.963102
0.952688
0.943036
0.931824
0.922411
0.911264
0.902329
0.891745
0.883742
0.873909
0.86725
0.858599
0.85346
0.846411
0.842693
0.837433
0.835138
0.83263
0.831384
0.831314
0.831152
0.832082
0.832803
0.83526
0.836902
0.840522
0.842418
0.846905
0.848901
0.853921
0.856099
0.861184
0.863501
0.868642
0.871828
0.875306
0.879303
0.881737
0.88602
0.887602
0.891713
0.892695
0.89635
0.896884
0.89989
0.899919
0.902359
0.902153
0.903379
0.902661
0.903273
0.901525
0.90199
0.900364
0.897516
0.896631
0.891618
0.890708
0.883455
0.882063
0.872624
0.870359
0.858818
0.854824
0.840695
0.835307
0.818115
0.810873
0.790411
0.782211
0.761671
0.744491
0.727004
0.702981
0.687693
0.656745
0.643789
0.608955
0.595562
0.559586
0.544733
0.508989
0.494227
0.459373
0.445643
0.410975
0.398059
0.368042
0.350971
0.328555
0.308969
0.293547
0.272545
0.263477
0.244028
0.237139
0.221263
0.215983
0.203673
0.199856
0.190769
0.188244
0.181996
0.180603
0.177594
0.175639
0.175496
0.174888
0.17557
0.175927
0.178477
0.179284
0.1833
0.184875
0.190141
0.192619
0.199102
0.202676
0.210475
0.215127
0.2244
0.230315
0.241359
0.249214
0.261329
0.271664
0.285
0.29777
0.312142
0.327074
0.341983
0.358382
0.372808
0.389164
0.400708
0.413531
0.419543
0.424271
0.425562
1.69321
1.64991
1.63485
1.60061
1.57776
1.54975
1.52518
1.50098
1.4773
1.45655
1.43512
1.41799
1.39909
1.38473
1.36702
1.35493
1.33851
1.32863
1.31545
1.30463
1.29552
1.2849
1.27903
1.26957
1.26546
1.25746
1.25429
1.24728
1.24477
1.23794
1.23572
1.22892
1.22664
1.21941
1.21676
1.20918
1.20548
1.19866
1.19138
1.18529
1.17621
1.16938
1.15928
1.15157
1.14067
1.13232
1.12044
1.11151
1.0989
1.08938
1.07647
1.06627
1.05336
1.04272
1.0305
1.01853
1.00726
0.994821
0.983949
0.971701
0.961295
0.949594
0.939951
0.928942
0.920393
0.910485
0.903245
0.894822
0.888949
0.882299
0.878002
0.873635
0.870547
0.868723
0.867856
0.867789
0.86793
0.869351
0.871156
0.874231
0.877104
0.881524
0.885226
0.890583
0.894863
0.900856
0.90576
0.912325
0.918056
0.924438
0.930952
0.937237
0.944304
0.950449
0.957977
0.963902
0.971823
0.977593
0.985755
0.991433
0.999778
1.00554
1.01375
1.01961
1.02774
1.03354
1.04192
1.04827
1.05522
1.06269
1.06875
1.07706
1.08212
1.09106
1.09536
1.10463
1.10858
1.11746
1.12111
1.12957
1.13279
1.14061
1.14326
1.15125
1.15475
1.15819
1.16294
1.16365
1.1676
1.16644
1.16847
1.16453
1.16542
1.15709
1.15525
1.14126
1.13625
1.11608
1.10838
1.0803
1.07022
1.04146
1.01565
0.990239
0.95276
0.929065
0.881228
0.859757
0.806401
0.784802
0.730136
0.70869
0.654461
0.633179
0.580436
0.55996
0.510788
0.492017
0.451906
0.428337
0.400742
0.375877
0.358859
0.335209
0.326577
0.307467
0.301875
0.288974
0.286078
0.279019
0.27844
0.276419
0.278
0.27865
0.284374
0.285994
0.294608
0.298815
0.307727
0.316036
0.325871
0.338238
0.349594
0.365642
0.379214
0.398546
0.413466
0.434751
0.44904
0.467035
0.47553
0.4821
0.483891
1.50361
1.54003
1.54248
1.5279
1.52193
1.50796
1.50012
1.48781
1.47926
1.46918
1.46177
1.45454
1.44906
1.44399
1.43925
1.43542
1.43069
1.42762
1.42335
1.41958
1.41615
1.41166
1.40909
1.40456
1.40267
1.39839
1.39672
1.39229
1.39056
1.38487
1.38243
1.37517
1.37154
1.36268
1.35752
1.34708
1.33977
1.32883
1.31751
1.30654
1.29275
1.28064
1.26539
1.25232
1.23628
1.22278
1.2061
1.19246
1.1755
1.16176
1.14493
1.13098
1.11458
1.10065
1.08537
1.07078
1.0569
1.04228
1.02917
1.01501
1.00259
0.989085
0.977431
0.964595
0.953882
0.941977
0.932351
0.921686
0.9132
0.904047
0.896914
0.889747
0.883924
0.878982
0.874832
0.871848
0.869504
0.868625
0.868399
0.868798
0.869934
0.872292
0.875024
0.878591
0.882317
0.886904
0.891638
0.897122
0.902634
0.909009
0.915365
0.922325
0.929424