/*--------------------------------*- C++ -*----------------------------------*\
| =========                 |                                                 |
| \\      /  F ield         | OpenFOAM: The Open Source CFD Toolbox           |
|  \\    /   O peration     | Version:  4.1                                   |
|   \\  /    A nd           | Web:      www.OpenFOAM.org                      |
|    \\/     M anipulation  |                                                 |
\*---------------------------------------------------------------------------*/
FoamFile
{
    version     2.0;
    format      ascii;
    class       volScalarField;
    location    "14";
    object      k;
}
// * * * * * * * * * * * * * * * * * * * * * * * * * * * * * * * * * * * * * //

dimensions      [0 2 -2 0 0 0 0];

internalField   nonuniform List<scalar> 
204246
(
2.11966
2.21345
2.2239
2.22614
2.23762
2.23986
2.24903
2.25198
2.2605
2.26395
2.27211
2.27571
2.2839
2.28733
2.29728
2.29922
2.3098
2.31164
2.31978
2.32662
2.33065
2.34022
2.34187
2.35118
2.35336
2.36234
2.36447
2.37361
2.37541
2.38586
2.38737
2.39812
2.3997
2.41068
2.41235
2.42257
2.42484
2.43311
2.44038
2.44451
2.45417
2.45667
2.4672
2.46982
2.4808
2.48323
2.49574
2.49801
2.51103
2.51346
2.52557
2.52879
2.54078
2.54406
2.55446
2.56292
2.56913
2.57992
2.58439
2.59659
2.60025
2.61326
2.6167
2.63127
2.63453
2.6496
2.65301
2.66708
2.6713
2.68528
2.68959
2.70166
2.71034
2.71933
2.73041
2.73762
2.7504
2.75649
2.77045
2.77579
2.79236
2.79677
2.81419
2.81882
2.83543
2.84094
2.85757
2.86324
2.87806
2.88816
2.89998
2.91256
2.92277
2.93691
2.9462
2.96428
2.97069
2.99087
2.99709
3.01769
3.02418
3.0445
3.05194
3.07236
3.08011
3.10133
3.10903
3.12869
3.14074
3.1577
3.17178
3.18766
3.20575
3.21893
3.24031
3.25146
3.27409
3.28503
3.30884
3.31967
3.3451
3.35561
3.38209
3.39273
3.41775
3.43269
3.45515
3.47234
3.49378
3.51328
3.53369
3.55464
3.57471
3.59689
3.61682
3.64023
3.66005
3.68444
3.70443
3.72983
3.74988
3.77472
3.79695
3.82088
3.84388
3.86795
3.89138
3.91576
3.93939
3.9642
3.98788
4.01313
4.03669
4.06247
4.08593
4.11221
4.13571
4.16215
4.185
4.21167
4.23456
4.2606
4.28419
4.30942
4.33377
4.35803
4.3834
4.40653
4.43337
4.45535
4.48413
4.50483
4.53618
4.55599
4.5914
4.60933
4.64927
4.67088
4.70727
4.73731
4.77212
4.81123
4.84746
4.89673
4.93806
4.99893
5.04986
5.12356
5.18858
5.26732
5.33397
5.37174
5.38824
1.40338
1.38826
1.39026
1.39193
1.39504
1.39499
1.39919
1.3995
1.40403
1.40442
1.4095
1.41016
1.41519
1.41546
1.42086
1.42109
1.42724
1.42822
1.43035
1.43501
1.43551
1.44097
1.44129
1.44758
1.44865
1.45483
1.45602
1.46184
1.46245
1.46821
1.46873
1.47448
1.47498
1.48068
1.48115
1.4882
1.49024
1.49243
1.4976
1.49854
1.5052
1.50678
1.5137
1.51546
1.52234
1.52363
1.53082
1.53214
1.53973
1.54121
1.54984
1.55216
1.56164
1.56493
1.56972
1.57741
1.5797
1.58964
1.5927
1.60301
1.6063
1.61665
1.61945
1.63022
1.63309
1.6443
1.64736
1.65962
1.66362
1.67674
1.68174
1.68962
1.70096
1.70567
1.71903
1.72389
1.73795
1.74302
1.75757
1.76254
1.77719
1.78208
1.79745
1.80263
1.81921
1.82544
1.84323
1.85065
1.86306
1.87748
1.88649
1.90412
1.9116
1.931
1.93852
1.95821
1.96578
1.98623
1.99396
2.01583
2.02436
2.04724
2.05687
2.08068
2.09086
2.1161
2.12693
2.14871
2.1673
2.18498
2.20834
2.22243
2.24938
2.26149
2.29086
2.30351
2.33532
2.34898
2.38198
2.39667
2.43077
2.44606
2.48294
2.49995
2.5319
2.55784
2.58596
2.61683
2.64401
2.67778
2.70461
2.74239
2.76928
2.80987
2.83762
2.88062
2.90984
2.95509
2.98646
3.03433
3.06925
3.11164
3.15614
3.1972
3.24436
3.28806
3.33693
3.38352
3.43407
3.48385
3.5362
3.58938
3.64207
3.69929
3.75319
3.81517
3.87264
3.93886
3.99072
4.06562
4.1215
4.19144
4.25817
4.32271
4.39897
4.45825
4.54186
4.59727
4.68486
4.73886
4.82629
4.88168
4.96167
5.02019
5.10322
5.16013
5.24147
5.28055
5.3739
5.40946
5.49844
5.53049
5.61491
5.64361
5.72497
5.75084
5.83894
5.86992
6.03597
6.1804
6.59398
6.84969
6.95802
2.03864
1.94784
1.96879
1.97975
1.9798
1.98923
1.98834
1.99526
1.99445
2.00148
2.00067
2.00793
2.00717
2.01602
2.01444
2.02392
2.0225
2.03382
2.03853
2.03755
2.04733
2.04612
2.05649
2.05603
2.06563
2.06556
2.07525
2.0752
2.08605
2.08506
2.09583
2.09485
2.10575
2.10488
2.11577
2.11539
2.12616
2.13137
2.13037
2.14006
2.13942
2.14809
2.14785
2.15676
2.15659
2.16692
2.16592
2.17653
2.17565
2.18673
2.18669
2.19742
2.19799
2.21041
2.21649
2.21646
2.22858
2.22898
2.24054
2.24165
2.25354
2.2549
2.26808
2.26847
2.28261
2.28325
2.29816
2.29996
2.31406
2.3165
2.33216
2.33985
2.34412
2.35695
2.3594
2.37377
2.37658
2.39147
2.39453
2.41026
2.41233
2.4288
2.4311
2.44838
2.45182
2.46838
2.47248
2.49038
2.49919
2.50627
2.52079
2.5249
2.54157
2.54606
2.56353
2.56717
2.58532
2.58927
2.60811
2.61255
2.6317
2.63687
2.65522
2.66112
2.68005
2.68635
2.70681
2.71579
2.72784
2.74304
2.75
2.76879
2.77478
2.79433
2.80063
2.82048
2.82748
2.84671
2.85395
2.87336
2.88075
2.90087
2.90888
2.92924
2.93886
2.953
2.96682
2.97709
2.99394
3.00169
3.01945
3.02746
3.0447
3.05273
3.06911
3.07709
3.09261
3.10061
3.11566
3.12393
3.13768
3.14433
3.15508
3.16083
3.16967
3.17409
3.18145
3.18267
3.18806
3.18678
3.18907
3.1851
3.18555
3.17432
3.1742
3.15692
3.1555
3.12874
3.11568
3.09978
3.06663
3.05745
3.01145
2.99904
2.94509
2.92972
2.86918
2.85169
2.78612
2.76681
2.69677
2.67626
2.60258
2.58145
2.50799
2.48786
2.40939
2.37301
2.33723
2.27498
2.25964
2.18986
2.17584
2.10886
2.09714
2.0383
2.03176
1.99202
1.99632
1.97053
1.97577
1.8429
1.7936
2.74048
2.59665
2.61254
2.62539
2.62719
2.63641
2.63597
2.64095
2.63981
2.64358
2.6422
2.64571
2.64436
2.64902
2.64708
2.6522
2.65043
2.65626
2.65878
2.65775
2.6634
2.66198
2.66809
2.6674
2.67332
2.6731
2.67939
2.6793
2.68646
2.68567
2.69278
2.69201
2.69931
2.69871
2.70608
2.70594
2.71282
2.7162
2.71565
2.72168
2.72117
2.72635
2.72605
2.73118
2.7309
2.73661
2.73567
2.74133
2.74042
2.74625
2.74595
2.7514
2.75141
2.75739
2.76041
2.76003
2.76573
2.76555
2.7709
2.77108
2.77659
2.77692
2.78299
2.78282
2.78915
2.78907
2.79578
2.79639
2.80265
2.80363
2.80997
2.81316
2.81463
2.81952
2.82022
2.82552
2.82637
2.83167
2.83261
2.83799
2.8385
2.84375
2.84423
2.8494
2.85025
2.8549
2.85595
2.86022
2.86232
2.86308
2.86596
2.8664
2.86916
2.86957
2.87205
2.87216
2.87419
2.87421
2.87588
2.87592
2.87696
2.87691
2.87736
2.87726
2.8775
2.87713
2.87688
2.87593
2.87407
2.87292
2.87048
2.86886
2.86581
2.86351
2.85982
2.85693
2.85242
2.84916
2.84361
2.83956
2.83324
2.8278
2.8215
2.81308
2.80446
2.79647
2.78411
2.77687
2.75993
2.75366
2.73258
2.72574
2.70119
2.6932
2.6649
2.65562
2.62303
2.61211
2.57578
2.56359
2.51954
2.49801
2.46648
2.42815
2.40529
2.35474
2.3354
2.27776
2.25651
2.1949
2.17191
2.10652
2.08177
2.01287
1.98653
1.91557
1.8885
1.81231
1.77549
1.71713
1.66471
1.61991
1.55491
1.52257
1.45118
1.42379
1.35311
1.32726
1.26199
1.23819
1.17884
1.15761
1.10452
1.08596
1.03893
1.02291
0.980913
0.961879
0.934284
0.911447
0.893389
0.867134
0.855728
0.828891
0.820437
0.801819
0.798977
0.794947
0.809372
0.826404
0.856383
0.866038
0.873279
3.21646
3.12896
3.13292
3.14279
3.14309
3.14761
3.14553
3.14647
3.14106
3.14093
3.13383
3.13305
3.12598
3.1256
3.11808
3.11801
3.11064
3.11059
3.1061
3.10111
3.1011
3.09473
3.09481
3.08951
3.08925
3.08481
3.08477
3.08076
3.08113
3.07692
3.07744
3.07356
3.07414
3.07071
3.07132
3.06835
3.06846
3.06691
3.06347
3.06354
3.0594
3.0588
3.05452
3.05369
3.04925
3.04849
3.04346
3.04258
3.03726
3.03616
3.03095
3.02938
3.02415
3.02234
3.01792
3.01334
3.01064
3.00473
3.00231
2.99609
2.9935
2.98724
2.98463
2.97806
2.9753
2.96854
2.96558
2.95889
2.95566
2.94894
2.94514
2.93904
2.93313
2.92759
2.92075
2.91537
2.908
2.90253
2.89484
2.88918
2.881
2.87492
2.86628
2.85987
2.85109
2.84426
2.83538
2.82728
2.81787
2.80891
2.79887
2.78956
2.77827
2.76902
2.75577
2.7473
2.73144
2.72389
2.70554
2.69878
2.67828
2.67057
2.64928
2.64088
2.61822
2.60933
2.58282
2.57019
2.54963
2.52952
2.51254
2.48516
2.47292
2.43981
2.42811
2.39156
2.37806
2.34043
2.32558
2.28556
2.2697
2.22729
2.21081
2.16319
2.13992
2.10436
2.06812
2.04038
1.99406
1.97214
1.91947
1.89873
1.84337
1.82187
1.76519
1.74318
1.68544
1.66288
1.60481
1.58205
1.52189
1.49286
1.44613
1.40693
1.36983
1.32286
1.29436
1.24171
1.22024
1.16653
1.14594
1.09476
1.07527
1.02704
1.00888
0.964296
0.947775
0.905725
0.886209
0.856762
0.83352
0.813101
0.786969
0.774888
0.749316
0.740331
0.718288
0.711008
0.692728
0.686899
0.672213
0.667819
0.656476
0.653452
0.645171
0.643424
0.637568
0.635372
0.634987
0.633406
0.63427
0.63352
0.634543
0.633696
0.634362
0.63318
0.634716
0.635199
0.644539
0.650328
0.663116
0.667843
0.671635
3.63271
3.54115
3.53567
3.53638
3.5304
3.52986
3.51918
3.51553
3.5015
3.49598
3.48003
3.47349
3.4569
3.45026
3.43308
3.42643
3.40916
3.40232
3.38748
3.3763
3.36534
3.35135
3.3428
3.32811
3.32041
3.30597
3.29871
3.28469
3.27797
3.26396
3.25759
3.24399
3.2378
3.22482
3.21879
3.20622
3.19972
3.18835
3.17951
3.1697
3.15937
3.15006
3.13895
3.12977
3.11809
3.1089
3.09657
3.08719
3.07434
3.06466
3.05161
3.04148
3.02842
3.01751
3.00448
2.99256
2.97948
2.9668
2.95339
2.94052
2.9264
2.91355
2.89838
2.88606
2.86948
2.85774
2.83971
2.82837
2.80958
2.79843
2.77822
2.76402
2.74748
2.72986
2.71501
2.69463
2.68099
2.65818
2.64549
2.61951
2.60921
2.58087
2.57021
2.54047
2.52881
2.49897
2.4867
2.45469
2.43669
2.41287
2.38802
2.36793
2.33816
2.32045
2.28549
2.2717
2.23317
2.21887
2.17883
2.16399
2.12226
2.10599
2.06412
2.04693
2.00405
1.98635
1.93991
1.91782
1.88055
1.84981
1.81828
1.77984
1.75506
1.70919
1.6899
1.63999
1.62022
1.57098
1.55065
1.50151
1.48122
1.43243
1.41235
1.36197
1.33801
1.2989
1.26708
1.2366
1.19843
1.17537
1.13287
1.11549
1.07234
1.05571
1.01465
0.998964
0.960078
0.945253
0.908895
0.895091
0.860097
0.84369
0.818511
0.798439
0.779849
0.756975
0.744237
0.720194
0.710819
0.687879
0.679417
0.658782
0.651215
0.632814
0.626123
0.609814
0.603928
0.589134
0.582382
0.572516
0.564873
0.558033
0.549781
0.545762
0.537884
0.535083
0.528492
0.52637
0.521466
0.520054
0.516775
0.516065
0.514372
0.51436
0.513972
0.515021
0.515438
0.517709
0.51983
0.522804
0.526569
0.530295
0.535536
0.539982
0.5467
0.552112
0.560305
0.566501
0.576007
0.582536
0.589969
0.59295
0.59487
3.90468
3.83375
3.82214
3.81074
3.79734
3.78665
3.76912
3.75606
3.73514
3.71983
3.69653
3.67962
3.65502
3.63739
3.61177
3.59392
3.5678
3.54937
3.5246
3.50324
3.48072
3.45733
3.4362
3.41226
3.39174
3.36792
3.34783
3.3244
3.30468
3.28165
3.2624
3.23978
3.22089
3.19879
3.17973
3.15815
3.13857
3.11679
3.09799
3.07584
3.05721
3.03518
3.01675
2.99443
2.97633
2.95306
2.93596
2.91131
2.89497
2.86889
2.85268
2.82625
2.80979
2.78222
2.76134
2.74006
2.71384
2.69458
2.66634
2.64776
2.61785
2.59958
2.56747
2.5509
2.51623
2.50093
2.46433
2.44878
2.41207
2.39604
2.35816
2.3367
2.30671
2.27914
2.253
2.22113
2.19761
2.16242
2.14075
2.10202
2.08364
2.04156
2.02469
1.98084
1.96297
1.91963
1.90121
1.85619
1.8327
1.79686
1.76609
1.73568
1.69958
1.67321
1.63191
1.61101
1.56542
1.54731
1.50041
1.48234
1.43549
1.41677
1.3716
1.35277
1.30857
1.29014
1.24498
1.22376
1.18807
1.16135
1.13231
1.10036
1.07899
1.04228
1.02752
0.989503
0.974787
0.939722
0.925555
0.892681
0.879422
0.848704
0.836373
0.806487
0.792852
0.770611
0.754122
0.737407
0.718473
0.706834
0.686486
0.678396
0.658545
0.651199
0.633209
0.62662
0.610348
0.604405
0.589806
0.584491
0.570972
0.564729
0.555526
0.548031
0.541566
0.533246
0.529139
0.520674
0.517553
0.50983
0.507103
0.500345
0.497985
0.492134
0.490125
0.485147
0.483504
0.479262
0.477364
0.475026
0.4728
0.471819
0.469808
0.469346
0.468032
0.467902
0.467414
0.467675
0.467768
0.469114
0.469529
0.471852
0.472752
0.475946
0.477306
0.481294
0.483077
0.487516
0.490249
0.494829
0.49842
0.503258
0.507765
0.513098
0.518621
0.524409
0.530981
0.537317
0.544667
0.550669
0.556169
0.558669
0.560048
4.07952
4.02174
4.00573
3.97966
3.96141
3.9382
3.91546
3.89131
3.86445
3.83861
3.80849
3.78084
3.74857
3.71965
3.68595
3.65627
3.62176
3.59115
3.55714
3.52493
3.49189
3.4586
3.42618
3.39252
3.35996
3.32611
3.29305
3.2593
3.22551
3.19208
3.15741
3.12407
3.0886
3.05551
3.01939
2.98616
2.94967
2.91465
2.88112
2.84432
2.81217
2.7753
2.74411
2.70712
2.67707
2.63956
2.61148
2.57313
2.54655
2.50735
2.48149
2.44252
2.41681
2.37722
2.34758
2.31533
2.27989
2.25103
2.21289
2.18575
2.14576
2.1197
2.07734
2.0538
2.00881
1.9874
1.94019
1.91967
1.87263
1.85186
1.80411
1.77851
1.73997
1.70801
1.67499
1.63852
1.6097
1.56998
1.54454
1.50155
1.48084
1.43549
1.41704
1.37135
1.35259
1.309
1.29044
1.24696
1.22508
1.19081
1.16415
1.13598
1.10582
1.08276
1.04928
1.03233
0.996872
0.982874
0.948097
0.934852
0.901854
0.888872
0.858679
0.846313
0.818247
0.806761
0.779526
0.766997
0.746307
0.731755
0.715505
0.698769
0.687498
0.668859
0.661494
0.642828
0.635769
0.619203
0.612641
0.597647
0.591698
0.578088
0.572701
0.559789
0.553958
0.544497
0.537882
0.530559
0.52312
0.517994
0.509847
0.506525
0.498452
0.495441
0.48814
0.485433
0.478819
0.476365
0.470385
0.46817
0.462587
0.459993
0.456188
0.453075
0.450314
0.446876
0.445056
0.441512
0.440183
0.436913
0.435764
0.432918
0.431944
0.429543
0.428758
0.426855
0.426292
0.424813
0.424183
0.423738
0.423191
0.423205
0.42307
0.423754
0.424046
0.425561
0.426146
0.428497
0.429516
0.432753
0.434328
0.438491
0.44071
0.445815
0.4487
0.454748
0.458266
0.464946
0.469289
0.476132
0.481174
0.488033
0.493715
0.500445
0.506571
0.513194
0.519568
0.525982
0.532158
0.537589
0.541902
0.544148
0.545246
4.17637
4.11835
4.09831
4.06045
4.03779
4.00463
3.97721
3.94454
3.91283
3.87904
3.84362
3.80821
3.76997
3.73294
3.69278
3.65465
3.61311
3.57352
3.53153
3.49094
3.44857
3.40753
3.36513
3.32346
3.2813
3.23923
3.19696
3.15441
3.11149
3.06824
3.02429
2.97994
2.9346
2.88896
2.84182
2.79451
2.74535
2.69562
2.64671
2.59487
2.5455
2.49307
2.44402
2.39146
2.34376
2.29126
2.24636
2.19401
2.15201
2.10012
2.06039
2.01012
1.97237
1.92274
1.88324
1.84219
1.79841
1.76213
1.7169
1.68356
1.63773
1.60683
1.55989
1.53256
1.48427
1.46019
1.41104
1.38912
1.3415
1.32017
1.27329
1.2496
1.21162
1.18377
1.15208
1.12139
1.09496
1.06243
1.04048
1.00622
0.989629
0.954816
0.940595
0.907123
0.893395
0.8629
0.84998
0.820997
0.806688
0.784386
0.768332
0.750419
0.73303
0.718961
0.700172
0.690374
0.670945
0.663254
0.644755
0.637718
0.620731
0.614061
0.598932
0.592748
0.579016
0.573388
0.560368
0.554404
0.544484
0.537854
0.529954
0.522556
0.516855
0.508649
0.504866
0.496487
0.493174
0.48559
0.482511
0.475626
0.472822
0.466549
0.463996
0.458037
0.455308
0.450808
0.447746
0.444125
0.44076
0.438126
0.434452
0.432654
0.428942
0.427489
0.424042
0.422745
0.419646
0.418493
0.415737
0.414726
0.41223
0.411075
0.409456
0.408065
0.407047
0.405579
0.405037
0.403704
0.4033
0.402289
0.402028
0.401347
0.401232
0.400891
0.40093
0.400886
0.401264
0.401446
0.402014
0.402743
0.403321
0.404587
0.405348
0.407098
0.408056
0.410373
0.411619
0.414656
0.416339
0.420125
0.422344
0.426978
0.429884
0.43541
0.439131
0.445466
0.450056
0.456927
0.462356
0.469466
0.475464
0.482598
0.488923
0.496181
0.50271
0.509857
0.516291
0.522939
0.52872
0.533985
0.537748
0.539878
0.540811
4.19661
4.13751
4.11413
4.06834
4.04242
4.0034
3.97272
3.93563
3.9011
3.86347
3.82543
3.78635
3.74529
3.70436
3.66112
3.61871
3.57379
3.53017
3.48456
3.44045
3.39508
3.35022
3.3057
3.26051
3.21689
3.17194
3.12882
3.08403
3.04112
2.9957
2.95225
2.90527
2.86018
2.8108
2.76293
2.7101
2.65796
2.60109
2.54445
2.48406
2.42235
2.35919
2.29394
2.22869
2.16211
2.09621
2.02995
1.96478
1.90025
1.83699
1.77575
1.71559
1.65844
1.60129
1.54736
1.4968
1.44552
1.39996
1.3519
1.31048
1.26537
1.22792
1.18521
1.15217
1.1114
1.0823
1.04342
1.01769
0.981353
0.958456
0.924219
0.902164
0.874059
0.851688
0.828168
0.805949
0.786387
0.764587
0.748452
0.726953
0.714358
0.693068
0.683486
0.663378
0.65463
0.636771
0.628845
0.612454
0.604367
0.591477
0.583032
0.572428
0.563751
0.555114
0.546101
0.539544
0.530125
0.525323
0.515933
0.512
0.503164
0.499464
0.491531
0.488103
0.480847
0.477703
0.47081
0.467569
0.46204
0.45858
0.453876
0.450169
0.446405
0.442393
0.439451
0.43519
0.432896
0.428663
0.42678
0.422753
0.421018
0.417299
0.4157
0.412144
0.410477
0.407681
0.405912
0.403535
0.401686
0.399794
0.397811
0.396365
0.394282
0.393239
0.391208
0.390388
0.388553
0.387839
0.386243
0.385635
0.384229
0.383571
0.382728
0.381977
0.381541
0.380833
0.380615
0.380109
0.380008
0.379781
0.379808
0.379801
0.380128
0.380293
0.380936
0.381307
0.38227
0.38288
0.384113
0.385303
0.386775
0.388578
0.390354
0.392701
0.394957
0.397891
0.400704
0.404191
0.40752
0.411538
0.415432
0.420065
0.424606
0.42996
0.435222
0.441342
0.447347
0.454191
0.460762
0.468199
0.475252
0.483122
0.490452
0.498393
0.50565
0.513244
0.519932
0.526603
0.532095
0.537081
0.540438
0.542505
0.543328
4.16508
4.10458
4.07772
4.02488
3.99612
3.95212
3.91944
3.87975
3.84436
3.80599
3.76842
3.72994
3.69032
3.65111
3.60949
3.56957
3.52626
3.48549
3.44184
3.40081
3.35825
3.31608
3.27588
3.23427
3.19623
3.15626
3.1204
3.08237
3.04861
3.0113
2.97872
2.94059
2.9074
2.86712
2.83205
2.78838
2.74883
2.70204
2.65334
2.60311
2.5452
2.48957
2.42351
2.36237
2.29002
2.22548
2.14799
2.08175
2.00113
1.93444
1.85365
1.78768
1.70977
1.6462
1.57397
1.51231
1.44898
1.38978
1.33461
1.27967
1.23155
1.18131
1.1395
1.09391
1.05771
1.01623
0.98465
0.947086
0.919382
0.885466
0.860766
0.830042
0.808292
0.780825
0.760831
0.73684
0.718262
0.697422
0.680209
0.662059
0.646202
0.630464
0.615887
0.602226
0.588965
0.577157
0.565155
0.554846
0.543802
0.535268
0.525138
0.517744
0.508708
0.50214
0.494089
0.488157
0.481057
0.475652
0.469378
0.464439
0.458839
0.454387
0.449353
0.445326
0.440747
0.437112
0.432844
0.429454
0.425832
0.422547
0.419307
0.41617
0.413305
0.410301
0.407784
0.404887
0.402676
0.39992
0.397988
0.395357
0.393701
0.39118
0.389782
0.38732
0.386099
0.384022
0.382812
0.381007
0.379846
0.378327
0.377223
0.375975
0.374946
0.37396
0.373029
0.372283
0.371446
0.370939
0.370218
0.36993
0.369393
0.369149
0.368984
0.368834
0.368847
0.368864
0.369135
0.369293
0.369813
0.370143
0.370909
0.371438
0.372451
0.373205
0.374475
0.375487
0.377035
0.37836
0.380163
0.38183
0.383855
0.385867
0.388171
0.390584
0.393331
0.396288
0.399586
0.403295
0.407209
0.411752
0.416361
0.421735
0.427105
0.433312
0.43949
0.446493
0.453503
0.461242
0.468839
0.477179
0.485251
0.493985
0.502311
0.511126
0.519315
0.527687
0.535093
0.542265
0.548071
0.55321
0.556564
0.558647
0.559426
4.1296
4.05605
4.0233
3.96363
3.9302
3.883
3.84766
3.80714
3.77135
3.73427
3.6985
3.66327
3.62749
3.59321
3.55706
3.5233
3.48641
3.45267
3.41616
3.38288
3.34827
3.31464
3.28311
3.25007
3.22158
3.19109
3.16647
3.13952
3.11958
3.09581
3.07995
3.05755
3.0431
3.02005
3.00514
2.98043
2.96222
2.93629
2.90785
2.87924
2.84053
2.80535
2.75686
2.71414
2.65651
2.60804
2.54109
2.48835
2.41341
2.35708
2.27683
2.21687
2.13449
2.07383
1.99824
1.92789
1.86458
1.79084
1.73602
1.66381
1.61644
1.54753
1.50825
1.44104
1.41026
1.34742
1.32034
1.26324
1.23791
1.18581
1.16261
1.11917
1.08963
1.05492
1.02159
0.993642
0.957595
0.934935
0.897325
0.879598
0.841181
0.8254
0.788596
0.773711
0.739633
0.725068
0.69386
0.680334
0.653444
0.638324
0.616312
0.600439
0.583037
0.566772
0.553687
0.53698
0.527762
0.511548
0.504706
0.490152
0.484212
0.47184
0.46653
0.456065
0.451491
0.442529
0.438614
0.431133
0.42732
0.421102
0.417796
0.412492
0.409487
0.405017
0.402211
0.398484
0.39583
0.392731
0.390281
0.387671
0.385422
0.383204
0.381133
0.379245
0.377309
0.375752
0.37399
0.372646
0.37114
0.369941
0.368693
0.367624
0.3666
0.365667
0.364841
0.364092
0.363451
0.36288
0.362422
0.362002
0.361733
0.361502
0.36142
0.361378
0.361449
0.361638
0.361902
0.36231
0.362769
0.363419
0.364085
0.364996
0.365887
0.367086
0.368226
0.369737
0.371153
0.373016
0.374759
0.377036
0.379171
0.381933
0.38456
0.387808
0.390974
0.394655
0.398424
0.402586
0.407062
0.411882
0.417166
0.422784
0.428987
0.435465
0.442635
0.449959
0.458112
0.466265
0.475042
0.483916
0.493177
0.502536
0.512007
0.521493
0.530716
0.539725
0.547944
0.555567
0.561808
0.567096
0.570568
0.572652
0.573398
4.16535
4.06034
4.01769
3.94741
3.90564
3.85264
3.8122
3.76896
3.73104
3.69393
3.65867
3.62592
3.59338
3.56421
3.53388
3.5076
3.47855
3.45379
3.42605
3.40175
3.37713
3.35346
3.33326
3.31138
3.29567
3.27736
3.26626
3.25215
3.24585
3.23712
3.23468
3.22975
3.22935
3.22548
3.22568
3.22119
3.22027
3.21545
3.2066
3.19912
3.18129
3.1667
3.14015
3.11763
3.08175
3.05206
3.00576
2.9698
2.91432
2.87256
2.81024
2.76218
2.69549
2.64364
2.57977
2.51745
2.46091
2.3947
2.34271
2.27677
2.2296
2.1659
2.12476
2.06223
2.02775
1.96767
1.93914
1.8828
1.85703
1.80473
1.78159
1.73803
1.70599
1.67193
1.63412
1.60599
1.56352
1.53905
1.49279
1.47198
1.42134
1.40127
1.3488
1.32814
1.27509
1.25252
1.19915
1.17607
1.12898
1.09425
1.05599
1.01423
0.983217
0.936835
0.913072
0.863764
0.843835
0.796215
0.777591
0.733622
0.716548
0.677169
0.660953
0.626393
0.61208
0.581946
0.569882
0.545048
0.531669
0.512833
0.500051
0.486265
0.473057
0.464087
0.450802
0.445445
0.433653
0.428994
0.419492
0.415683
0.407928
0.404815
0.398481
0.395996
0.391063
0.388478
0.384769
0.382606
0.379762
0.377728
0.375751
0.37375
0.372525
0.370677
0.369892
0.368404
0.36781
0.366721
0.366318
0.365576
0.365339
0.365032
0.364851
0.36485
0.364844
0.365199
0.365323
0.366022
0.366316
0.367349
0.367819
0.369207
0.36986
0.371624
0.372486
0.374639
0.375731
0.378305
0.379798
0.38254
0.3846
0.387616
0.390307
0.393673
0.397082
0.400931
0.405095
0.409533
0.414482
0.419633
0.425469
0.431467
0.438331
0.445284
0.453271
0.461208
0.470368
0.479316
0.489233
0.499087
0.5096
0.520071
0.530872
0.541537
0.552125
0.562281
0.571774
0.580324
0.58748
0.593275
0.597078
0.599311
0.600066
4.31564
4.16942
4.1145
4.03138
3.97833
3.9169
3.86795
3.81995
3.77657
3.73753
3.6995
3.6671
3.6343
3.60794
3.58002
3.55953
3.53577
3.51983
3.50103
3.48557
3.47199
3.45767
3.44882
3.43672
3.43141
3.4244
3.42288
3.4214
3.42371
3.42438
3.433
3.43715
3.45024
3.45568
3.47023
3.47599
3.48967
3.49725
3.50358
3.50765
3.50582
3.50444
3.49485
3.48659
3.46799
3.45267
3.42372
3.40138
3.36321
3.33413
3.28887
3.25249
3.20174
3.15988
3.1093
3.05705
3.00994
2.95385
2.90807
2.8518
2.80858
2.75405
2.71533
2.66205
2.62896
2.57826
2.5508
2.5044
2.48052
2.43873
2.41853
2.38601
2.35971
2.33624
2.30737
2.28905
2.25802
2.24204
2.20877
2.19479
2.15775
2.14405
2.10443
2.08971
2.04795
2.03052
1.98637
1.96662
1.92654
1.89185
1.85699
1.81264
1.77964
1.72803
1.69726
1.63696
1.60888
1.54239
1.51497
1.44528
1.41693
1.34658
1.31604
1.24614
1.21563
1.14714
1.11827
1.05637
1.01747
0.968974
0.923377
0.887253
0.835254
0.810877
0.758999
0.738692
0.692178
0.673252
0.633117
0.616766
0.582343
0.568476
0.53949
0.528294
0.505346
0.492954
0.476339
0.465051
0.453419
0.442125
0.435232
0.42439
0.420438
0.411349
0.408058
0.401154
0.398654
0.393393
0.391631
0.387554
0.38633
0.383672
0.382176
0.380841
0.37962
0.379151
0.378309
0.378208
0.377926
0.37808
0.378137
0.378931
0.379177
0.380506
0.381032
0.382865
0.38367
0.38602
0.387315
0.389847
0.39182
0.3946
0.397288
0.400373
0.403878
0.407404
0.411773
0.415907
0.421192
0.426086
0.432389
0.43817
0.445648
0.452462
0.461263
0.469199
0.479442
0.488608
0.499837
0.510153
0.522195
0.533326
0.545811
0.557303
0.569656
0.580817
0.591987
0.601647
0.609973
0.616773
0.620804
0.623434
0.624226
4.56953
4.40004
4.33591
4.23665
4.17175
4.09967
4.04037
3.98562
3.93494
3.8925
3.84997
3.81652
3.78121
3.75571
3.72709
3.70981
3.68825
3.67817
3.66489
3.65531
3.64909
3.64165
3.63996
3.6375
3.63855
3.63868
3.64418
3.64771
3.65817
3.66347
3.6786
3.68641
3.70544
3.7148
3.73528
3.74499
3.76416
3.77568
3.78713
3.79909
3.80358
3.80655
3.80449
3.80245
3.79307
3.78487
3.76637
3.75153
3.72467
3.70319
3.66973
3.64123
3.60224
3.56797
3.52745
3.48392
3.44403
3.39667
3.35606
3.30803
3.26816
3.22121
3.18424
3.13858
3.10605
3.06317
3.03554
2.99702
2.97327
2.93971
2.92037
2.89531
2.87371
2.85692
2.83648
2.82532
2.8059
2.79779
2.7786
2.77194
2.75151
2.74514
2.72372
2.717
2.69472
2.68639
2.66255
2.6532
2.63267
2.61252
2.59513
2.56862
2.55156
2.5201
2.50331
2.46525
2.44862
2.4051
2.38757
2.33911
2.31995
2.26827
2.24446
2.1899
2.16223
2.10398
2.07447
2.01808
1.97152
1.92234
1.86412
1.82015
1.75038
1.71154
1.63293
1.59812
1.51558
1.47928
1.39646
1.36012
1.27826
1.24265
1.16387
1.13093
1.06092
1.01736
0.963081
0.912849
0.87313
0.816903
0.790972
0.736094
0.715074
0.667259
0.64825
0.608398
0.592587
0.559671
0.547317
0.519921
0.510354
0.490259
0.479428
0.466163
0.456751
0.448221
0.439549
0.435209
0.427701
0.42532
0.419788
0.418317
0.414712
0.413952
0.411977
0.411826
0.411208
0.411595
0.412241
0.412957
0.414844
0.41584
0.418884
0.420165
0.4243
0.426124
0.431295
0.433707
0.439974
0.443178
0.450571
0.454782
0.463459
0.468874
0.479025
0.485817
0.497645
0.506117
0.519052
0.52929
0.543172
0.554859
0.569233
0.581923
0.59607
0.609128
0.621839
0.633979
0.643221
0.652375
0.656695
0.660108
0.66106
4.78696
4.63397
4.57255
4.47341
4.40403
4.32992
4.26695
4.20934
4.15651
4.11229
4.06948
4.03583
4.00128
3.97611
3.94839
3.93184
3.91238
3.90441
3.89443
3.88836
3.88746
3.88584
3.88832
3.88951
3.89686
3.90172
3.9128
3.91996
3.9343
3.94232
3.95939
3.96821
3.98725
3.99638
4.01584
4.02437
4.04147
4.05064
4.05917
4.06824
4.07085
4.07259
4.06998
4.06693
4.05791
4.0496
4.03341
4.01949
3.9966
3.97696
3.9486
3.92312
3.89014
3.85967
3.82463
3.78678
3.75093
3.70945
3.67198
3.62931
3.59151
3.54918
3.51292
3.47158
3.43832
3.39958
3.37013
3.3355
3.30977
3.28
3.25876
3.23629
3.21593
3.20051
3.18379
3.1744
3.16165
3.15659
3.14688
3.14398
3.13543
3.13365
3.12567
3.12431
3.11686
3.11514
3.10785
3.10616
3.10085
3.09412
3.09025
3.08038
3.07664
3.06407
3.06008
3.04425
3.03947
3.02091
3.01497
2.9936
2.98646
2.96294
2.95325
2.9275
2.91559
2.8871
2.8744
2.84748
2.82333
2.8008
2.76942
2.74879
2.71001
2.6905
2.64548
2.62561
2.57632
2.55214
2.4991
2.47069
2.41271
2.38003
2.31616
2.28071
2.21763
2.16175
2.10605
2.03577
1.98504
1.90012
1.85454
1.75825
1.71724
1.61637
1.57233
1.47207
1.42828
1.33095
1.29031
1.19525
1.15739
1.07494
1.02614
0.963527
0.908285
0.863381
0.805295
0.776038
0.72152
0.700044
0.653996
0.636869
0.600046
0.586778
0.558181
0.548254
0.526779
0.519695
0.5059
0.498031
0.490632
0.484734
0.48164
0.477378
0.476667
0.474784
0.475193
0.475078
0.47794
0.478821
0.483889
0.485973
0.493082
0.496237
0.505364
0.509872
0.521122
0.527947
0.540183
0.549935
0.563199
0.575665
0.589598
0.604386
0.618317
0.634645
0.647579
0.663744
0.673599
0.685721
0.691234
0.695397
0.696593
4.71279
4.65576
4.59324
4.52482
4.46631
4.40747
4.3574
4.30967
4.26864
4.23257
4.20107
4.17577
4.15239
4.13511
4.1177
4.10755
4.09885
4.09665
4.09608
4.09622
4.10044
4.1048
4.11452
4.1223
4.13573
4.14665
4.16307
4.17566
4.19361
4.20546
4.22379
4.23422
4.25168
4.26007
4.27527
4.28124
4.29132
4.29567
4.29627
4.29677
4.29292
4.28875
4.27919
4.26981
4.25501
4.24106
4.22094
4.20252
4.17753
4.15471
4.12578
4.09868
4.06652
4.03578
4.00192
3.96638
3.9315
3.89313
3.85674
3.81713
3.78006
3.7403
3.70382
3.66462
3.62993
3.59266
3.56069
3.52664
3.49787
3.46799
3.44325
3.41922
3.39739
3.37933
3.36183
3.34946
3.33724
3.3302
3.32265
3.31965
3.31596
3.31529
3.31395
3.31448
3.31412
3.31589
3.3163
3.31983
3.32209
3.32437
3.32804
3.32953
3.33333
3.33429
3.33765
3.33766
3.34049
3.34001
3.34192
3.34073
3.34184
3.33989
3.3403
3.33702
3.33693
3.33211
3.3318
3.32702
3.32209
3.31925
3.31134
3.30949
3.2989
3.29676
3.28418
3.28141
3.26717
3.26266
3.24641
3.24085
3.22192
3.21503
3.19332
3.18619
3.16591
3.14693
3.13104
3.10419
3.08984
3.05423
3.04033
2.99643
2.98074
2.93041
2.90732
2.85064
2.81913
2.75394
2.71511
2.63599
2.59189
2.51328
2.43956
2.36815
2.27386
2.20567
2.09352
2.02893
1.90485
1.84488
1.71496
1.65933
1.53204
1.47923
1.35849
1.30842
1.19647
1.1506
1.05769
1.00432
0.937344
0.881621
0.836996
0.783386
0.757728
0.711885
0.694988
0.660448
0.648998
0.62553
0.618542
0.604314
0.600907
0.594096
0.593443
0.59098
0.591979
0.594078
0.596967
0.603702
0.608778
0.620183
0.627333
0.642918
0.652695
0.671269
0.683351
0.70299
0.71505
0.730783
0.738221
0.743521
0.74507
4.13475
4.24396
4.2399
4.19151
4.17271
4.13491
4.11819
4.09029
4.07812
4.06043
4.05417
4.04816
4.04803
4.0479
4.05341
4.06024
4.07211
4.08463
4.10164
4.11992
4.13947
4.16001
4.1819
4.20449
4.22885
4.25271
4.27862
4.30245
4.32814
4.34921
4.37248
4.38927
4.40838
4.41987
4.43371
4.44005
4.44351
4.44329
4.43957
4.43344
4.42249
4.41011
4.39306
4.37532
4.3533
4.33129
4.30507
4.27955
4.24986
4.22121
4.18879
4.15736
4.12288
4.08908
4.05363
4.0178
3.98174
3.94439
3.90764
3.86957
3.83245
3.79425
3.75741
3.71959
3.68374
3.64717
3.61306
3.57867
3.54694
3.51553
3.48683
3.45969
3.43473
3.41228
3.39168
3.37423
3.35863
3.3464
3.33585
3.32868
3.32295
3.31986
3.31869
3.31816
3.31854
3.32001
3.32222
3.3257
3.32997
3.33516
3.34106
3.34721
3.35409
3.36083
3.3685
3.37549
3.38366
3.39058
3.39909
3.40592
3.41464
3.42155
3.43034
3.43719
3.44588
3.45236
3.46109
3.46807
3.47583
3.48379
3.4909
3.50001
3.50618
3.51632
3.52176
3.53262
3.53796
3.5489
3.5545
3.56561
3.57112
3.58228
3.5874
3.59931
3.60559
3.6136
3.62231
3.62784
3.63808
3.641
3.65105
3.65287
3.66189
3.66297
3.66941
3.66931
3.67302
3.6711
3.67344
3.66721
3.66893
3.66408
3.65342
3.65064
3.63148
3.62726
3.59699
3.58879
3.54573
3.53044
3.47087
3.44412
3.3656
3.32126
3.22271
3.16403
3.04416
2.97156
2.84978
2.7283
2.61623
2.46348
2.35333
2.18477
2.08182
1.90609
1.82004
1.64154
1.5634
1.39693
1.32606
1.18477
1.12599
1.01732
0.973408
0.899785
0.870947
0.821288
0.794131
0.766899
0.744178
0.73397
0.719912
0.71652
0.713953
0.719892
0.726906
0.741855
0.755674
0.773649
0.785843
0.792487
0.794654
2.98398
3.28515
3.32536
3.32849
3.35412
3.35705
3.38381
3.39151
3.42298
3.43537
3.47256
3.49042
3.53277
3.55549
3.60325
3.63191
3.68379
3.71659
3.76345
3.81066
3.85144
3.90263
3.94159
3.992
4.0323
4.08041
4.12086
4.16579
4.20437
4.24438
4.27819
4.31071
4.33763
4.36089
4.37914
4.39339
4.40021
4.40109
4.39913
4.39124
4.37992
4.36408
4.34464
4.322
4.29651
4.26875
4.23918
4.20772
4.17525
4.14129
4.10674
4.07115
4.03504
3.99784
3.96021
3.92446
3.88597
3.85014
3.81202
3.77616
3.73847
3.70284
3.66554
3.63066
3.59398
3.55999
3.52447
3.49166
3.45807
3.42692
3.39529
3.36567
3.33897
3.31214
3.28933