/*--------------------------------*- C++ -*----------------------------------*\
| =========                 |                                                 |
| \\      /  F ield         | OpenFOAM: The Open Source CFD Toolbox           |
|  \\    /   O peration     | Version:  4.1                                   |
|   \\  /    A nd           | Web:      www.OpenFOAM.org                      |
|    \\/     M anipulation  |                                                 |
\*---------------------------------------------------------------------------*/
FoamFile
{
    version     2.0;
    format      ascii;
    class       volScalarField;
    location    "14";
    object      p;
}
// * * * * * * * * * * * * * * * * * * * * * * * * * * * * * * * * * * * * * //

dimensions      [0 2 -2 0 0 0 0];

internalField   nonuniform List<scalar> 
204246
(
10.5219
-8.62252
-9.53788
-9.42844
-10.0473
-10.25
-10.8869
-11.1747
-11.5134
-11.8135
-12.1333
-12.3785
-12.5975
-12.676
-12.7492
-12.7213
-13.8685
-14.3463
-14.1076
-14.5686
-14.5372
-14.6575
-14.7431
-14.8768
-14.9755
-15.1228
-15.2307
-15.3679
-15.4148
-15.4981
-15.4696
-15.4504
-15.3349
-15.3415
-15.472
-16.1699
-16.4979
-16.0249
-16.436
-16.3159
-16.2896
-16.2619
-16.3081
-16.3331
-16.4052
-16.4041
-16.4642
-16.4477
-16.4749
-16.3946
-16.3186
-16.1926
-17.1088
-17.4846
-17.041
-17.5024
-17.4265
-17.4494
-17.4756
-17.5814
-17.6661
-17.794
-17.8414
-17.9523
-17.983
-18.0616
-18.0267
-17.9917
-17.8988
-18.834
-19.3277
-19.047
-19.3746
-19.3152
-19.353
-19.3535
-19.3758
-19.3008
-19.8952
-19.805
-19.8548
-19.8545
-19.9185
-19.8645
-19.8063
-19.6752
-20.6438
-21.1329
-20.8209
-21.1403
-21.0274
-20.9777
-20.863
-21.4907
-21.4583
-21.5539
-21.5451
-21.5133
-21.2339
-21.8873
-21.8227
-21.8029
-21.7214
-21.6858
-21.6181
-22.6961
-23.0723
-22.8543
-23.0457
-22.7833
-23.3966
-23.342
-23.4595
-23.5105
-23.5583
-23.3932
-23.9368
-23.5951
-24.1642
-24.0271
-23.9586
-23.806
-24.9608
-25.4406
-25.2162
-25.5965
-25.2495
-25.9207
-25.9785
-26.0411
-25.889
-26.5424
-26.2919
-26.9365
-26.6519
-27.2792
-26.894
-27.3769
-27.0862
-28.3515
-28.9462
-28.8334
-29.329
-29.0259
-29.6831
-29.4215
-30.1428
-29.8433
-30.532
-30.2389
-30.974
-31.0364
-31.1406
-31.0441
-30.9075
-30.565
-31.7876
-32.0745
-31.4586
-31.5953
-30.9606
-30.4081
-29.662
-28.8664
-27.765
-26.5052
-24.8386
-22.933
-20.5653
-17.9359
-14.8886
-11.6489
-7.03305
-2.39153
3.00014
8.8758
15.6977
23.6171
32.2119
42.0146
53.0043
65.6485
80.0049
96.5477
115.243
136.357
159.769
186.047
216.137
255.624
315.612
411.24
539.853
2.43068
-1.53282
-5.0668
-7.34142
-8.82682
-9.74145
-10.3777
-10.8543
-11.2614
-11.6216
-11.9411
-12.2071
-12.415
-12.5656
-12.7229
-12.9548
-13.3471
-13.7219
-13.9807
-14.2086
-14.3839
-14.5284
-14.656
-14.779
-14.9012
-15.0287
-15.1576
-15.2834
-15.3887
-15.4678
-15.4881
-15.4614
-15.4115
-15.4356
-15.5866
-15.8357
-16.0252
-16.1148
-16.1989
-16.2355
-16.2471
-16.2576
-16.2801
-16.3146
-16.3572
-16.3993
-16.4382
-16.4549
-16.4449
-16.4022
-16.3861
-16.4671
-16.7046
-16.9313
-17.0643
-17.1922
-17.2826
-17.3526
-17.4216
-17.5033
-17.5979
-17.7017
-17.803
-17.8962
-17.9647
-18.0022
-18.0052
-18.0364
-18.1639
-18.4481
-18.742
-18.9399
-19.0944
-19.1916
-19.2513
-19.2941
-19.3487
-19.4477
-19.608
-19.7318
-19.8137
-19.8644
-19.8786
-19.8615
-19.8724
-19.9891
-20.2709
-20.5558
-20.7272
-20.8425
-20.8983
-20.9412
-21.0288
-21.1911
-21.3329
-21.4239
-21.4704
-21.4866
-21.5291
-21.6675
-21.7556
-21.7635
-21.7482
-21.7737
-21.9188
-22.232
-22.5186
-22.6822
-22.8099
-22.928
-23.0925
-23.2335
-23.3393
-23.4272
-23.4909
-23.5761
-23.7156
-23.8182
-23.9388
-23.9756
-24.0064
-24.1615
-24.5084
-24.8565
-25.0858
-25.2738
-25.4278
-25.6297
-25.8133
-25.9323
-26.0717
-26.2597
-26.4517
-26.6684
-26.8705
-27.0512
-27.1656
-27.2761
-27.4989
-27.9263
-28.3768
-28.7231
-29.0225
-29.2651
-29.4837
-29.7381
-29.9627
-30.2234
-30.4288
-30.7124
-30.972
-31.3024
-31.4575
-31.6422
-31.5674
-31.7638
-31.9681
-32.1748
-32.2502
-32.2137
-32.1295
-31.7158
-31.3929
-30.7438
-30.053
-29.0527
-27.8293
-26.2884
-24.4625
-22.3378
-19.8277
-16.9369
-13.4381
-9.47899
-4.88427
0.235434
6.22011
13.0534
20.6294
29.1561
38.5888
49.2625
61.2409
74.977
90.5193
108.138
127.448
148.218
170.072
195.101
231.006
296.451
393.224
-5.97794
-5.26928
-6.08145
-7.24439
-8.39241
-9.32644
-10.0667
-10.631
-11.101
-11.492
-11.8349
-12.1193
-12.3575
-12.5667
-12.7815
-13.0374
-13.3032
-13.5669
-13.8271
-14.0526
-14.252
-14.4252
-14.5784
-14.7108
-14.8402
-14.9639
-15.0907
-15.2155
-15.3373
-15.4294
-15.4877
-15.4979
-15.5076
-15.5547
-15.6636
-15.7855
-15.9007
-16.014
-16.1007
-16.1588
-16.1961
-16.2241
-16.2511
-16.2852
-16.3243
-16.3731
-16.4144
-16.4474
-16.4516
-16.4556
-16.4852
-16.5803
-16.6933
-16.8184
-16.9577
-17.0782
-17.1798
-17.269
-17.3546
-17.4405
-17.535
-17.6361
-17.747
-17.8471
-17.9377
-17.9937
-18.0486
-18.1231
-18.2621
-18.4263
-18.6028
-18.7862
-18.9445
-19.0722
-19.1608
-19.2381
-19.3156
-19.4211
-19.5297
-19.6506
-19.7555
-19.8405
-19.8783
-19.9123
-19.9694
-20.1006
-20.2555
-20.4182
-20.577
-20.6995
-20.7973
-20.8829
-20.9891
-21.0965
-21.2164
-21.3116
-21.3888
-21.442
-21.5423
-21.6246
-21.7142
-21.7541
-21.796
-21.8729
-22.0231
-22.1829
-22.3445
-22.5069
-22.6605
-22.814
-22.9486
-23.0883
-23.2034
-23.3218
-23.3974
-23.5116
-23.6266
-23.7591
-23.8655
-23.9532
-24.0476
-24.2241
-24.4177
-24.6273
-24.8465
-25.0533
-25.2515
-25.4299
-25.6036
-25.7536
-25.9144
-26.0717
-26.2508
-26.4481
-26.6537
-26.8358
-27.0043
-27.1801
-27.4176
-27.7132
-28.0315
-28.3356
-28.6219
-28.8538
-29.101
-29.3324
-29.5793
-29.8055
-30.0475
-30.276
-30.534
-30.7383
-30.9411
-31.034
-31.1692
-31.2994
-31.5276
-31.6525
-31.6445
-31.5572
-31.329
-31.0134
-30.5557
-29.9763
-29.2049
-28.2099
-26.9565
-25.3878
-23.572
-21.3868
-18.8993
-15.9543
-12.643
-8.79701
-4.40508
0.681931
6.49821
13.0355
20.4612
28.7845
38.1209
48.5156
60.2035
73.3749
88.3864
105.328
124.134
144.171
165.121
187.571
216.255
259.414
316.62
-9.35525
-7.55694
-7.41259
-7.84693
-8.51968
-9.2276
-9.89188
-10.4548
-10.9381
-11.3471
-11.7001
-12.0019
-12.2604
-12.4989
-12.734
-12.9823
-13.2245
-13.4654
-13.7034
-13.928
-14.1367
-14.3227
-14.4949
-14.6386
-14.7801
-14.9063
-15.036
-15.1557
-15.2781
-15.373
-15.4523
-15.4939
-15.5455
-15.6016
-15.6938
-15.7692
-15.8574
-15.9481
-16.0308
-16.102
-16.1427
-16.1837
-16.2119
-16.249
-16.2824
-16.3303
-16.3608
-16.4107
-16.412
-16.446
-16.489
-16.5672
-16.6554
-16.7575
-16.8712
-16.9837
-17.0944
-17.1835
-17.2797
-17.3672
-17.4664
-17.5619
-17.6728
-17.7693
-17.8713
-17.9326
-18.0274
-18.1195
-18.2511
-18.3842
-18.5317
-18.6855
-18.8342
-18.9718
-19.0746
-19.1781
-19.2668
-19.3722
-19.4605
-19.5877
-19.6704
-19.7856
-19.8274
-19.9091
-19.9808
-20.1086
-20.2268
-20.359
-20.4917
-20.6085
-20.7326
-20.8152
-20.9389
-21.0238
-21.1516
-21.2206
-21.3311
-21.3801
-21.4995
-21.5622
-21.6762
-21.7193
-21.8018
-21.8837
-22.0368
-22.1485
-22.2978
-22.4419
-22.5729
-22.7388
-22.8511
-23.01
-23.1075
-23.2592
-23.3299
-23.4719
-23.5659
-23.7103
-23.8062
-23.9341
-24.0414
-24.2389
-24.3835
-24.5691
-24.7657
-24.9401
-25.1647
-25.3304
-25.539
-25.6798
-25.8819
-26.022
-26.2342
-26.3949
-26.6231
-26.7825
-26.9972
-27.1675
-27.4551
-27.6838
-27.9612
-28.2568
-28.5302
-28.849
-29.0786
-29.3788
-29.5961
-29.8939
-30.1078
-30.4418
-30.6618
-30.9833
-31.1626
-31.4183
-31.5684
-31.8432
-31.9918
-32.1809
-32.3325
-32.3847
-32.365
-32.227
-32.0291
-31.7085
-31.2826
-30.7136
-29.9026
-28.857
-27.4322
-25.6805
-23.5271
-21.0011
-18.0394
-14.6394
-10.7138
-6.2226
-1.02346
4.89468
11.5806
19.1272
27.5621
36.9999
47.5098
59.2669
72.3589
86.8934
102.843
120.245
139.287
161.091
188.378
223.139
261.542
-10.7005
-8.94549
-8.57214
-8.64118
-8.98121
-9.4384
-9.94024
-10.4253
-10.8717
-11.2719
-11.6179
-11.928
-12.1966
-12.4532
-12.691
-12.9366
-13.1606
-13.3919
-13.6181
-13.8373
-14.0497
-14.2385
-14.4224
-14.575
-14.7282
-14.8607
-14.9973
-15.1169
-15.2425
-15.3371
-15.4352
-15.49
-15.5683
-15.6209
-15.716
-15.7703
-15.8443
-15.9188
-15.988
-16.0754
-16.1074
-16.1647
-16.1854
-16.2352
-16.2547
-16.3141
-16.3305
-16.3947
-16.3952
-16.4533
-16.4836
-16.5668
-16.6258
-16.7226
-16.82
-16.9094
-17.0368
-17.1157
-17.2274
-17.3066
-17.4185
-17.5026
-17.6312
-17.7107
-17.8354
-17.8953
-18.0127
-18.0998
-18.2375
-18.3439
-18.4854
-18.627
-18.7556
-18.9047
-19.0026
-19.1299
-19.216
-19.3349
-19.4173
-19.5524
-19.6284
-19.7503
-19.7993
-19.9004
-19.9709
-20.0975
-20.196
-20.3198
-20.4432
-20.5441
-20.6757
-20.76
-20.8869
-20.9707
-21.1027
-21.1676
-21.2899
-21.3423
-21.4648
-21.5218
-21.6405
-21.6927
-21.7934
-21.8673
-22.0048
-22.1097
-22.2517
-22.3844
-22.5049
-22.6616
-22.7773
-22.9373
-23.0299
-23.1886
-23.2657
-23.4158
-23.5112
-23.6564
-23.7554
-23.8948
-24.003
-24.182
-24.3255
-24.5036
-24.6771
-24.85
-25.0596
-25.2152
-25.4267
-25.5746
-25.7816
-25.9294
-26.1437
-26.304
-26.5304
-26.6909
-26.9057
-27.0941
-27.3587
-27.5753
-27.8429
-28.1065
-28.3784
-28.6656
-28.9084
-29.1839
-29.4316
-29.6941
-29.9492
-30.2155
-30.4773
-30.7167
-30.9462
-31.1277
-31.3302
-31.5126
-31.7272
-31.9025
-31.9978
-32.0239
-31.9534
-31.7796
-31.4773
-31.019
-30.4387
-29.6934
-28.8567
-27.8156
-26.595
-25.0807
-23.2682
-21.079
-18.4986
-15.4611
-11.9398
-7.86431
-3.17378
2.14909
8.22188
15.1209
22.9362
31.7325
41.5544
52.3885
64.1763
76.8035
90.2436
104.599
120.476
139.233
162.604
190.627
218.595
-11.3917
-9.80173
-9.43003
-9.36513
-9.50828
-9.7846
-10.1327
-10.5172
-10.8935
-11.2584
-11.5827
-11.8879
-12.1572
-12.4208
-12.6577
-12.9007
-13.1131
-13.3362
-13.5549
-13.77
-13.9832
-14.1705
-14.3607
-14.5187
-14.6803
-14.8189
-14.963
-15.0866
-15.2197
-15.3128
-15.4276
-15.4858
-15.5802
-15.6318
-15.7263
-15.7751
-15.8421
-15.9104
-15.9645
-16.0481
-16.0832
-16.1429
-16.1644
-16.2167
-16.2351
-16.2973
-16.3093
-16.3742
-16.379
-16.4451
-16.4698
-16.5523
-16.6036
-16.6931
-16.7804
-16.8528
-16.9782
-17.056
-17.1728
-17.2511
-17.3683
-17.4509
-17.5815
-17.6624
-17.792
-17.8606
-17.9858
-18.0734
-18.2098
-18.3104
-18.4441
-18.582
-18.6969
-18.8439
-18.9461
-19.0791
-19.169
-19.2928
-19.3791
-19.5126
-19.5908
-19.7162
-19.7753
-19.8858
-19.9564
-20.0788
-20.1715
-20.2909
-20.4033
-20.4996
-20.6251
-20.7126
-20.8346
-20.9225
-21.0505
-21.1197
-21.243
-21.3055
-21.427
-21.4877
-21.6057
-21.6715
-21.7722
-21.8591
-21.9741
-22.0843
-22.2145
-22.3357
-22.4572
-22.5873
-22.7147
-22.8634
-22.9625
-23.1167
-23.2058
-23.3461
-23.4628
-23.5946
-23.7108
-23.842
-23.9659
-24.1184
-24.2684
-24.4373
-24.6003
-24.77
-24.9553
-25.1137
-25.3156
-25.4715
-25.6726
-25.8297
-26.0386
-26.2042
-26.424
-26.5913
-26.8155
-27.0009
-27.2579
-27.4641
-27.7233
-27.9819
-28.2458
-28.5408
-28.7891
-29.0896
-29.3347
-29.6402
-29.8885
-30.21
-30.466
-30.7952
-31.0282
-31.3674
-31.5939
-31.9279
-32.0763
-32.3175
-32.6409
-32.7784
-32.9473
-32.9965
-33.0332
-33.0626
-32.9204
-32.6208
-32.055
-31.2611
-30.1897
-28.8488
-27.1934
-25.2151
-22.8648
-20.1229
-16.9358
-13.2724
-9.04085
-4.22434
1.26312
7.53498
14.6744
22.7721
31.8389
41.8541
52.6979
64.2445
76.4402
89.3488
103.453
119.94
139.607
162.31
183.843
-11.7904
-10.3584
-10.0416
-9.95022
-9.99413
-10.1595
-10.391
-10.6852
-10.9845
-11.3011
-11.5911
-11.8799
-12.1396
-12.4019
-12.6347
-12.8757
-13.0792
-13.2955
-13.5074
-13.7194
-13.9328
-14.116
-14.3115
-14.4714
-14.6392
-14.7825
-14.9341
-15.0597
-15.2023
-15.2958
-15.4173
-15.4868
-15.5854
-15.6443
-15.7359
-15.7837
-15.8477
-15.9161
-15.9597
-16.0358
-16.0687
-16.1277
-16.1509
-16.2026
-16.2225
-16.2835
-16.2956
-16.3579
-16.3669
-16.4321
-16.4568
-16.5352
-16.5859
-16.6685
-16.7507
-16.8154
-16.9327
-17.007
-17.1241
-17.2024
-17.3212
-17.4053
-17.5373
-17.6182
-17.7503
-17.8256
-17.955
-18.0433
-18.1796
-18.2809
-18.4107
-18.5388
-18.653
-18.7946
-18.9003
-19.0331
-19.1285
-19.2529
-19.345
-19.4779
-19.5581
-19.686
-19.7528
-19.8601
-19.947
-20.0571
-20.1561
-20.2675
-20.3727
-20.4746
-20.5835
-20.6806
-20.7901
-20.8888
-21.009
-21.0832
-21.2067
-21.2759
-21.3984
-21.4647
-21.574
-21.6578
-21.7564
-21.8462
-21.9566
-22.0614
-22.1844
-22.3033
-22.4194
-22.542
-22.6634
-22.8131
-22.9145
-23.066
-23.1622
-23.314
-23.4164
-23.552
-23.6684
-23.8047
-23.928
-24.0914
-24.2153
-24.3758
-24.5349
-24.6996
-24.8849
-25.0372
-25.2301
-25.388
-25.5818
-25.744
-25.9418
-26.1135
-26.3133
-26.4943
-26.6991
-26.8991
-27.1225
-27.3438
-27.5879
-27.8313
-28.0836
-28.3438
-28.5975
-28.8614
-29.1237
-29.3875
-29.6593
-29.9263
-30.2041
-30.4654
-30.7349
-30.9719
-31.2199
-31.4225
-31.6863
-31.9216
-32.0982
-32.22
-32.2598
-32.2134
-32.0664
-31.8279
-31.5671
-31.2258
-30.8625
-30.3577
-29.6885
-28.7733
-27.5818
-26.0613
-24.1856
-21.9149
-19.2243
-16.0777
-12.4223
-8.25006
-3.46596
2.0186
8.29035
15.4192
23.4197
32.2692
41.8908
52.1975
63.1362
74.7842
87.5259
102.146
118.974
137.75
154.983
-12.0588
-10.7386
-10.4799
-10.3945
-10.4014
-10.5041
-10.66
-10.8835
-11.1165
-11.3861
-11.636
-11.9021
-12.1428
-12.3985
-12.622
-12.8631
-13.0566
-13.2675
-13.4722
-13.6808
-13.8953
-14.07
-14.2718
-14.4319
-14.6061
-14.7515
-14.9096
-15.0362
-15.1833
-15.2836
-15.4086
-15.4872
-15.5915
-15.6545
-15.7479
-15.795
-15.8597
-15.9235
-15.963
-16.0366
-16.0648
-16.1223
-16.1448
-16.195
-16.215
-16.2739
-16.2861
-16.3461
-16.3572
-16.4206
-16.4459
-16.5161
-16.5718
-16.6469
-16.717
-16.785
-16.8944
-16.9674
-17.0804
-17.1598
-17.2765
-17.3632
-17.494
-17.5774
-17.7093
-17.7903
-17.9208
-18.0115
-18.1465
-18.2508
-18.3776
-18.4988
-18.6177
-18.7472
-18.8621
-18.9867
-19.0934
-19.2101
-19.3148
-19.4399
-19.5243
-19.651
-19.7244
-19.8326
-19.9257
-20.033
-20.133
-20.2398
-20.3415
-20.4417
-20.5459
-20.6425
-20.749
-20.8483
-20.9639
-21.04
-21.1593
-21.2337
-21.3513
-21.422
-21.5347
-21.6139
-21.7158
-21.8096
-21.9196
-22.0156
-22.1364
-22.2497
-22.3638
-22.486
-22.5957
-22.7385
-22.842
-22.9857
-23.0876
-23.229
-23.3387
-23.4776
-23.5938
-23.7348
-23.856
-24.0062
-24.1341
-24.2931
-24.4488
-24.6078
-24.7847
-24.9398
-25.1267
-25.2862
-25.4813
-25.6434
-25.8454
-26.0161
-26.2272
-26.4029
-26.6252
-26.8189
-27.0534
-27.2525
-27.4851
-27.7367
-27.995
-28.2706
-28.5303
-28.816
-29.0834
-29.3805
-29.6579
-29.9676
-30.2561
-30.5778
-30.8763
-31.2071
-31.5062
-31.8299
-32.0987
-32.4027
-32.7213
-33.0258
-33.3204
-33.5682
-33.778
-33.9145
-33.9169
-33.7877
-33.4745
-33.0038
-32.3436
-31.4923
-30.4035
-29.0539
-27.39
-25.3834
-22.9898
-20.1841
-16.9049
-13.1424
-8.81731
-3.85916
1.78173
8.14703
15.2462
23.0742
31.5846
40.7308
50.5062
61.0071
72.5446
85.5752
100.225
116.152
130.407
-12.2173
-10.9974
-10.7917
-10.7229
-10.7225
-10.794
-10.9072
-11.079
-11.2638
-11.4927
-11.7051
-11.9472
-12.1634
-12.4088
-12.6174
-12.8588
-13.0422
-13.2491
-13.4495
-13.6483
-13.8647
-14.0328
-14.2352
-14.3979
-14.5773
-14.7239
-14.8854
-15.0156
-15.1666
-15.2728
-15.4026
-15.4877
-15.5983
-15.6652
-15.7613
-15.8115
-15.8777
-15.9363
-15.9762
-16.0482
-16.072
-16.1289
-16.1489
-16.1982
-16.2164
-16.2731
-16.2843
-16.3419
-16.3533
-16.414
-16.4386
-16.5074
-16.5554
-16.6282
-16.6944
-16.7573
-16.8638
-16.9341
-17.0426
-17.1222
-17.2361
-17.3242
-17.4526
-17.5387
-17.6693
-17.7549
-17.8852
-17.9791
-18.1122
-18.2171
-18.3409
-18.4602
-18.5796
-18.7109
-18.8195
-18.9497
-19.0523
-19.1756
-19.2768
-19.4049
-19.4917
-19.6159
-19.6938
-19.8082
-19.8942
-20.0082
-20.101
-20.2059
-20.3053
-20.4037
-20.5162
-20.6027
-20.7149
-20.805
-20.9213
-21.0003
-21.1153
-21.1937
-21.307
-21.3829
-21.494
-21.574
-21.6807
-21.768
-21.8803
-21.9702
-22.0868
-22.2005
-22.3075
-22.4311
-22.5388
-22.672
-22.7791
-22.9149
-23.0222
-23.1574
-23.271
-23.4032
-23.5227
-23.6591
-23.7835
-23.9228
-24.0513
-24.2059
-24.3591
-24.5128
-24.6775
-24.8285
-25.001
-25.1575
-25.3293
-25.5021
-25.6857
-25.8644
-26.0531
-26.2379
-26.4361
-26.6328
-26.8407
-27.0591
-27.2913
-27.523
-27.7651
-28.0091
-28.2635
-28.5186
-28.7851
-29.0518
-29.3296
-29.6057
-29.8922
-30.1732
-30.4646
-30.7473
-31.0459
-31.339
-31.6533
-31.934
-32.1633
-32.3666
-32.5297
-32.6945
-32.8102
-32.8849
-32.9405
-32.9384
-32.943
-32.8498
-32.632
-32.226
-31.6035
-30.7198
-29.5396
-28.0224
-26.1324
-23.833
-21.0647
-17.8118
-14.0182
-9.63394
-4.63124
1.01215
7.29195
14.1998
21.7121
29.8199
38.5428
47.9993
58.4256
70.09
83.0268
96.8439
108.989
-12.261
-11.1604
-11.0037
-10.9568
-10.9625
-11.0231
-11.1145
-11.2525
-11.4067
-11.5996
-11.7851
-12.0011
-12.1963
-12.4251
-12.6211
-12.8535
-13.0339
-13.236
-13.4339
-13.6225
-13.8337
-14.003
-14.2004
-14.3649
-14.5455
-14.6946
-14.858
-14.9927
-15.1485
-15.2579
-15.3934
-15.4835
-15.6006
-15.6719
-15.7713
-15.8284
-15.8986
-15.9554
-15.9976
-16.0683
-16.0913
-16.1486
-16.166
-16.2155
-16.2309
-16.2864
-16.2956
-16.3507
-16.3611
-16.4186
-16.4427
-16.5062
-16.547
-16.6149
-16.6843
-16.7403
-16.8386
-16.9083
-17.011
-17.0914
-17.2004
-17.2883
-17.4123
-17.5007
-17.6284
-17.7174
-17.847
-17.9445
-18.0733
-18.1765
-18.2983
-18.4209
-18.5359
-18.6669
-18.7761
-18.9039
-19.0083
-19.1299
-19.2322
-19.3592
-19.4501
-19.5725
-19.655
-19.7703
-19.8563
-19.9705
-20.0578
-20.1626
-20.2636
-20.3586
-20.4693
-20.5574
-20.6668
-20.7555
-20.8677
-20.951
-21.0621
-21.1441
-21.2535
-21.3341
-21.4427
-21.5254
-21.6327
-21.7201
-21.8303
-21.9181
-22.032
-22.1432
-22.2495
-22.3738
-22.4785
-22.6086
-22.7137
-22.8473
-22.9539
-23.0932
-23.2054
-23.3417
-23.4582
-23.5998
-23.7215
-23.8665
-23.986
-24.1356
-24.288
-24.4399
-24.6034
-24.7578
-24.945
-25.0957
-25.2953
-25.4494
-25.6409
-25.8085
-26.0063
-26.1877
-26.3973
-26.5922
-26.8077
-27.0044
-27.2261
-27.466
-27.714
-27.9742
-28.2319
-28.508
-28.7765
-29.0676
-29.3509
-29.658
-29.9561
-30.2781
-30.5898
-30.9261
-31.2502
-31.5962
-31.9222
-32.2753
-32.642
-33.0035
-33.3628
-33.6932
-33.9905
-34.2155
-34.3607
-34.4166
-34.3671
-34.2269
-33.9882
-33.6452
-33.1692
-32.519
-31.6505
-30.5156
-29.0625
-27.2349
-24.9683
-22.2389
-18.9982
-15.2071
-10.8501
-5.91603
-0.414955
5.64384
12.2489
19.4137
27.1816
35.6766
45.0816
55.5641
67.1226
79.3287
89.9318
-12.2039
-11.2417
-11.1314
-11.1109
-11.1293
-11.191
-11.2732
-11.3938
-11.5283
-11.6944
-11.8613
-12.0524
-12.234
-12.4422
-12.6274
-12.8456
-13.0227
-13.2237
-13.4151
-13.5998
-13.8021
-13.9679
-14.1618
-14.3269
-14.5056
-14.6592
-14.8222
-14.9625
-15.117
-15.2323
-15.3704
-15.4676
-15.588
-15.6661
-15.7676
-15.8343
-15.91
-15.9695
-16.0169
-16.0847
-16.1133
-16.1703
-16.1922
-16.2399
-16.2585
-16.3082
-16.3212
-16.3702
-16.3828
-16.4368
-16.463
-16.52
-16.5548
-16.6164
-16.6784
-16.7359
-16.8258
-16.8968
-16.9869
-17.07
-17.1683
-17.2564
-17.375
-17.4639
-17.5876
-17.6787
-17.8052
-17.9087
-18.0273
-18.1346
-18.2526
-18.3727
-18.4935
-18.6175
-18.7321
-18.8537
-18.9648
-19.082
-19.1874
-19.3101
-19.4044
-19.5244
-19.6124
-19.7265
-19.8165
-19.9257
-20.0123
-20.1144
-20.216
-20.3143
-20.4216
-20.5106
-20.6162
-20.7052
-20.8137
-20.8987
-21.007
-21.0914
-21.198
-21.2792
-21.3861
-21.4728
-21.5772
-21.6669
-21.771
-21.8583
-21.9688
-22.0762
-22.1856
-22.3024
-22.4058
-22.5308
-22.6356
-22.7631
-22.8698
-23
-23.1162
-23.2457
-23.3652
-23.4992
-23.6229
-23.7571
-23.8784
-24.0245
-24.175
-24.3306
-24.4833
-24.6281
-24.7816
-24.9347
-25.0964
-25.2644
-25.4418
-25.625
-25.8085
-25.9961
-26.1867
-26.3825
-26.5819
-26.7909
-27.01
-27.2329
-27.465
-27.7008
-27.948
-28.199
-28.4621
-28.7291
-29.0084
-29.2913
-29.5862
-29.8836
-30.1927
-30.5042
-30.8296
-31.1598
-31.5068
-31.8534
-32.1883
-32.5194
-32.837
-33.1531
-33.4587
-33.7931
-34.1222
-34.4267
-34.6832
-34.8443
-34.8908
-34.8078
-34.5827
-34.2029
-33.6383
-32.8514
-31.7922
-30.4056
-28.6226
-26.411
-23.7226
-20.5257
-16.8104
-12.572
-7.82115
-2.56523
3.19288
9.47748
16.3532
23.948
32.4139
41.868
52.2908
63.2366
72.6737
-12.0759
-11.2508
-11.1864
-11.196
-11.2321
-11.3017
-11.3825
-11.4959
-11.6179
-11.7681
-11.9203
-12.0942
-12.2635
-12.4534
-12.63
-12.8305
-13.0069
-13.2031
-13.3891
-13.5704
-13.7596
-13.9281
-14.1159
-14.2815
-14.4572
-14.613
-14.775
-14.9177
-15.0683
-15.191
-15.328
-15.433
-15.5536
-15.6394
-15.7429
-15.818
-15.8987
-15.9636
-16.0166
-16.0832
-16.1195
-16.1755
-16.2053
-16.252
-16.2775
-16.3245
-16.3438
-16.3894
-16.4074
-16.4563
-16.4879
-16.5383
-16.5751
-16.6277
-16.6825
-16.7456
-16.8228
-16.8909
-16.9744
-17.0542
-17.1473
-17.2368
-17.343
-17.4373
-17.5492
-17.6483
-17.7649
-17.8718
-17.9877
-18.0945
-18.2106
-18.3288
-18.4501
-18.572
-18.6888
-18.8093
-18.9213
-19.0388
-19.1472
-19.2622
-19.3654
-19.4765
-19.575
-19.6823
-19.779
-19.8809
-19.9731
-20.0718
-20.172
-20.2721
-20.3737
-20.47
-20.5707
-20.6645
-20.7662
-20.8573
-20.9594
-21.0499
-21.1502
-21.2343
-21.3434
-21.4305
-21.5309
-21.6253
-21.7264
-21.8131
-21.9182
-22.0261
-22.1354
-22.2477
-22.3532
-22.4835
-22.5848
-22.7209
-22.8208
-22.9537
-23.0651
-23.1949
-23.3139
-23.4492
-23.574
-23.7091
-23.8282
-23.9702
-24.1162
-24.2659
-24.4222
-24.5751
-24.7474
-24.8972
-25.0837
-25.2317
-25.417
-25.5801
-25.7624
-25.9436
-26.1409
-26.3321
-26.538
-26.7315
-26.9446
-27.1718
-27.4075
-27.6543
-27.9023
-28.1655
-28.4269
-28.7069
-28.9858
-29.2845
-29.5819
-29.899
-30.2148
-30.5509
-30.8874
-31.2447
-31.6009
-31.9793
-32.3661
-32.7508
-33.1326
-33.5019
-33.8614
-34.1994
-34.5292
-34.843
-35.1412
-35.4089
-35.6239
-35.7553
-35.7807
-35.6783
-35.4225
-34.9788
-34.302
-33.3387
-32.0239
-30.3177
-28.1732
-25.5606
-22.4732
-18.9096
-14.8814
-10.3935
-5.44406
-0.000525181
6.01303
12.7402
20.3264
28.868
38.3326
48.2699
56.8098
-11.8963
-11.199
-11.1805
-11.2213
-11.277
-11.3589
-11.4442
-11.5569
-11.6729
-11.814
-11.9557
-12.1178
-12.2762
-12.4534
-12.6207
-12.8088
-12.981
-13.1703
-13.3515
-13.529
-13.7109
-13.8779
-14.0604
-14.2247
-14.3976
-14.5533
-14.7143
-14.857
-15.0063
-15.1323
-15.2693
-15.3796
-15.5008
-15.5926
-15.6986
-15.7795
-15.8644
-15.9354
-15.9932
-16.0618
-16.1048
-16.1621
-16.199
-16.2467
-16.2781
-16.3245
-16.3501
-16.3943
-16.4184
-16.4643
-16.4986
-16.5466
-16.5848
-16.6355
-16.6879
-16.7478
-16.819
-16.8853
-16.9652
-17.0409
-17.1308
-17.2171
-17.3185
-17.4102
-17.5187
-17.6162
-17.7303
-17.8351
-17.9508
-18.0563
-18.1714
-18.288
-18.4073
-18.5294
-18.6461
-18.7675
-18.8793
-18.998
-19.1072
-19.2232
-19.3265
-19.4384
-19.5373
-19.6454
-19.7423
-19.8443
-19.9366
-20.0354
-20.1331
-20.2325
-20.3315
-20.4288
-20.5283
-20.6215
-20.7197
-20.811
-20.9089
-20.9985
-21.0937
-21.1817
-21.2796
-21.3722
-21.4704
-21.565
-21.6617
-21.7536
-21.8541
-21.9569
-22.0651
-22.1738
-22.2835
-22.3955
-22.5039
-22.6188
-22.7319
-22.853
-22.97
-23.0931
-23.2161
-23.3448
-23.4715
-23.5979
-23.717
-23.8554
-23.9946
-24.1417
-24.2903
-24.4415
-24.5909
-24.7394
-24.901
-25.0577
-25.2327
-25.4058
-25.5831
-25.7642
-25.9499
-26.139
-26.3313
-26.5303
-26.7405
-26.9559
-27.1806
-27.4107
-27.6504
-27.8969
-28.1533
-28.4181
-28.6937
-28.9789
-29.2753
-29.5814
-29.8987
-30.2259
-30.5656
-30.9184
-31.2887
-31.6781
-32.0789
-32.4957
-32.9229
-33.3591
-33.7963
-34.2311
-34.6578
-35.076
-35.4812
-35.8657
-36.2195
-36.5267
-36.7684
-36.9209
-36.9593
-36.8493
-36.5479
-36.0015
-35.1479
-33.9395
-32.3299
-30.2886
-27.8098
-24.8944
-21.5573
-17.8057
-13.6368
-9.01383
-3.85093
2.01109
8.74036
16.4385
25.0673
34.1816
42.0337
-11.6686
-11.0997
-11.1251
-11.196
-11.2722
-11.368
-11.4624
-11.5781
-11.6936
-11.8302
-11.9655
-12.1195
-12.2697
-12.4374
-12.5968
-12.7752
-12.9416
-13.1242
-13.2999
-13.4732
-13.6509
-13.8159
-13.9932
-14.1554
-14.3257
-14.4807
-14.641
-14.7841
-14.933
-15.0606
-15.198
-15.3111
-15.4337
-15.5298
-15.6381
-15.7232
-15.812
-15.8891
-15.9523
-16.0231
-16.073
-16.1326
-16.1764
-16.227
-16.2639
-16.3114
-16.3427
-16.3874
-16.4161
-16.4615
-16.4961
-16.5444
-16.5835
-16.6351
-16.6868
-16.7432
-16.811
-16.8754
-16.9526
-17.0258
-17.1128
-17.196
-17.294
-17.3829
-17.4886
-17.5832
-17.695
-17.7974
-17.9125
-18.0169
-18.1314
-18.2465
-18.3634
-18.4854
-18.6016
-18.7243
-18.8362
-18.9564
-19.0661
-19.1847
-19.2881
-19.403
-19.5016
-19.6125
-19.7099
-19.8151
-19.9076
-20.0073
-20.1061
-20.2048
-20.3057
-20.4017
-20.5033
-20.596
-20.6976
-20.7871
-20.888
-20.9754
-21.0739
-21.1594
-21.2568
-21.3456
-21.4445
-21.5366
-21.6348
-21.7239
-21.822
-21.9221
-22.0259
-22.1337
-22.2446
-22.36
-22.466
-22.5832
-22.6902
-22.8094
-22.922
-23.0454
-23.1655
-23.2954
-23.4195
-23.55
-23.6715
-23.8039
-23.9415
-24.0841
-24.2334
-24.3849
-24.5444
-24.6955
-24.8592
-25.0117
-25.1794
-25.3419
-25.5185
-25.6937
-25.8814
-26.0662
-26.2627
-26.4489
-26.6513
-26.865
-27.0876
-27.3205
-27.5564
-27.805
-28.0551
-28.3208
-28.5894
-28.8755
-29.1659
-29.4745
-29.7881
-30.1195
-30.4558
-30.8093
-31.1692
-31.552
-31.9523
-32.3709
-32.808
-33.2612
-33.7295
-34.2087
-34.6987
-35.1931
-35.6898
-36.1813
-36.662
-37.1214
-37.5477
-37.9234
-38.2272
-38.4285
-38.4865
-38.3479
-37.9512
-37.2389
-36.1601
-34.68
-32.7903
-30.4936
-27.8105
-24.7588
-21.3419
-17.5273
-13.2219
-8.24336
-2.38693
4.48461
12.3424
20.7659
28.1157
-11.3725
-10.9661
-11.0327
-11.1274
-11.2258
-11.3358
-11.4421
-11.5635
-11.6824
-11.8178
-11.9505
-12.0989
-12.2434
-12.4038
-12.5572
-12.7276
-12.888
-13.0644
-13.2349
-13.4044
-13.5788
-13.7419
-13.9152
-14.0753
-14.2434
-14.3976
-14.5572
-14.7012
-14.8499
-14.9788
-15.116
-15.2313
-15.3548
-15.4548
-15.5647
-15.6539
-15.7464
-15.8286
-15.8984
-15.9716
-16.0286
-16.092
-16.141
-16.1963
-16.2377
-16.2885
-16.3239
-16.3716
-16.4037
-16.4507
-16.4858
-16.535
-16.5749
-16.6276
-16.6799
-16.7342
-16.8006
-16.8628
-16.9385
-17.0095
-17.0943
-17.1747
-17.2695
-17.3565
-17.4586
-17.5511
-17.6598
-17.7597
-17.8727
-17.9763
-18.0905
-18.2035
-18.3177
-18.4381
-18.5535
-18.6762
-18.7879
-18.9087
-19.0185
-19.1387
-19.242
-19.359
-19.4571
-19.5699
-19.6677
-19.7754
-19.8689
-19.9702
-20.0699
-20.1688
-20.2715
-20.3662
-20.469
-20.5615
-20.6649
-20.7539
-20.8567
-20.9441
-21.045
-21.1302
-21.2287
-21.316
-21.4144
-21.5055
-21.6044
-21.6926
-21.7904
-21.8877
-21.9883
-22.0933
-22.2005
-22.3134
-22.4173
-22.532
-22.6373
-22.753
-22.862
-22.98
-23.0957
-23.2187
-23.3385
-23.4636
-23.5851
-23.714
-23.8436
-23.9799
-24.1206
-24.2676
-24.4174
-24.5663
-24.7226
-24.8766
-25.0388
-25.1996
-25.3698
-25.5427
-25.7243
-25.9069
-26.0954
-26.2826
-26.4821
-26.6881
-26.9047
-27.1295
-27.3621
-27.603
-27.8493
-28.1078
-28.3733
-28.6532
-28.9418
-29.2468
-29.5618
-29.8944
-30.2373
-30.5975
-30.9675
-31.3605
-31.7704
-32.2
-32.65
-33.1211
-33.6136
-34.1251
-34.6593
-35.2101
-35.7779
-36.3565
-36.9438
-37.5318
-38.1143
-38.6806
-39.2158
-39.6954
-40.0848
-40.3333
-40.3824
-40.1629
-39.6149
-38.6921
-37.3788
-35.6756
-33.6078
-31.208
-28.4998
-25.4684
-22.03
-17.9812
-13.0552
-7.0466
0.0440707
7.84361
14.8178
-11.0399
-10.7951
-10.904
-11.022
-11.1437
-11.2692
-11.3894
-11.5185
-11.6436
-11.7806
-11.9138
-12.059
-12.2
-12.3545
-12.5033
-12.6672
-12.8228
-12.9934
-13.1593
-13.3252
-13.4963
-13.658
-13.8284
-13.9869
-14.1528
-14.306
-14.4648
-14.6094
-14.7588
-14.8899
-15.0271
-15.1447
-15.2686
-15.3722
-15.4832
-15.5754
-15.6719
-15.7583
-15.8337
-15.912
-15.9751
-16.0435
-16.0971
-16.1569
-16.203
-16.2578
-16.2974
-16.3484
-16.3838
-16.4328
-16.4696
-16.5197
-16.5606
-16.6141
-16.6675
-16.721
-16.7868
-16.8477
-16.9223
-16.9918
-17.0749
-17.1531
-17.2456
-17.3303
-17.43
-17.5201
-17.6257
-17.7228
-17.8333
-17.9356
-18.0494
-18.1612
-18.2732
-18.3916
-18.5049
-18.6262
-18.7382
-18.8585
-18.9694
-19.0899
-19.1941
-19.3116
-19.4102
-19.5235
-19.6216
-19.7305
-19.8251
-19.9283
-20.0287
-20.1277
-20.2316
-20.3259
-20.4297
-20.5213
-20.6272
-20.7141
-20.8204
-20.9061
-21.0111
-21.0942
-21.197
-21.2833
-21.3819
-21.4721
-21.5729
-21.661
-21.7604
-21.8587
-21.9588
-22.0653
-22.1685
-22.2838
-22.386
-22.5041
-22.6079
-22.7274
-22.8355
-22.9556
-23.0688
-23.1933
-23.3107
-23.4377
-23.555
-23.6845
-23.8149
-23.9479
-24.0876
-24.2287
-24.3795
-24.5213
-24.6774
-24.8232
-24.9835
-25.137
-25.3034
-25.468
-25.6447
-25.8192
-26.0039
-26.1814
-26.3743
-26.5737
-26.7816
-26.9983
-27.2233
-27.4574
-27.6941
-27.9456
-28.2007
-28.4732
-28.7516
-29.0491
-29.3554
-29.6824
-30.0193
-30.3769
-30.7446
-31.1387
-31.5523
-31.9879
-32.4473
-32.9311
-33.4412
-33.9746
-34.54
-35.1303
-35.7504
-36.3938
-37.0633
-37.7543
-38.4661
-39.1922
-39.9246
-40.6431
-41.3233
-41.9225
-42.3904
-42.6494
-42.63
-42.2677
-41.5311
-40.4123
-38.9323
-37.1313
-35.0622
-32.7488
-30.1512
-27.0806
-23.199
-18.1687
-11.9387
-4.78289
1.83055
-10.6795
-10.5841
-10.7356
-10.8818
-11.0298
-11.1729
-11.3092
-11.448
-11.5814
-11.7224
-11.859
-12.0037
-12.1434
-12.2934
-12.4387
-12.5969
-12.7487
-12.9143
-13.0764
-13.2393
-13.4074
-13.5678
-13.7358
-13.893
-14.0567
-14.2095
-14.3673
-14.5126
-14.6625
-14.7961
-14.9344
-15.0543
-15.179
-15.2852
-15.3978
-15.493
-15.5925
-15.6831
-15.7639
-15.8469
-15.9155
-15.9885
-16.0474
-16.1117
-16.163
-16.2217
-16.2658
-16.32
-16.3591
-16.4099
-16.4486
-16.4993
-16.5415
-16.5955
-16.6498
-16.7034
-16.7689
-16.8292
-16.9027
-16.9713
-17.0529
-17.1296
-17.2202
-17.3033
-17.401
-17.4891
-17.5916
-17.6858
-17.7932
-17.8939
-18.0062
-18.1174
-18.2281
-18.3451
-18.4566
-18.576
-18.6874
-18.8071
-18.9182
-19.0381
-19.1448
-19.2614
-19.3626
-19.4744
-19.5732
-19.6813
-19.7777
-19.8824
-19.9833
-20.0824
-20.1862
-20.2823
-20.3855
-20.4788
-20.5839
-20.673
-20.7782
-20.8659
-20.9704
-21.0559
-21.1584
-21.2451
-21.3438
-21.432
-21.5326
-21.6202
-21.7215
-21.82
-21.9183
-22.0251
-22.1235
-22.2393
-22.3373
-22.4574
-22.557
-22.6803
-22.7869
-22.9082
-23.018
-23.1432
-23.2585
-23.3861
-23.4984
-23.6316
-23.7632
-23.8952
-24.0355
-24.1727
-24.3241
-24.4632
-24.6205
-24.7635
-24.9246
-25.0754
-25.2406
-25.4008
-25.5748
-25.7445
-25.9277
-26.0993
-26.2895
-26.4835
-26.6836
-26.8934
-27.1088
-27.3375
-27.5651
-27.8104
-28.0567
-28.3211
-28.5885
-28.8762
-29.1702
-29.4872
-29.8131
-30.1626
-30.5219
-30.9104
-31.3189
-31.7516
-32.2112
-32.6993
-33.2192
-33.7653
-34.3523
-34.9683
-35.6264
-36.3149
-37.046
-37.8126
-38.6253
-39.4748
-40.3614
-41.2691
-42.1843
-43.0781
-43.915
-44.617
-45.1158
-45.3253
-45.188
-44.6696
-43.7727
-42.5271
-41.009
-39.3024
-37.4464
-35.3445
-32.6546
-28.8545
-23.7305
-17.3976
-11.2079
-10.2855
-10.3259
-10.5277
-10.7092
-10.8869
-11.0501
-11.2049
-11.3555
-11.4993
-11.6462
-11.7889
-11.9357
-12.0768
-12.224
-12.3668
-12.5202
-12.6688
-12.8302
-12.9892
-13.1497