/*--------------------------------*- C++ -*----------------------------------*\
| =========                 |                                                 |
| \\      /  F ield         | OpenFOAM: The Open Source CFD Toolbox           |
|  \\    /   O peration     | Version:  4.1                                   |
|   \\  /    A nd           | Web:      www.OpenFOAM.org                      |
|    \\/     M anipulation  |                                                 |
\*---------------------------------------------------------------------------*/
FoamFile
{
    version     2.0;
    format      ascii;
    class       volScalarField;
    location    "68";
    object      p;
}
// * * * * * * * * * * * * * * * * * * * * * * * * * * * * * * * * * * * * * //

dimensions      [0 2 -2 0 0 0 0];

internalField   nonuniform List<scalar> 
204246
(
132.6
3.72847
49.1403
31.7894
28.4554
35.4832
23.9736
35.7206
22.7302
35.6313
22.1342
36.2706
20.6272
36.5771
21.8395
33.9815
28.1629
22.7254
34.7998
20.1459
35.97
20.3907
34.5312
21.0326
34.3005
20.7339
35.0766
18.9064
35.9163
18.5754
35.8846
19.0126
34.9975
21.5523
31.2427
27.8297
21.1936
33.6202
19.9612
33.4427
20.4573
33.6809
20.301
34.7112
18.6731
35.6765
18.6311
35.4842
19.8851
33.3401
22.2049
30.8249
27.9474
20.9195
33.4041
19.5741
32.9905
19.8762
33.0017
19.4942
33.8041
17.6344
34.5502
17.3889
34.1542
18.5084
31.8405
20.6391
29.3428
25.9454
20.2894
30.0173
18.9281
31.0129
18.5156
31.419
18.0629
32.4205
16.2894
33.3366
16.1699
33.1109
17.3814
30.9701
19.6655
28.5436
25.1491
19.5181
29.3391
18.1346
30.5301
17.4337
31.7099
15.4983
32.6745
15.0319
32.7067
15.0014
32.1913
15.8336
30.1088
16.7836
29.0554
17.647
27.057
21.1178
17.6489
25.9405
14.4074
27.1414
11.1838
26.6879
10.2547
24.3014
9.01657
21.6793
7.05149
18.6727
4.68351
14.9578
2.35151
9.68409
3.13637
-4.2037
2.98174
-8.97348
-0.958991
-14.5915
-5.35086
-19.831
-9.47511
-24.6639
-12.8312
-28.6329
-15.0356
-30.4648
-16.7535
-29.6354
-19.2937
-23.7099
-28.749
-16.2372
-28.8951
-13.2345
-25.7694
-12.0171
-23.1915
-10.3185
-22.2144
-7.95264
-21.0349
-5.63922
-17.967
-4.82688
-14.0799
-4.1896
-6.91227
-11.2373
1.4063
-11.3014
4.92904
-8.77469
6.99855
-4.49869
10.1617
-0.1841
15.1314
5.69423
19.7776
12.8147
26.2631
21.7846
33.9815
33.3896
43.4555
50.0073
52.4109
66.2209
70.5833
83.9413
93.5873
107.051
121.418
136.199
156.254
174.001
202.297
224.967
268.849
297.866
385.556
401.436
608.504
58.4007
30.5314
31.856
35.0296
28.518
32.9508
27.2245
31.8336
26.6813
31.3501
26.2907
31.3768
26.2053
30.4545
27.6005
28.2452
30.8518
25.2117
30.7677
25.3033
30.3811
25.7597
29.8894
25.5222
29.9497
25.0446
30.3261
24.5068
30.0842
24.5446
29.6727
25.0383
28.628
26.6268
26.6151
29.6274
24.1301
29.3043
24.6958
28.9977
24.7191
29.2894
24.4996
29.8762
24.2181
29.7549
24.5663
29.2722
25.4875
28.2214
26.6325
26.433
29.568
23.9985
29.1209
24.4401
28.6417
24.2698
28.7217
23.8227
29.0733
23.3017
28.7116
23.4165
28.0131
24.1026
26.8574
25.0231
25.079
27.5538
22.884
27.0023
22.7464
26.9935
22.6307
27.1485
22.2866
27.6168
21.8995
27.4063
22.1669
26.8708
23.0272
25.8211
24.1084
24.1587
26.7573
22.0834
26.3318
21.9415
26.5256
21.6226
27.039
21.16
26.9066
21.1303
26.6613
21.2236
26.1148
21.6466
25.3162
21.6304
24.5581
22.1665
22.8437
24.0849
19.6257
23.6791
18.5527
23.2917
17.3586
21.7711
16.4141
20.0289
14.6884
18.2786
12.5389
15.8009
10.326
12.2327
8.46463
6.70597
7.71989
1.30814
1.16409
-3.86341
-2.54029
-8.88718
-7.21292
-13.9133
-11.8501
-18.5808
-16.0753
-22.2939
-19.7974
-24.5163
-22.5608
-24.6743
-24.8095
-21.8357
-27.0903
-21.011
-25.3457
-19.5013
-22.9693
-16.6898
-20.7572
-13.8726
-19.5748
-13.0601
-16.2093
-11.9406
-13.3006
-10.1716
-11.5307
-10.0288
-6.59775
-10.2458
-3.62115
-7.85994
-1.86419
-5.20017
0.830097
-2.66725
4.0456
1.04251
7.66704
6.59604
12.556
12.2432
18.0769
20.0073
25.102
29.5286
33.2675
41.955
45.7427
54.892
61.3346
70.8888
80.4617
90.8831
104.042
115.436
132.807
145.49
168.65
182.157
217.454
224.021
298.789
264.203
398.876
21.7542
39.4507
30.5305
34.3728
29.443
32.7834
27.7825
31.6903
27.1477
31.2175
26.7893
30.9667
26.7716
30.2682
27.6361
28.7176
29.3464
26.791
29.9377
26.0573
30.0938
25.9051
29.9113
25.7062
29.8379
25.3828
29.8941
25.0182
29.773
24.9587
29.4585
25.3458
28.6635
26.4551
27.0899
28.0912
25.5164
28.6316
25.1161
28.8883
24.9756
29.138
24.8434
29.4343
24.7078
29.4593
24.8999
29.1575
25.5022
28.3739
26.4907
26.9621
28.0407
25.3538
28.4518
24.8253
28.5327
24.4994
28.5728
24.1495
28.6397
23.7843
28.4336
23.7503
27.927
24.1411
26.9764
24.9119
25.5148
26.2099
23.969
26.5181
23.2653
26.7728
22.9341
26.957
22.6281
27.1716
22.3656
27.1244
22.4688
26.7728
23.0016
25.9799
23.9155
24.6508
25.3527
23.142
25.8025
22.4209
26.2117
21.9657
26.5288
21.5706
26.5648
21.3996
26.4153
21.3953
26.0029
21.5562
25.3693
21.6972
24.4962
22.1177
22.9533
22.9976
20.7602
23.0582
19.2208
22.7577
17.8816
21.6881
16.682
20.1134
15.1241
18.1445
13.2741
15.4194
11.3877
11.7139
9.49767
6.99173
6.4807
2.40428
2.19495
-2.31501
-3.03924
-7.18084
-8.05178
-12.2199
-12.8305
-17.082
-17.0388
-21.1803
-20.3109
-23.8324
-22.7813
-24.422
-24.9312
-23.3291
-25.8058
-22.3433
-24.2948
-20.5654
-21.8444
-18.5276
-19.4284
-15.8928
-18.3377
-13.7005
-16.7646
-11.7129
-14.0164
-10.0661
-10.6783
-9.45708
-7.1954
-8.89859
-4.3439
-7.26367
-1.58787
-5.23322
0.411896
-1.59912
3.55605
2.27344
7.23596
6.88742
11.9815
13.5755
18.0574
20.8154
25.7038
30.1059
35.1072
41.7017
46.6438
55.7743
62.3279
72.5129
82.1875
93.3703
107.01
119.442
138.034
151.938
177.586
192.159
231.902
239.924
316.011
294.774
383.536
14.9085
29.2824
25.6267
31.1609
27.2208
30.9933
27.7172
30.09
27.8934
29.586
27.9222
29.2681
28.2006
28.5645
28.9624
27.5904
29.8054
27.1233
29.2184
27.2688
28.7524
27.3779
28.4922
27.1466
28.4055
26.8452
28.3316
26.6618
27.9929
26.688
27.5605
26.9947
26.9014
27.7289
26.1308
28.3723
25.8838
27.8227
26.1756
27.6116
26.2166
27.6911
26.1986
27.8268
26.2931
27.6631
26.5901
27.3477
27.0755
26.8667
27.6587
26.1617
28.3453
25.8684
27.7292
26.0362
27.3735
25.8911
27.2472
25.6419
27.1383
25.4814
26.7228
25.5127
26.172
25.7555
25.5279
26.1009
24.7138
26.5557
24.3224
25.9556
24.2315
25.6709
24.1451
25.5977
24.0104
25.5978
23.9982
25.3322
24.2057
24.9519
24.6165
24.4505
25.1322
23.7859
25.7598
23.5219
25.293
23.4848
25.1526
23.392
25.1468
23.335
24.9292
23.3498
24.6752
23.3921
24.3233
23.4604
23.9218
23.4422
23.3606
23.6033
22.4009
23.8588
21.4784
23.0083
20.7995
22.1283
20.1066
20.7962
19.1384
19.3539
17.5933
17.8272
15.8112
15.4874
13.7628
12.4055
11.4743
8.60207
8.36238
4.49192
3.53163
-0.0215018
-1.50444
-4.80965
-6.98249
-9.94685
-12.3123
-14.971
-17.3147
-19.4008
-21.5544
-22.6758
-24.5542
-24.1761
-26.1304
-24.4004
-26.2436
-24.2433
-25.0192
-22.8402
-22.6149
-20.5358
-19.9574
-17.4832
-17.9455
-15.5365
-15.7256
-14.0603
-13.3508
-12.4906
-11.1357
-11.4333
-8.58346
-9.83982
-6.74913
-7.82472
-5.12923
-5.63427
-3.31804
-2.80801
-0.304403
-0.0572907
3.20414
4.00375
7.16866
8.98238
12.2839
15.1386
18.5702
22.9305
26.383
32.6363
36.7349
43.7442
49.8769
57.1702
65.7888
73.5693
85.2255
93.4422
108.712
117.423
138.029
145.135
178.119
173.019
230.524
217.381
288.479
12.5893
30.3194
24.0111
30.1438
27.4801
30.0385
28.2328
29.8275
28.2882
29.5062
28.2952
29.1711
28.4792
28.6348
28.8759
28.0412
29.1449
27.9332
28.7892
27.8156
28.6101
27.6417
28.5192
27.3698
28.3972
27.1293
28.2099
27.0092
27.9001
26.9876
27.534
27.1552
27.0245
27.5027
26.567
27.6987
26.5957
27.4513
26.6005
27.5127
26.5096
27.621
26.4875
27.6749
26.6019
27.5715
26.7942
27.3651
27.0927
27.0434
27.4485
26.5836
27.6665
26.5407
27.3439
26.4179
27.2643
26.1529
27.1791
25.9231
26.9989
25.8077
26.6458
25.7542
26.2084
25.8234
25.6794
25.967
25.0758
25.9779
24.9218
25.6631
24.6854
25.5366
24.4702
25.4883
24.3102
25.4242
24.3033
25.2307
24.4011
24.9608
24.6132
24.6025
24.8902
24.1481
25.0954
24.0667
24.8877
23.8586
24.877
23.662
24.8563
23.5787
24.7186
23.518
24.5425
23.4829
24.2679
23.4312
23.9721
23.4413
23.3672
23.5256
22.5828
23.2748
21.9862
22.6538
21.2958
21.8726
20.5082
20.8722
19.4901
19.6054
18.079
17.991
16.427
15.7478
14.4664
12.8503
11.9482
9.5009
8.69097
5.74558
4.55301
1.22758
-0.448596
-3.69073
-5.82262
-8.94848
-11.3207
-14.1115
-16.5637
-18.714
-21.0484
-22.305
-24.2715
-24.464
-26.0462
-25.1563
-26.2696
-24.4762
-25.2833
-22.9299
-23.1161
-20.725
-20.5873
-18.1982
-17.7646
-15.9982
-15.4687
-14.0719
-13.1683
-12.2682
-10.8783
-10.6224
-8.59571
-8.86032
-6.81394
-7.03736
-4.69787
-5.09523
-2.74763
-2.4691
0.0857631
0.670387
3.49838
4.76885
7.88568
9.85523
13.2947
16.1219
19.8923
23.9231
28.1234
33.5758
38.6931
45.4748
52.3378
60.0841
69.3488
77.9141
90.4093
99.7243
116.184
125.813
148.297
156.064
190.408
187.342
236.633
225.272
270.37
12.3634
25.3854
21.9343
26.9481
25.7676
28.176
27.2607
28.5539
27.9981
28.544
28.3767
28.4237
28.6961
28.084
29.0329
27.8018
29.0893
27.9527
28.5963
28.0746
28.265
28.0129
28.0617
27.8158
27.8666
27.6153
27.6066
27.5047
27.2553
27.46
26.9087
27.5065
26.6008
27.651
26.3183
27.5946
26.5308
27.1788
26.7361
27.0585
26.7911
27.0616
26.8633
27.059
27.0296
26.9445
27.2538
26.7858
27.4871
26.637
27.6769
26.4836
27.6782
26.6467
27.2126
26.7242
26.9588
26.6026
26.7503
26.4432
26.4839
26.3411
26.1163
26.2434
25.7418
26.1657
25.3851
26.1543
24.9789
25.9739
24.8949
25.4826
24.8727
25.1703
24.7862
24.9909
24.7194
24.8361
24.7614
24.6113
24.8843
24.386
25.0375
24.1896
25.1746
24.0049
25.1689
24.147
24.809
24.1938
24.6184
24.1866
24.4666
24.2164
24.2588
24.2345
24.0606
24.2248
23.8565
24.1192
23.6944
23.9897
23.3399
23.9795
22.8755
23.7261
22.4595
23.0767
22.0381
22.19
21.4615
21.1616
20.5506
20.0441
19.293
18.6259
17.7388
16.6807
15.8476
14.1582
13.4116
11.0216
10.2179
7.29559
6.06339
2.97981
1.14068
-2.01493
-4.38706
-7.51867
-10.2241
-13.1599
-15.9673
-18.4464
-21.1085
-22.7108
-25.0105
-25.4556
-27.2834
-26.6316
-27.7523
-26.3805
-26.4607
-24.7502
-24.0998
-22.3043
-21.2262
-19.7867
-18.3135
-17.263
-15.9775
-15.2513
-13.7678
-13.4585
-11.9624
-11.9496
-10.3035
-10.2797
-8.87685
-8.72853
-7.17333
-7.12198
-5.38466
-5.00276
-3.1108
-2.53701
-0.42957
0.73192
2.98244
4.79846
7.31126
9.83104
12.5977
16.0631
19.2162
23.6974
27.7772
32.907
38.6166
44.1807
52.0284
57.9205
68.4104
74.6279
88.4484
94.3734
113.196
116.435
146.834
140.382
181.567
179.058
219.656
14.5921
26.6046
22.3868
27.1592
26.0064
28.0226
27.5669
28.4581
28.2555
28.5652
28.5616
28.4962
28.7942
28.2703
28.9909
28.1292
28.9065
28.3355
28.5305
28.3692
28.3216
28.2595
28.1658
28.0449
27.9656
27.8679
27.6763
27.7482
27.3425
27.6554
27.0409
27.6058
26.7653
27.5952
26.598
27.4154
26.8994
27.109
27.038
27.0915
27.0439
27.1029
27.0873
27.0846
27.2167
27.0097
27.3438
26.9207
27.4866
26.8078
27.5805
26.752
27.4702
26.9481
27.126
26.9603
26.9794
26.811
26.8143
26.6679
26.5487
26.5564
26.2182
26.4333
25.8628
26.2991
25.5235
26.1318
25.2103
25.8663
25.2383
25.4696
25.1919
25.1742
25.068
25.0027
24.9609
24.8503
24.948
24.6717
24.9774
24.5098
25.0295
24.318
25.0605
24.2069
24.9184
24.3787
24.6161
24.3844
24.474
24.3326
24.348
24.3121
24.2063
24.2697
24.0831
24.2171
23.9079
24.1255
23.7164
24.0039
23.3338
23.8512
22.9302
23.5359
22.6423
22.9539
22.3123
22.2393
21.7297
21.4084
20.8848
20.36
19.7574
19.0131
18.3385
17.2572
16.5457
15.0076
14.2601
12.2149
11.2601
8.8251
7.40222
4.63781
2.69743
-0.302068
-2.74964
-5.89063
-8.70504
-11.7666
-14.7547
-17.4199
-20.3152
-22.2234
-24.6809
-25.5747
-27.3331
-27.1941
-28.1051
-27.1329
-27.2307
-25.5269
-24.9422
-22.9109
-21.9275
-19.9689
-18.8258
-17.3029
-16.0154
-15.0756
-13.6112
-13.0113
-11.5155
-11.1565
-9.56298
-9.3856
-8.00338
-7.8541
-6.37538
-6.23986
-4.58801
-4.16273
-2.25449
-1.6091
0.500802
1.64108
4.01088
5.77164
8.47551
10.9207
13.9797
17.2676
20.8896
25.0909
29.751
34.7499
41.0609
46.7024
55.1441
61.2966
72.4124
78.8591
93.3396
99.4648
119.053
121.277
149.219
145.849
177.069
173.212
202.02
14.0178
24.6441
21.1438
25.3232
24.7347
26.5848
26.6138
27.4788
27.6319
27.8886
28.2247
28.0176
28.6043
27.9952
28.8284
28.016
28.762
28.2769
28.4272
28.3624
28.2399
28.2908
28.0291
28.1334
27.7842
27.957
27.4744
27.7891
27.1309
27.6186
26.8442
27.5212
26.5642
27.4344
26.4398
27.1727
26.7271
26.8747
26.905
26.8231
26.9858
26.8309
27.08
26.8276
27.2296
26.7706
27.3926
26.7278
27.5254
26.6877
27.6091
26.7265
27.4426
26.9643
27.0952
27.02
26.9134
26.9417
26.6902
26.82
26.402
26.6726
26.0735
26.4958
25.7373
26.3029
25.4414
26.1021
25.1569
25.7526
25.124
25.3461
25.1055
25.0256
25.018
24.7797
24.9788
24.5908
24.9906
24.4453
25.0268
24.3039
25.0747
24.2051
25.0869
24.1952
24.9124
24.4162
24.6023
24.5147
24.4205
24.5469
24.2665
24.5831
24.1055
24.5776
23.9652
24.5356
23.8379
24.4254
23.7273
24.295
23.5448
24.1864
23.246
23.8874
23.1245
23.2718
22.7831
22.6908
22.2464
21.977
21.5269
21.0636
20.55
19.8515
19.2772
18.2376
17.6256
16.1349
15.4467
13.4898
12.5618
10.1913
8.83769
6.14361
4.20631
1.21868
-1.31833
-4.53463
-7.56265
-10.8248
-14.1288
-17.1563
-20.4199
-22.7984
-25.6213
-26.9613
-29.0053
-29.1206
-30.1402
-29.1936
-29.0225
-27.4054
-26.4406
-24.4828
-23.0788
-21.277
-19.6831
-18.3643
-16.8538
-15.9953
-14.5457
-14.0647
-12.6816
-12.4391
-11.1991
-10.964
-9.92178
-9.75426
-8.61311
-8.49447
-7.2692
-6.90398
-5.50488
-4.91802
-3.33771
-2.3644
-0.600642
0.867344
2.88704
4.90737
7.2276
9.84948
12.6878
15.8889
19.681
23.3479
28.531
32.5822
39.6729
43.9807
53.4422
57.903
70.3719
74.2122
91.8527
92.5426
117.12
115.199
143.656
143.556
170.581
17.1009
26.2176
22.4763
26.517
25.4369
27.1339
27.035
27.7062
27.898
28.0087
28.3557
28.1375
28.6923
28.1453
28.8427
28.2334
28.7696
28.4986
28.5014
28.5613
28.4039
28.5227
28.2177
28.3908
27.9596
28.227
27.6431
28.0493
27.2999
27.8525
26.9892
27.6815
26.746
27.515
26.6981
27.2404
26.9753
26.9863
27.1123
26.9607
27.1574
26.9573
27.2141
26.946
27.3251
26.9074
27.4451
26.8617
27.566
26.8245
27.6005
26.8991
27.4172
27.1413
27.1172
27.1965
27.0032
27.1541
26.8049
27.0559
26.535
26.9093
26.226
26.7219
25.8898
26.4904
25.601
26.2411
25.3661
25.8506
25.3989
25.4611
25.3602
25.1636
25.2505
24.9163
25.1609
24.711
25.1288
24.5405
25.1265
24.4045
25.1275
24.295
25.0376
24.3144
24.8268
24.5235
24.5303
24.5928
24.3732
24.6094
24.2283
24.621
24.1029
24.5967
24.0034
24.5341
23.8687
24.4613
23.7189
24.3031
23.4766
24.1244
23.2996
23.7804
23.2417
23.294
22.9434
22.8278
22.4945
22.2072
21.8729
21.4046
21.0373
20.3477
19.9468
18.9653
18.5069
17.1801
16.5786
14.8961
13.9907
11.968
10.5674
8.20473
6.21549
3.46483
0.838789
-2.279
-5.46376
-8.80355
-12.3576
-15.6054
-19.1888
-21.9073
-25.0468
-26.8365
-29.0869
-29.7654
-30.8554
-30.4667
-30.4913
-28.9831
-27.9681
-25.8008
-24.1673
-22.007
-20.2439
-18.5423
-16.9761
-15.8632
-14.3359
-13.6122
-12.14
-11.6763
-10.2139
-9.95702
-8.71968
-8.58634
-7.42856
-7.33804
-6.13128
-5.85043
-4.49006
-3.94636
-2.43118
-1.49472
0.242809
1.65387
3.70505
5.63518
8.07019
10.5328
13.5683
16.5792
20.5939
24.0754
29.5576
33.3869
40.7508
44.8424
54.4849
58.6265
71.2099
74.4919
91.3294
91.7295
113.362
111.005
133.782
132.621
154.045
16.3772
25.2394
21.5393
25.5727
24.5674
26.2984
26.326
27.042
27.4033
27.5262
28.0481
27.7794
28.4209
27.9694
28.6363
28.1262
28.6325
28.4165
28.4083
28.483
28.3245
28.4651
28.1685
28.3561
27.9264
28.1816
27.6062
27.9723
27.2217
27.7239
26.8578
27.5011
26.5602
27.2596
26.4748
26.9311
26.7606
26.7139
26.8824
26.7159
26.9804
26.7507
27.1139
26.7723
27.2712
26.7568
27.429
26.7415
27.5488
26.7644
27.5689
26.8873
27.3908
27.1331
27.1086
27.1874
26.9939
27.1556
26.8197
27.0513
26.5685
26.8879
26.2449
26.685
25.8773
26.428
25.538
26.1449
25.2527
25.7113
25.2184
25.3087
25.1876
25.0116
25.0806
24.7683
25.02
24.56
25.0298
24.4144
25.0414
24.3015
25.0735
24.2498
25.0102
24.3226
24.8171
24.5411
24.5453
24.6568
24.3868
24.7
24.2589
24.7243
24.1325
24.7256
24.0214
24.7058
23.9497
24.6514
23.8506
24.5383
23.7214
24.3789
23.5701
24.0943
23.5534
23.6097
23.3083
23.2138
22.9351
22.67
22.4045
21.9527
21.6634
20.995
20.6622
19.7274
19.3178
18.0667
17.5027
15.9211
15.0656
13.1498
11.8519
9.57064
7.6904
4.98102
2.41244
-0.757574
-4.01112
-7.54787
-11.3478
-15.0147
-19.0215
-22.3542
-26.0119
-28.4248
-31.1344
-32.1103
-33.4719
-32.8761
-32.7462
-31.0528
-29.834
-27.4762
-25.565
-23.1935
-21.1575
-19.3502
-17.5839
-16.516
-15.0129
-14.4192
-13.1046
-12.8344
-11.6863
-11.5273
-10.5413
-10.5017
-9.63287
-9.56925
-8.66195
-8.44075
-7.39255
-6.92496
-5.72315
-4.93607
-3.54877
-2.41884
-0.787221
0.707068
2.66153
4.49784
6.98187
9.13596
12.498
14.9488
19.52
22.2054
28.4494
31.2979
39.6865
42.542
53.6976
55.9274
71.3478
71.2436
90.6443
91.0988
111.466
112.014
132.009
19.3935
27.1757
23.506
26.8091
25.6476
27.1862
26.9099
27.5167
27.7112
27.7385
28.1763
27.9207
28.4989
28.0798
28.6714
28.2589
28.6868
28.5597
28.5142
28.6733
28.4744
28.6858
28.3497
28.6071
28.1166
28.4572
27.7985
28.2542
27.4392
28.0027
27.0683
27.7376
26.7893
27.4566
26.7219
27.1367
26.9251
26.9231
27.0418
26.887
27.1057
26.8732
27.2
26.869
27.3323
26.8534
27.4546
26.8412
27.5726
26.8599
27.587
26.9816
27.4197
27.2374
27.1573
27.331
27.0836
27.3359
26.9441
27.2769
26.7108
27.138
26.4044
26.9313
26.0625
26.6631
25.7496
26.3627
25.4933
25.9104
25.4848
25.495
25.441
25.1745
25.3229
24.9063
25.2212
24.6777
25.1617
24.5016
25.1422
24.3657
25.1178
24.3091
25.0017
24.3759
24.7916
24.5839
24.5154
24.6863
24.3575
24.725
24.2234
24.7505
24.1116
24.7491
24.0359
24.6927
23.9261
24.6518
23.8273
24.5099
23.6916
24.3473
23.5933
24.025
23.6432
23.6419
23.4344
23.3084
23.152
22.8771
22.7431
22.3114
22.1664
21.552
21.3761
20.539
20.2862
19.2001
18.771
17.4292
16.6811
15.0582
13.8301
11.855
10.0081
7.55559
4.95114
1.9185
-1.48337
-5.06176
-9.1207
-13.0092
-17.3815
-21.1111
-25.2203
-28.2055
-31.3679
-33.085
-34.7886
-35.0339
-35.2565
-33.995
-32.6594
-30.1877
-27.7134
-24.9167
-22.274
-20.1265
-17.9782
-16.7609
-14.99
-14.2384
-12.595
-12.1134
-10.5806
-10.3243
-9.14303
-9.06191
-8.2575
-8.247
-7.48429
-7.32598
-6.54961
-6.14302
-5.2373
-4.53352
-3.3973
-2.31147
-0.850715
0.585671
2.44811
4.14517
6.57994
8.50962
11.8172
13.9474
18.5298
20.8164
27.0198
29.4195
37.6139
39.9343
50.8119
52.0579
66.2667
66.4659
82.5007
82.6733
99.6583
99.9578
116.893
19.2587
26.5669
23.0776
26.4375
25.1185
26.9085
26.4524
27.3332
27.3771
27.6025
27.9598
27.8089
28.2799
28.0078
28.4874
28.2111
28.5761
28.4965
28.4283
28.6059
28.3904
28.6413
28.3011
28.6021
28.0968
28.4511
27.78
28.2042
27.3764
27.8975
26.9276
27.5667
26.5381
27.2004
26.4123
26.7882
26.6899
26.6032
26.8188
26.6171
26.9219
26.6999
27.0782
26.7457
27.2731
26.7505
27.447
26.7592
27.5752
26.8143
27.5895
26.975
27.416
27.2373
27.1613
27.3449
27.071
27.3551
26.9619
27.2986
26.752
27.1489
26.4343
26.9208
26.0417
26.611
25.6663
26.2657
25.3589
25.7728
25.2945
25.3263
25.2563
24.9945
25.1437
24.7332
25.0686
24.5332
25.0482
24.4008
25.0519
24.3032
25.0614
24.2885
24.9881
24.3861
24.8068
24.6038
24.5462
24.7367
24.3892
24.8019
24.2763
24.8418
24.1667
24.8685
24.0838
24.8626
24.0324
24.8392
23.9617
24.7347
23.8961
24.582
23.8433
24.3117
23.9017
23.9679
23.7977
23.647
23.546
23.2453
23.1845
22.7284
22.656
22.0363
21.9182
21.1148
20.9099
19.8953
19.5209
18.2794
17.6222
16.1298
15.0358
13.2211
11.5403
9.25358
6.82104
3.89993
0.589314
-3.0526
-7.24359
-11.4898
-16.2894
-20.6883
-25.4679
-29.2521
-33.1866
-35.4065
-37.6893
-37.7382
-37.9399
-36.2054
-34.7991
-31.9205
-29.2365
-25.9145
-22.8788
-20.2735
-17.9142
-16.6089
-15.0423
-14.416
-13.1965
-13.022
-11.9528
-11.8189
-10.8304
-10.8177
-10.173
-10.2345
-9.5787
-9.52693
-8.81272
-8.42157
-7.56408
-6.99138
-5.93473
-5.15927
-3.83558
-2.8484
-1.21439
-0.0879886
2.05386
3.30236
6.15993
7.5632
11.4182
12.9137
18.1783
19.7027
26.8651
28.2151
37.8374
38.8517
50.8784
52.2476
66.2529
67.8986
82.9605
84.1484
99.9987
22.0935
28.6645
25.0797
27.8166
26.3634
27.8351
27.1381
27.8828
27.6921
27.8631
28.083
27.8919
28.3713
28.0396
28.5233
28.2279
28.6452
28.5443
28.5664
28.7293
28.5163
28.8108
28.4433
28.8043
28.2657
28.6971
27.9837
28.4904
27.6262
28.1962
27.2217
27.8421
26.8627
27.4497
26.7037
27.0949
26.7866
26.8533
26.9228
26.7939
26.9902
26.8057
27.1257
26.7974
27.2971
26.7651
27.4535
26.7812
27.5858
26.8459
27.5925
27.0141
27.4398
27.281
27.2168
27.4146
27.139
27.477
27.0638
27.4837
26.8897
27.3796
26.613
27.1654
26.2686
26.8627
25.9094
26.521
25.6166
26.024
25.5514
25.5516
25.5099
25.183
25.3781
24.8818
25.2484
24.6413
25.1542
24.4561
25.1112
24.3236
25.0812
24.3003
24.9833
24.3907
24.7868
24.6082
24.5276
24.7377
24.3618
24.797
24.2363
24.83
24.1299
24.8478
24.068
24.8226
23.9779
24.8111
23.9176
24.7013
23.8562
24.5411
23.846
24.2489
23.9611
23.9196
23.8595
23.6993
23.6893
23.4074
23.4301
23.0394
23.0558
22.5343
22.526
21.841
21.7612
20.9102
20.6628
19.648
19.1
17.9004
16.9143
15.4171
13.8393
11.8315
9.44692
6.70155
3.33677
-0.289967
-4.68623
-9.13474
-14.3429
-19.2246
-24.6224
-29.1344
-33.8007
-37.0391
-39.9832
-41.2065
-42.0103
-41.1694
-39.7815
-37.0415
-33.5307
-29.6343
-25.408
-22.1241
-18.8965
-17.4068
-15.3728
-14.6058
-12.6756
-12.1664
-10.5347
-10.3137
-9.08547
-9.17079
-8.61865
-8.90759
-8.50799
-8.41674
-8.27985
-8.01769
-7.65235
-7.19247
-6.53931
-5.77259
-4.78945
-3.77176
-2.33647
-1.33563
0.614049
1.62396
4.26784
5.28222
8.99033
10.0155
14.9936
16.04
22.6034
23.6527
32.0317
33.2257
43.3628
44.7196
56.3898
57.796
70.966
71.9087
86.0945
22.1834
28.6039
25.0948
27.9259
26.3984
27.9589
27.1708
28.0234
27.6879
27.9886
28.0582
28.0013
28.3091
28.0512
28.453
28.2018
28.567
28.5087
28.5004
28.7001
28.4532
28.8146
28.4085
28.8499
28.2729
28.7482
28.0033
28.4901
27.606
28.1275
27.1061
27.7122
26.5681
27.2447
26.2923
26.6797
26.5561
26.5635
26.677
26.5856
26.8202
26.6438
27.0558
26.6953
27.3034
26.7086
27.4866
26.7465
27.6274
26.848
27.6131
27.0223
27.4618
27.2955
27.2387
27.4549
27.1375
27.5253
27.0828
27.5417
26.9417
27.4369
26.6555
27.1978
26.2505
26.8634
25.8145
26.453
25.5029
25.9009
25.3913
25.3708
25.3351
24.9951
25.2104
24.7003
25.1279
24.4789
25.093
24.3528
25.0757
24.2738
25.0601
24.2806
25.0054
24.3984
24.8334
24.6325
24.5693
24.799
24.4045
24.8944
24.2794
24.9597
24.1753
24.9967
24.1077
25.011
24.0773
24.9841
24.0666
24.9064
24.0491
24.7558
24.0627
24.531
24.1629
24.2103
24.1801
23.9611
24.044
23.6877
23.8291
23.3643
23.5004
22.9301
23.0111
22.3279
22.3233
21.5146
21.346
20.4156
20.001
18.9287
18.0915
16.8036
15.4494
13.7262
11.6318
9.16323
6.04329
2.54027
-1.7846
-6.39934
-11.825
-17.2488
-23.2834
-28.7388
-34.4157
-38.5221
-42.4944
-43.7794
-44.9146
-43.501
-42.211
-39.1105
-35.464
-30.773
-25.8187
-21.7012
-17.7034
-16.137
-14.4944
-14.1627
-13.0862
-13.2801
-12.22
-12.0855
-10.7634
-10.5902
-10.1831
-10.5641
-10.478
-10.3865
-10.0139
-9.67169
-9.09391
-8.73504
-8.0293
-7.55379
-6.52566
-6.03093
-4.56069
-4.125
-2.28329
-1.8736
0.469354
0.847993
3.85284
4.25012
8.31902
8.7107
14.4077
14.8561
22.236
23.0209
32.1419
33.2595
43.9721
45.3303
57.4652
58.5479
72.1091
24.7254
30.5363
26.8861
29.1954
27.5649
28.7687
27.8968
28.4899
28.0603
28.1999
28.1809
28.0093
28.4063
28.0251
28.4677
28.1802
28.5899
28.5053
28.5853
28.787
28.518
28.9163
28.4927
28.9608
28.3831
28.9145
28.1771
28.7477
27.8596
28.4447
27.4354
28.03
26.9776
27.4869
26.6888
27.0888
26.5306
26.7526
26.7433
26.7008
26.876
26.6449
27.0761
26.6266
27.2985
26.6158
27.4856
26.6747
27.6076
26.7909
27.6219
26.9968
27.4737
27.2874
27.2594
27.4767
27.1668
27.5922
27.1492
27.6705
27.0561
27.6352
26.8324
27.4381
26.4753
27.1051
26.0575
26.6911
25.7463
26.139
25.6586
25.5993
25.5792
25.1795
25.4175
24.8307
25.2556
24.5643
25.1345
24.3746
25.0876
24.2459
25.0619
24.2395
25.0008
24.3609
24.8098
24.6115
24.535
24.7837
24.3511
24.8815
24.2121
24.9465
24.1053
24.9763
24.0427
24.9608
24.0132
24.9532
23.977
24.8654
23.9899
24.7263
24.0192
24.4709
24.1879
24.1429
24.2204
23.9803
24.1107
23.7895
23.968
23.5519
23.7426
23.2474
23.4009
22.8328
22.9083
22.2539
22.1994
21.4742
21.1285
20.3839
19.6286
18.6753
17.464
16.0784
14.1712
12.0441
9.09784
5.8489
1.50618
-3.19249
-9.08884
-15.1083
-22.0449
-28.4237
-35.2983
-40.7769
-46.03
-48.9399
-50.9462
-50.6896
-49.5568
-47.2039
-42.9766
-37.624
-30.7256
-24.8953
-19.4283
-16.7432
-14.7671
-14.4468
-11.7479
-11.5071
-9.96302
-10.1149
-8.5025
-8.65689
-7.99046
-8.97781
-9.07168
-9.18873
-9.61719
-9.58122
-9.46651
-9.27178
-8.92411
-8.47172
-7.89291
-7.23015
-6.03835
-5.55189
-4.01434
-3.67109
-1.73029
-1.5285
1.27249
1.3412
5.0344
5.02043
9.96367
10.0796
16.3335
16.6668
24.487
24.9414
34.2182
34.7914
45.7436
46.2199
58.9601
25.3364
31.057
27.4661
29.74
28.0749
29.2052
28.3887
28.8533
28.4929
28.5598
28.4579
28.2531
28.5066
28.1389
28.4775
28.1987
28.5196
28.5097
28.525
28.7953
28.5023
28.9724
28.4775
29.0684
28.4123
29.029
28.2321
28.7944
27.9003
28.4284
27.374
27.9437
26.7255
27.3882
26.1897
26.6298
26.453
26.4888
26.5241
26.5094
26.7814
26.5529
27.0745
26.6117
27.3488
26.6519
27.5324
26.7197
27.652
26.8323
27.6424
27.031
27.497
27.3268
27.2845
27.5327
27.1653
27.6606
27.1567
27.754
27.1037
27.7348
26.9001
27.5173
26.5118
27.152
26.0102
26.6733
25.6792
26.0694
25.5188
25.4685
25.4297
25.0233
25.3077
24.6666
25.2124
24.4133
25.1369
24.2783
25.0976
24.1984
25.0847
24.2071
25.0474
24.372
24.8668
24.6567
24.5803
24.8702
24.388
24.999
24.247
25.0865
24.1397
25.1329
24.0848
25.149
24.0674
25.1364
24.0987
25.0542
24.1353
24.9245
24.2066
24.7002
24.3613
24.3646
24.4772
24.1643
24.435
23.995
24.3368
23.8255
24.1581
23.6022
23.8692
23.2754
23.4541
22.8007
22.8588
22.159
21.9562
21.2853
20.6821
19.9485
18.9876
17.9166
16.3374
14.5521
11.9527
8.9775
4.94375
0.365669
-5.36672
-11.5899
-18.8276
-26.0611
-33.9261
-40.5548
-47.1888
-50.527
-53.8338
-53.4651
-52.7195
-50.652
-46.7192
-40.8756
-32.6254
-25.2884
-16.5481
-13.6172
-12.3492
-13.5205
-12.8291
-13.9975
-12.6728
-12.7991
-10.7178
-9.43648
-9.05998
-9.97815
-11.1367
-11.0614
-10.9705
-10.4209
-10.1852
-9.91843
-9.78988
-9.45785
-9.1829
-8.4269
-7.77649
-7.27987
-6.03879
-5.86751
-4.28611
-4.39444
-2.35921
-2.69642
0.00334113
-0.551153
3.26357
3.13126
8.12045
8.40708
14.9238
15.8549
23.4369
24.4069
33.7991
34.5045
46.4356
27.9351
32.7845
29.1621
30.9274
29.1429
29.825
29.0472
29.0966
28.8747
28.6256
28.6612
28.2578
28.5799
28.1156
28.5121
28.1827
28.4881
28.5089
28.5296
28.8186
28.5028
28.9919
28.4885
29.073
28.451
29.0769
28.3449
28.9914
28.1127
28.754
27.7246
28.337
27.2025
27.6928
26.6619
27.0427
26.3165
26.5831
26.5051
26.5165
26.7933
26.3877
27.0474
26.3942
27.3234
26.4494
27.5323
26.5342
27.6571
26.6844
27.6652
26.9378
27.4966
27.2771
27.2593
27.5431
27.1466
27.6814
27.1683
27.8175
27.1673
27.8874
27.0428
27.7482
26.7203
27.3911
26.234
26.8696
25.9301
26.2464
25.8337
25.6484
25.697
25.1672
25.4804
24.7623
25.2621
24.445
25.1333
24.2429
25.0946
24.118
25.0977
24.1122
25.0505
24.2961
24.8441
24.628
24.5159
24.8676
24.3016
24.9998
24.1497
25.0917
24.0328
25.1393
23.9733
25.1482
23.9616
25.1163
24
25.0285
24.0559
24.909
24.1396
24.6862
24.3346
24.3218
24.4483
24.1439
24.4435
23.9874
24.4007
23.8427
24.2939
23.6856
24.1009
23.4709
23.8094
23.1843
23.3914
22.7836
22.761
22.2415
21.7971
21.3231
20.5546
19.8429
18.564
17.2531
15.0771
12.6061
8.9193
4.59746
-1.2336
-7.75901
-15.8765
-24.0227
-33.495
-41.9266
-50.9551
-56.3813
-60.49
-61.5318
-60.5275
-59.9747
-57.2183
-51.5582
-41.8922
-32.194
-20.8121
-13.2549
-12.6979
-12.8544
-8.80018
-9.82396
-8.64531
-11.1232
-9.21034
-7.92852
-6.05695
-7.1575
-8.56495
-9.8538
-11.4164
-11.0293
-10.8607
-10.6876
-10.5286
-10.3805
-10.2928
-9.52077
-9.15985
-8.42065
-7.56724
-7.34749
-6.21775
-6.55229
-4.61881
-5.02948
-2.59905
-3.67726
-0.348436
-1.17527
3.02567
2.25821
8.00148
7.45702
14.6302
13.6978
22.6533
21.635
33.5824
29.0351
33.2159
30.3652
31.3136
30.3511
30.3623
29.9909
29.7133
29.547
29.1728
29.0784
28.6215
28.7738
28.2951
28.5628
28.241
28.5488
28.547
28.5071
28.8396
28.5236
29.0929
28.4843
29.2128
28.4588
29.2251
28.3681
29.0878
28.0825
28.7663
27.6562
28.2575
27.0444
27.6252
26.3279
26.8229
26.1969
26.5224
26.362
26.4065
26.881
26.3808
27.1608
26.4457
27.4308
26.5016
27.6208
26.585
27.7024
26.7731
27.6459
27.0172
27.5061
27.3307
27.2618
27.5883
27.157
27.7608
27.1745
27.9124
27.1961
27.9915
27.1297
27.8658
26.8194
27.4976
26.2663
26.9335
25.8919
26.2651
25.7101
25.6209
25.576
25.0803
25.4789
24.6512
25.3283
24.356
25.2102
24.1287
25.1904
24.0013
25.2028
24.0492
25.118
24.3104
24.8872
24.7228
24.5206
25.001
24.2949
25.1577
24.1352
25.2538
24.0232
25.2934
23.985
25.3037
24.0024
25.275
24.0755
25.1865
24.1663
25.0662
24.2821
24.8571
24.51
24.4705
24.6973
24.2504
24.7761
24.0916
24.7906
23.9901
24.7046
23.9147
24.5127
23.781
24.2573
23.5807
23.8925
23.3198
23.3387
22.938
22.5487
22.2585
21.6325
21.1733
20.1794
19.2178
17.4633
15.464
12.3511
8.54438
3.23702
-3.12606
-11.126
-19.9341
-30.1167
-39.3713
-49.3574
-54.9787
-61.4196
-63.0026
-62.5599
-62.4676
-61.5003
-58.0902
-47.533
-36.1523
-18.7144
-5.1463
-6.23832
-15.6295
-13.3027
-13.9067
-13.0856
-14.8284
-11.0162
-8.12037
-6.60787
-7.86046
-11.1094
-11.3735
-11.6682
-10.9386
-10.6831
-10.6181
-10.8185
-10.7301
-10.8776
-10.2637
-10.1596
-9.40325
-8.61377
-8.26049
-7.23853
-7.77191
-6.5671
-7.28746
-5.71123
-7.53369
-5.26729
-6.18596
-3.11449
-4.31862
0.570826
1.08307
5.43264
6.12731
11.3286
11.6392
20.8465
32.2863
34.5822
31.7898
32.2443
30.8222
30.8012
30.2317
29.8572
29.7431
29.2393
29.3075
28.6963
28.9032
28.3238
28.738
28.1962
28.6137
28.5622
28.4741
28.7821
28.4178
29.1219
28.4083
29.1873
28.4011
29.2201
28.3463
29.1949
28.2426
29.0507
28.0088
28.7171
27.4963
28.0085
26.8669
27.1374
26.2
26.3461
26.3888
26.0868
26.8254
26.1115
27.0831
26.1808
27.3549
26.2946
27.5965
26.391
27.7179
26.5482
27.7194
26.8475
27.4952
27.2719
27.208
27.6224
27.0939
27.8046
27.1006
27.921
27.2102
28.0678
27.1911
28.0687
26.9408
27.7165
26.4037
27.1178
26.1168
26.5154
25.9102
25.787
25.8708
25.1429
25.6356
24.6591
25.3867
24.3139
25.2427
24.0555
25.1975
23.9067
25.2224
23.9592
25.1027
24.2343
24.8418
24.7349
24.4283
25.032
24.1934
25.1742
24.0506
25.2742
23.932
25.3318
23.8742
25.3404
23.8925
25.2947
23.9757
25.1835
24.082
25.0809
24.1983
24.8695
24.4767
24.42
24.7116
24.1276
24.7939
23.9766
24.7847
23.9066
24.728
23.8885
24.6028
23.8403
24.4517