/*--------------------------------*- C++ -*----------------------------------*\
| =========                 |                                                 |
| \\      /  F ield         | OpenFOAM: The Open Source CFD Toolbox           |
|  \\    /   O peration     | Version:  4.1                                   |
|   \\  /    A nd           | Web:      www.OpenFOAM.org                      |
|    \\/     M anipulation  |                                                 |
\*---------------------------------------------------------------------------*/
FoamFile
{
    version     2.0;
    format      ascii;
    class       volScalarField;
    location    "23.5";
    object      p;
}
// * * * * * * * * * * * * * * * * * * * * * * * * * * * * * * * * * * * * * //

dimensions      [0 2 -2 0 0 0 0];

internalField   nonuniform List<scalar> 
204246
(
168.133
8.58512
64.691
35.5705
31.1116
40.2952
21.0365
39.8174
17.1237
38.9841
15.3073
38.6706
13.6598
37.3749
16.0201
32.2065
25.4423
17.0185
34.4013
12.5792
36.6489
12.1424
35.5767
12.5511
35.6186
12.0289
36.6893
10.0582
37.4929
10.0038
36.7851
11.3312
34.3653
15.5498
27.8775
24.933
14.5825
32.6238
11.6265
33.1932
11.2351
33.7538
10.4814
34.9844
8.5637
35.7726
8.89324
34.7537
11.3388
31.0679
15.6276
26.2495
24.4614
13.565
32.091
10.9488
32.7493
10.7618
33.4092
10.1091
34.6968
8.19377
35.4853
8.43144
34.4226
10.6805
30.6986
14.624
25.996
22.7837
14.0505
28.7432
11.1324
30.7407
9.78607
31.6893
8.67789
33.0063
6.54818
33.7797
6.70474
32.7148
8.97194
29.0097
13.0196
24.3439
21.3796
12.3879
27.6223
9.40996
30.1003
7.68227
32.178
5.09551
33.6132
4.48639
33.6322
4.81486
32.6285
6.50244
29.6697
8.65463
27.4769
11.2042
23.828
17.5411
11.5144
25.0574
6.74167
28.1078
2.89556
28.8508
2.03332
27.4082
1.06265
25.6969
-0.0732944
23.2003
-0.818773
19.1436
0.0821052
12.2722
5.22745
-4.03501
9.70972
-11.58
8.14829
-16.7629
4.2777
-21.3665
-0.350051
-25.9903
-5.07533
-30.1625
-9.70761
-32.691
-14.7217
-32.4905
-21.2245
-26.0497
-35.8769
-18.0698
-39.7381
-14.8426
-39.8785
-12.3679
-38.5778
-10.1474
-36.339
-8.21405
-33.4903
-6.81383
-29.8356
-6.54579
-24.2193
-8.95969
-12.9273
-20.0833
-1.81156
-21.7905
3.67644
-20.2875
7.7234
-17.1978
11.6125
-12.7321
15.5994
-6.41955
19.9362
1.72177
25.4499
11.9434
31.7353
25.0622
39.4363
42.8326
47.6861
60.2847
64.8651
78.9197
87.8106
99.4526
116.35
126.215
151.584
163.223
202.57
213.067
276.073
277.327
396.785
385.883
610.686
78.5933
32.9612
39.5163
41.7028
28.6385
38.6949
24.5453
35.5399
22.146
33.6137
21.0249
32.0675
21.2912
29.0234
24.1082
24.0908
29.4361
19.2443
29.9577
18.5662
29.8161
18.7489
29.5056
18.3493
29.7908
17.7875
30.2587
17.4528
29.6906
18.1181
28.3678
19.7864
25.6777
23.1773
21.3161
27.8024
17.4297
27.9856
17.2414
27.8238
16.724
28.1467
16.1475
28.5702
15.9378
27.8713
16.9377
26.3266
19.1083
23.7613
22.0628
20.054
26.8371
16.5029
27.2162
16.565
27.2524
16.2393
27.7418
15.7834
28.2771
15.6081
27.6276
16.5417
26.0856
18.5262
23.5194
21.1382
19.8862
25.3944
16.4778
25.5342
15.6214
25.9173
14.9983
26.2728
14.3168
26.6734
13.9815
25.9226
14.8324
24.3229
16.8176
21.741
19.5154
18.1198
23.9498
14.7127
24.3619
13.7828
25.1813
12.9348
26.0925
12.2874
26.0144
12.441
25.4962
13.0683
24.3647
14.323
22.7503
15.4305
20.8213
17.634
17.3771
21.7965
12.8638
22.5565
11.2821
23.0343
10.1443
22.1365
9.71313
20.9009
8.91687
19.2929
8.04897
16.768
7.65503
12.685
8.17267
6.64368
10.6052
0.114873
7.30864
-4.05006
3.743
-8.32313
-0.466429
-12.8519
-5.1238
-17.3199
-10.3291
-21.3112
-15.9039
-24.0939
-21.6454
-24.6629
-27.8829
-22.3141
-33.721
-22.873
-34.6213
-22.3114
-34.0675
-20.8265
-32.4402
-19.02
-29.9961
-17.2998
-26.9423
-16.085
-23.1215
-15.9228
-17.906
-17.6437
-10.5728
-19.4426
-7.2303
-17.7273
-4.21498
-15.2872
-1.19234
-12.1491
2.09309
-8.06047
5.91177
-2.90255
10.1206
3.86116
15.3681
12.4805
21.1458
23.2256
28.699
35.6817
41.7136
48.2579
59.1534
62.778
79.3948
81.4008
101.68
105.477
130.231
132.945
170.296
166.773
227.839
199.204
302.009
249.202
384.587
30.0624
47.7046
34.6164
42.1678
30.7081
37.6784
26.0026
35.5901
22.9845
33.8978
21.7951
32.1302
21.9506
29.5177
23.8705
25.7017
27.0907
21.6722
28.8822
19.5942
29.7104
18.8021
29.8446
18.3515
29.9573
17.9721
30.0582
17.7762
29.6564
18.2611
28.5243
19.6804
26.2733
22.2891
22.8239
25.4636
19.415
27.051
17.7661
27.7827
16.8816
28.1489
16.3659
28.3019
16.2395
27.8462
16.97
26.6207
18.691
24.4631
21.3017
21.4445
24.6037
18.384
26.3504
17.0208
27.2576
16.3479
27.7799
15.9579
28.0393
15.8621
27.6286
16.5231
26.3966
18.0641
24.2139
20.3723
21.185
23.2719
18.0603
24.76
16.2512
25.7075
15.2239
26.2054
14.5374
26.4009
14.2499
25.9239
14.8175
24.6496
16.3571
22.4538
18.7545
19.4315
21.8411
16.2928
23.6043
14.4292
24.9154
13.274
25.764
12.554
25.9814
12.4447
25.6559
12.8776
24.731
13.8281
23.2586
15.0953
21.2644
17.0811
18.2785
19.8246
14.6234
21.5103
12.1591
22.4145
10.5378
22.1542
9.63191
21.1379
8.81749
19.5742
8.06791
17.0808
7.77402
13.3002
8.0528
7.99676
8.4142
1.97322
6.86466
-3.00193
4.10722
-7.42711
-0.0192157
-11.7679
-4.92136
-16.1315
-10.1409
-20.1869
-15.5267
-23.1561
-21.1075
-24.2792
-26.7312
-24.2914
-31.3161
-23.6831
-33.463
-22.2899
-33.6533
-20.4637
-32.3435
-18.5488
-29.9549
-16.8191
-26.9002
-15.6207
-23.1457
-15.3412
-18.2682
-16.275
-12.5726
-17.3501
-8.17528
-16.8916
-4.3636
-15.1242
-0.984972
-12.2771
2.37372
-8.24366
5.91939
-2.76883
9.61228
4.29201
14.5275
12.8524
21.3157
22.772
30.6607
34.1529
42.1353
47.988
57.6546
65.0808
77.1025
85.448
101.692
109.736
134.661
140.585
180.516
178.224
244.089
223.739
321.078
295.771
389.634
16.9357
31.0701
25.7061
36.3155
26.1809
35.0941
25.0214
32.9845
24.0064
30.6752
23.9006
28.5308
24.6742
25.8686
26.4072
23.0459
28.169
21.4773
27.7502
21.2683
27.1981
21.3395
26.9007
21.1452
26.8449
20.9975
26.6829
21.228
25.9194
21.9992
24.631
23.3557
22.7246
25.2173
20.6387
26.6404
19.5916
26.1116
19.5271
25.6603
19.3367
25.4155
19.2371
25.0762
19.576
24.167
20.5262
22.8372
22.0214
21.1843
23.7817
19.4151
25.4266
18.6296
25.1706
18.812
24.9879
18.8346
24.9768
18.8875
24.8107
19.295
24.0016
20.212
22.7046
21.5636
21.0324
23.0785
19.1902
24.4532
18.1836
24.1147
17.8082
23.849
17.5619
23.6362
17.404
23.2706
17.6514
22.3012
18.4737
20.8976
19.8105
19.1727
21.3993
17.3239
22.9388
16.3305
22.8433
15.9704
22.8795
15.7623
22.8932
15.8171
22.4829
16.1843
21.8329
16.801
20.902
17.6373
19.7657
18.5441
18.258
19.9449
16.2856
21.462
14.7224
21.2362
14.0492
20.7011
13.7062
19.6188
13.4403
18.3613
12.9441
16.7901
12.3644
14.4487
12.0398
11.1104
11.8087
7.08751
11.1367
4.19629
7.07738
0.849933
2.88233
-2.80687
-1.79398
-6.92005
-6.99268
-11.2803
-12.617
-15.7156
-18.2772
-19.725
-23.5913
-22.5409
-28.1265
-24.4914
-31.8415
-26.4063
-32.7798
-26.6776
-32.2718
-25.7402
-30.4344
-24.1961
-27.6284
-22.5318
-24.329
-21.2191
-20.6818
-20.5536
-16.6505
-20.1581
-12.9464
-18.6485
-10.7974
-16.5426
-8.67138
-14.0547
-6.41019
-11.1583
-3.87507
-7.63927
-0.485002
-3.60528
3.3702
1.78201
7.90401
8.67534
14.0521
16.6249
22.1834
26.3057
33.1385
37.1873
47.0751
50.0359
64.0053
65.2039
83.8978
82.1311
107.931
101.712
140.031
123.628
185.269
147.483
224.273
199.313
271.896
10.2799
34.527
22.8002
35.0155
26.2149
34.41
25.9216
32.9586
25.0605
30.9465
24.8269
28.9641
25.2376
26.7435
26.1482
24.6177
26.9089
23.3725
26.8851
22.4859
26.9388
21.8668
26.9981
21.4334
26.9396
21.2872
26.6587
21.5233
26.0031
22.1183
24.9678
23.1155
23.5139
24.331
22.0123
25.1388
21.1375
25.1818
20.4221
25.3106
19.8406
25.2597
19.6226
24.9278
19.884
24.2186
20.5744
23.2149
21.6571
21.9829
22.939
20.6951
24.0012
20.0579
24.3032
19.6019
24.6833
19.2485
24.8549
19.1905
24.686
19.5239
24.064
20.1886
23.0721
21.1463
21.7883
22.2297
20.3679
23.0652
19.4866
23.2469
18.6743
23.4242
18.089
23.4126
17.8014
23.091
17.9533
22.3448
18.5056
21.2681
19.4327
19.9399
20.5688
18.518
21.5577
17.6464
21.9566
16.861
22.3776
16.3361
22.5499
16.195
22.3665
16.3278
21.9233
16.7179
21.1921
17.3237
20.2177
18.1156
18.859
19.1776
17.2613
20.0808
16.0729
20.1662
15.0551
20.0398
14.3085
19.4409
13.7002
18.4772
13.1296
17.0454
12.6677
14.8215
12.4115
11.8973
11.8449
8.69914
9.9785
5.66813
7.50036
2.36671
3.85236
-1.28241
-0.544982
-5.26003
-5.70271
-9.57791
-11.2586
-14.1469
-16.8007
-18.524
-21.801
-22.4954
-26.0219
-25.5233
-29.2488
-26.9838
-31.0011
-26.7578
-31.3332
-25.4178
-30.029
-23.7636
-27.3117
-21.9719
-24.0785
-20.4947
-20.6156
-19.4903
-17.4341
-18.0138
-14.2367
-16.6772
-11.6386
-15.2629
-8.88663
-13.3449
-6.12869
-10.8642
-3.33487
-7.67754
-0.108803
-3.36913
3.76908
2.10353
8.75774
8.48918
15.4064
16.1871
23.7617
25.6056
34.5317
37.356
48.35
52.1222
65.632
70.0962
88.2917
90.495
116.906
114.781
155.844
141.628
201.285
180.054
240.834
229.118
274.923
10.0563
24.1713
19.0473
28.3785
22.6382
30.1395
24.0628
29.672
24.6199
28.248
25.0605
26.5799
25.7838
24.7886
26.5947
23.3451
26.9201
22.8283
26.3449
22.7527
25.8048
22.7583
25.4414
22.7319
25.1456
22.8438
24.7255
23.2369
24.013
23.8876
23.0592
24.7291
21.9616
25.4983
21.108
25.6557
20.9049
25.0104
20.9069
24.4417
20.8801
23.8808
20.9998
23.217
21.4239
22.3437
22.1325
21.3748
23.0186
20.4652
23.8393
19.812
24.247
19.8517
23.9122
20.123
23.6677
20.3481
23.412
20.67
22.9886
21.2144
22.2648
21.9399
21.3489
22.742
20.3852
23.4071
19.5769
23.6266
19.3135
23.1518
19.1855
22.6731
19.1306
22.1544
19.2082
21.4852
19.5597
20.5546
20.1603
19.4879
20.9224
18.4389
21.6356
17.6089
21.9957
17.3898
21.7235
17.3614
21.4733
17.462
21.1397
17.7516
20.6317
18.1672
20.0197
18.6834
19.2931
19.2633
18.4843
19.8741
17.524
20.5361
16.5811
20.8528
16.1041
20.328
15.9035
19.5737
15.8273
18.5449
15.6979
17.3577
15.4238
15.9048
15.0237
13.9217
14.4777
11.6079
13.566
9.2303
11.6295
6.78676
8.51819
3.83435
4.63262
0.396435
0.0574819
-3.60045
-5.21416
-8.20089
-10.9533
-13.2665
-16.8676
-18.4285
-22.4599
-23.1228
-27.1312
-27.2628
-30.6182
-29.8701
-32.5311
-30.3024
-32.5457
-29.5873
-30.5401
-28.1143
-27.2768
-26.0247
-23.8808
-23.8868
-20.7898
-22.1924
-17.8646
-20.5752
-15.5096
-18.3843
-13.5979
-16.3086
-11.8426
-14.1601
-9.82861
-12.0324
-7.38779
-9.60294
-4.55551
-6.37148
-1.40674
-2.07519
2.7814
3.06396
8.15282
9.42349
15.0766
17.0568
23.9619
25.9881
34.9639
36.5236
48.9885
47.9161
66.7209
60.9772
87.7175
76.1726
115.099
93.785
143.233
122.058
171.208
162.229
204.615
9.38456
29.7599
18.3027
30.198
22.8151
30.3979
24.7376
30.0013
25.4141
28.7958
25.793
27.2449
26.248
25.7386
26.5573
24.6178
26.4446
24.1834
25.9167
23.8234
25.6026
23.4613
25.4229
23.2028
25.1892
23.2027
24.7951
23.4982
24.2029
23.974
23.4773
24.5299
22.7028
24.9513
22.1324
24.8554
22.021
24.3974
21.7995
24.0855
21.5363
23.6974
21.4934
23.1521
21.7607
22.4616
22.2388
21.7578
22.8098
21.1463
23.2927
20.7561
23.4911
20.8232
23.3382
20.8614
23.3426
20.8518
23.2512
21.0144
22.9366
21.4126
22.3823
21.9286
21.7042
22.4498
21.0243
22.8314
20.4448
22.8529
20.2639
22.5441
19.9916
22.2862
19.7519
21.9364
19.6867
21.3977
19.89
20.6566
20.2621
19.8448
20.7159
19.0812
21.0895
18.5012
21.2277
18.3437
21.0832
18.1607
21.0182
18.0578
20.8461
18.1558
20.5098
18.3803
20.0634
18.7037
19.4995
19.0919
18.8466
19.5102
18.0688
19.9227
17.3457
20.006
17.0255
19.5802
16.7259
19.0697
16.447
18.3555
16.1335
17.4394
15.7711
16.2256
15.5405
14.4824
14.9666
12.5938
13.7418
10.6092
11.8492
8.32856
9.46602
5.70131
6.05967
2.44914
1.88972
-1.42715
-3.02388
-5.98796
-8.5005
-11.1091
-14.3058
-16.5067
-19.9697
-21.713
-24.8172
-26.2656
-28.6339
-29.1252
-30.9158
-30.1221
-31.5258
-29.619
-30.15
-27.9224
-27.2477
-25.4715
-23.8958
-22.8879
-20.8992
-20.6279
-18.3113
-18.8063
-15.7497
-17.2295
-13.6616
-15.4396
-11.4075
-13.5883
-8.92149
-11.6847
-6.35845
-9.21938
-3.64156
-5.74773
-0.249322
-1.60658
4.13049
3.42235
9.72976
9.65563
16.9342
17.4387
26.266
27.1141
38.1813
38.856
53.6786
52.8541
73.0995
69.568
97.232
88.5561
126.075
112.782
154.464
143.9
180.341
175.873
203.88
8.56722
22.6984
15.7524
24.7607
20.3442
26.2054
22.7435
26.6321
24.2797
26.2186
25.1344
25.3189
25.7926
24.3554
26.1528
23.7006
26.0124
23.5943
25.4078
23.6225
24.8917
23.6453
24.4818
23.7046
24.0899
23.9109
23.6337
24.2953
23.0732
24.7604
22.4737
25.1954
21.9176
25.4061
21.6977
25.0605
21.7583
24.3555
21.841
23.6988
21.8908
22.98
22.0361
22.2198
22.3573
21.4514
22.7902
20.7865
23.235
20.3827
23.4943
20.2557
23.4527
20.5822
23.0794
20.9604
22.8038
21.3029
22.4799
21.7179
22.037
22.2336
21.4701
22.7528
20.885
23.1662
20.3754
23.3553
20.1133
23.098
20.1099
22.5287
20.1286
21.9458
20.1662
21.3019
20.297
20.5638
20.575
19.7448
20.9218
18.9577
21.2685
18.3493
21.4478
18.0103
21.3268
18.0969
20.9201
18.2737
20.55
18.5248
20.1186
18.8853
19.6116
19.2847
19.0855
19.6941
18.5412
20.0785
18.0107
20.3988
17.478
20.6074
17.1216
20.4218
17.0816
19.7871
17.1479
19.0284
17.2204
18.1096
17.2071
17.0781
17.0456
15.834
16.638
14.4354
15.9843
12.8529
14.8194
11.1607
12.9243
9.0457
10.2437
6.55786
6.81472
3.44264
2.56406
-0.416978
-2.48733
-5.16
-8.24512
-10.7084
-14.4836
-16.7928
-20.8319
-22.8599
-26.6277
-28.3446
-31.1779
-32.3372
-33.8619
-33.876
-34.1792
-33.3224
-32.2955
-31.2344
-29.028
-28.2259
-25.3716
-25.1607
-21.9897
-22.7393
-19.0086
-20.8579
-16.9875
-18.7568
-15.309
-16.9202
-13.7417
-15.1417
-11.9476
-13.5685
-9.95341
-11.8256
-7.78758
-9.38472
-5.15736
-6.21239
-1.7776
-2.2737
2.57996
2.58986
8.15729
8.46472
15.3584
15.4672
24.5835
23.4786
36.5989
32.6133
51.6402
42.9965
69.8654
55.5025
88.8411
74.7922
108.989
100.515
132.405
129.837
158.168
11.2228
26.9993
16.8941
27.525
21.0741
27.6908
23.5694
27.518
24.9533
26.9733
25.7059
26.0978
26.2163
25.2441
26.3157
24.704
25.951
24.6164
25.2926
24.5122
24.8126
24.3466
24.464
24.2339
24.1185
24.3
23.7261
24.5532
23.2946
24.8654
22.8807
25.1263
22.5501
25.0904
22.489
24.717
22.6416
24.0376
22.6523
23.459
22.5998
22.8557
22.6138
22.2089
22.7764
21.5775
23.0282
21.1091
23.2094
20.8891
23.2686
20.9064
23.1071
21.2422
22.7642
21.5397
22.5713
21.7557
22.345
22.0404
22.0102
22.4187
21.5859
22.7855
21.1703
23.0328
20.8758
23.006
20.7423
22.7388
20.829
22.1984
20.8242
21.7045
20.7858
21.1675
20.8155
20.5467
20.9702
19.8662
21.15
19.2502
21.2789
18.8267
21.2139
18.6457
20.9511
18.7959
20.5358
18.9172
20.2233
19.0547
19.8853
19.2784
19.4924
19.5356
19.085
19.7951
18.6657
20.0235
18.267
20.1746
17.8879
20.1971
17.6636
19.9458
17.7244
19.3358
17.7852
18.7056
17.7952
17.9904
17.7107
17.1863
17.5766
16.2375
17.2096
15.0947
16.5244
13.9284
15.341
12.5913
13.7287
10.9224
11.516
8.79163
8.56465
6.00717
4.81387
2.40867
0.26669
-2.15956
-5.08461
-7.6941
-11.1551
-13.9151
-17.6136
-20.378
-23.7758
-26.3244
-28.9777
-30.8275
-32.4564
-33.3947
-33.8113
-33.6296
-32.969
-31.7185
-29.9709
-28.2848
-25.9225
-24.6238
-22.0616
-21.7709
-19.1946
-19.7316
-16.9555
-18.0529
-15.0406
-16.2833
-13.0851
-14.4705
-10.9249
-12.8382
-8.7592
-10.9975
-6.54647
-8.49756
-3.82578
-5.43244
-0.382925
-1.64221
4.08747
3.14843
9.94134
9.07845
17.6448
16.3195
27.7955
25.0415
40.9921
35.789
57.2514
48.7268
75.9487
65.6661
94.7448
87.2618
114.625
110.549
134.639
133.216
153.357
8.97317
22.2781
14.6136
23.1421
18.7499
24.0914
21.7161
24.5229
23.5601
24.6198
24.7148
24.3977
25.3503
24.0671
25.5739
23.9022
25.3341
24.0337
24.7367
24.17
24.219
24.2366
23.7779
24.3313
23.3687
24.5396
22.9752
24.8474
22.6027
25.1489
22.2906
25.3342
22.1133
25.2815
22.1246
24.8028
22.3748
24.0518
22.5205
23.2807
22.6296
22.45
22.6999
21.6676
22.8536
20.992
23.0188
20.6152
23.0977
20.4888
23.1101
20.58
22.9128
21.0414
22.5197
21.5102
22.2297
21.9253
21.914
22.3596
21.5371
22.8068
21.1303
23.1684
20.8018
23.3079
20.6151
23.2542
20.5414
22.8511
20.7105
22.1821
20.8248
21.5174
20.8943
20.8287
21.0001
20.098
21.1643
19.4004
21.2773
18.8377
21.299
18.4644
21.2232
18.3223
20.8702
18.576
20.3644
18.8798
19.9352
19.214
19.4901
19.5977
19.0231
19.963
18.59
20.2794
18.2014
20.511
17.8958
20.61
17.6632
20.5661
17.5774
20.2033
17.7713
19.5173
18.0041
18.7917
18.1875
17.9848
18.276
17.1068
18.1371
16.2239
17.7812
15.2694
17.0591
14.2588
15.9574
12.9779
14.3716
11.3277
12.1385
9.28207
9.2067
6.63089
5.44685
3.07577
0.866211
-1.58454
-4.63198
-7.35931
-11.0922
-14.0805
-18.2424
-21.3418
-25.47
-28.3333
-31.8475
-34.0243
-36.1587
-37.18
-37.5492
-37.2765
-35.9239
-34.7785
-32.156
-30.7465
-27.4027
-26.4495
-23.0187
-23.0491
-19.5972
-20.916
-17.6495
-19.0738
-16.2702
-17.5547
-15.0822
-16.0376
-13.6175
-14.8563
-11.9567
-13.7657
-10.2354
-12.0904
-8.21498
-9.75047
-5.58549
-6.85994
-2.14916
-3.30025
2.40285
0.983176
8.36292
6.04068
16.1501
11.8586
25.9486
18.9122
38.2743
27.6979
50.8585
41.1449
64.8983
58.4391
81.8359
78.9436
101.451
101.214
122.228
12.4748
26.0641
16.836
25.9454
20.2501
25.9384
22.7167
25.7824
24.2644
25.508
25.2003
25.1548
25.7192
24.8506
25.8127
24.6806
25.4424
24.811
24.7954
24.8689
24.2612
24.8442
23.8077
24.8192
23.4045
24.8982
23.0611
25.0807
22.8094
25.2534
22.6521
25.3333
22.5938
25.2184
22.7794
24.6632
23.1211
23.8899
23.2663
23.2508
23.2603
22.5027
23.2517
21.7231
23.3178
21.1221
23.3641
20.8969
23.2278
20.8327
23.086
20.9879
22.7952
21.4496
22.3746
21.8996
22.0893
22.2564
21.8124
22.6064
21.5089
22.9487
21.2118
23.1983
21.0153
23.2609
20.9374
23.1493
21.0159
22.701
21.2744
22.0542
21.4124
21.4376
21.4579
20.7916
21.5146
20.1404
21.5877
19.5375
21.6152
19.0947
21.4923
18.8142
21.1592
18.7876
20.7033
19.0855
20.1563
19.3619
19.7209
19.633
19.3082
19.93
18.9042
20.2012
18.5477
20.4094
18.2492
20.5205
18.048
20.5098
17.9077
20.3451
17.9467
19.9288
18.2205
19.2618
18.4816
18.6089
18.6759
17.9359
18.7756
17.2803
18.6323
16.6483
18.2668
16.0005
17.6189
15.2627
16.7067
14.3152
15.4081
13.1404
13.5424
11.5804
11.0046
9.33724
7.8097
6.07886
3.80463
1.66739
-1.26713
-3.94461
-7.50996
-10.7297
-14.7262
-18.3604
-22.3761
-26.055
-29.5311
-32.5689
-35.0074
-36.9512
-37.9682
-38.5751
-37.9446
-37.062
-34.5582
-32.5191
-29.0882
-27.1303
-23.5949
-23.0419
-20.0066
-20.5313
-17.9005
-18.7729
-16.1394
-17.0349
-14.4533
-15.214
-12.5692
-13.8362
-10.6995
-12.6795
-9.09016
-11.0497
-7.14523
-9.03517
-4.66624
-6.52768
-1.30297
-3.33354
3.24238
0.679064
9.5027
5.54874
17.8488
11.6387
28.3108
19.6712
39.8674
31.4929
52.4441
45.9802
66.5475
62.5593
82.1068
80.1903
98.2553
97.9059
114.107
9.35389
22.4845
14.5517
22.3838
18.3713
22.8654
21.0896
23.3324
22.9419
23.6066
24.1432
23.7326
24.781
23.8375
25.016
24.0072
24.8088
24.2997
24.2516
24.5275
23.709
24.6482
23.2344
24.7586
22.8196
24.9172
22.516
25.1039
22.3623
25.2486
22.2566
25.3766
22.2939
25.2048
22.5241
24.6916
22.8928
23.9148
23.1383
23.1542
23.1512
22.3601
23.0895
21.5462
23.0241
20.8737
22.9693
20.5506
22.8315
20.5339
22.7724
20.7658
22.5352
21.3156
22.1352
21.8689
21.84
22.3415
21.5531
22.7758
21.2572
23.1558
20.9824
23.3962
20.8257
23.4295
20.8191
23.2427
20.9471
22.7585
21.2165
22.0338
21.3946
21.3326
21.4363
20.6489
21.4641
19.9573
21.4858
19.3143
21.4793
18.8292
21.3473
18.5473
21.0208
18.5649
20.5469
18.9011
19.9684
19.2912
19.5035
19.6862
19.0646
20.0872
18.6424
20.4247
18.2939
20.6667
18.0317
20.7798
17.8838
20.7446
17.8603
20.5521
17.9555
20.1149
18.2708
19.4101
18.621
18.7147
18.8961
18.0004
19.0558
17.3359
18.9398
16.7735
18.5907
16.2032
18.0146
15.5105
17.175
14.6663
15.8877
13.5934
14.0172
12.1786
11.664
10.0177
8.70511
6.89927
4.86677
2.65654
-0.154788
-2.92862
-6.53768
-9.95954
-14.2674
-18.2323
-22.9348
-27.0341
-31.5666
-35.1441
-38.4259
-40.6558
-41.9106
-42.3552
-41.2438
-40.0789
-37.057
-34.7879
-30.4194
-28.2565
-23.9734
-22.8782
-19.3907
-20.4192
-17.5776
-19.1352
-16.7011
-18.1485
-15.9564
-16.8926
-14.7691
-15.908
-13.494
-15.1456
-12.1568
-14.1194
-10.5966
-12.611
-8.46515
-10.7
-5.73133
-8.39494
-1.99956
-5.61836
2.86783
-2.33675
9.06888
1.88087
16.1252
8.16178
23.9637
16.7506
33.3887
28.0022
44.8463
41.8502
58.8941
58.0303
75.0479
75.4248
92.269
14.2203
25.5811
17.653
24.8495
20.2556
24.6085
22.2025
24.5603
23.6464
24.4629
24.5988
24.386
25.1341
24.4304
25.2438
24.5569
24.9513
24.8739
24.3722
25.0597
23.8489
25.1473
23.2882
25.1713
22.8535
25.2051
22.5974
25.2816
22.5119
25.3681
22.5033
25.46
22.6742
25.2431
23.0226
24.6577
23.525
23.8323
23.7701
23.1734
23.7727
22.4451
23.6778
21.6579
23.5394
21.0615
23.3494
20.7928
23.1572
20.6992
22.8974
20.9584
22.5386
21.509
22.0717
22.0775
21.7409
22.5427
21.4553
22.9336
21.2041
23.2472
21.0142
23.4061
20.9538
23.4247
21.0355
23.2181
21.2765
22.7264
21.6586
22.0374
21.9
21.3477
21.946
20.6862
21.9643
20.0281
21.9466
19.462
21.8291
19.1066
21.5509
18.8503
21.0799
18.913
20.5037
19.2675
19.8743
19.6266
19.3648
19.9836
18.9175
20.3351
18.5231
20.6169
18.2173
20.7902
18.0133
20.8301
17.9373
20.714
17.9691
20.4503
18.1636
19.9622
18.572
19.2734
18.9599
18.6217
19.2656
18.0049
19.438
17.4982
19.3089
17.1503
18.9752
16.7974
18.4885
16.3606
17.7714
15.8605
16.6902
15.2162
15.1909
14.1046
13.3034
12.286
10.8795
9.56348
7.55383
5.69148
2.99636
0.373826
-3.10859
-6.62116
-10.8764
-15.2104
-19.9806
-24.8076
-29.5155
-34.0778
-37.8595
-41.1391
-43.3421
-45.0096
-45.0534
-44.7298
-42.0047
-39.4905
-34.5568
-31.1634
-25.997
-24.2891
-20.4459
-20.4696
-18.2416
-18.8161
-16.975
-17.2952
-15.3678
-15.508
-13.9133
-14.3408
-12.4623
-13.8416
-11.2618
-13.0634
-10.1624
-12.1752
-8.56136
-10.9753
-6.1076
-9.41128
-2.68874
-7.26146
2.04245
-4.34929
7.84298
0.328119
14.3667
7.13522
22.2899
15.915
31.5994
26.6046
42.3814
39.029
54.4972
52.9564
67.9792
67.4503
81.6897
10.9289
22.7553
15.4369
22.2097
18.7072
22.2643
21.0057
22.6098
22.6552
22.9634
23.7169
23.2794
24.2595
23.6734
24.5275
24.0712
24.3979
24.4916
23.9188
24.787
23.4397
24.902
22.9256
24.9982
22.4002
25.1214
22.214
25.1323
22.1731
25.2315
22.1912
25.3782
22.4102
25.1781
22.8225
24.6657
23.3602
23.8694
23.792
23.1027
23.7439
22.3667
23.5568
21.5666
23.2339
20.837
22.9173
20.4456
22.5796
20.5076
22.5196
20.7995
22.2594
21.4692
21.8463
22.1226
21.5389
22.6517
21.2853
23.081
21.0674
23.4057
20.8968
23.556
20.8728
23.5334
20.998
23.2682
21.2712
22.7529
21.67
21.9943
21.9493
21.249
21.9501
20.5839
21.8873
19.9134
21.8101
19.3307
21.6687
18.8806
21.3867
18.6438
20.8922
18.7431
20.3164
19.1254
19.6678
19.5872
19.1645
20.039
18.7274
20.4628
18.3441
20.7861
18.0661
20.9744
17.9041
21.0093
17.8775
20.8821
17.973
20.597
18.2064
20.1072
18.6314
19.3863
19.0854
18.7083
19.4363
18.0765
19.6295
17.6047
19.507
17.3084
19.2397
16.9884
18.8355
16.6476
18.1494
16.2934
17.1146
15.7672
15.7081
14.7778
14.109
13.119
11.9896
10.7055
9.01719
7.21327
4.82747
2.27754
-0.986274
-4.49475
-8.77887
-13.324
-18.5413
-23.8441
-29.5454
-34.8412
-39.8844
-43.9467
-46.6998
-48.5362
-48.5218
-47.8443
-44.6607
-41.8484
-35.8855
-31.7691
-25.2801
-22.3498
-18.1282
-18.658
-16.7441
-18.6509
-17.0739
-18.7869
-17.098
-17.5255
-15.7788
-16.4356
-14.7362
-15.9714
-13.8253
-15.3223
-12.7275
-14.3651
-11.2422
-13.3258
-9.06309
-12.1558
-6.05518
-10.6524
-2.4194
-8.31708
1.67136
-4.73745
6.28255
0.0512081
11.8611
6.63704
18.7347
15.1699
27.4109
25.7026
38.2807
37.9686
51.4201
51.5025
65.7168
16.1157
25.2722
18.8633
24.0929
20.6782
23.7582
22.0616
23.6364
23.2131
23.6481
24.0284
23.8047
24.5175
24.0328
24.6961
24.3689
24.5037
24.8551
24.0124
25.1764
23.5457
25.2708
23.0229
25.2871
22.5318
25.2176
22.2683
25.2727
22.2394
25.3391
22.3222
25.4841
22.6719
25.2405
23.1637
24.6476
23.8329
23.7979
24.2763
23.1059
24.2889
22.4649
24.1267
21.7103
23.7919
21.0752
23.3441
20.6557
23.0541
20.4733
22.7191
20.8083
22.2784
21.4702
21.7677
22.186
21.4147
22.7554
21.1479
23.1724
20.9642
23.4594
20.8497
23.5675
20.8918
23.541
21.1103
23.2807
21.493
22.776
22.0226
22.0543
22.4017
21.2885
22.426
20.6453
22.3475
19.9805
22.2274
19.4559
22.003
19.0973
21.6271
18.865
21.033
18.9739
20.3391
19.3567
19.613
19.7943
19.0423
20.2331
18.58
20.6413
18.2037
20.94
17.9474
21.0879
17.8212
21.0751
17.8439
20.8944
17.9941
20.5603
18.3026
20.0206
18.8212
19.2916
19.3256
18.6334
19.7033
18.0757
19.855
17.7285
19.7533
17.5318
19.5425
17.3209
19.2073
17.1693
18.6138
17.0118
17.7544
16.8242
16.5778
16.0647
15.379
14.7705
13.6817
12.77
11.202
9.72051
7.5066
5.18586
2.07612
-1.37276
-5.6348
-10.3964
-15.846
-21.7182
-27.9177
-34.1119
-40.0154
-45.4295
-49.6241
-52.8599
-54.2831
-55.3822
-53.2057
-50.9632
-44.6931
-38.9345
-30.8317
-25.6069
-19.8441
-18.8482
-16.6653
-18.0128
-16.6857
-16.7981
-16.0488
-15.5587
-14.8467
-14.3387
-13.5392
-14.3795
-12.9086
-14.1861
-12.653
-14.2392
-12.0237
-14.1542
-10.6185
-13.5728
-8.42498
-12.5661
-5.49013
-10.749
-2.04503
-7.94317
2.15412
-3.81501
7.32795
1.70883
13.8341
8.76738
21.5735
17.4348
30.6931
28.0486
41.5745
40.4411
53.64
12.9131
23.1974
17.1338
22.2637
19.6179
22.0477
21.3419
22.2419
22.6278
22.5921
23.4064
23.0447
23.8553
23.5733
24.1125
24.0901
24.0341
24.6663
23.6076
25.0924
23.1762
25.2115
22.7429
25.1863
22.2807
25.1303
22.0083
25.0232
21.9863
25.0768
22.0815
25.2579
22.4349
25.1631
23.0297
24.6597
23.7631
23.885
24.3739
23.1183
24.4182
22.4388
24.1346
21.7094
23.5401
20.8985
22.9206
20.3149
22.3656
20.3918
22.3323
20.7563
21.9981
21.5803
21.5578
22.3474
21.2259
22.9456
21.024
23.3453
20.8944
23.6085
20.8242
23.702
20.8685
23.621
21.0933
23.3061
21.5213
22.7531
22.1201
21.9731
22.5821
21.1918
22.5189
20.5723
22.3247
19.9342
22.1201
19.3975
21.8598
18.9686
21.4761
18.7562
20.8368
18.8868
20.139
19.3107
19.3884
19.8346
18.8295
20.3438
18.3892
20.8019
18.0449
21.1189
17.8352
21.2564
17.7631
21.221
17.8334
21.0184
18.0298
20.6615
18.375
20.1105
18.9133
19.3595
19.468
18.6871
19.8753
18.1367
20.058
17.7723
19.9999
17.6186
19.8247
17.4941
19.5248
17.4096
19.0375
17.392
18.2406
17.3223
17.1643
16.7501
16.1844
15.7003
14.8347
14.0592
12.8129
11.5139
9.6913
7.60519
4.91353
1.71321
-2.22839
-6.88442
-12.3736
-18.5604
-25.4198
-32.4314
-39.4373
-45.7042
-50.8868
-54.9109
-57.0746
-58.6525
-56.4221
-54.4449
-47.331
-40.7485
-29.7436
-23.3424
-15.4699
-14.189
-13.6717
-16.3661
-18.1902
-19.6799
-18.8166
-18.1712
-16.4337
-16.6449
-15.2078
-16.479
-15.054
-16.163
-14.3201
-15.5847
-13.711
-15.3548
-12.4836
-14.9084
-10.6968
-14.184
-8.36272
-12.8852
-5.7331
-10.791
-2.87554
-7.98106
0.805431
-3.94343
5.33888
1.77254
11.3115
9.21102
18.7649
17.8998
28.3568
28.5615
40.6798
18.8137
24.3304
20.5263
23.5492
21.3371
23.3175
22.0111
23.0801
22.9371
23.1105
23.5531
23.4068
23.9128
23.7452
24.2048
24.1896
24.0952
24.8439
23.6489
25.3185
23.1965
25.4495
22.8122
25.3849
22.3561
25.2433
22.0855
25.1374
22.0518
25.1874
22.1538
25.4109
22.5102
25.1869
23.1675
24.5887
24.0779
23.6878
24.7503
23.0179
24.84
22.5437
24.6188
21.9575
24.1506
21.2281
23.435
20.5007
22.9349
20.1352
22.523
20.5919
21.9467
21.4928
21.2898
22.3715
20.9862
22.9385
20.8473
23.3538
20.7461
23.6262
20.698
23.7293
20.7914
23.6329
21.1208
23.3139
21.6687
22.7654
22.3994
22.0189
22.9851
21.2676
22.9426
20.6687
22.6931
19.9836
22.4549
19.4849
22.1429
19.1483
21.6817
18.9476
21.0183
19.0054
20.1849
19.4121
19.3211
19.9347
18.6832
20.4666
18.2185
20.9361
17.8735
21.2532
17.6788
21.3695
17.6253
21.3127
17.7283
21.0813
17.9677
20.6821
18.3831
20.0706
19.0291
19.2565
19.674
18.571
20.1195
18.0553
20.2986
17.7535
20.2157
17.6407
20.0486
17.5632
19.8006
17.5794
19.3694
17.6843
18.7005
17.8811
17.7305
17.5215
16.9984
16.7587
16.0025
15.4944
14.4502
13.4616
11.9218
10.1695
7.79276
4.89268
1.19305
-3.33281
-8.88978
-15.4032
-23.1076
-31.0459
-39.6964
-47.6541
-54.5766
-59.72
-63.376
-66.8782
-66.2158
-66.1576
-60.3583
-53.2939
-41.0974
-29.8907
-19.1122
-14.0319
-11.373
-13.8057
-13.8773
-15.8515
-17.984
-16.3612
-15.6721
-14.2977
-13.35
-14.0834
-13.5625
-14.9934
-14.1016
-15.6271
-14.5032
-16.2071
-14.0304
-16.1748
-12.7701
-15.8192
-10.9521
-15.1909
-8.94322
-13.9676
-6.5226
-11.8127
-3.55248
-8.86111
0.324562
-4.66923
5.32562
0.437955
11.2038
6.92926
18.1092
15.492
28.0406
16.9888
23.2405
19.2056
22.644
20.7519
22.1997
22.1256
21.9797
22.8536
22.4021
23.236
22.9126
23.5878
23.4146
23.753
24.115
23.6005
24.8494
23.186
25.4323
22.897
25.5538
22.6399
25.4142
22.2457
25.1331
21.8884
24.921
21.7218
24.9586
21.8222
25.2158
22.307
25.098
23.1383
24.5203
24.1361
23.7605
24.8882
23.1273
25.1189
22.521
24.714
21.9486
23.9512
21.1354
23.1022
20.2716
22.3716
20.0843
22.1905
20.7195
21.6435
21.8184
21.1231
22.6222
20.8395
23.2467
20.7193
23.5919
20.6914
23.8238
20.6912
23.8608
20.7746
23.7149
21.09
23.2979
21.7078
22.6595
22.5937
21.851
23.2774
21.2024
23.1863
20.6824
22.7986
20.0416
22.436
19.4743
22.0361
19.089
21.6195
18.9041
20.9172
19.0576
20.0084
19.5315
19.0474
20.1111
18.4059
20.6587
17.9668
21.1692
17.6664
21.481
17.5484
21.5542
17.5697
21.4465
17.7327
21.1731
18.0322
20.7287
18.5035
20.08
19.1982
19.2318
19.8764
18.5533
20.327
18.0785
20.4864
17.8121
20.4335
17.739
20.2925
17.7375
20.0879
17.8268
19.7399
18.0476
19.0931
18.3385
18.3047
18.155
17.7153
17.6177
17.037
16.6842
15.9122
15.1305
13.9761
12.5147
10.6377
8.11621
4.94958
0.791148
-4.41522
-10.7857
-18.6369
-27.0503
-36.5212
-45.3355
-53.2162
-58.938
-62.8653
-67.8521
-68.1071
-69.8486
-65.8999
-58.8953
-43.3178
-30.4213
-13.9218
-6.8102
-6.06323
-13.306
-18.9419
-20.965
-20.5765
-19.7938
-17.0542
-16.2372
-15.1975
-16.5854
-15.2935
-16.4507
-14.7089
-16.1095
-14.9917
-16.8773
-14.9224
-17.0916
-13.993
-16.945
-12.39
-16.3147
-11.1205
-15.4681
-9.62868
-14.5918
-7.80654
-13.1067
-5.82628
-10.1211
-2.50259
-5.06832
0.912622
-0.213633
6.36411
6.08966
15.4063
21.0318
24.171
21.8065
23.3032
22.0753
22.8689
22.3283
22.8196
22.7239
22.9346
23.1731
23.1753
23.519
23.5861
23.7041
24.1076
23.714
24.8418
23.1575
25.4189
22.9499
25.5289
22.7444
25.5484
22.3825
25.366
22.0787
25.1855
21.7636
25.2824
21.9019
25.3826
22.1887
25.0247
23.0712
24.3773
24.286
23.3995
25.0736
22.925
25.1981
22.7536
25.022
22.422
24.5708
21.5732
23.7104
20.579
22.7868
19.8654
22.1514
20.4745
21.4638
21.6835
20.7072
22.6204
20.5501
23.0447
20.6474
23.4276
20.5961
23.7749
20.547
23.8919
20.6533
23.7118
21.1232
23.252
21.8625
22.5653
22.8066
21.8499
23.5086
21.3317
23.4533
20.8434
22.9885
20.0617
22.6568
19.5352
22.3128
19.1413
21.8895
18.9952
21.0877
19.0984
20.0536
19.5727
18.9693
20.1366
18.2593
20.7469
17.7925
21.2644
17.5144
21.5748
17.4259
21.6304
17.4392
21.5393
17.6007
21.2631
17.9208
20.7818
18.4641
20.0577
19.2975
19.0897
20.0996
18.388
20.5664
17.9585
20.7132
17.7048
20.629
17.6197