/*--------------------------------*- C++ -*----------------------------------*\
| =========                 |                                                 |
| \\      /  F ield         | OpenFOAM: The Open Source CFD Toolbox           |
|  \\    /   O peration     | Version:  4.1                                   |
|   \\  /    A nd           | Web:      www.OpenFOAM.org                      |
|    \\/     M anipulation  |                                                 |
\*---------------------------------------------------------------------------*/
FoamFile
{
    version     2.0;
    format      ascii;
    class       volScalarField;
    location    "22";
    object      p;
}
// * * * * * * * * * * * * * * * * * * * * * * * * * * * * * * * * * * * * * //

dimensions      [0 2 -2 0 0 0 0];

internalField   nonuniform List<scalar> 
204246
(
170.446
7.81754
65.3052
35.1985
31.3141
40.0233
21.1194
39.7085
17.1748
38.9359
15.3458
38.649
13.6867
37.3645
16.0359
32.198
25.4447
17.0121
34.3937
12.5668
36.6327
12.1227
35.5542
12.5267
35.5946
12.0057
36.6695
10.0424
37.4817
9.99912
36.7831
11.3367
34.3705
15.5627
27.888
24.947
14.5954
32.6348
11.6337
33.1965
11.2308
33.7453
10.4628
34.963
8.53206
35.7392
8.85058
34.7093
11.2869
31.0146
15.5698
26.191
24.4022
13.5054
32.0344
10.8908
32.6979
10.7081
33.365
10.0623
34.6617
8.15714
35.4605
8.40643
34.4072
10.6656
30.6904
14.6169
25.9929
22.7818
14.0515
28.744
11.1337
30.7421
9.78543
31.6889
8.67388
33.0026
6.541
33.7721
6.69379
32.7021
8.95523
28.9905
12.9965
24.3188
21.3513
12.3594
27.5918
9.37909
30.0698
7.65102
32.1489
5.0657
33.5868
4.45998
33.6106
4.79452
32.6132
6.48952
29.6613
8.64895
27.4758
11.2066
23.8371
17.5547
11.5358
25.0839
6.77789
28.1501
2.94885
28.9124
2.10758
27.4963
1.16662
25.8208
0.0687785
23.3655
-0.634391
19.3575
0.30794
12.5279
5.51685
-3.73544
10.0594
-11.2439
8.5537
-16.3886
4.72947
-21.013
0.144079
-25.6038
-4.60615
-29.7367
-9.30841
-32.3014
-14.3959
-32.2031
-20.9884
-25.912
-35.7557
-18.0479
-39.7172
-14.9173
-39.9441
-12.4996
-38.7105
-10.2992
-36.5125
-8.36244
-33.6697
-6.95178
-29.9889
-6.688
-24.3485
-9.06062
-13.068
-20.1354
-1.93355
-21.8303
3.56991
-20.3047
7.61662
-17.1678
11.4663
-12.5832
15.2893
-6.22926
19.8094
1.82414
25.4574
12.0157
31.9082
25.1796
39.6503
43.2834
47.8334
59.7337
66.3085
77.2659
89.3073
100.811
117.344
128.052
152.354
162.324
198.548
211.89
274.919
278.055
396.532
386.154
610.932
76.6655
31.6896
39.075
41.1652
28.3656
38.3067
24.4244
35.3408
22.0738
33.4895
20.9843
31.9917
21.2651
28.976
24.0845
24.0581
29.4096
19.2163
29.9305
18.5368
29.7847
18.7144
29.4689
18.3098
29.7516
17.7479
30.2238
17.4206
29.6661
18.0984
28.3561
19.7791
25.6762
23.179
21.322
27.8104
17.4372
27.995
17.2445
27.8272
16.7166
28.1386
16.1263
28.5488
15.9035
27.8375
16.8922
26.2813
19.0528
23.7048
21.9999
19.9891
26.7707
16.4335
27.1502
16.4949
27.1891
16.1714
27.6834
15.7209
28.2264
15.5549
27.5876
16.5003
26.0568
18.4966
23.4996
21.1184
19.8729
25.3824
16.4683
25.5274
15.613
25.9117
14.9886
26.2655
14.304
26.6629
13.9655
25.9092
14.813
24.3051
16.7927
21.7159
19.4836
18.0866
23.9124
14.6727
24.3211
13.7385
25.1389
12.8887
26.0499
12.2412
25.9729
12.3968
25.4577
13.0287
24.3318
14.2901
22.7243
15.4047
20.8017
17.6153
17.3642
21.7881
12.8602
22.5597
11.2901
23.0508
10.1667
22.1691
9.75431
20.9558
8.98498
19.3801
8.15321
16.8953
7.7941
12.8536
8.36537
6.83999
10.8532
0.347946
7.62804
-3.77447
4.12635
-8.0179
-0.0198796
-12.4932
-4.6941
-16.9222
-9.90595
-20.9074
-15.5155
-23.7463
-21.3078
-24.3925
-27.63
-22.1711
-33.5975
-22.8556
-34.6146
-22.4017
-34.171
-20.9835
-32.6286
-19.2048
-30.2328
-17.494
-27.1935
-16.2722
-23.3632
-16.0709
-18.1713
-17.7823
-10.8076
-19.5582
-7.4291
-17.8208
-4.3891
-15.3536
-1.34729
-12.179
1.95406
-8.05803
5.8906
-3.11409
10.1527
3.66081
15.3272
12.3797
21.1144
23.2198
28.4663
35.7648
41.3309
48.2217
58.1918
63.7314
79.5224
82.1325
104.183
105.628
131.715
134.166
168.419
164.918
225.361
199.904
302.27
248.527
384.52
29.5927
46.827
34.5484
41.8968
30.6929
37.5715
26.0594
35.5696
23.0855
33.8978
21.8745
32.1455
22.0099
29.5401
23.9113
25.7232
27.1157
21.6884
28.8941
19.6016
29.711
18.7988
29.8356
18.3387
29.9423
17.9553
30.0427
17.7629
29.6461
18.2576
28.5229
19.6886
26.281
22.3069
22.8393
25.4874
19.4356
27.0748
17.7853
27.8009
16.8918
28.1557
16.362
28.2943
16.2208
27.8244
16.9387
26.5858
18.6499
24.4172
21.2536
21.3926
24.5528
18.331
26.3007
16.9695
27.2127
16.3003
27.7416
15.9164
28.0091
15.8298
27.6078
16.5023
26.3853
18.0546
24.2105
20.3718
21.1877
23.2783
18.0678
24.7706
16.2611
25.72
15.2333
26.217
14.5444
26.4096
14.254
25.929
14.8185
24.65
16.3537
22.448
18.7452
19.4193
21.8262
16.2766
23.5861
14.4106
24.8966
13.2548
25.7464
12.5362
25.9664
12.4299
25.6451
12.868
24.7263
13.8257
23.2608
15.1002
21.2733
17.0936
18.2956
19.847
14.6528
21.5453
12.2032
22.4644
10.5972
22.222
9.70787
21.2293
8.91548
19.7008
8.19766
17.2463
7.95008
13.5082
8.27375
8.25095
8.70223
2.26172
7.21832
-2.68731
4.53564
-7.07804
0.470125
-11.369
-4.40673
-15.6644
-9.6394
-19.6899
-15.0181
-22.7134
-20.625
-23.9157
-26.375
-24.0256
-31.0916
-23.5619
-33.3345
-22.2826
-33.6355
-20.5316
-32.419
-18.6455
-30.0892
-16.9161
-27.0444
-15.7104
-23.2642
-15.402
-18.3557
-16.328
-12.6606
-17.3772
-8.2503
-16.9067
-4.42095
-15.1238
-1.04038
-12.24
2.32738
-8.18641
6.0191
-2.76404
9.70712
4.39817
14.6539
13.0066
21.4761
23.0879
30.979
34.4792
42.6619
47.9449
58.4653
64.1702
78.5364
85.2274
102.936
110.89
135.172
140.54
178.93
177.963
242.767
222.799
321.383
294.87
389.427
16.1685
29.4118
25.0775
35.4332
25.6519
34.6336
24.706
32.6898
23.8663
30.4933
23.8113
28.4138
24.6094
25.794
26.3555
22.9949
28.1238
21.4364
27.7083
21.2283
27.1552
21.2948
26.8538
21.0948
26.7947
20.9456
26.6347
21.1821
25.8801
21.9655
24.6049
23.336
22.7122
25.2098
20.6371
26.6426
19.5956
26.1188
19.5297
25.6655
19.3302
25.4123
19.2166
25.0592
19.5409
24.134
20.4781
22.7886
21.9617
21.1215
23.7118
19.3417
25.3503
18.5496
25.0927
18.7291
24.9123
18.7528
24.9061
18.8108
24.7473
19.2273
23.9479
20.1564
22.662
21.5211
21.0002
23.0476
19.1661
24.4319
18.1647
24.1003
17.7919
23.8376
17.5455
23.6244
17.3852
23.256
17.6292
22.2824
18.4472
20.8729
19.7781
19.1396
21.3593
17.2815
22.8915
16.2797
22.791
15.9136
22.8244
15.7024
22.8371
15.7564
22.4273
16.1249
21.7796
16.7452
20.8529
17.5871
19.7217
18.4997
18.2185
19.9059
16.2506
21.4301
14.6945
21.2147
14.031
20.6929
13.6999
19.6259
13.4488
18.3869
12.9747
16.8403
12.4334
14.5292
12.1206
11.2445
11.9561
7.22428
11.3555
4.36492
7.37013
1.06073
3.24306
-2.57283
-1.36156
-6.63243
-6.53565
-10.9472
-12.1708
-15.313
-17.916
-19.3833
-23.2033
-22.251
-27.8618
-24.3408
-31.686
-26.4082
-32.7666
-26.7931
-32.411
-25.9232
-30.7008
-24.4085
-27.9543
-22.7713
-24.6623
-21.4667
-21.0013
-20.7417
-16.9859
-20.3518
-13.2336
-18.8025
-11.0622
-16.6787
-8.90822
-14.1649
-6.61207
-11.259
-4.04452
-7.74695
-0.608336
-3.76659
3.27701
1.54549
7.75935
8.51154
13.8407
16.4445
21.9105
26.1183
32.8417
37.0044
46.7445
50.2164
63.9007
65.6467
84.5271
83.1868
108.91
102.497
139.08
123.435
184.104
147.311
223.904
199.047
271.462
9.70479
34.5204
22.5068
35.1273
26.147
34.337
25.9952
32.919
25.16
30.939
24.9168
28.9878
25.3045
26.7812
26.1969
24.656
26.9453
23.4034
26.9107
22.5057
26.9532
21.8732
27.0004
21.4269
26.9316
21.2722
26.6451
21.5081
25.9907
22.1116
24.963
23.1222
23.5205
24.3516
22.0304
25.1724
21.1644
25.2206
20.452
25.3471
19.8647
25.2858
19.6332
24.9366
19.8782
24.2093
20.5536
23.1892
21.6251
21.9438
22.899
20.6495
23.9575
20.0097
24.2608
19.5539
24.6454
19.2032
24.8229
19.1507
24.6606
19.4926
24.0463
20.1685
23.0631
21.1388
21.7877
22.2338
20.3749
23.0802
19.4993
23.2684
18.6909
23.4492
18.1067
23.438
17.8181
23.114
17.9679
22.3638
18.5174
21.2822
19.4406
19.9473
20.5716
18.5182
21.5554
17.6408
21.951
16.852
22.371
16.3261
22.5442
16.1861
22.363
16.3218
21.9233
16.7166
21.1972
17.329
20.2288
18.1282
18.8766
19.1976
17.286
20.1101
16.1072
20.2075
15.1019
20.0955
14.3694
19.5128
13.7764
18.5688
13.2235
17.1744
12.7806
15.0033
12.5589
12.0732
12.0711
8.91917
10.2745
5.93329
7.85945
2.6692
4.27715
-0.925843
-0.0681239
-4.86378
-5.07943
-9.12128
-10.6126
-13.5096
-16.2108
-17.9723
-21.2185
-22.0667
-25.5226
-25.1678
-28.8592
-26.7683
-30.7457
-26.6704
-31.2471
-25.4305
-30.0791
-23.8205
-27.4404
-22.0331
-24.2138
-20.5665
-20.7296
-19.4719
-17.562
-17.9415
-14.3131
-16.6515
-11.6687
-15.2519
-8.87538
-13.3399
-6.11203
-10.791
-3.3261
-7.51802
-0.0507167
-3.20958
3.89035
2.3054
8.89942
8.77498
15.6501
16.5323
24.1394
25.9313
35.0219
37.5731
48.9559
51.7687
66.9162
69.6798
89.0734
91.4386
117.745
115.25
154.965
142.071
199.476
180.62
240.327
228.959
274.613
8.96272
23.4958
18.2574
27.7372
22.2071
29.6321
23.7527
29.3335
24.4341
28.0234
24.9271
26.4331
25.6819
24.6969
26.518
23.2829
26.8602
22.7799
26.294
22.707
25.7559
22.7076
25.3889
22.6733
25.0873
22.7811
24.6646
23.1781
23.9571
23.8397
23.0164
24.6954
21.9361
25.4798
21.0972
25.6523
20.9066
25.0172
20.912
24.4527
20.8772
23.8886
20.9826
23.2099
21.3895
22.3147
22.0831
21.3233
22.9556
20.3956
23.7609
19.729
24.1599
19.7596
23.8236
20.0264
23.5818
20.2521
23.3309
20.5792
22.9139
21.133
22.1986
21.8711
21.2932
22.6871
20.341
23.3659
19.5416
23.5984
19.2863
23.1329
19.1629
22.6593
19.1091
22.1412
19.1848
21.4688
19.5325
20.5325
20.1281
19.4582
20.8839
18.3989
21.589
17.5581
21.9405
17.3284
21.6621
17.2925
21.408
17.3889
21.0724
17.6773
20.5643
18.0939
19.9536
18.6129
19.2297
19.1971
18.4242
19.8126
17.4668
20.479
16.5267
20.8016
16.0546
20.2853
15.8616
19.5424
15.7947
18.5274
15.6739
17.3568
15.4059
15.9268
15.0732
13.9438
14.5432
11.6722
13.6712
9.3063
11.8108
6.89055
8.7662
4.00647
4.90992
0.645279
0.388464
-3.34673
-4.78636
-7.88142
-10.5274
-12.8957
-16.3966
-18.0916
-22.0245
-22.8291
-26.8156
-27.0889
-30.3825
-29.8878
-32.4788
-30.4211
-32.7124
-29.7673
-30.8958
-28.3475
-27.7182
-26.3185
-24.3089
-24.1635
-21.2078
-22.4068
-18.2667
-20.7848
-15.844
-18.5787
-13.899
-16.49
-12.1214
-14.3054
-10.1015
-12.1256
-7.63869
-9.73342
-4.78203
-6.55011
-1.64047
-2.29499
2.53446
2.7946
7.87097
9.10735
14.7752
16.7726
23.6281
25.7391
35.034
35.9942
48.9013
48.2951
66.0703
61.7605
88.0725
76.6251
114.869
93.7075
142.053
122.172
170.557
162.123
204.229
8.2386
30.3892
17.8582
30.4206
22.7828
30.4631
24.7192
30.0228
25.4214
28.7413
25.8832
27.2611
26.2981
25.7757
26.5962
24.6595
26.4817
24.2197
25.9503
23.8485
25.6285
23.4724
25.4352
23.1993
25.1864
23.1869
24.7802
23.478
24.1836
23.961
23.464
24.531
22.7023
24.9711
22.1467
24.8979
22.0502
24.4501
21.8374
24.1436
21.5723
23.7469
21.5201
23.1792
21.7717
22.4641
22.2313
21.7399
22.7884
21.1127
23.2597
20.7156
23.4526
20.7772
23.3014
20.8131
23.3102
20.8053
23.2238
20.9733
22.9139
21.38
22.365
21.9074
21.6942
22.4421
21.0223
22.8378
20.4513
22.8754
20.2787
22.5752
20.013
22.3232
19.7764
21.9761
19.7122
21.4353
19.9149
20.6893
20.2845
19.8715
20.7351
19.0999
21.1033
18.5112
21.2369
18.3467
21.0887
18.1589
21.0218
18.0543
20.8498
18.1531
20.5152
18.3805
20.0717
18.7086
19.512
19.1032
18.8643
19.5289
18.0924
19.948
17.3755
20.0402
17.0628
19.6249
16.7729
19.1276
16.5057
18.429
16.2059
17.5296
15.8616
16.3222
15.6501
14.6466
15.0983
12.7623
13.9753
10.8055
12.133
8.56955
9.79979
6.0159
6.45222
2.82891
2.38188
-1.00358
-2.42467
-5.43174
-7.86175
-10.4598
-13.5853
-15.837
-19.2647
-21.0923
-24.1955
-25.7213
-28.1218
-28.7764
-30.5611
-29.9412
-31.3613
-29.5677
-30.194
-27.9754
-27.4038
-25.5411
-24.1134
-22.8824
-21.1029
-20.5679
-18.3899
-18.733
-15.8211
-17.1474
-13.722
-15.3495
-11.4553
-13.4848
-8.95604
-11.5194
-6.32005
-9.05331
-3.53984
-5.57085
-0.0796282
-1.38962
4.34727
3.70743
10.0142
9.9839
17.2667
17.7852
26.7049
27.2562
38.9669
38.895
54.2784
53.1857
73.7367
69.9419
98.0905
88.9348
126.484
112.9
153.438
144.362
179.806
175.948
203.634
8.08714
21.7088
15.0866
24.2011
19.8303
25.7758
22.4503
26.2947
24.0325
25.9876
24.9289
25.1678
25.6477
24.2549
26.0505
23.6292
25.9403
23.5398
25.3529
23.5741
24.8422
23.5928
24.4286
23.6402
24.0266
23.8395
23.5599
24.2262
22.9978
24.6998
22.4117
25.1469
21.8787
25.373
21.6718
25.0492
21.7612
24.3613
21.8504
23.7181
21.8939
23.0066
22.0279
22.2304
22.3263
21.433
22.7421
20.7332
23.1735
20.3075
23.404
20.1637
23.3544
20.4762
22.9818
20.8483
22.7102
21.1918
22.3908
21.6137
21.9528
22.1402
21.3926
22.6728
20.8169
23.1009
20.3211
23.3043
20.0643
23.065
20.0765
22.5081
20.1016
21.9338
20.1406
21.2911
20.2708
20.5488
20.5457
19.7229
20.8869
18.9267
21.2278
18.3044
21.3979
17.9523
21.2658
18.0253
20.8526
18.1934
20.4774
18.4399
20.043
18.799
19.5352
19.1993
19.0096
19.6113
18.4667
19.9994
17.9381
20.3236
17.4073
20.536
17.0512
20.3559
17.0148
19.7279
17.0862
18.9775
17.1652
18.0689
17.1596
17.0498
17.0038
15.8258
16.6314
14.4297
16.0167
12.8552
14.8904
11.1969
13.0399
9.13063
10.4003
6.68183
7.03099
3.62586
2.86674
-0.196436
-2.14635
-4.82308
-7.82476
-10.3378
-13.9954
-16.3818
-20.3512
-22.4629
-26.2335
-28.0058
-30.9302
-32.1623
-33.8142
-33.9237
-34.3727
-33.5292
-32.6711
-31.5383
-29.5542
-28.5608
-25.9264
-25.4704
-22.4768
-23.0158
-19.4699
-21.0557
-17.3697
-18.9502
-15.6318
-17.1071
-14.0301
-15.3136
-12.2332
-13.7003
-10.1924
-12.0019
-7.98499
-9.62808
-5.38653
-6.47322
-2.03811
-2.57197
2.30086
2.25063
7.88145
8.15308
15.1701
14.9919
24.6219
23.0444
36.322
32.6449
51.0698
43.4815
69.8358
55.8531
88.6859
75.1183
108.247
100.534
131.819
129.804
157.841
10.5133
27.5056
16.3447
27.8194
20.8607
27.8025
23.4312
27.5824
24.872
26.9726
25.733
26.1014
26.2193
25.2661
26.3302
24.7341
25.9798
24.647
25.3299
24.5335
24.8509
24.3563
24.4896
24.2316
24.1206
24.2829
23.7057
24.5252
23.2623
24.8409
22.8542
25.1133
22.5364
25.107
22.4943
24.756
22.667
24.1022
22.6909
23.5468
22.637
22.9339
22.6582
22.2579
22.8121
21.5888
23.0432
21.0946
23.2012
20.8707
23.2356
20.8692
23.0718
21.1925
22.732
21.4852
22.5428
21.7034
22.3196
21.9949
21.9869
22.3827
21.5652
22.761
21.1553
23.0206
20.8676
23.0147
20.7443
22.7615
20.8405
22.2379
20.8465
21.7538
20.8142
21.2223
20.8482
20.5989
21.0046
19.912
21.1822
19.288
21.3106
18.8552
21.2379
18.6631
20.9722
18.8029
20.5508
18.9184
20.2344
19.0538
19.8954
19.2782
19.5036
19.5386
19.0986
19.8032
18.6826
20.0382
18.2877
20.1968
17.9141
20.2251
17.694
19.9819
17.7615
19.3811
17.83
18.762
17.8485
18.06
17.7741
17.2737
17.6558
16.3177
17.3308
15.2265
16.6549
14.0564
15.5488
12.7608
13.9788
11.1364
11.8303
9.07693
8.92434
6.36228
5.29129
2.85572
0.81644
-1.60475
-4.40671
-7.02219
-10.385
-13.1509
-16.7946
-19.5889
-22.9992
-25.61
-28.3257
-30.2677
-32.0072
-33.0411
-33.5869
-33.4921
-33.0161
-31.7804
-30.2077
-28.4542
-26.2384
-24.722
-22.2945
-21.7588
-19.2997
-19.6451
-17.0046
-17.9619
-15.0929
-16.2159
-13.128
-14.3684
-10.9496
-12.701
-8.68099
-10.8457
-6.44318
-8.28819
-3.65231
-5.20556
-0.141421
-1.36935
4.38524
3.44726
10.2228
9.42637
18.1667
16.441
28.4192
25.3667
41.2969
36.3014
57.7158
49.025
76.3907
66.125
94.9597
87.7056
114.378
110.841
134.198
133.377
153.207
8.40541
21.514
14.0474
22.5001
18.26
23.673
21.1924
24.3461
23.2093
24.4536
24.4353
24.2449
25.1737
23.9499
25.4477
23.8142
25.2511
23.9693
24.6829
24.1191
24.1718
24.1892
23.7264
24.2664
23.3044
24.4653
22.8889
24.7758
22.4999
25.0787
22.2064
25.2707
22.0504
25.2315
22.0935
24.7761
22.3775
24.0418
22.5396
23.3115
22.6423
22.5006
22.7159
21.7036
22.831
21.011
22.9571
20.585
23.0165
20.4198
23.0024
20.4762
22.8062
20.9168
22.4164
21.3801
22.1315
21.7986
21.8187
22.2441
21.4443
22.7053
21.0422
23.0809
20.7218
23.2382
20.5432
23.1964
20.4868
22.8125
20.6696
22.1613
20.7949
21.5129
20.8642
20.8243
20.9751
20.0868
21.1379
19.383
21.2442
18.8078
21.2653
18.4145
21.1796
18.2536
20.8105
18.495
20.2949
18.79
19.8583
19.1195
19.4093
19.502
18.941
19.8686
18.5077
20.1879
18.1196
20.4241
17.8144
20.525
17.5832
20.4881
17.496
20.1276
17.6925
19.4466
17.9288
18.7269
18.1158
17.9259
18.2082
17.0565
18.0934
16.1709
17.7366
15.2366
17.0716
14.217
15.9872
12.9859
14.428
11.3609
12.2348
9.38482
9.35382
6.7576
5.68937
3.28084
1.17313
-1.29049
-4.22481
-6.96742
-10.5915
-13.5935
-17.6805
-20.8008
-24.9273
-27.8261
-31.4295
-33.6623
-35.979
-37.0682
-37.7027
-37.4364
-36.3683
-35.1495
-32.7908
-31.184
-28.0971
-26.8771
-23.5871
-23.418
-20.1036
-21.1239
-18.0066
-19.2411
-16.5411
-17.7441
-15.3549
-16.2079
-13.8836
-15.0177
-12.2116
-13.9072
-10.4434
-12.3438
-8.41553
-10.041
-5.83343
-7.15496
-2.42017
-3.5724
2.10529
0.596151
8.3252
5.57489
15.9919
11.6049
25.6916
18.8399
37.8574
28.0329
50.6566
41.4132
64.6858
58.7241
81.3927
79.1703
101.016
101.213
122.074
11.9644
26.3739
16.4406
26.0539
19.9174
26.0436
22.4387
25.8409
24.1159
25.5325
25.0988
25.1709
25.6531
24.8495
25.7958
24.6868
25.4582
24.8253
24.8329
24.8783
24.3122
24.8436
23.8599
24.8169
23.4103
24.8853
23.0259
25.0479
22.7578
25.2086
22.6122
25.3111
22.5522
25.2144
22.7623
24.6966
23.1343
23.9548
23.3069
23.3473
23.306
22.6373
23.2915
21.8723
23.3104
21.2248
23.3388
20.9246
23.1943
20.8273
23.0603
20.9398
22.7656
21.3853
22.3463
21.8309
22.0621
22.1941
21.7845
22.5549
21.4798
22.9084
21.1827
23.1707
20.9855
23.2479
20.918
23.1509
21.0046
22.7257
21.273
22.1029
21.4271
21.5022
21.488
20.8606
21.5538
20.2061
21.6296
19.5963
21.6567
19.1441
21.5345
18.8509
21.2063
18.7955
20.7361
19.0903
20.178
19.3619
19.7359
19.6301
19.3208
19.9276
18.9174
20.2026
18.5626
20.4166
18.2663
20.5352
18.0682
20.531
17.9321
20.3728
17.9752
19.9631
18.2539
19.3045
18.5211
18.6607
18.7218
17.9975
18.8284
17.3471
18.7058
16.727
18.3702
16.0855
17.7483
15.3753
16.8704
14.4611
15.6202
13.3335
13.7887
11.835
11.3414
9.63626
8.23953
6.4886
4.32951
2.19127
-0.615402
-3.2828
-6.73714
-9.92695
-13.8495
-17.4499
-21.4552
-25.1349
-28.6893
-31.7888
-34.3726
-36.3904
-37.6162
-38.2828
-37.9139
-37.1388
-34.8981
-32.8396
-29.547
-27.4246
-23.9607
-23.1205
-20.1844
-20.4462
-17.9678
-18.6564
-16.2475
-16.94
-14.5436
-15.1442
-12.5953
-13.7352
-10.6486
-12.5202
-8.92512
-10.8872
-6.95488
-8.83233
-4.42971
-6.25604
-1.06654
-2.99803
3.56188
0.867871
9.98945
5.76225
18.2549
12.0076
28.5263
20.2472
39.9677
31.9695
52.6736
46.4849
66.7546
62.9072
81.992
80.4845
98.2107
97.8629
114.057
8.67223
21.844
13.9456
21.8615
17.8424
22.4383
20.6345
23.0453
22.5697
23.4065
23.8488
23.5591
24.5888
23.6668
24.8655
23.8848
24.7135
24.2173
24.1982
24.4787
23.6726
24.6075
23.1776
24.7096
22.7612
24.8499
22.4223
25.0431
22.2166
25.1792
22.1319
25.3125
22.2035
25.1353
22.465
24.6431
22.8776
23.8871
23.1821
23.1694
23.1918
22.4071
23.1439
21.6098
23.055
20.9004
22.9564
20.5438
22.7429
20.4742
22.6443
20.6449
22.4276
21.1658
22.0301
21.7184
21.741
22.1988
21.4533
22.6521
21.1566
23.0516
20.8835
23.311
20.7303
23.353
20.738
23.1801
20.8776
22.7158
21.1638
22.0085
21.3677
21.3124
21.4247
20.6433
21.4584
19.9466
21.4734
19.3012
21.461
18.8005
21.3301
18.4962
20.9879
18.4953
20.4917
18.8164
19.8983
19.195
19.4246
19.584
18.9816
19.9841
18.5578
20.324
18.2085
20.5701
17.946
20.6871
17.7996
20.6568
17.7768
20.4683
17.8706
20.0344
18.1852
19.3334
18.5372
18.6418
18.815
17.9285
18.9813
17.258
18.8774
16.698
18.5396
16.1384
17.9841
15.4439
17.1685
14.6252
15.8951
13.5909
14.0554
12.2018
11.7783
10.0822
8.8756
7.05084
5.1315
2.91352
0.227217
-2.52817
-6.02253
-9.40367
-13.6251
-17.5456
-22.2204
-26.2947
-30.8932
-34.4997
-38.0048
-40.3098
-41.8899
-42.4108
-41.6709
-40.4532
-37.7946
-35.4145
-31.3309
-28.9068
-24.7056
-23.4079
-19.9764
-20.5345
-17.9011
-19.2161
-16.9429
-18.2649
-16.2006
-17.0622
-15.0148
-16.0773
-13.7318
-15.3001
-12.3309
-14.3752
-10.7922
-12.8209
-8.82265
-10.9092
-6.04896
-8.627
-2.19074
-6.10614
2.85182
-2.69327
8.81629
1.73393
15.8464
8.14752
23.7222
16.8361
33.2926
28.0944
44.8733
41.9405
58.7951
58.0203
75.1102
75.2664
92.2222
13.8002
25.709
17.2518
24.8945
19.9211
24.6028
21.929
24.5125
23.4155
24.4472
24.4352
24.3504
25.0123
24.3919
25.194
24.5219
24.9442
24.857
24.4011
25.0477
23.9199
25.1154
23.4071
25.156
22.8608
25.2108
22.52
25.274
22.4393
25.3086
22.4251
25.4107
22.6008
25.2232
22.9735
24.6803
23.4922
23.9095
23.8281
23.2461
23.8265
22.5849
23.7459
21.828
23.5831
21.1931
23.3585
20.8585
23.1237
20.7217
22.8791
20.8803
22.5198
21.4176
22.0445
21.9855
21.7112
22.47
21.4156
22.878
21.1603
23.203
20.9706
23.375
20.9112
23.4015
20.9979
23.2137
21.2441
22.7484
21.635
22.0901
21.8892
21.4349
21.9894
20.7484
22.0221
20.0866
22.0107
19.5244
21.8873
19.1567
21.6077
18.8917
21.137
18.9278
20.5448
19.2703
19.9011
19.6214
19.3805
19.9732
18.9287
20.3251
18.5345
20.6121
18.2296
20.7928
18.027
20.8397
17.9532
20.7318
17.9868
20.4744
18.1846
19.9924
18.5972
19.3103
18.9906
18.6649
19.3036
18.0524
19.485
17.5497
19.3715
17.2096
19.059
16.8627
18.6005
16.4449
17.8976
15.9762
16.8533
15.3692
15.3931
14.2808
13.5873
12.5315
11.2301
9.9
8.01088
6.155
3.58237
1.00334
-2.36594
-5.79894
-9.96733
-14.2077
-18.9423
-23.6903
-28.4432
-32.992
-36.9552
-40.3016
-42.7406
-44.524
-44.8723
-44.7547
-42.392
-40.0255
-35.2961
-31.8275
-26.6602
-24.6146
-20.7982
-20.4248
-18.3773
-18.6111
-17.1364
-17.1903
-15.5476
-15.4721
-13.9615
-14.2704
-12.4003
-13.7027
-11.1187
-12.8839
-9.94934
-11.8801
-8.40092
-10.718
-5.85421
-9.20316
-2.31857
-7.17125
2.48961
-4.11267
8.20024
0.565264
14.6943
7.44676
22.4996
16.2378
31.8752
26.8927
42.6148
39.2128
54.7556
52.781
68.1135
67.3656
81.6746
10.2659
22.215
14.8231
21.7449
18.2075
21.8562
20.5252
22.3195
22.2207
22.7353
23.4176
23.0702
24.0333
23.446
24.3633
23.896
24.2869
24.3774
23.8563
24.733
23.3994
24.8662
22.9225
24.9553
22.3956
25.0384
22.0917
25.1074
22.0096
25.1548
22.0422
25.2783
22.2975
25.0833
22.7288
24.6092
23.2958
23.8742
23.7538
23.1355
23.7823
22.4215
23.653
21.6585
23.3337
20.9203
22.9589
20.4592
22.5293
20.4265
22.4052
20.6391
22.1638
21.2863
21.7401
21.9517
21.4407
22.4955
21.1799
22.9543
20.9605
23.3028
20.7921
23.467
20.7768
23.4517
20.9056
23.2047
21.182
22.7126
21.5933
21.9778
21.9021
21.2283
21.9577
20.5764
21.8981
19.9151
21.8109
19.3237
21.6719
18.8622
21.3857
18.601
20.8771
18.679
20.272
19.0423
19.6015
19.4884
19.0878
19.9311
18.646
20.3541
18.2608
20.6824
17.9814
20.8775
17.8186
20.9184
17.792
20.796
17.8879
20.5143
18.1201
20.0274
18.5436
19.3088
18.9986
18.6327
19.3515
17.9992
19.546
17.5178
19.4366
17.2208
19.1754
16.9098
18.7717
16.5632
18.1215
16.221
17.0929
15.7174
15.733
14.7383
14.1783
13.1447
12.1142
10.8058
9.2312
7.43084
5.15999
2.65469
-0.493711
-3.91044
-8.08283
-12.5106
-17.6568
-22.8622
-28.5796
-33.8407
-39.0399
-43.2369
-46.3408
-48.2986
-48.6923
-48.1417
-45.3908
-42.6535
-37.1038
-32.8497
-26.416
-23.134
-18.7675
-18.6805
-17.0289
-18.4702
-17.1612
-18.8438
-17.2272
-17.8099
-15.9674
-16.6742
-14.9285
-16.1187
-14.0392
-15.5173
-12.9183
-14.5715
-11.5238
-13.5723
-9.26622
-12.4386
-6.21774
-11.0377
-2.45981
-8.60996
1.5386
-5.00672
6.24045
-0.127403
11.8524
6.46742
18.9
15.0554
27.7187
25.6029
38.7217
37.7227
51.5784
51.4245
65.7348
15.644
25.2553
18.4235
24.0251
20.3902
23.6733
21.6889
23.6015
22.8995
23.5912
23.8153
23.7049
24.375
23.9399
24.6041
24.2807
24.4609
24.7943
24.0112
25.1691
23.576
25.2537
23.1257
25.2672
22.6135
25.2349
22.2019
25.2598
22.1646
25.2466
22.2372
25.3701
22.5669
25.2056
23.0685
24.665
23.7473
23.8739
24.3217
23.1304
24.3652
22.5825
24.2103
21.9016
23.8834
21.2493
23.4099
20.7695
23.0503
20.498
22.7228
20.6981
22.2712
21.3467
21.7273
22.069
21.3692
22.6798
21.0776
23.118
20.8946
23.4143
20.7851
23.5249
20.8395
23.5099
21.0511
23.2722
21.4298
22.7956
21.9642
22.1068
22.3587
21.3834
22.5029
20.6934
22.4214
20.0399
22.3084
19.5086
22.0787
19.146
21.7043
18.9054
21.1021
18.995
20.3883
19.3562
19.6413
19.7767
19.0553
20.2076
18.5845
20.6175
18.2084
20.9249
17.9517
21.083
17.8258
21.0783
17.8503
20.9046
18.0026
20.5773
18.3129
20.044
18.8341
19.3205
19.3434
18.6665
19.7301
18.1103
19.8994
17.7547
19.8025
17.5734
19.5962
17.3739
19.2845
17.2096
18.7328
17.0767
17.88
16.8939
16.7499
16.1767
15.5768
14.9373
13.9394
13.0093
11.5466
10.0835
7.9726
5.71783
2.71388
-0.606106
-4.75465
-9.33706
-14.7058
-20.4055
-26.6115
-32.7002
-38.724
-44.1267
-48.664
-52.0394
-53.8588
-55.1096
-53.4453
-51.5338
-45.7359
-40.274
-32.1112
-26.6887
-20.596
-18.9291
-16.6908
-17.7624
-16.809
-16.6564
-16.2025
-15.6428
-14.8974
-14.3894
-13.4705
-14.274
-12.814
-14.0233
-12.3842
-13.986
-11.8356
-13.9242
-10.3878
-13.4632
-8.10028
-12.4862
-5.04502
-10.784
-1.56824
-7.93098
2.51642
-3.75858
7.59476
1.7505
13.9291
8.88212
21.711
17.4933
30.7831
28.0642
41.6195
40.4111
53.5963
12.224
22.7005
16.4754
21.9073
19.0641
21.8033
20.7216
21.993
22.1609
22.3337
23.116
22.7683
23.6147
23.2862
23.9429
23.8616
23.9011
24.5163
23.517
25.0237
23.137
25.1765
22.7413
25.2017
22.2602
25.1423
21.9235
25.015
21.8161
24.9896
21.9252
25.1174
22.2783
25.039
22.8905
24.5833
23.657
23.8523
24.3076
23.1528
24.4426
22.5037
24.2464
21.8206
23.7213
21.0649
23.053
20.3711
22.4223
20.2387
22.2518
20.5291
21.9369
21.3706
21.4415
22.1599
21.1259
22.7851
20.9105
23.2217
20.7833
23.5075
20.7216
23.612
20.7772
23.5395
20.9885
23.2504
21.4047
22.7244
22.0039
21.9647
22.4873
21.1919
22.5334
20.5831
22.3558
19.9444
22.1433
19.4026
21.8769
18.9642
21.4982
18.7327
20.84
18.8373
20.1122
19.237
19.3325
19.7378
18.7583
20.2315
18.3122
20.6865
17.9649
21.0158
17.7533
21.1652
17.6805
21.1371
17.7512
20.9387
17.948
20.5857
18.2911
20.0373
18.8272
19.287
19.3823
18.6142
19.7933
18.0599
19.9808
17.6861
19.9255
17.53
19.7521
17.3957
19.4695
17.3178
18.9917
17.2901
18.2027
17.2659
17.1413
16.7015
16.201
15.683
14.9006
14.1002
12.9479
11.6651
9.93741
7.91366
5.32041
2.24322
-1.57625
-6.04314
-11.3935
-17.3778
-24.1474
-31.0563
-38.1485
-44.4768
-49.9595
-54.1389
-56.6934
-58.5447
-56.779
-55.1473
-48.7737
-42.4053
-31.7822
-24.9884
-16.6103
-14.2978
-13.8846
-15.5606
-17.8371
-19.6176
-18.9355
-18.516
-16.7053
-16.9341
-15.3938
-16.5345
-15.2897
-16.2696
-14.584
-15.6805
-13.9452
-15.4974
-12.6747
-15.1364
-10.8113
-14.556
-8.2832
-13.099
-5.71514
-11.0122
-2.69312
-8.0861
0.994568
-4.0007
5.63217
1.7743
11.704
9.17396
19.1772
17.8616
28.5113
28.5686
40.7858
18.2488
24.1946
19.9865
23.3397
20.9858
23.2777
21.574
23.0161
22.555
22.9899
23.2997
23.2562
23.7596
23.5925
24.049
24.0451
24.0099
24.7261
23.6035
25.2447
23.2331
25.4733
22.8341
25.4307
22.4296
25.2724
22.0888
25.1174
21.9553
25.0959
22.0161
25.3087
22.3808
25.1319
23.014
24.5968
23.9337
23.7557
24.7167
23.0676
24.8433
22.6218
24.6947
22.1256
24.2686
21.4795
23.5901
20.7064
23.0059
20.1755
22.5323
20.4496
21.9267
21.358
21.2108
22.2487
20.888
22.842
20.7552
23.2738
20.6721
23.5662
20.6247
23.669
20.7372
23.5983
21.0287
23.3151
21.5617
22.7913
22.2991
22.072
22.9088
21.3371
23.0188
20.7154
22.7923
20.0552
22.5475
19.5158
22.2377
19.1754
21.7658
19.0084
21.1032
19.035
20.2459
19.4059
19.3529
19.8965
18.6923
20.4171
18.2115
20.8931
17.8643
21.2253
17.6673
21.3558
17.615
21.3065
17.7221
21.0805
17.9638
20.6903
18.3784
20.086
19.0245
19.2757
19.6736
18.5913
20.1299
18.0755
20.3258
17.7672
20.2578
17.6566
20.0864
17.5767
19.8525
17.5923
19.4474
17.72
18.7511
17.9127
17.8464
17.5725
17.1285
16.8412
16.167
15.6301
14.6625
13.6929
12.2273
10.5474
8.24762
5.48423
1.88418
-2.4185
-7.83627
-14.0324
-21.6106
-29.2743
-37.9157
-45.8479
-53.2049
-58.531
-62.5274
-66.286
-66.1137
-66.276
-61.3719
-55.0483
-43.0352
-32.3614
-20.4796
-15.0059
-11.5224
-13.3759
-13.7114
-15.2392
-17.8187
-16.7374
-15.8281
-14.6
-13.4106
-14.0685
-13.4274
-14.7666
-13.9467
-15.3495
-14.3008
-15.9696
-13.8692
-16.0547
-12.5514
-15.8503
-10.5952
-15.307
-8.53355
-14.0154
-6.18034
-11.8985
-3.28602
-8.91041
0.586704
-4.75566
5.53031
0.541301
11.2599
6.9157
18.1047
15.4508
27.9461
16.3226
22.7761
18.5846
22.248
20.0552
21.9953
21.527
21.7597
22.4452
22.0917
22.8936
22.6428
23.3018
23.1625
23.5866
23.8119
23.4519
24.6786
23.0929
25.2898
22.7988
25.5703
22.5861
25.4667
22.2464
25.2197
21.8509
24.98
21.5927
24.8662
21.6359
24.9755
22.1847
24.9714
22.9365
24.4451
23.9828
23.6936
24.7854
23.1358
25.1117
22.5842
24.8125
22.0993
24.1278
21.384
23.3114
20.4278
22.4927
19.9553
22.2016
20.4393
21.6234
21.577
20.9881
22.4526
20.7334
23.095
20.5974
23.4496
20.5907
23.7177
20.6086
23.7621
20.6943
23.6495
20.9598
23.2648
21.5574
22.656
22.4265
21.8335
23.1649
21.1851
23.1863
20.6988
22.876
20.0664
22.5099
19.4987
22.0642
19.1022
21.6419
18.9007
20.9482
19.0365
20.0158
19.48
19.0111
20.0272
18.3475
20.5426
17.8954
21.0401
17.5895
21.3844
17.4688
21.4745
17.493
21.3727
17.6582
21.1029
17.9561
20.6661
18.4238
20.0209
19.1168
19.1703
19.7959
18.4878
20.2527
18.0084
20.4246
17.728
20.3869
17.6361
20.2363
17.6428
20.0279
17.7222
19.693
17.9641
19.0337
18.2616
18.265
18.0879
17.7104
17.5699
17.053
16.6797
15.9683
15.2098
14.1167
12.7272
10.9152
8.53201
5.46035
1.53273
-3.5262
-9.56774
-17.2174
-25.391
-34.6795
-43.478
-51.7124
-57.7118
-61.9968
-67.1943
-67.8187
-69.7729
-66.5897
-61.0666
-46.1319
-33.6212
-16.7292
-7.3148
-6.45731
-11.2502
-18.3295
-20.3969
-20.5228
-20.1528
-17.5047
-16.7466
-15.3867
-16.5835
-15.5088
-16.5617
-14.9347
-16.186
-15.0648
-16.9783
-15.0225
-17.2755
-14.074
-17.238
-12.3551
-16.5404
-10.9937
-15.7281
-9.38262
-14.7368
-7.55042
-13.1717
-5.57155
-10.1847
-2.13917
-5.00689
1.53936
-0.470187
6.50628
5.98752
15.5105
20.3862
23.9974
21.1552
23.1597
21.5485
22.7371
21.8727
22.6568
22.3593
22.7607
22.8696
22.9829
23.3055
23.3659
23.5545
23.9242
23.57
24.6493
23.1338
25.3583
22.8405
25.5265
22.7438
25.5414
22.4411
25.4191
22.0753
25.1991
21.7611
25.1906
21.7523
25.2918
22.0654
24.9869
22.8364
24.3792
24.0803
23.4292
24.9512
22.9772
25.1789
22.7469
25.0421
22.542
24.6833
21.8672
23.9616
20.8952
22.9471
20.0237
22.1218
20.3238
21.4229
21.4821
20.65
22.4912
20.4036
22.9701
20.5131
23.325
20.5018
23.6932
20.468
23.8107
20.5913
23.6944
20.9698
23.2861
21.6925
22.6163
22.6905
21.8569
23.4271
21.2988
23.533
20.871
23.1344
20.1495
22.7542
19.5707
22.3771
19.1824
21.9802
19.0406
21.1883
19.1307
20.1318
19.5651
19.0102
20.0667
18.2794
20.6681
17.7749
21.2028
17.4737
21.5356
17.3892
21.6076
17.4103
21.5206
17.5806
21.2472
17.899
20.7807
18.4379
20.0646
19.2712
19.0993
20.0768
18.3924
20.5543
17.9595
20.733
17.6918
20.665
17.6033
20.4961
17.6322
20.2592