/*--------------------------------*- C++ -*----------------------------------*\
| =========                 |                                                 |
| \\      /  F ield         | OpenFOAM: The Open Source CFD Toolbox           |
|  \\    /   O peration     | Version:  4.1                                   |
|   \\  /    A nd           | Web:      www.OpenFOAM.org                      |
|    \\/     M anipulation  |                                                 |
\*---------------------------------------------------------------------------*/
FoamFile
{
    version     2.0;
    format      ascii;
    class       volScalarField;
    location    "2";
    object      p;
}
// * * * * * * * * * * * * * * * * * * * * * * * * * * * * * * * * * * * * * //

dimensions      [0 2 -2 0 0 0 0];

internalField   nonuniform List<scalar> 
6750
(
-205.783
-81.6418
-139.999
-134.113
-136.297
-137.883
-139.103
-139.763
-140.476
-141.468
-147.238
-149.078
-161.956
-131.018
-258.457
-204.861
-82.8739
-140.279
-134.208
-136.3
-137.615
-138.58
-139.195
-140.089
-141.439
-146.61
-148.787
-161.725
-133.082
-255.915
-204.557
-83.3048
-140.413
-134.283
-136.453
-137.619
-138.354
-138.856
-139.903
-141.427
-146.32
-148.702
-161.58
-133.359
-255.041
-203.856
-84.1907
-140.711
-134.397
-136.543
-137.541
-138.114
-138.589
-139.728
-141.376
-145.97
-148.432
-161.43
-134.34
-253.347
-203.409
-84.8493
-140.815
-134.445
-136.655
-137.532
-137.966
-138.426
-139.657
-141.342
-145.636
-148.158
-161.329
-134.764
-252.414
-202.829
-85.6538
-140.956
-134.504
-136.701
-137.502
-137.861
-138.324
-139.602
-141.313
-145.394
-147.863
-161.226
-135.349
-251.312
-202.253
-86.4596
-140.998
-134.493
-136.71
-137.483
-137.797
-138.258
-139.573
-141.297
-145.21
-147.589
-161.122
-135.774
-250.338
-201.838
-86.9673
-141.027
-134.487
-136.677
-137.46
-137.769
-138.238
-139.565
-141.304
-145.156
-147.465
-161.019
-136.035
-249.67
-202.244
-86.457
-140.997
-134.492
-136.709
-137.482
-137.796
-138.257
-139.572
-141.297
-145.211
-147.598
-161.106
-135.767
-250.322
-202.816
-85.6495
-140.954
-134.502
-136.699
-137.499
-137.859
-138.321
-139.6
-141.312
-145.394
-147.868
-161.207
-135.339
-251.287
-203.394
-84.8434
-140.812
-134.442
-136.651
-137.528
-137.961
-138.422
-139.653
-141.339
-145.633
-148.16
-161.309
-134.751
-252.382
-203.837
-84.1837
-140.707
-134.393
-136.539
-137.536
-138.109
-138.584
-139.723
-141.372
-145.964
-148.43
-161.41
-134.324
-253.309
-204.536
-83.2967
-140.408
-134.278
-136.448
-137.612
-138.347
-138.85
-139.896
-141.421
-146.312
-148.698
-161.56
-133.341
-254.998
-204.838
-82.8651
-140.272
-134.203
-136.294
-137.609
-138.573
-139.188
-140.082
-141.431
-146.601
-148.78
-161.705
-133.064
-255.869
-205.758
-81.6323
-139.991
-134.107
-136.29
-137.876
-139.095
-139.755
-140.468
-141.459
-147.228
-149.069
-161.935
-130.998
-258.408
-309.537
-72.6322
-122.795
-134.036
-131.263
-134.465
-136.648
-137.023
-138.811
-139.697
-141.582
-143.622
-154.094
-88.0804
-439.502
-308.925
-72.5432
-123.573
-133.963
-131.246
-134.258
-136.427
-136.808
-138.37
-139.694
-141.731
-142.774
-153.582
-88.7231
-437.698
-308.826
-72.684
-123.874
-134.072
-131.48
-134.178
-136.099
-136.739
-138.268
-139.662
-141.789
-142.675
-153.319
-89.0345
-437.213
-308.369
-72.67
-124.412
-134.298
-131.776
-134.2
-135.94
-136.732
-138.155
-139.739
-141.883
-142.49
-153.004
-89.4838
-435.742
-308.178
-72.8224
-124.786
-134.333
-132.016
-134.272
-135.789
-136.71
-138.089
-139.771
-141.997
-142.346
-152.533
-89.8068
-434.832
-307.847
-72.8202
-125.179
-134.4
-132.199
-134.322
-135.729
-136.713
-138.057
-139.8
-142.126
-142.33
-152.031
-90.1436
-433.519
-307.39
-73.216
-125.601
-134.325
-132.306
-134.404
-135.707
-136.714
-138.047
-139.788
-142.283
-142.356
-151.571
-91.0928
-431.712
-306.833
-73.4595
-125.839
-134.293
-132.317
-134.416
-135.703
-136.722
-138.049
-139.789
-142.372
-142.416
-151.337
-91.6994
-430.002
-307.357
-73.2339
-125.599
-134.324
-132.305
-134.403
-135.706
-136.713
-138.045
-139.786
-142.283
-142.359
-151.569
-91.1131
-431.626
-307.815
-72.8348
-125.174
-134.398
-132.196
-134.319
-135.725
-136.709
-138.054
-139.795
-142.125
-142.333
-152.022
-90.1619
-433.423
-308.141
-72.8321
-124.78
-134.329
-132.011
-134.267
-135.784
-136.705
-138.084
-139.765
-141.994
-142.346
-152.52
-89.8188
-434.723
-308.329
-72.6766
-124.405
-134.293
-131.771
-134.194
-135.933
-136.725
-138.15
-139.733
-141.877
-142.486
-152.988
-89.4911
-435.63
-308.782
-72.6876
-123.865
-134.066
-131.473
-134.17
-136.091
-136.73
-138.262
-139.654
-141.781
-142.669
-153.3
-89.037
-437.097
-308.878
-72.5451
-123.563
-133.957
-131.238
-134.25
-136.419
-136.798
-138.362
-139.685
-141.722
-142.766
-153.562
-88.7225
-437.58
-309.486
-72.6317
-122.784
-134.028
-131.255
-134.456
-136.638
-137.013
-138.802
-139.688
-141.572
-143.613
-154.073
-88.0768
-439.382
-351.058
-80.1941
-95.9635
-135.803
-129.816
-133.212
-133.609
-131.376
-135.17
-137.875
-139.163
-149.918
-129.072
-56.7095
-555.489
-350.809
-79.7202
-96.3831
-135.883
-129.954
-133.176
-134.729
-133.771
-136.215
-137.428
-138.713
-148.495
-128.911
-55.7434
-554.584
-350.841
-79.7781
-96.7056
-136.122
-130.193
-132.845
-134.162
-133.55
-134.819
-136.176
-138.593
-148.603
-129.064
-55.6957
-554.512
-350.721
-79.3379
-97.0476
-136.307
-130.534
-133.068
-134.41
-134.086
-134.65
-135.804
-138.7
-148.243
-129.171
-54.9672
-553.808
-350.811
-79.2988
-97.4766
-136.49
-130.822
-133.13
-134.325
-134.442
-134.501
-135.445
-138.877
-148.089
-129.389
-54.8824
-553.706
-350.764
-78.8755
-97.758
-136.537
-131.031
-133.258
-134.49
-134.703
-134.48
-135.34
-138.938
-147.871
-129.582
-54.3825
-553.433
-350.906
-78.8269
-98.3
-136.597
-131.219
-133.369
-134.545
-134.87
-134.596
-135.316
-138.973
-147.65
-130.197
-55.1624
-553.078
-350.767
-78.7017
-98.5436
-136.537
-131.219
-133.386
-134.596
-134.94
-134.65
-135.344
-138.97
-147.546
-130.635
-55.6975
-552.099
-350.859
-78.8659
-98.298
-136.596
-131.217
-133.366
-134.541
-134.866
-134.593
-135.313
-138.971
-147.651
-130.19
-55.2602
-552.909
-350.729
-78.9028
-97.7504
-136.532
-131.028
-133.251
-134.483
-134.695
-134.475
-135.335
-138.932
-147.87
-129.563
-54.4759
-553.261
-350.77
-79.3155
-97.4683
-136.483
-130.816
-133.122
-134.315
-134.431
-134.493
-135.438
-138.871
-148.085
-129.366
-54.9608
-553.514
-350.675
-79.35
-97.0375
-136.297
-130.527
-133.058
-134.398
-134.073
-134.641
-135.794
-138.694
-148.236
-129.143
-55.0341
-553.61
-350.788
-79.7862
-96.6933
-136.109
-130.183
-132.833
-134.148
-133.534
-134.806
-136.165
-138.584
-148.592
-129.032
-55.7501
-554.307
-350.744
-79.7291
-96.3697
-135.87
-129.942
-133.163
-134.713
-133.754
-136.202
-137.415
-138.702
-148.482
-128.877
-55.7902
-554.375
-350.982
-80.2022
-95.9477
-135.786
-129.802
-133.196
-133.59
-131.354
-135.15
-137.86
-139.149
-149.901
-129.033
-56.7474
-555.276
-386.466
-103.352
-93.3456
-143.064
-132.429
-134.744
-133.133
-127.33
-132.876
-138.384
-138.838
-161.32
-132.438
-74.8997
-646.122
-386.198
-103.015
-93.5308
-143.185
-132.587
-134.853
-135.158
-132.235
-135.744
-139.153
-137.585
-159.916
-132.116
-73.6637
-644.918
-386.275
-103.184
-93.7523
-143.465
-132.856
-134.378
-134.414
-131.83
-132.978
-136.96
-136.801
-159.984
-132.097
-73.715
-644.763
-386.086
-102.87
-93.8826
-143.616
-133.192
-134.74
-135.016
-132.923
-132.903
-136.356
-136.466
-159.491
-131.944
-72.7282
-643.761
-386.187
-103.005
-94.1667
-143.878
-133.54
-134.826
-134.962
-133.571
-132.607
-135.634
-136.383
-159.355
-131.997
-72.6408
-643.606
-386.03
-102.775
-94.2032
-143.888
-133.736
-135.025
-135.351
-134.044
-132.532
-135.462
-136.362
-159.055
-131.861
-71.7056
-643.23
-386.089
-102.874
-94.5238
-144.022
-133.983
-135.172
-135.461
-134.371
-132.627
-135.376
-136.481
-158.882
-132.248
-72.1331
-642.803
-385.891
-102.728
-94.5791
-143.91
-133.934
-135.169
-135.562
-134.507
-132.654
-135.402
-136.502
-158.728
-132.508
-72.3569
-641.564
-386.027
-102.924
-94.5231
-144.02
-133.98
-135.167
-135.453
-134.363
-132.622
-135.372
-136.48
-158.884
-132.244
-72.3112
-642.515
-385.991
-102.803
-94.1917
-143.879
-133.73
-135.014
-135.338
-134.03
-132.522
-135.454
-136.356
-159.051
-131.831
-71.866
-642.969
-386.13
-103.023
-94.1544
-143.865
-133.529
-134.811
-134.944
-133.552
-132.591
-135.622
-136.372
-159.347
-131.958
-72.7753
-643.32
-386.021
-102.884
-93.8671
-143.598
-133.178
-134.72
-134.994
-132.9
-132.883
-136.338
-136.45
-159.476
-131.895
-72.8459
-643.472
-386.199
-103.193
-93.7335
-143.443
-132.838
-134.354
-134.387
-131.801
-132.953
-136.937
-136.779
-159.962
-132.041
-73.8134
-644.463
-386.107
-103.027
-93.5106
-143.161
-132.567
-134.827
-135.129
-132.204
-135.717
-139.126
-137.559
-159.89
-132.057
-73.7505
-644.612
-386.36
-103.363
-93.3223
-143.036
-132.405
-134.713
-133.099
-127.291
-132.838
-138.351
-138.807
-161.286
-132.371
-74.972
-645.809
-427.028
-117.812
-95.95
-152.062
-139.577
-142.106
-140.474
-134.286
-140.825
-149.188
-151.614
-180.632
-155.129
-87.4435
-765.867
-426.474
-117.583
-96.151
-152.194
-139.723
-142.266
-142.603
-139.673
-144.093
-150.292
-150.054
-179.315
-155.073
-86.3402
-763.684
-426.429
-117.915
-96.3592
-152.488
-140.036
-141.795
-141.782
-139.01
-140.552
-147.577
-149.067
-179.394
-154.889
-86.6789
-763.484
-425.982
-117.756
-96.4821
-152.648
-140.374
-142.212
-142.514
-140.203
-140.477
-146.803
-148.553
-178.947
-154.831
-85.8613
-761.709
-425.963
-118.076
-96.7692
-152.958
-140.774
-142.321
-142.412
-140.699
-139.883
-145.703
-148.284
-178.886
-154.799
-86.141
-761.401
-425.806
-117.854
-96.764
-152.971
-140.964
-142.523
-142.852
-141.101
-139.706
-145.383
-148.091
-178.624
-154.674
-85.4127
-760.627
-425.913
-118.005
-97.0788
-153.167
-141.261
-142.697
-142.943
-141.347
-139.662
-145.12
-148.094
-178.565
-155.258
-86.5086
-759.483
-425.666
-117.884
-97.1226
-153.051
-141.186
-142.67
-143.053
-141.457
-139.635
-145.11
-148.015
-178.434
-155.75
-87.1274
-757.141
-425.806
-118.083
-97.0813
-153.163
-141.257
-142.688
-142.931
-141.335
-139.653
-145.114
-148.09
-178.569
-155.262
-86.7721
-759.014
-425.733
-117.904
-96.7492
-152.957
-140.954
-142.506
-142.831
-141.079
-139.686
-145.366
-148.077
-178.617
-154.627
-85.6431
-760.236
-425.865
-118.11
-96.7526
-152.938
-140.758
-142.296
-142.382
-140.668
-139.855
-145.677
-148.26
-178.871
-154.734
-86.3316
-760.979
-425.867
-117.788
-96.4606
-152.62
-140.352
-142.18
-142.477
-140.164
-140.44
-146.768
-148.52
-178.921
-154.747
-86.0287
-761.286
-426.293
-117.943
-96.3331
-152.454
-140.007
-141.756
-141.738
-138.964
-140.508
-147.532
-149.024
-179.355
-154.791
-86.8193
-763.046
-426.334
-117.607
-96.1222
-152.156
-139.69
-142.223
-142.554
-139.62
-144.044
-150.241
-150.005
-179.269
-154.968
-86.4644
-763.237
-426.883
-117.826
-95.9161
-152.018
-139.539
-142.055
-140.419
-134.223
-140.762
-149.127
-151.555
-180.573
-155.013
-87.5468
-765.411
-473.302
-131.221
-102.352
-164.577
-150.9
-154.872
-155.152
-151.811
-159.402
-170.797
-174.898
-206.391
-188.338
-87.6701
-924.883
-472.628
-130.941
-102.544
-164.641
-150.949
-154.982
-157.116
-156.729
-162.513
-171.999
-173.453
-204.823
-188.462
-86.3259
-921.103
-472.578
-131.319
-102.751
-164.935
-151.278
-154.528
-156.269
-155.968
-158.977
-169.236
-172.388
-204.897
-187.999
-86.8029
-920.692
-472.03
-131.159
-102.854
-165.069
-151.602
-154.931
-157.039
-157.184
-159.052
-168.586
-171.966
-204.461
-187.992
-85.9098
-917.633
-471.913
-131.568
-103.147
-165.387
-152.031
-155.041
-156.892
-157.446
-158.248
-167.452
-171.711
-204.464
-187.773
-86.4515
-916.827
-471.665
-131.326
-103.116
-165.377
-152.215
-155.219
-157.304
-157.755
-158.069
-167.168
-171.542
-204.292
-187.695
-85.952
-915.049
-471.748
-131.474
-103.437
-165.587
-152.552
-155.416
-157.364
-157.867
-157.907
-166.827
-171.608
-204.363
-188.579
-88.0622
-912.284
-471.413
-131.351
-103.472
-165.459
-152.467
-155.377
-157.468
-157.942
-157.868
-166.814
-171.536
-204.306
-189.506
-89.3685
-907.997
-471.568
-131.593
-103.442
-165.582
-152.546
-155.403
-157.346
-157.848
-157.891
-166.814
-171.599
-204.371
-188.595
-88.4429
-911.558
-471.527
-131.41
-103.097
-165.356
-152.2
-155.192
-157.272
-157.72
-158.036
-167.139
-171.515
-204.283
-187.624
-86.2861
-914.461
-471.747
-131.63
-103.125
-165.357
-152.006
-155.002
-156.845
-157.397
-158.202
-167.407
-171.668
-204.442
-187.669
-86.7271
-916.197
-471.856
-131.213
-102.824
-165.028
-151.567
-154.881
-156.981
-157.122
-158.991
-168.526
-171.906
-204.421
-187.853
-86.1529
-917.005
-472.391
-131.358
-102.714
-164.885
-151.234
-154.466
-156.2
-155.894
-158.902
-169.161
-172.31
-204.837
-187.837
-87.0077
-920.042
-472.435
-130.971
-102.503
-164.585
-150.899
-154.914
-157.039
-156.645
-162.43
-171.913
-173.365
-204.752
-188.288
-86.508
-920.441
-473.103
-131.239
-102.304
-164.512
-150.84
-154.794
-155.066
-151.713
-159.299
-170.695
-174.794
-206.3
-188.148
-87.8227
-924.205
-524.36
-145.966
-111.37
-180.903
-166.619
-173.17
-176.6
-177.902
-186.933
-201.773
-207.72
-239.36
-234.686
-81.2474
-1137.28
-523.596
-145.631
-111.567
-180.888
-166.496
-173.063
-178.287
-182.091
-189.969
-202.914
-206.3
-237.052
-234.657
-79.3684
-1131.33
-523.528
-146.034
-111.789
-181.179
-166.82
-172.619
-177.445
-181.306
-186.888
-200.079
-205.012
-237.055
-233.696
-79.9655
-1130.41
-522.928
-145.835
-111.884
-181.282
-167.089
-172.92
-178.179
-182.464
-187.191
-199.788
-204.591
-236.484
-233.474
-78.9198
-1125.42
-522.793
-146.273
-112.19
-181.605
-167.526
-172.995
-177.988
-182.498
-186.332
-198.664
-204.282
-236.493
-232.836
-79.8688
-1123.48
-522.499
-146.017
-112.141
-181.569
-167.679
-173.104
-178.326
-182.762
-186.209
-198.502
-204.147
-236.374
-232.658
-79.8626
-1119.83
-522.575
-146.171
-112.462
-181.785
-168.033
-173.298
-178.348
-182.759
-185.953
-198.183
-204.291
-236.533
-233.779
-83.4396
-1114.44
-522.199
-146.043
-112.48
-181.635
-167.928
-173.233
-178.429
-182.824
-185.937
-198.214
-204.266
-236.535
-235.178
-85.701
-1107.46
-522.339
-146.329
-112.47
-181.777
-168.025
-173.278
-178.322
-182.731
-185.927
-198.162
-204.274
-236.547
-233.81
-83.9976
-1113.33
-522.319
-146.127
-112.113
-181.537
-167.654
-173.063
-178.277
-182.708
-186.156
-198.454
-204.1
-236.362
-232.551
-80.3588
-1118.94
-522.572
-146.354
-112.159
-181.561
-167.487
-172.934
-177.917
-182.421
-186.255
-198.591
-204.206
-236.462
-232.67
-80.2795
-1122.54
-522.691
-145.905
-111.842
-181.221
-167.035
-172.843
-178.088
-182.366
-187.09
-199.69
-204.487
-236.425
-233.252
-79.2832
-1124.47
-523.27
-146.085
-111.736
-181.105
-166.752
-172.524
-177.337
-181.187
-186.765
-199.957
-204.879
-236.966
-233.435
-80.2733
-1129.43
-523.328
-145.671
-111.51
-180.805
-166.419
-172.958
-178.167
-181.959
-189.832
-202.776
-206.15
-236.944
-234.376
-79.6435
-1130.34
-524.083
-145.988
-111.303
-180.807
-166.528
-173.049
-176.463
-177.746
-186.765
-201.61
-207.543
-239.222
-234.379
-81.4797
-1136.26
-581.818
-163.799
-122.995
-201.628
-187.567
-197.83
-205.598
-212.274
-224.333
-242.697
-253.45
-282.701
-301.717
-69.0824
-1423.29
-580.967
-163.427
-123.214
-201.571
-187.261
-197.387
-206.911
-215.689
-227.283
-243.575
-251.772
-279.208
-301.16
-66.313
-1413.42
-580.876
-163.857
-123.458
-201.859
-187.58
-196.979
-206.147
-214.933
-224.716
-240.518
-250.077
-279.05
-299.169
-67.1105
-1411.02
-580.222
-163.627
-123.555
-201.937
-187.766
-197.093
-206.75
-215.937
-225.092
-240.481
-249.406
-278.162
-298.24
-66.005
-1402.33
-580.069
-164.092
-123.882
-202.27
-188.204
-197.113
-206.52
-215.747
-224.182
-239.265
-248.842
-278.114
-296.655
-67.8022
-1397.73
-579.733
-163.824
-123.818
-202.207
-188.299
-197.107
-206.735
-215.941
-224.083
-239.17
-248.57
-277.985
-296.05
-68.9181
-1390.39
-579.825
-163.976
-124.139
-202.434
-188.662
-197.277
-206.714
-215.825
-223.742
-238.839
-248.696
-278.201
-297.33
-74.8538
-1380.41
-579.446
-163.839
-124.134
-202.259
-188.522
-197.165
-206.746
-215.876
-223.754
-238.908
-248.69
-278.245
-299.329
-78.58
-1369.31
-579.554
-164.169
-124.149
-202.423
-188.648
-197.246
-206.675
-215.782
-223.7
-238.805
-248.664
-278.223
-297.388
-75.6799
-1378.71
-579.522
-163.952
-123.778
-202.16
-188.261
-197.044
-206.659
-215.857
-223.998
-239.095
-248.487
-277.971
-295.884
-69.6636
-1389.04
-579.785
-164.188
-123.837
-202.204
-188.144
-197.02
-206.41
-215.626
-224.057
-239.15
-248.71
-278.07
-296.389
-68.4221
-1396.3
-579.904
-163.714
-123.495
-201.847
-187.684
-196.973
-206.61
-215.783
-224.928
-240.328
-249.227
-278.076
-297.88
-66.5549
-1400.91
-580.522
-163.921
-123.384
-201.75
-187.476
-196.833
-205.978
-214.746
-224.516
-240.326
-249.851
-278.917
-298.746
-67.5786
-1409.55
-580.596
-163.477
-123.134
-201.449
-187.144
-197.226
-206.724
-215.481
-227.06
-243.358
-251.518
-279.047
-300.705
-66.7336
-1411.93
-581.433
-163.825
-122.901
-201.487
-187.429
-197.645
-205.384
-212.031
-224.063
-242.442
-253.153
-282.493
-301.221
-69.4406
-1421.76
-644.265
-184.695
-137.357
-227.321
-214.572
-229.657
-243.55
-255.584
-273.88
-293.897
-315.761
-335.649
-395.864
-41.7539
-1805.51
-643.342
-184.322
-137.629
-227.292
-214.141
-228.873
-244.431
-258.274
-276.642
-294.249
-313.457
-330.628
-394.151
-38.2368
-1788.76
-643.254
-184.762
-137.875
-227.559
-214.452
-228.526
-243.824
-257.62
-274.38
-290.958
-311.133
-330.334
-390.222
-39.9019
-1783.4
-642.566
-184.501
-138
-227.632
-214.557
-228.414
-244.215
-258.388
-274.623
-290.946
-309.949
-329.061
-387.754
-39.5279
-1767.9
-642.421
-184.979
-138.342
-227.97
-214.991
-228.384
-243.959
-258.027
-273.6
-289.582
-308.931
-329.07
-384.422
-43.4011
-1758.06
-642.069
-184.687
-138.272
-227.886
-215.02
-228.235
-244.015
-258.114
-273.413
-289.488
-308.362
-329.009
-382.95
-47.1127
-1743.9
-642.202
-184.821
-138.59
-228.124
-215.387
-228.377
-243.956
-257.906
-272.974
-289.116
-308.397
-329.379
-384.491
-57.2209
-1725.71
-641.868
-184.649
-138.565
-227.926
-215.204
-228.203
-243.916
-257.925
-272.981
-289.203
-308.384
-329.485
-387.509
-63.4198
-1707.65
-641.976
-185.006
-138.602
-228.105
-215.363
-228.329
-243.895
-257.842
-272.909
-289.063
-308.339
-329.414
-384.602
-58.4498
-1723.09
-641.868
-184.797
-138.216
-227.816
-214.956
-228.136
-243.896
-257.987
-273.278
-289.373
-308.216
-328.995
-382.693
-48.2438
-1741.85
-642.071
-185.07
-138.279
-227.872
-214.895
-228.239
-243.785
-257.84
-273.397
-289.403
-308.7
-329.014
-383.99
-44.3457
-1755.89
-642.145
-184.595
-137.915
-227.499
-214.427
-228.227
-243.993
-258.145
-274.355
-290.707
-309.639
-328.941
-387.166
-40.3676
-1765.76
-642.773
-184.833
-137.769
-227.396
-214.289
-228.298
-243.555
-257.324
-274.05
-290.656
-310.744
-330.141
-389.531
-40.6192
-1781.19
-642.833
-184.378
-137.514
-227.111
-213.958
-228.622
-244.135
-257.945
-276.275
-293.909
-313.021
-330.391
-393.406
-38.8843
-1786.52
-643.731
-184.719
-137.225
-227.114
-214.359
-229.371
-243.211
-255.201
-273.442
-293.495
-315.256
-335.338
-395.054
-42.3065
-1803.21
-713.252
-209.945
-153.533
-257.417
-247.773
-269.184
-291.974
-309.367
-339.342
-358.238
-404.174
-403.434
-537.385
-3.98451
-2354.95
-712.292
-209.602
-153.896
-257.542
-247.348
-268.124
-292.385
-311.263
-341.565
-357.702
-400.501
-396.196
-533.617
1.14686
-2317.88
-712.213
-210.081
-154.175
-257.809
-247.665
-267.855
-291.976
-310.736
-339.413
-354.11
-396.791
-395.479
-525.039
-2.13719
-2303.27
-711.511
-209.803
-154.354
-257.924
-247.722
-267.515
-292.088
-311.149
-339.262
-353.693
-394.398
-393.443
-518.858
-3.28699
-2270.99
-711.407
-210.284
-154.733
-258.29
-248.165
-267.449
-291.82
-310.655
-338.003
-352.052
-392.321
-393.357
-511.346
-10.9982
-2248.43
-711.114
-209.954
-154.669
-258.204
-248.132
-267.146
-291.681
-310.572
-337.565
-351.773
-391.027
-393.272
-507.586
-19.5181
-2219.75
-711.318
-210.067
-155.001
-258.468
-248.512
-267.266
-291.595
-310.295
-336.995
-351.288
-390.755
-393.796
-509.089
-36.6604
-2185.55
-710.992
-209.851
-154.96
-258.248
-248.283
-267.017
-291.464
-310.254
-336.934
-351.343
-390.686
-393.971
-513.848
-46.9427
-2154.58
-711.101
-210.202
-155.014
-258.436
-248.471
-267.191
-291.503
-310.2
-336.885
-351.203
-390.65
-393.849
-509.306
-38.4944
-2181.39
-710.948
-209.97
-154.594
-258.098
-248.031
-266.994
-291.498
-310.38
-337.34
-351.59
-390.767
-393.262
-507.186
-21.2498
-2216.56
-711.056
-210.282
-154.643
-258.142
-248.014
-267.226
-291.549
-310.368
-337.671
-351.769
-391.914
-393.286
-510.645
-12.4416
-2245.1
-710.99
-209.857
-154.235
-257.727
-247.521
-267.23
-291.741
-310.773
-338.824
-353.317
-393.856
-393.275
-517.893
-4.56757
-2267.75
-711.582
-210.146
-154.029
-257.57
-247.414
-267.506
-291.554
-310.273
-338.871
-353.632
-396.114
-395.199
-523.904
-3.23233
-2299.95
-711.618
-209.654
-153.737
-257.277
-247.068
-267.741
-291.918
-310.747
-340.963
-357.167
-399.745
-395.847
-532.39
0.157198
-2314.55
-712.531
-209.958
-153.351
-257.116
-247.449
-268.746
-291.441
-308.768
-338.629
-357.602
-403.304
-402.968
-536.056
-4.84406
-2351.54
-786.135
-240.521
-173.62
-293.805
-289.051
-317.95
-353.571
-375.184
-425.43
-433.804
-525.207
-472.627
-734.56
95.5908
-3063.21
-785.187
-240.23
-174.07
-294.16
-288.792
-316.762
-353.553
-376.235
-426.565
-432.03
-520
-463.028
-725.726
103.247
-2998.12
-785.075
-240.702
-174.379
-294.413
-289.091
-316.551
-353.319
-375.852
-424.406
-428.422
-514.239
-462.763
-709.645
93.4102
-2967.7
-784.393
-240.363
-174.608
-294.581
-289.142
-316.035
-353.139
-375.838
-423.592
-427.348
-509.822
-460.663
-696.221
86.3443
-2907.43
-784.406
-240.748
-175.005
-294.957
-289.578
-315.931
-352.846
-375.267
-422.036
-425.565
-506.141
-461.586
-682.348
69.0319
-2863.58
-784.198
-240.377
-174.952
-294.871
-289.495
-315.488
-352.505
-374.991
-421.23
-425.043
-503.715
-462.243
-674.999
49.9831
-2810.91
-784.439
-240.48
-175.289
-295.151
-289.879
-315.585
-352.389
-374.679
-420.514
-424.523
-503.081
-463.497
-677.372
19.9079
-2750.4
-784.096
-240.243
-175.249
-294.919
-289.61
-315.26
-352.152
-374.551
-420.325
-424.523
-502.976
-463.86
-685.795
2.65401
-2697.79
-784.181
-240.584
-175.306
-295.097
-289.809
-315.466
-352.24
-374.526
-420.316
-424.392
-502.888
-463.582
-677.81
17.1543
-2743.85
-783.988
-240.318
-174.857
-294.711
-289.329
-315.246
-352.208
-374.684
-420.837
-424.759
-503.242
-462.255
-674.364
47.2924
-2806.05
-784.088
-240.613
-174.882
-294.734
-289.332
-315.577
-352.409
-374.812
-421.46
-425.121
-505.403
-461.51
-681.18
66.7959
-2858.54
-783.855
-240.286
-174.449
-294.286
-288.819
-315.584
-352.578
-375.246
-422.851
-426.756
-508.844
-460.443
-694.6
84.3598
-2902.52
-784.27
-240.672
-174.184
-294.059
-288.693
-316.002
-352.638
-375.119
-423.497
-427.665
-513.028
-462.367
-707.734
91.7226
-2962.71
-784.287
-240.207
-173.854
-293.767
-288.35
-316.159
-352.8
-375.416
-425.557
-431.181
-518.652
-462.524
-723.652
101.69
-2993.08
-785.15
-240.462
-173.372
-293.36
-288.542
-317.264
-352.714
-374.237
-424.251
-432.795
-523.675
-471.935
-732.327
94.2536
-3058
-860.859
-274.802
-194.153
-334.125
-337.362
-375.448
-428.604
-453.494
-537.147
-525.261
-702.697
-559.981
-1036.89
182.159
-4298.55
-860.028
-274.701
-194.823
-334.994
-337.703
-374.54
-428.351
-453.522
-536.345
-520.705
-695.506
-544.466
-1032.81
177.959
-4067.1
-859.956
-275.234
-195.193
-335.254
-338.004
-374.401
-428.263
-453.176
-533.827
-516.846
-685.002
-543.469
-991.096
169.747
-3995.7
-859.571
-274.885
-195.543
-335.603
-338.237
-373.898
-427.878
-452.623
-531.822
-514.173
-676.215
-539.122
-961.423
157.008
-3856.9
-859.86
-275.232
-195.987
-336.008
-338.686
-373.787
-427.574
-451.974
-529.613
-511.887
-668.071
-539.705
-928.101
130.255
-3765.48
-859.641
-274.971
-196.016
-335.974
-338.623
-373.268
-427.06
-451.439
-528.059
-510.646
-662.604
-540.28
-910.426
97.3494
-3662.71
-859.93
-275.142
-196.41
-336.276
-339.021
-373.351
-426.913
-451.078
-527.001
-509.938
-660.532
-542.136
-911.59
47.818
-3549.63
-859.57
-274.898
-196.402
-336.044
-338.732
-372.963
-426.564
-450.831
-526.581
-509.783
-660.303
-542.708
-927.874
18.284
-3449.54
-859.63
-275.22
-196.43
-336.188
-338.91
-373.168
-426.672
-450.837
-526.661
-509.742
-660.181
-542.282
-912.494
43.6127
-3538.44
-859.372
-274.842
-195.901
-335.735
-338.369
-372.9
-426.585
-450.955
-527.389
-510.211
-661.744
-540.357
-909.484
93.0005
-3654.71
-859.453
-274.97
-195.846
-335.678
-338.31
-373.25
-426.879
-451.255
-528.627
-511.2
-666.739
-539.657
-926.246
126.671
-3757.34
-859.037
-274.564
-195.347
-335.169
-337.743
-373.216
-426.996
-451.701
-530.57
-513.252
-674.461
-538.859
-958.773
153.842
-3849.19
-859.185
-274.881
-194.946
-334.734
-337.398
-373.573
-427.196
-452.047
-532.319
-515.661
-682.854
-542.932
-988.002
167.02
-3987.94
-858.973
-274.451
-194.554
-334.421
-337.032
-373.63
-427.172
-452.25
-534.674
-519.372
-693.114
-543.763
-1029.35
175.554
-4059.88
-859.586
-274.602
-193.833
-333.48
-336.595
-374.413
-427.27
-452.027
-535.212
-523.664
-699.985
-558.969
-1033.15
179.962
-4291.32
-937.455
-316.036
-220.323
-381.651
-397.48
-446.743
-524.809
-548.82
-688.282
-626.599
-961.488
-614.912
-1464.9
462.43
-5515.77
-936.726
-316.038
-221.081
-383.02
-398.609
-446.458
-524.667
-548.408
-685.225
-620.274
-950.327
-599.911
-1438.06
531.297
-5241.92
-936.648
-316.594
-221.512
-383.289
-398.806
-446.245
-524.601
-548.136
-682.499
-616.717
-935.501
-601.372
-1381.9
459.768
-5069.72
-936.12
-316.438
-221.913
-383.767
-399.264
-445.947
-524.242
-547.443
-679.486
-612.987
-922.056
-599.977
-1327.24
412.721
-4819.28
-936.194
-316.921
-222.448
-384.208
-399.664
-445.775
-523.892
-546.841
-676.811
-611.02
-910.429
-604.719
-1283.21
342.963
-4659.26
-935.926
-316.701
-222.481
-384.177
-399.62
-445.275
-523.342
-546.249
-674.68
-609.552
-902.553
-607.962
-1255.78
275.881
-4492.1
-936.179
-316.85
-222.925
-384.475
-399.974
-445.306
-523.137
-545.873
-673.343
-609.055
-899.68
-612.758
-1258.52
193.425
-4317.21
-935.797
-316.556
-222.924
-384.201
-399.646
-444.874
-522.704
-545.54
-672.705
-608.801
-899.745
-614.25
-1284.2
149.461
-4170.03
-935.811
-316.865
-222.953
-384.329
-399.782
-445
-522.724
-545.471
-672.74
-608.751
-898.979
-613.055
-1259.84
187.081
-4300.85
-935.531
-316.433
-222.361
-383.82
-399.206
-444.672
-522.546
-545.458
-673.499
-608.866
-900.866
-608.117
-1253.95
269.375
-4480.26
-935.597
-316.464
-222.305
-383.709
-399.056
-444.9
-522.731
-545.668
-675.084
-609.929
-907.857
-604.615
-1279.82
337.776
-4647.15
-935.223
-315.94
-221.715
-383.119
-398.477
-444.844
-522.778
-545.943
-677.3
-611.518
-918.695
-599.512
-1322.51
408.216
-4807.8
-935.372
-316.088
-221.239
-382.515
-397.844
-444.912
-522.837
-546.314
-679.886
-614.83
-931.431
-600.454
-1376.42
456.303
-5058.72
-935.275
-315.575
-220.757
-382.167
-397.548
-445.004
-522.738
-546.38
-682.367
-618.138
-945.806
-598.73
-1431.72
527.489
-5230.82
-935.879
-315.553
-219.913
-380.692
-396.267
-445.094
-522.633
-546.507
-685.081
-624.063
-956.446
-613.276
-1458.22
459.107
-5503.98
-1006.87
-362.168
-248.197
-432.952
-462.26
-522.409
-627.663
-648.865
-860.403
-735.94
-1315.5
-712.463
-2010.26
545.976
-9063.2
-1006.64
-362.815
-249.424
-435.885
-466.212
-525.191
-629.444
-648.605
-855.199
-724.686
-1307.06
-656.044
-2395.3
441.131
-7375.45
-1006.99
-363.611
-249.899
-435.982
-466.332
-524.992
-629.351
-648.037
-850.888
-719.768
-1270.64
-664.385
-2028.75
599.097
-7248.3
-1006.78
-364.006
-250.603
-437.029
-467.842
-525.934
-629.997
-647.561
-846.298
-712.634
-1241.77
-654.148
-1872.21
514.941
-6708.31
-1007.04
-365.015
-251.205
-437.391
-468.205
-525.813
-629.748
-646.835
-842.019
-709.023
-1212.34
-654.979
-1709.73
459.979
-6441.27
-1006.82
-365.36
-251.347
-437.528
-468.477
-525.676
-629.545
-646.324
-838.853
-705.977
-1194
-657.154
-1633.69
366.384
-6144.65
-1007.1
-365.819
-251.792
-437.701
-468.731
-525.636
-629.295
-645.864
-836.899
-705.183
-1187.03
-666.398
-1620.21
226.782
-5857.43
-1006.76
-365.525
-251.777
-437.395
-468.46
-525.254
-628.85
-645.489
-836.102
-704.886
-1189.09
-672.726
-1682.05
128.221
-5576.26
-1006.74
-365.714
-251.818
-437.443
-468.442
-525.195
-628.608
-645.196
-835.915
-704.747
-1185.87
-667.053
-1622.44
216.087
-5829.69
-1006.38
-364.977
-251.226
-436.967
-467.858
-524.816
-628.259
-645.048
-836.935
-704.988
-1191.04
-657.476
-1631.52
354.07
-6124.57
-1006.38
-364.471
-251.023
-436.614
-467.297
-524.56
-627.922
-644.99
-839.219
-707.434
-1207.86
-654.874
-1705.5
449.845
-6419.98
-1005.97
-363.349
-250.308
-436.048
-466.67
-524.345
-627.746
-645.247
-842.76
-710.473
-1235.84
-653.626
-1865.13
505.538
-6688.91
-1006.01
-362.822
-249.492
-434.83
-464.899
-523.056
-626.682
-645.238
-846.655
-716.953
-1263.58
-663.232
-2022.29
590.009
-7226.91
-1005.53
-361.987
-248.957
-434.637
-464.632
-523.066
-626.544
-645.533
-850.568
-721.479
-1299.08
-654.657
-2384.01
433.719
-7362.83
-1005.65
-361.226
-247.627
-431.559
-460.453
-519.992
-624.403
-645.373
-855.248
-732.102
-1306.67
-710.168
-1998.6
537.205
-9050.16
-1053.09
-410.389
-284.247
-492.445
-558.804
-628.721
-771.449
-781.246
-1123.84
-875.738
-1912.21
-743.403
-3840.49
824.209
-10368.7
-1053.13
-411.683
-285.856
-495.393
-563.483
-634.531
-776.399
-783.487
-1118.76
-862.376
-1916.64
-686.826
-4009.38
901.305
-7809.57
-1052.79
-412.993
-286.358
-495.267
-562.792
-633.839
-776.201
-782.627
-1114.41
-855.232
-1892.02
-671.942
-3837.13
893.274
-7352.93
-1052.36
-414.379
-287.197
-496.395
-564.601
-636.247
-778.521
-783.305
-1111.75
-846.212
-1876.58
-666.389
-3684.77
676.485
-6897.4
-1051.74
-416.061
-287.934
-496.547
-564.3
-635.961
-778.357
-782.284
-1107.58
-842.565
-1847.91
-682.717
-3449.55
620.504
-6982.02
-1050.57
-417.063
-288.047
-496.651
-564.539
-636.402
-779.177
-782.357
-1105.35
-838.429
-1829.12
-686.412
-3267.2
516.501
-6944.53
-1049.83
-417.888
-288.484
-496.689
-564.301
-636.095
-778.933
-781.468
-1102.91
-836.222
-1817.17
-695.603
-3248.79
399.235
-6548.87
-1049.18
-417.698
-288.265
-496.216
-563.899
-635.715
-778.664
-781.115
-1102.03
-834.708
-1817.16
-689.949
-3331.51
323.871
-6100.35
-1048.98
-417.917
-288.527
-496.326
-563.825
-635.187
-777.651
-780.247
-1101.05
-835.519
-1813.66
-696.519
-3247.52
388.803
-6510.88
-1049.26