/*--------------------------------*- C++ -*----------------------------------*\
| =========                 |                                                 |
| \\      /  F ield         | OpenFOAM: The Open Source CFD Toolbox           |
|  \\    /   O peration     | Version:  4.1                                   |
|   \\  /    A nd           | Web:      www.OpenFOAM.org                      |
|    \\/     M anipulation  |                                                 |
\*---------------------------------------------------------------------------*/
FoamFile
{
    version     2.0;
    format      ascii;
    class       surfaceScalarField;
    location    "2";
    object      phi;
}
// * * * * * * * * * * * * * * * * * * * * * * * * * * * * * * * * * * * * * //

dimensions      [0 3 -1 0 0 0 0];

internalField   nonuniform List<scalar> 
19125
(
298.462
-21.363
573.59
238.858
-0.347775
560.249
150.552
0.113889
232.011
77.0654
0.686726
176.431
51.4186
13.9779
160.952
43.8008
7.81718
169.956
41.9039
-20.813
130.495
50.0856
-51.325
56.0847
66.0591
-40.1276
62.3649
95.2773
-12.0675
105.529
120.138
-20.2094
89.9767
85.1122
-2.71109
160.177
-62.5268
-23.0908
166.469
-200.853
25.9733
601.217
-33.228
974.092
288.095
-20.6032
584.227
232.829
-2.10973
559.204
139.555
6.8651
218.967
61.3727
9.99192
164.48
40.629
18.0878
151.414
37.9767
7.14344
161.935
33.7094
-18.3817
141.575
37.5337
-40.9979
99.3714
54.1941
-31.7648
111.529
84.6395
-13.606
130.469
125.548
-23.4389
64.259
101.54
-2.76143
137.354
-54.0067
-26.3265
125.044
-181.417
17.8163
577.745
-29.3527
990.777
288.548
-21.5563
586.952
229.17
0.533298
561.099
134.398
14.0298
224.009
57.6683
16.0035
167.524
36.954
17.6265
143.649
34.2982
3.69841
143.153
32.5264
-14.623
126.007
37.8154
-28.2749
105.053
58.0271
-22.99
108.996
96.2444
-12.4854
103.905
139.855
-27.403
34.5086
115.456
-8.25958
125.147
-47.1134
-24.127
126.192
-182.544
17.4565
580.377
-28.1421
993.373
284.536
-21.3234
593.713
225.311
1.66995
560.171
134.828
15.0305
221.229
61.3959
15.6089
161.9
37.4887
17.1692
133.296
30.8898
3.05764
133.978
29.1062
-11.6423
127.636
36.8921
-19.2313
116.559
60.3193
-15.2846
112.193
101.653
-11.5577
95.9807
150.008
-30.1854
16.8697
124.513
-12.82
107.191
-39.253
-22.2098
113.64
-176.855
16.1833
570.702
-24.9557
1000.47
283.508
-21.9341
598.157
221.56
5.21768
562.104
128.397
16.655
223.4
56.5204
13.6515
165.289
35.8765
12.24
133.333
29.0477
1.24091
128.371
27.2658
-8.41631
123.669
36.3473
-12.3084
122.959
61.6826
-9.62598
115.109
103.548
-8.41815
87.6992
151.398
-26.8802
7.64938
128.011
-16.0009
105.489
-34.5742
-21.2815
109.642
-176.177
17.7263
571.241
-22.9909
1003.61
279.488
-20.9181
604.496
217.305
7.76961
562.299
125.512
14.9994
221.043
55.572
8.85145
162.512
35.117
6.63858
129.843
27.3818
0.124648
125.418
25.6954
-5.52021
124.363
35.7365
-7.3254
128.892
61.8942
-5.41196
118.033
103.243
-5.03887
86.5553
151.245
-20.5798
5.16238
129.782
-15.2369
100.139
-31.2943
-19.5399
98.8163
-172.327
17.157
566.308
-19.9979
1008.05
268.21
-9.91799
612.279
209.142
4.78876
563.509
121.917
6.89124
214.794
53.9401
3.0292
159.889
34.7431
1.17675
130.153
26.7559
-0.588858
125.123
24.9546
-2.19505
124.49
35.28
-2.53823
132.61
61.3407
-1.81338
121.252
101.101
-1.60268
87.8757
146.082
-7.99187
6.02198
129.355
-6.83042
97.6226
-28.1265
-11.007
81.1449
-161.784
8.26188
557.349
-9.1063
1013.42
259.08
9.75542
616.909
204.785
-4.86172
562.321
123.165
-6.96267
207.125
56.1418
-3.17164
154.155
35.5914
-1.31543
127.575
26.8889
0.427442
124.013
24.7187
2.03601
124.798
35.0233
2.39848
134.62
60.8741
1.68476
123.045
100.041
1.4788
89.4988
143.845
7.84095
5.8206
130.081
7.01283
92.8571
-27.6943
9.40395
66.1811
-153.091
-8.34909
546.456
8.91592
1016.15
268.223
20.8148
612.169
209.146
-7.82741
563.546
121.936
-15.0849
214.81
53.9494
-8.97936
159.9
34.7503
-6.7759
130.17
26.7577
-0.285579
125.133
24.9541
5.35037
124.481
35.2863
7.16671
132.59
61.3601
5.26156
121.229
101.156
4.85119
87.8545
146.137
20.2947
6.12554
129.812
15.0392
97.5758
-28.2589
18.7615
81.164
-161.86
-17.2571
557.436
19.8505
1013.2
279.505
21.8609
604.399
217.315
-5.26459
562.338
125.529
-16.747
221.055
55.5801
-13.7651
162.512
35.1242
-12.3703
129.847
27.3858
-1.39369
125.413
25.6968
8.25093
124.333
35.7437
12.1473
128.848
61.9073
9.46869
118.002
103.293
8.19563
86.5147
151.286
26.5236
5.21638
129.939
15.7241
100.053
-31.3908
20.8293
98.8565
-172.404
-17.8247
566.42
22.874
1007.82
283.527
21.2689
598.061
221.578
-1.70724
562.128
128.417
-15.1235
223.407
56.5289
-15.7086
165.278
35.8808
-17.2851
133.319
29.0505
-3.18851
128.343
27.2687
11.4961
123.616
36.3528
19.0819
122.897
61.682
15.1336
115.08
103.577
11.3488
87.6417
151.443
29.8826
7.56803
128.07
12.559
105.38
-34.6578
21.9205
109.674
-176.254
-16.2669
571.332
24.8664
1003.36
284.554
21.5143
593.619
225.332
-0.561813
560.184
134.848
-14.1165
221.232
61.4006
-16.083
161.879
37.4875
-17.7201
133.268
30.8892
-3.80027
133.931
29.1088
14.509
127.563
36.8957
28.1526
116.481
60.3115
22.8588
112.158
101.668
12.3203
95.909
150.056
27.2024
16.729
124.539
8.03866
107.068
-39.3288
23.9432
113.661
-176.929
-17.5179
570.776
28.075
1000.23
288.566
20.5709
586.855
229.195
2.08781
561.1
134.419
-6.94192
224.006
57.672
-10.0501
167.49
36.9496
-18.1573
143.607
34.2959
-7.21539
143.096
32.5284
18.304
125.923
37.8176
40.9099
104.963
58.0172
31.6583
108.951
96.2541
13.4891
103.83
139.885
23.3142
34.3985
115.443
2.59398
125.038
-47.1919
26.2191
126.206
-182.612
-17.8614
580.424
29.3058
993.135
288.113
21.3385
584.123
232.857
0.330232
559.194
139.576
-0.170989
218.961
61.3788
-0.727817
164.434
40.6248
-14.0204
151.361
37.9733
-7.85948
161.871
33.7099
20.771
141.493
37.535
51.28
99.2622
54.1883
40.0678
111.448
84.6479
11.9912
130.397
125.563
20.1438
64.1717
101.497
2.60816
137.256
-54.0902
23.0338
125.052
-181.484
-26.0033
577.776
33.1952
990.538
298.482
573.486
238.892
560.233
150.578
231.999
77.0765
176.381
51.4183
160.893
43.8031
169.888
41.9182
130.402
50.1024
55.9417
66.0593
62.2395
95.2912
105.434
120.147
89.9038
85.0575
160.085
-62.6082
166.461
-200.914
601.226
973.864
834.795
-16.7634
360.726
824.966
-33.4502
573.959
687.839
-39.8715
365.106
552.053
-78.5653
301.198
422.333
-90.7225
269.975
314.691
-63.8296
265.548
226.66
-19.7209
223.501
150.306
54.3777
154.144
98.1916
42.2558
139.736
27.1079
3.87944
180.469
-139.64
-51.8029
240.611
-346.363
-99.9766
366.388
-642.91
-62.0251
469.184
-833.855
-29.9739
792.986
-42.7547
789.597
829.679
-15.8584
366.878
809.823
-32.8291
578.428
660.726
-34.9123
363.097
497.912
-49.1362
297.864
344.496
-46.6579
260.769
231.211
-38.6876
250.083
164.268
-27.0705
215.874
134.618
22.9429
160.462
121.584
19.4791
147.345
100.939
-4.80671
159.807
-38.1828
-32.4536
184.039
-276.842
-66.6936
342.734
-608.168
-56.7694
451.114
-817.585
-32.0171
789.203
-40.3562
803.819
831.762
-17.4957
368.44
812.053
-31.7301
579.698
661.701
-27.6582
367.1
507.297
-29.5768
302.368
363.655
-19.1564
259.794
245.537
-17.0371
239.626
162.624
-18.2756
200.132
130.266
8.06291
152.299
132.838
5.06569
120.845
114.496
-3.94208
121.389
-32.6957
-16.3313
165.587
-272.846
-45.4202
344.028
-608.942
-51.0295
456.549
-820.359
-31.5196
791.295
-42.0793
806.007
829.355
-17.3981
373.077
805.669
-30.2274
582.343
655.034
-23.1405
367.34
507.097
-21.0068
301.267
372.444
-5.95093
254.747
257.134
-1.00755
233.264
168.657
-6.23605
204.08
129.98
3.91065
159.395
137.673
-0.380257
109.953
127.456
-1.52905
103.792
-15.4426
-3.34695
146.794
-252.948
-35.4384
334.72
-595.447
-46.4164
451.526
-814.38
-31.1687
789.282
-41.8974
813.759
831.212
-20.4183
375.995
806.518
-28.1822
584.742
650.467
-14.6473
370.951
498.687
-9.26678
305.328
365.308
4.23485
256.53
255.567
6.71723
230.393
171.73
-0.433168
201.71
131.852
2.29172
164.463
141.764
-1.22869
106.052
143.527
0.298382
84.1182
7.4509
6.89719
133.493
-235.921
-20.304
333.733
-591.013
-35.8787
454.197
-814.836
-27.7456
791.639
-46.0552
817.759
830.342
-24.4825
380.357
800.535
-23.696
587.609
641.282
-6.13935
371.781
490.722
-1.34178
305.147
361.721
8.5164
254.567
255.801
10.4798
227.582
172.776
3.82116
203.139
132.002
2.02195
169.943
143.583
-0.729521
105.959
152.279
1.80261
76.3637
26.6505
14.1397
123.56
-212.4
-7.81767
326.709
-576.851
-22.8556
450.246
-808.924
-20.7176
791.351
-50.3473
824.529
818.079
-13.9679
386.212
774.91
-9.92366
592.895
612.064
-0.146306
371.64
463.337
1.95473
305.319
342.028
5.04081
254.941
245.511
5.06964
227.056
169.002
1.83452
202.993
130.851
0.489562
172.301
143.368
-0.433057
108.447
161.43
0.857122
70.7672
61.5413
7.62488
112.437
-163.551
-0.11817
315.022
-535.632
-7.69607
438.068
-780.834
-7.62683
789.459
-26.9792
833.481
804.38
13.3627
390.203
751.125
9.75753
595.883
589.593
0.018422
368.485
445.906
-2.1041
301.9
331.76
-5.24126
252.007
241.318
-5.34938
224.88
167.605
-2.18509
202.538
130.205
-0.91663
173.433
143.006
-0.0120674
109.831
165.529
-1.46434
69.3056
82.7498
-8.08716
104.323
-128.222
0.017619
303.7
-500.537
7.26961
423.532
-753.253
7.30976
784.234
25.8946
839.287
817.923
24.2662
386.059
774.814
23.5014
592.899
612.011
5.97152
371.653
463.32
1.16331
305.323
342.038
-8.72596
254.941
245.536
-10.7542
227.046
169.024
-4.1686
202.984
130.859
-2.45341
172.299
143.307
0.290355
108.487
161.221
-2.38772
70.873
61.4074
-14.7101
112.575
-163.489
7.49498
315.001
-535.531
22.4042
438.073
-780.634
20.3898
789.457
49.8818
833.093
830.296
20.3129
380.257
800.507
28.0115
587.607
641.268
14.4767
371.783
490.719
9.08977
305.134
361.729
-4.43324
254.547
255.821
-6.96853
227.542
172.8
0.107994
203.085
132.013
-2.70551
169.895
143.529
0.810213
105.975
152.133
-0.787912
76.3205
26.5769
-7.51422
123.589
-212.391
19.8719
326.65
-576.871
35.4823
450.26
-808.905
27.4578
791.383
45.8243
824.162
831.199
17.3219
375.9
806.524
30.0886
584.715
650.473
22.9871
370.942
498.691
20.8461
305.304
365.315
5.77205
256.493
255.582
0.788839
230.324
171.751
5.95129
201.61
131.864
-4.29085
164.377
141.754
-0.0375212
106.046
143.581
1.09062
83.9465
7.49705
2.79014
133.36
-235.949
35.0388
333.664
-591.094
46.1004
454.202
-814.885
30.9361
791.643
41.7654
817.377
829.349
17.4301
372.98
805.685
31.6206
582.304
655.051
27.5278
367.32
507.109
29.4408
301.227
372.456
19.0044
254.692
257.149
16.8589
233.173
168.676
18.0457
203.948
129.999
-8.40002
159.274
137.699
-5.47835
109.906
127.592
3.53385
103.581
-15.3803
15.9
146.602
-253.02
45.1122
334.641
-595.554
50.7878
451.509
-814.45
31.3406
789.264
41.9932
813.381
831.755
15.8008
368.335
812.076
32.7427
579.644
661.729
34.8054
367.067
507.319
49.0269
302.313
363.669
46.5405
259.724
245.551
38.5587
239.521
162.65
26.8987
199.98
130.29
-23.2243
152.155
132.851
-19.8429
120.764
114.561
4.48563
121.179
-32.7091
32.1583
165.423
-272.964
66.4742
343.936
-609.069
56.5908
456.507
-820.434
31.8832
791.244
40.2988
805.629
829.669
16.7184
366.754
809.844
33.3842
578.365
660.758
39.789
363.054
497.94
78.4819
297.797
344.515
90.6439
260.686
231.233
63.7508
249.967
164.31
19.6047
215.719
134.64
-54.5796
160.296
121.569
-42.5185
147.205
100.933
-4.08593
159.618
-38.258
51.6383
183.895
-276.993
99.8418
342.628
-608.305
61.9028
451.054
-817.662
29.8843
789.129
42.713
803.439
834.79
360.588
824.993
573.892
687.881
365.056
552.094
301.123
422.369
269.887
314.733
265.431
226.705
223.346
150.304
153.979
98.1348
139.577
27.0172
180.29
-139.785
240.488
-346.538
366.27
-643.056
469.1
-833.932
792.89
789.225
903.021
-1.44495
214.06
1002.07
-28.0746
479.473
952.217
-51.151
415.258
849.199
-117.427
393.147
700.099
-182.37
390.688
538.446
-177.701
404.745
363.989
-46.4388
381.966
150.816
229.074
353.504
-70.7405
185.581
347.108
-303.116
-102.16
401.854
-573.366
-188.909
485.926
-811.395
-171.365
597.03
-1026.85
-88.5279
688.251
-1045.54
-55.3342
819.755
-17.4175
569.789
903.763
0.291201
214.784
997.067
-26.9128
483.951
936.343
-46.9222
419.584
806.287
-86.4855
396.977
616.584
-119.292
387.395
423.381
-127.471
393.059
285.473
-60.4894
367.836
172.72
164.884
337.409
61.4635
127.311
316.876
-132.127
-96.265
347.507
-461.386
-124.456
448.847
-761.716
-120.74
592.439
-1007.19
-79.2426
687.299
-1043.56
-53.5811
823.822
-15.7207
574.898
906.316
0.103919
214.988
1003.18
-28.0763
483.99
944.679
-42.6903
421.357
827.362
-66.3821
399.581
658.544
-77.7019
387.024
461.045
-78.313
387.97
286.712
-44.0226
358.001
183.809
100.928
319.162
81.5165
79.1056
271.347
-152.645
-63.451
322.741
-483.851
-74.9119
447.252
-770.212
-88.4669
598.116
-1014.81
-69.6894
691.593
-1048.01
-53.6909
824.605
-18.1648
575.095
906.659
1.4799
215.837
1000.45
-26.7059
487.167
939.404
-38.3048
423.997
825.975
-52.9751
401.287
672.135
-53.4808
384.367
491.01
-45.8928
381.972
309.649
-19.7072
361.129
191.857
61.8483
316.271
84.1337
49.4605
247.326
-151.911
-31.8366
308.228
-474.611
-44.2796
438.864
-756.669
-68.6502
596.962
-1006.45
-60.3867
692.007
-1046.57
-50.8208
826.529
-17.7382
578.315
910.295
0.0701281
216.276
1007.27
-27.2401
488.287
944.325
-30.9922
426.579
827.457
-35.683
404.903
672.9
-28.9237
386.532
498.563
-21.6638
380.506
326.964
-6.70806
360.313
200.765
37.4631
315.052
90.8013
32.0232
233.458
-133.576
-12.0214
288.687
-459.368
-19.0406
434.049
-752.373
-42.5711
600.659
-1011.27
-43.5359
696.244
-1051.64
-47.5405
828.726
-22.7513
579.498
912.724
-2.41669
217.071
1007.69
-25.531
490.927
940.732
-21.2913
429.028
822.871
-19.7506
407.075
673.632
-11.3938
386.277
507.047
-5.14112
377.648
339.612
2.74026
361.13
207.828
22.9973
316.196
96.6124
22.1452
227.058
-119.68
2.54887
278.092
-441.194
-1.61417
427.651
-736.847
-20.098
599.89
-1004.19
-23.3795
697.429
-1052.76
-38.7165
831.097
-30.4781
582.852
913.117
-3.40178
218.53
996.609
-12.0526
495.913
920.973
-7.09257
433.071
799.804
-4.76671
411.502
654.662
-0.673564
389.366
497.299
1.17955
378.103
339.545
2.38589
361.105
211.515
7.53637
315.796
110.992
7.94457
223.175
-83.222
3.31897
264.219
-393.62
3.31758
417.908
-692.963
-3.31216
597.581
-970.576
-4.96506
697.265
-1039.27
-16.0509
835.49
-19.3631
587.012
908.701
2.46679
219.75
980.553
11.8592
500.109
899.936
6.9881
435.014
779.815
4.6361
412.617
641.601
0.490057
389.06
492.537
-1.48366
376.611
339.809
-2.83633
360.491
213.309
-8.14608
315.619
117.97
-8.62783
221.749
-63.2819
-4.05813
257.941
-361.157
-3.74334
409.263
-656.181
3.10851
592.304
-935.849
4.74485
693.489
-1020.65
15.7238
837.261
17.192
589.658
912.775
2.22356
218.35
996.384
25.2399
495.898
920.859
21.0673
433.092
799.764
19.5418
411.512
654.664
11.1768
389.358
497.307
4.85508
378.068
339.541
-3.1457
361.063
211.468
-23.5587
315.789
110.839
-22.7854
223.279
-83.3694
-3.19757
264.228
-393.599
1.15696
417.908
-692.812
19.7489
597.576
-970.245
22.973
697.277
-1038.71
38.2231
835.425
29.7205
586.412
912.649
-0.130663
216.962
1007.62
26.9782
490.887
940.696
30.7517
429.015
822.861
35.4599
407.051
673.643
28.7034
386.24
507.06
21.4055
377.578
339.615
6.35474
361.033
207.803
-37.975
316.128
96.5553
-32.6487
227.091
-119.724
11.4624
277.947
-441.195
18.6397
427.581
-736.825
42.1839
599.846
-1004.11
43.1059
697.407
-1052.62
47.0798
831.043
22.4426
582.361
910.297
-1.56319
216.156
1007.27
26.4913
488.215
944.323
38.0939
426.543
827.458
52.7701
404.858
672.91
53.2741
386.472
498.577
45.6604
380.406
326.973
19.4046
360.168
200.761
-62.3157
314.935
90.8151
-50.0792
233.429
-133.548
31.3383
288.439
-459.389
43.9197
433.924
-752.419
68.2926
600.587
-1011.3
60.0054
696.182
-1051.63
50.4331
828.623
17.5744
579.008
906.661
-0.208743
215.707
1000.46
27.9054
487.083
939.407
42.5145
423.942
825.981
66.2029
401.219
672.15
77.5172
384.283
491.029
78.1129
381.846
309.664
43.7737
360.949
191.867
-101.347
316.109
84.1432
-79.6701
247.227
-151.922
63.0291
307.962
-474.681
74.5785
438.705
-756.753
88.1565
596.851
-1006.51
69.3724
691.9
-1046.6
53.3831
826.397
18.0574
577.838
906.31
-0.42657
214.844
1003.17
26.784
483.889
944.685
46.7786
421.283
827.374
86.3359
399.491
658.559
119.14
386.918
461.062
127.314
387.821
286.74
60.2889
357.791
183.813
-165.227
318.967
81.4862
-127.765
271.191
-152.705
95.95
322.456
-483.961
124.191
447.07
-770.324
120.488
597.97
-1014.88
78.9907
691.444
-1048.03
53.3437
824.433
15.6473
574.619
903.736
1.32617
214.628
997.054
27.9789
483.838
936.343
51.0403
419.496
806.296
117.308
396.871
616.596
182.255
387.273
423.401
177.59
392.891
285.508
46.2944
367.612
172.703
-229.315
337.193
61.3827
-185.9
316.666
-132.234
101.972
347.218
-461.522
188.731
448.647
-761.839
171.173
592.262
-1007.25
88.3408
687.118
-1043.57
55.1675
823.621
17.3652
574.419
902.975
213.898
1002.05
479.355
952.22
415.158
849.213
393.028
700.118
390.557
538.469
404.574
364
381.746
150.774
353.298
-70.8614
346.885
-303.285
401.596
-573.523
485.718
-811.528
596.827
-1026.92
688.041
-1045.54
819.53
569.319
873.808
-0.556003
201.68
938.679
-16.5406
416.82
932.477
-44.9863
421.694
872.742
-124.08
441.782
751.55
-215.515
483.057
596.284
-233.135
538.343
396.176
-64.3555
561.204
118.172
320.897
592.316
-181.744
248.557
602.852
-443.457
-177.73
649.84
-688.672
-272.954
708.062
-878.959
-199.972
777.09
-1013.09
-98.8253
825.757
-1000.68
-53.1853
814.746
-8.93434
560.285
872.861
1.82086
200.183
935.723
-14.499
419.033
922.641
-40.1986
427.87
842.284
-93.536
446.787
683.255
-148.195
479.106
489.926
-175.715
528.972
328.42
-82.7807
547.771
165.297
253.553
567.877
-16.3979
183.752
563.379
-272.972
-181.853
608.207
-600.274
-192.295
695.491
-845.755
-145.516
783.464
-1001.71
-87.4263
831.852
-998.947
-49.2307
817.104
-5.89853
558.57
875.645
1.39224
199.655
942.982
-16.2017
418.343
933.373
-37.2175
427.976
866.588
-74.0588
446.887
731.896
-103.168
476.691
534.635
-115.448
524.966
332.097
-64.6133
542.375
194.101
163.641
547.072
10.0077
120.456
518.739
-316.124
-130.549
597.571
-635.845
-124.142
698.823
-861.972
-110.126
788.854
-1014.68
-76.8642
833.734
-1005.37
-50.4164
816.483
-9.13734
557.069
874.549
3.43404
198.743
939.529
-14.1545
420.126
928.648
-33.3504
431.003
866.111
-59.5789
449.343
748.177
-75.0508
474.185
573.867
-76.5274
517.364
365.282
-35.9715
541.076
208.041
99.3643
537.791
3.16761
76.1757
496.483
-333.731
-77.1436
591.724
-633.686
-82.2736
696.953
-852.905
-86.2537
792.309
-1007.91
-66.4391
836.588
-1002.74
-46.3674
817.302
-6.47835
555.869
878.181
2.04349
197.962
947.828
-15.4171
419.89
937.35
-28.4624
432.161
873.772
-42.494
451.394
756.047
-45.7786
474.987
588.576
-44.1068
515.559
391.885
-18.7278
539.763
217.34
58.3723
530.592
-0.651743
46.7606
480.868
-329.505
-41.0672
581.466
-631.555
-44.3902
698.217
-859.205
-55.8427
797.9
-1019.58
-49.5253
839.706
-1010.18
-44.7868
817.742
-10.6579
554.075
879.091
0.94527
197.676
949.675
-15.8893
420.803
937.36
-21.4966
434.369
873.759
-25.9721
454.152
762.44
-23.4444
475.264
604.219
-20.4769
512.242
413.412
-5.30175
538.514
226.495
34.5081
526.979
-2.83444
30.2173
472.935
-327.842
-13.6097
575.646
-624.574
-17.3572
697.351
-853.205
-29.0535
801.732
-1019.04
-29.2044
842.942
-1013.92
-37.8523
819.037
-19.5497
553.349
881.404
-1.64908
197.499
946.918
-8.54074
423.037
928.277
-8.14988
438.358
861.914
-7.74536
459.636
753.555
-5.18233
479.464
602.037
-4.14659
513.294
419.967
-0.433722
538.31
235.139
11.2401
523.896
13.0133
10.4174
465.104
-300.255
-1.81051
565.691
-594.604
-1.47517
696.377
-826.562
-6.28837
806.774
-998.989
-7.65641
848.142
-1007.19
-16.5698
822.405
-15.9919
551.498
878.5
0.400116
197.324
936.149
8.27043
425.636
913.385
8.04206
441.579
847.557
7.58653
463.112
745.177
4.95972
481.3
601.039
3.7857
512.82
423.533
-0.123708
537.69
239.729
-12.0001
522.666
21.2065
-11.2659
461.958
-284.473
1.16346
560.65
-571.213
1.08797
693.443
-798.959
6.06398
807.697
-971.278
7.51341
850.636
-991.267
16.305
824.372
12.4083
549.432
880.863
-1.09104
197.243
946.513
15.4921
423.014
928.081
21.1711
438.387
861.852
25.673
459.653
753.561
23.1575
479.452
602.053
20.1216
513.243
419.948
4.81154
538.236
235.049
-35.1825
523.873
12.9075
-31.038
465.196
-300.283
12.998
565.588
-594.535
16.9092
696.341
-826.301
28.614
806.792
-998.334
28.656
848.165
-1006.04
37.1922
822.238
18.6043
550.679
879.065
-2.12864
197.495
949.597
15.0827
420.752
937.308
28.1204
434.348
873.739
42.1748
454.117
762.449
45.4804
475.21
604.234
43.772
512.146
413.4
18.3023
538.379
226.438
-58.9721
526.882
-2.89605
-47.535
472.926
-327.884
40.4843
575.452
-624.581
43.9356
697.253
-853.153
55.3518
801.681
-1018.88
48.9141
842.879
-1013.7
44.1437
818.905
10.3602
552.723
878.226
-3.56103
197.764
947.851
13.8688
419.792
937.346
33.058
432.104
873.761
59.2898
451.326
756.046
74.7702
474.899
588.58
76.2229
515.424
391.872
35.6051
539.576
217.313
-99.9069
530.432
-0.671118
-76.8922
480.773
-329.545
76.6033
581.198
-631.594
81.8461
698.064
-859.239
85.7932
797.791
-1019.61
65.8958
839.566
-1010.2
45.8107
817.552
6.31445
553.459
874.581
-1.55037
198.526
939.538
15.9672
420.016
928.637
36.974
430.92
866.097
73.8062
449.242
748.172
102.916
474.064
573.868
115.183
517.192
365.274
64.3066
540.843
208.024
-164.118
537.572
3.13377
-121.075
496.301
-333.806
130.092
591.415
-633.754
123.755
696.745
-852.963
109.716
792.137
-1007.96
76.411
836.377
-1002.79
49.9598
817.078
9.01316
555.271
875.667
-2.02193
199.419
942.974
14.3214
418.213
933.357
40.0009
427.866
866.572
93.3247
446.756
731.885
147.983
476.54
534.628
175.501
524.763
332.099
82.5286
542.101
194.069
-253.928
546.809
9.93306
-184.233
518.489
-316.222
181.489
597.218
-635.934
191.976
698.564
-862.045
145.172
788.624
-1014.72
87.0636
833.461
-1005.4
48.8678
816.209
5.80781
556.472
872.839
0.384865
199.965
935.695
16.4074
418.882
922.61
44.8341
427.739
842.258
123.912
446.634
683.233
215.35
478.933
489.916
232.972
528.74
328.42
64.169
547.471
165.247
-321.149
567.59
-16.5087
-248.886
563.078
-273.092
177.47
607.824
-600.368
272.71
695.191
-845.822
199.699
783.189
-1001.73
98.5533
831.534
-998.963
52.923
816.797
8.8697
557.971
873.748
201.485
938.635
416.653
932.443
421.543
872.716
441.61
751.529
482.872
596.267
538.108
396.144
560.908
118.113
592.039
-181.85
602.532
-443.593
649.47
-688.769
707.739
-879.025
776.779
-1013.1
825.4
-1000.68
814.408
559.694
894.237
-4.80586
222.685
903.314
-14.3259
408.763
893.982
-41.3761
429.891
844.07
-125.568
479.738
732.241
-220.991
567.53
583.908
-239.452
669.363
388.228
-62.0541
740.28
111.487
330.379
823.118
-185.803
258.901
851.712
-422.456
-200.306
882.838
-635.17
-300.918
902.148
-797.064
-212.543
927.037
-917.342
-104.709
947.277
-974.818
-56.7563
877.83
-17.2657
685.306
890.422
-2.13652
221.468
896.114
-11.176
410.177
880.666
-35.3063
437.24
812.674
-93.4464
482.655
668.911
-153.957
555.837
489.116
-184.666
653.983
331.873
-82.9798
725.942
161.808
269.709
798.613
-29.8215
195.341
818.57
-267.819
-215.941
861.84
-554.656
-218.722
900.134
-762.613
-154.938
933.816
-898.764
-91.4463
954.738
-965.197
-49.9528
876.731
-11.6944
682.094
893.664
-3.13088
221.086
904.235
-12.6502
409.234
892.034
-31.8653
436.727
837.123
-72.5919
480.94
716.5
-107.947
551.306
531.488
-124.328
649.643
335.346
-67.3883
722.929
196.441
175.48
780.207
-1.93386
125.274
787.182
-316.506
-163.223
859.427
-594.581
-145.2
903.377
-782.635
-115.966
937.936
-917.302
-77.8527
954.805
-975.691
-50.5249
875.442
-16.9158
679.156
890.218
0.224574
220.523
897.319
-9.85194
410.213
884.735
-27.8748
439.588
835.951
-57.1552
482.688
733.64
-78.455
547.006
572.726
-85.6908
639.643
371.559
-41.5922
716.449
209.543
105.66
769.629
-19.0137
77.0322
773.283
-344.407
-104.791
858.687
-596.391
-100.158
903.896
-773.228
-89.238
942.418
-906.106
-65.9449
957.557
-968.228
-44.6396
873.535
-12.4147
676.338
893.104
0.864652
219.719
905.207
-11.5527
409.475
893.263
-23.9863
440.207
844.463
-40.2455
483.283
743.715
-48.1471
545.429
589.032
-51.7159
636.27
398.5
-24.9313
713.636
213.801
60.3312
760.622
-33.2052
43.7092
761.199
-348.781
-63.2807
855.534
-600.038
-57.9693
907.286
-782.864
-56.2988
947.787
-921.802
-46.605
959.303
-978.675
-42.818
872.79
-18.3045
672.393
894.032
0.360315
219.42
906.16
-12.6099
409.719
892.572
-18.1385
442.101
844.962
-24.0012
485.516
752.369
-24.8712
544.583
607.46
-26.2589
631.696
421.808
-10.7328
709.97
219.891
34.2597
754.969
-45.0236
25.981
755.58
-356.991
-29.5659
853.9
-599.506
-27.4076
909.306
-779.458
-27.8097
953.194
-921.687
-24.1241
962.688
-982.436
-35.4216
872.386
-30.9083
669.302
895.697
-2.46187
219.233
902.561
-7.36122
410.912
884.096
-6.86684
445.542
836.238
-6.99419
490.486
748.697
-5.75691
547.892
610.113
-6.39978
632.022
431.389
-2.74989
709.053
228.136
10.6789
750.731
-37.4912
8.18281
748.532
-343.574
-7.95819
850.168
-582.286
-5.41057
913.093
-758.73
-5.28725
960.696
-899.163
-4.29204
968.742
-969.529
-15.359
872.705
-24.6685
664.198
890.855
0.553399
219.063
889.427
6.9934
412.696
868.714
6.75928
448.657
823.624
6.78095
494.425
743.483
5.44171
550.245
612.208
5.90584
631.792
436.996
2.0221
708.132
232.904
-11.6198
749.058
-33.7627
-9.2021
746.011
-336.46
7.24708
848.143
-567.116
4.89423
913.796
-734.12
4.98729
964.426
-865.034
4.19185
973.064
-942.938
15.1344
871.78
19.2922
659.835
894.83
-0.563468
218.89
901.88
12.0683
410.875
883.765
17.6767
445.577
836.128
23.5605
490.508
748.698
24.455
547.871
610.14
25.7585
631.951
431.368
10.0803
708.952
228.038
-35.098
750.684
-37.5767
-26.9608
748.571
-343.598
28.8231
850.035
-582.2
26.7889
913.05
-758.313
27.163
960.729
-897.994
23.2718
968.764
-967.539
34.5337
872.381
29.7447
663.104
893.989
-0.979573
219.151
906.036
11.1008
409.659
892.482
23.5005
442.071
844.916
39.7766
485.466
752.367
47.7146
544.501
607.472
51.2389
631.563
421.784
24.3559
709.794
219.819
-61.0764
754.827
-45.0918
-44.6182
755.497
-357.047
62.5559
853.676
-599.506
57.3291
909.173
-779.361
55.5751
953.124
-921.451
45.6559
962.584
-982.139
41.935
872.19
18.0248
668.457
893.196
-0.450286
219.434
905.242
9.4813
409.354
893.246
27.4632
440.13
844.429
56.7332
483.186
743.694
78.0492
545.301
589.02
85.256
636.084
398.467
41.0921
713.395
213.755
-106.328
760.397
-33.2457
-77.853
761.011
-348.838
104.123
855.225
-600.064
99.5509
907.069
-782.887
88.5605
947.628
-921.869
65.1195
959.083
-978.784
43.8617
872.537
12.2407
671.557
890.248
2.89353
220.249
897.323
12.3454
410.064
884.705
31.5222
439.472
835.909
72.2258
482.545
733.608
107.584
546.832
572.701
123.951
639.408
371.523
66.9689
716.148
209.499
-176.056
769.326
-19.0653
-125.971
772.987
-344.484
162.653
858.308
-596.438
144.656
903.596
-773.273
115.365
942.168
-906.188
77.1767
957.235
-968.366
49.8754
873.24
16.7623
675.523
893.607
2.02386
220.822
904.197
10.9082
409.045
891.991
35.0151
436.571
837.076
93.1408
480.755
716.456
153.656
551.091
531.447
184.362
649.364
335.315
82.635
722.571
196.38
-270.153
779.845
-2.02063
-195.884
786.805
-316.59
215.467
858.976
-594.642
218.273
903
-782.695
154.44
937.603
-917.366
90.9134
954.394
-975.79
49.4273
875.078
11.5745
678.341
890.383
4.74602
221.206
896.066
14.1247
409.967
880.607
41.148
437.057
812.613
125.325
482.442
668.851
220.759
555.594
489.069
239.22
653.669
331.838
61.7948
725.546
161.735
-330.676
798.22
-29.9301
-259.279
818.14
-267.916
199.946
861.334
-554.715
300.568
899.696
-762.659
212.152
933.421
-898.793
104.314
954.265
-965.269
56.3731
876.324
17.1786
681.279
894.204
222.432
903.262
408.537
893.923
429.68
844.01
479.497
732.182
567.272
583.852
669.043
388.158
739.884
111.416
822.728
-185.89
851.257
-422.564
882.325
-635.235
901.678
-797.109
926.59
-917.343
946.75
-974.861
877.378
684.5
944.393
-6.31823
237.249
931.198
-15.6785
423.142
909.591
-42.1945
449.835
849.934
-131.591
527.045
729.247
-223.545
663.166
576.028
-227.883
809.693
387.942
-51.554
917.683
137.449
295.847
1031.54
-133.666
252.684
1079.42
-353.716
-177.887
1105.88
-564.37
-299.086
1098.05
-739.236
-227.163
1089.7
-891.876
-117.615
1100.15
-1012.8
-72.4551
1005.02
-31.2841
852.937
939.827
-3.48248
236.21
921.178
-12.0236
425.158
892.175
-35.135
459.174
812.988
-96.8809
527.13
662.294
-157.038
640.024
485.509
-178.004
780.892
336.189
-72.916
896.626
181.596
240.179
1008.87
8.83848
188.294
1055.72
-200.717
-202.437
1095.95
-472.173
-222.118
1094.62
-692.464
-164.061
1091
-860.158
-102.336
1107.15
-994.618
-62.9949
1001.73
-23.496
850.159
943.538
-5.01541
235.915
929.876
-13.4276
424.286
904.251
-31.2517
458.46
838
-73.8108
524.119
707.53
-109.57
634.309
523.931
-121.474
776.714
339.662
-60.3786
894.663
212.217
153.79
994.043
33.5511
115.877
1038.27
-246.95
-158.527
1096.02
-514.059
-148.073
1096.44
-715.217
-119.065
1094.1
-884.406
-84.226
1105.88
-1010.13
-62.1532
1000.32
-31.8163
845.324
939.485
-1.71591
235.742
921.086
-10.2063
425.378
894.87
-26.9882
461.531
836.14
-57.2011
524.806
725.117
-78.9165
627.377
564.204
-85.3817
764.466
375.969
-40.003
884.312
222.682
92.0004
984.706
8.94512
70.5148
1032.38
-280.618
-107.111
1096.84
-518.088
-102.964
1096.26
-703.135
-88.7977
1097.2
-867.44
-69.651
1107.29
-998.349
-53.9581
996.246
-27.2223
841.647
942.021
-0.483546
235.187
928.667
-12.0681
424.677
902.947
-23.2605
462.192
844.385
-39.6221
524.264
735.361
-47.8052
623.343
579.014
-52.1164
759.354
398.232
-25.9462
880.363
222.607
51.0169
977.232
-8.47753
37.7095
1025.09
-287.771
-68.9466
1096.66
-522.451
-60.1912
1099.19
-712.434
-52.4609
1101.43
-885.888
-44.8004
1107.9
-1012.48
-49.8142
995.236
-37.5191
835.226
942.941
-0.568158
234.984
928.754
-13.1596
424.985
900.938
-17.5343
464.183
844.096
-22.9735
525.707
744.3
-23.986
620.562
597.445
-26.8044
753.242
419.286
-12.7038
874.888
225.318
27.9698
971.985
-24.4868
20.7985
1022.3
-300.4
-35.8522
1096.72
-523.688
-29.0391
1101.44
-707.115
-22.1484
1106.31
-882.929
-16.9078
1110.61
-1015.31
-38.8703
993.817
-55.3481
830.05
944.449
-3.39862
234.941
923.727
-7.70979
426.171
890.762
-6.61202
467.577
834.715
-6.462
530.02
741.649
-5.30969
622.283
601.314
-6.69838
752.254
428.252
-3.81644
873.23
230.586
8.13328
968.235
-23.4553
5.67117
1017.7
-294.66
-11.0236
1096.55
-510.55
-6.20797
1106.15
-683.24
-2.19048
1113.43
-848.648
1.22059
1116.02
-990.519
-15.8452
991.548
-40.1644
822.827
938.631
0.61883
235.018
908.457
7.2184
427.929
873.373
6.48019
470.641
821.343
6.16563
533.825
737.198
4.86123
624.22
604.644
6.00577
751.644
434.26
2.84576
871.855
234.071
-9.32334
966.705
-23.79
-6.94227
1016.49
-293.022