/*--------------------------------*- C++ -*----------------------------------*\
| =========                 |                                                 |
| \\      /  F ield         | OpenFOAM: The Open Source CFD Toolbox           |
|  \\    /   O peration     | Version:  4.1                                   |
|   \\  /    A nd           | Web:      www.OpenFOAM.org                      |
|    \\/     M anipulation  |                                                 |
\*---------------------------------------------------------------------------*/
FoamFile
{
    version     2.0;
    format      ascii;
    class       volVectorField;
    location    "2";
    object      U;
}
// * * * * * * * * * * * * * * * * * * * * * * * * * * * * * * * * * * * * * //

dimensions      [0 1 -1 0 0 0 0];

internalField   nonuniform List<vector> 
6750
(
(9.70983 -0.0953964 6.39659)
(0.393736 -0.0174409 5.64282)
(3.30515 -0.0320665 1.49069)
(0.982328 -0.0313167 1.23352)
(0.608936 0.0613162 1.47584)
(0.556531 0.0647467 1.71475)
(0.424476 -0.0661189 1.24955)
(0.535205 -0.248916 0.484451)
(0.599849 -0.206798 0.757981)
(0.968613 -0.045854 1.43725)
(1.01066 -0.0442555 0.988901)
(1.95415 0.0103353 1.2409)
(-1.54922 -0.0868458 -0.135172)
(2.29299 0.105105 5.10105)
(-9.68864 -0.149941 10.4174)
(9.65657 -0.130962 6.53965)
(0.156062 -0.00697669 5.59752)
(3.34954 0.0226744 1.27238)
(0.770058 0.03488 1.07095)
(0.447417 0.101305 1.42825)
(0.479182 0.0404741 1.72831)
(0.376176 -0.135122 1.53209)
(0.396947 -0.283106 1.22748)
(0.45171 -0.216954 1.50463)
(0.821883 -0.0903118 1.76443)
(0.963 -0.144156 1.04831)
(2.10806 -0.0161281 1.16836)
(-1.53366 -0.171826 -0.677369)
(2.6844 0.147525 4.71718)
(-9.60959 -0.196905 10.6011)
(9.62941 -0.110164 6.57622)
(0.170152 -0.00424189 5.62073)
(3.28004 0.0626558 1.32342)
(0.704162 0.0800542 1.08518)
(0.424095 0.0945269 1.28518)
(0.423039 0.0274223 1.47652)
(0.353883 -0.0834541 1.39422)
(0.396286 -0.184636 1.3414)
(0.454019 -0.147225 1.52181)
(0.902087 -0.0654991 1.5801)
(1.1498 -0.136039 0.729193)
(2.24562 -0.0273219 0.960295)
(-1.35767 -0.134402 -0.688862)
(2.64988 0.0818301 4.74384)
(-9.58172 -0.148497 10.6283)
(9.57536 -0.126622 6.66077)
(0.0964109 0.0030273 5.59011)
(3.26791 0.0864781 1.27183)
(0.737426 0.0960173 0.988904)
(0.462641 0.107169 1.13029)
(0.400447 0.019827 1.35788)
(0.3031 -0.0768726 1.40475)
(0.369388 -0.132478 1.46381)
(0.458512 -0.108348 1.58322)
(0.942285 -0.0737758 1.52529)
(1.24347 -0.168959 0.601355)
(2.3905 -0.0586093 0.74992)
(-1.29692 -0.134461 -0.857111)
(2.74859 0.0998716 4.59017)
(-9.52782 -0.157979 10.6966)
(9.53784 -0.116917 6.71834)
(0.0776605 0.0193956 5.60599)
(3.21703 0.0890833 1.2761)
(0.640725 0.0824776 1.02671)
(0.443702 0.0826407 1.11755)
(0.386474 0.010599 1.27711)
(0.279255 -0.0560722 1.3612)
(0.351237 -0.0857193 1.52964)
(0.461407 -0.0670253 1.61451)
(0.96659 -0.0573467 1.46304)
(1.27371 -0.167531 0.568455)
(2.38224 -0.0860517 0.775223)
(-1.20646 -0.122194 -0.916552)
(2.75488 0.0922059 4.582)
(-9.49734 -0.128334 10.7253)
(9.48889 -0.128748 6.79646)
(-0.000716332 0.0376282 5.59007)
(3.19858 0.0949466 1.22687)
(0.610956 0.0678604 0.985342)
(0.442851 0.0563353 1.07165)
(0.372503 0.00461863 1.24127)
(0.257697 -0.0388218 1.36681)
(0.336529 -0.0537249 1.58774)
(0.461175 -0.041024 1.64078)
(0.968189 -0.0373457 1.44757)
(1.27166 -0.138218 0.583775)
(2.38357 -0.0924953 0.78624)
(-1.18633 -0.119658 -1.03479)
(2.82065 0.104738 4.50414)
(-9.45956 -0.128282 10.7589)
(9.43206 -0.105293 6.88837)
(-0.218938 0.0465983 5.57389)
(3.20115 0.0763763 1.1289)
(0.570336 0.03453 0.965025)
(0.438663 0.018459 1.09178)
(0.369053 -0.0039211 1.24142)
(0.248527 -0.023438 1.37229)
(0.32865 -0.0284269 1.63206)
(0.457664 -0.0201881 1.66941)
(0.956709 -0.0192914 1.44481)
(1.23764 -0.0924444 0.637095)
(2.30205 -0.0741634 0.905232)
(-1.20195 -0.101195 -1.15545)
(3.00629 0.0886558 4.3884)
(-9.41366 -0.0955512 10.7932)
(9.39696 -0.000510932 6.93957)
(-0.393446 -0.000218258 5.53723)
(3.24033 -0.00018497 1.03348)
(0.60135 -0.000408913 0.906341)
(0.451295 -0.000387665 1.08065)
(0.374746 -0.00045013 1.241)
(0.246448 -0.000437879 1.38229)
(0.325128 -0.000375171 1.65681)
(0.455487 -0.000339503 1.68638)
(0.946923 -0.000281673 1.45222)
(1.2231 -0.000302182 0.660212)
(2.27039 0.000773227 0.949287)
(-1.24358 -0.00507906 -1.22465)
(3.16036 -0.00019847 4.26658)
(-9.38704 -0.000568221 10.8033)
(9.43223 0.104535 6.88739)
(-0.218592 -0.0469696 5.57448)
(3.20117 -0.0768146 1.12911)
(0.570497 -0.0352945 0.965221)
(0.438773 -0.0192428 1.09201)
(0.369111 0.00300509 1.24147)
(0.248495 0.0225048 1.37201)
(0.328682 0.0275842 1.63166)
(0.457783 0.0194026 1.66901)
(0.95704 0.0184277 1.4442)
(1.23871 0.0912468 0.636684)
(2.30133 0.0741293 0.904866)
(-1.1972 0.0945335 -1.15412)
(3.0051 -0.0891743 4.39014)
(-9.41402 0.0945876 10.7914)
(9.48895 0.128291 6.79555)
(-0.000273954 -0.0379132 5.59065)
(3.19864 -0.0954595 1.22699)
(0.611089 -0.0685402 0.985394)
(0.442933 -0.0570995 1.07179)
(0.372599 -0.00551898 1.24129)
(0.257679 0.0378579 1.36645)
(0.33659 0.0527994 1.58723)
(0.461284 0.0401316 1.64038)
(0.968376 0.0361042 1.44704)
(1.27267 0.136232 0.583352)
(2.38298 0.0908761 0.785559)
(-1.18472 0.116511 -1.03412)
(2.81935 -0.105351 4.5059)
(-9.45976 0.127551 10.7571)
(9.53781 0.116563 6.71742)
(0.0781813 -0.0196331 5.60643)
(3.21713 -0.0896025 1.27619)
(0.640887 -0.0830778 1.0266)
(0.443752 -0.0833416 1.11752)
(0.38654 -0.0114125 1.27702)
(0.279244 0.0551794 1.36076)
(0.35132 0.0848322 1.52904)
(0.461447 0.0661448 1.61415)
(0.966523 0.0560841 1.4628)
(1.27455 0.165597 0.568196)
(2.38202 0.0845223 0.774167)
(-1.20599 0.120236 -0.916293)
(2.75351 -0.0927329 4.58351)
(-9.4974 0.127755 10.7233)
(9.57526 0.126357 6.65987)
(0.0969574 -0.00321296 5.59045)
(3.26803 -0.0869997 1.27191)
(0.737575 -0.0965397 0.988705)
(0.462618 -0.10777 1.13015)
(0.400455 -0.0204855 1.35766)
(0.303082 0.0761308 1.40427)
(0.369474 0.1317 1.46317)
(0.458497 0.107543 1.58286)
(0.942115 0.0727149 1.52518)
(1.24411 0.167543 0.601189)
(2.39062 0.0572079 0.74856)
(-1.29692 0.133117 -0.857026)
(2.74719 -0.100281 4.59147)
(-9.52774 0.157544 10.6947)
(9.62926 0.109962 6.57531)
(0.170724 0.00410963 5.62094)
(3.2802 -0.0631165 1.32347)
(0.704336 -0.0804231 1.0848)
(0.424022 -0.0949812 1.28485)
(0.423016 -0.027913 1.47619)
(0.353861 0.0829074 1.39365)
(0.396362 0.184036 1.34067)
(0.453971 0.14654 1.52138)
(0.901925 0.0647029 1.57996)
(1.15024 0.135139 0.728959)
(2.24562 0.026234 0.959029)
(-1.35809 0.133645 -0.688798)
(2.6485 -0.0821217 4.74483)
(-9.58153 0.148185 10.6265)
(9.65639 0.130797 6.53873)
(0.156647 0.00686307 5.59765)
(3.34972 -0.0230763 1.27246)
(0.77029 -0.0351817 1.07043)
(0.447344 -0.101637 1.42781)
(0.479155 -0.040802 1.72789)
(0.376135 0.13479 1.53153)
(0.397006 0.282714 1.2266)
(0.451678 0.216462 1.50408)
(0.821804 0.0897787 1.76418)
(0.963296 0.143642 1.04799)
(2.10794 0.0153397 1.16722)
(-1.53438 0.171323 -0.67731)
(2.68297 -0.147747 4.71804)
(-9.60932 0.196674 10.5993)
(9.70961 0.09531 6.39565)
(0.394313 0.0173761 5.64285)
(3.30537 0.0318878 1.49071)
(0.98263 0.0311797 1.23297)
(0.608907 -0.0614486 1.47529)
(0.556535 -0.0648867 1.71423)
(0.424519 0.0659687 1.24877)
(0.535491 0.248771 0.482913)
(0.599914 0.206601 0.756627)
(0.968608 0.0455682 1.4367)
(1.01092 0.0440427 0.988358)
(1.95392 -0.0106663 1.23975)
(-1.55001 0.0866997 -0.135246)
(2.29163 -0.105212 5.1016)
(-9.6883 0.149828 10.4156)
(16.4062 -0.0748455 5.67325)
(8.52993 -0.167003 7.09185)
(8.4261 -0.23745 3.87456)
(7.19227 -0.504841 2.75055)
(5.37539 -0.62699 2.25604)
(4.07217 -0.431004 2.18421)
(2.99062 -0.0896359 1.72683)
(2.15742 0.421597 0.819388)
(1.18958 0.36334 0.65015)
(1.07025 0.0432499 0.961348)
(-0.493635 -0.375766 1.2052)
(-2.55805 -0.582364 2.58392)
(-5.89803 -0.322286 3.98656)
(-6.09777 -0.158082 8.71797)
(-19.5814 -0.195697 10.6568)
(16.4626 -0.101496 5.77686)
(8.33508 -0.206929 7.12559)
(8.25341 -0.226579 3.80499)
(6.77226 -0.375817 2.65071)
(4.58407 -0.388805 2.10196)
(3.1078 -0.279367 1.9988)
(2.0735 -0.126819 1.69914)
(1.67773 0.204349 1.04262)
(1.32561 0.145989 1.02445)
(1.43292 -0.000339673 1.18181)
(0.790014 -0.219737 0.531913)
(-1.49215 -0.508513 2.17922)
(-5.48645 -0.360584 3.65799)
(-5.64616 -0.188223 8.5971)
(-19.6498 -0.259907 10.8545)
(16.4487 -0.0865628 5.80298)
(8.3787 -0.165997 7.14702)
(8.26107 -0.156976 3.85996)
(6.78899 -0.17784 2.70518)
(4.77539 -0.140365 2.07511)
(3.34991 -0.15812 1.83564)
(2.16216 -0.169195 1.49027)
(1.54008 0.0497587 1.03933)
(1.37109 0.055448 0.913558)
(1.63921 -0.050545 0.73594)
(0.8755 -0.140799 0.177751)
(-1.43135 -0.26325 2.13121)
(-5.46286 -0.283271 3.70796)
(-5.70428 -0.167319 8.6278)
(-19.6252 -0.21261 10.8853)
(16.4569 -0.103555 5.87499)
(8.29935 -0.18846 7.16421)
(8.18242 -0.159254 3.84436)
(6.72704 -0.159834 2.67213)
(4.83087 -0.0775926 1.99912)
(3.49474 -0.0346188 1.7526)
(2.28381 -0.0405815 1.5213)
(1.54244 0.0384066 1.17605)
(1.37547 0.00547764 0.91767)
(1.73085 -0.00281952 0.592973)
(1.06163 -0.0446559 -0.105496)
(-1.19353 -0.244323 1.95773)
(-5.28582 -0.291398 3.60656)
(-5.5527 -0.190803 8.57093)
(-19.6213 -0.248322 10.9804)
(16.4527 -0.096646 5.92093)
(8.32051 -0.154695 7.19583)
(8.17798 -0.098497 3.88421)
(6.63669 -0.0728255 2.71254)
(4.72683 0.010548 2.01224)
(3.43983 0.0208738 1.70863)
(2.31055 -0.0270672 1.47883)
(1.57561 0.00756892 1.25666)
(1.39194 -0.0103483 0.949353)
(1.8025 -0.012332 0.453986)
(1.33032 0.00591417 -0.300798)
(-0.914506 -0.15191 1.90107)
(-5.19807 -0.227332 3.60166)
(-5.54133 -0.158501 8.59015)
(-19.6115 -0.230647 11.027)
(16.4753 -0.132978 5.98957)
(8.25306 -0.157475 7.22228)
(8.09531 -0.0661838 3.8778)
(6.5231 -0.0343705 2.69157)
(4.65789 0.0366306 1.97997)
(3.43016 0.056045 1.67827)
(2.32839 0.0208198 1.49154)
(1.576 0.0174303 1.33321)
(1.39927 -0.00402707 0.988525)
(1.83551 0.0147005 0.439255)
(1.47766 0.0723875 -0.397239)
(-0.603895 -0.0798405 1.77658)
(-5.01085 -0.173505 3.50555)
(-5.37611 -0.148432 8.55856)
(-19.6251 -0.288282 11.0998)
(16.5318 -0.14224 6.07541)
(7.94279 -0.114294 7.26998)
(7.79231 -0.00547808 3.83684)
(6.18519 0.0226237 2.65696)
(4.37718 0.0589655 1.96692)
(3.26705 0.0590782 1.66958)
(2.26345 0.0213497 1.48922)
(1.55336 0.00576576 1.37325)
(1.39662 -0.00444461 1.03537)
(1.83978 0.0121168 0.475328)
(1.66791 0.0784582 -0.454007)
(0.00171583 -0.00852098 1.5978)
(-4.57651 -0.0789425 3.27137)
(-4.77864 -0.0941027 8.47482)
(-19.6612 -0.273476 11.1946)
(16.5699 -0.00206847 6.12987)
(7.63648 -0.000534775 7.28348)
(7.52905 -0.000293238 3.7632)
(5.95476 -0.00037309 2.58804)
(4.21672 -0.000548356 1.92089)
(3.1953 -0.000795589 1.64461)
(2.24188 -0.000986012 1.48639)
(1.54278 -0.00117825 1.39386)
(1.39303 -0.00124379 1.05989)
(1.83862 -0.00172656 0.50728)
(1.75667 -0.00122541 -0.491046)
(0.394857 -4.8334e-05 1.44695)
(-4.23185 -0.00117963 3.03468)
(-4.22667 -0.000975558 8.35633)
(-19.6818 -0.00358262 11.2519)
(16.5306 0.139934 6.07382)
(7.94173 0.113287 7.27012)
(7.79138 0.00463359 3.83697)
(6.18483 -0.0235635 2.657)
(4.37718 -0.060131 1.96701)
(3.26729 -0.0606504 1.6697)
(2.26375 -0.0233412 1.48928)
(1.55357 -0.00821814 1.37321)
(1.39655 0.00191591 1.03532)
(1.83854 -0.0155514 0.47571)
(1.66471 -0.0813442 -0.451219)
(0.00153161 0.00732148 1.59739)
(-4.57506 0.0764267 3.27178)
(-4.77767 0.0922767 8.47502)
(-19.6595 0.269088 11.1912)
(16.4745 0.132407 5.98834)
(8.25305 0.15649 7.22246)
(8.09492 0.0651613 3.87793)
(6.52301 0.0333194 2.69149)
(4.65793 -0.0378088 1.97987)
(3.43033 -0.0575438 1.67807)
(2.32865 -0.0227242 1.49121)
(1.5763 -0.0198205 1.33275)
(1.39913 0.00164485 0.988335)
(1.83462 -0.0176902 0.439193)
(1.47552 -0.0758695 -0.395637)
(-0.603899 0.0774537 1.77561)
(-5.01051 0.171047 3.50614)
(-5.37725 0.146752 8.55925)
(-19.6236 0.286778 11.0964)
(16.4519 0.0961289 5.91977)
(8.32093 0.153796 7.19581)
(8.17792 0.0975808 3.88427)
(6.63675 0.0718783 2.71238)
(4.72689 -0.0116075 2.01192)
(3.43995 -0.0222005 1.70804)
(2.31075 0.0253164 1.47803)
(1.57594 -0.00983967 1.25586)
(1.39177 0.00799854 0.94914)
(1.80261 0.00974317 0.453023)
(1.33135 -0.00929381 -0.302365)
(-0.91463 0.149514 1.9)
(-5.19837 0.225329 3.60221)
(-5.54343 0.156999 8.59066)
(-19.61 0.22965 11.0234)
(16.456 0.103181 5.87386)
(8.29987 0.187779 7.16407)
(8.1825 0.158446 3.84434)
(6.72723 0.158978 2.67185)
(4.831 0.0766397 1.99863)
(3.49488 0.0334756 1.75175)
(2.28397 0.0391161 1.52011)
(1.54278 -0.0404121 1.17492)
(1.37545 -0.00784742 0.917227)
(1.73156 0.000378888 0.591323)
(1.06379 0.0417955 -0.108387)
(-1.19424 0.242302 1.95667)
(-5.2865 0.289832 3.60696)
(-5.55512 0.189669 8.57127)
(-19.6196 0.247757 10.9769)
(16.4476 0.0862198 5.80178)
(8.37925 0.165459 7.14673)
(8.26126 0.156323 3.85985)
(6.78931 0.177169 2.70477)
(4.7756 0.139613 2.07448)
(3.35003 0.157272 1.83466)
(2.16233 0.168096 1.4889)
(1.54055 -0.0515361 1.03801)
(1.37108 -0.0576958 0.912943)
(1.6396 0.0484811 0.734246)
(0.876478 0.138804 0.175586)
(-1.43269 0.261785 2.13024)
(-5.46391 0.282121 3.70818)
(-5.70681 0.166454 8.62784)
(-19.6234 0.212224 10.8818)
(16.4615 0.101193 5.77556)
(8.33565 0.206479 7.12522)
(8.25365 0.226015 3.80482)
(6.77268 0.375242 2.6502)
(4.58436 0.38822 2.10123)
(3.10796 0.278736 1.99778)
(2.07383 0.125939 1.69781)
(1.6784 -0.205777 1.04101)
(1.32542 -0.147843 1.02315)
(1.43279 -0.00125889 1.18036)
(0.790016 0.218353 0.530304)
(-1.49396 0.507488 2.17827)
(-5.48772 0.359694 3.65808)
(-5.64881 0.187565 8.59697)
(-19.6479 0.259622 10.851)
(16.405 0.0746888 5.67183)
(8.53046 0.166753 7.09137)
(8.42637 0.237128 3.87429)
(7.19275 0.504508 2.74995)
(5.37581 0.626714 2.25525)
(4.07252 0.430775 2.18315)
(2.99116 0.0892592 1.72547)
(2.15787 -0.422397 0.817766)
(1.18905 -0.364385 0.648632)
(1.0695 -0.0438603 0.95964)
(-0.494906 0.375352 1.2041)
(-2.56017 0.581886 2.58296)
(-5.89949 0.321832 3.98638)
(-6.1003 0.157759 8.71755)
(-19.5794 0.195543 10.6534)
(16.6216 -0.00686581 2.74744)
(10.8783 -0.136405 5.81605)
(10.4837 -0.282012 4.52139)
(10.601 -0.721936 4.0432)
(8.77767 -1.184 3.81256)
(6.91072 -1.12633 3.78703)
(5.19808 -0.33274 3.33308)
(3.0552 1.24328 2.70123)
(0.288521 0.983084 2.54389)
(-1.88258 -0.646654 3.13391)
(-4.86521 -1.20865 4.15831)
(-8.24938 -1.01935 5.56325)
(-10.0718 -0.479107 6.82189)
(-10.7659 -0.272574 9.2589)
(-21.4938 -0.0803224 7.2581)
(16.6528 -0.00318593 2.77827)
(10.8508 -0.170689 5.88046)
(10.3925 -0.298376 4.55495)
(10.3324 -0.598733 4.06532)
(8.09158 -0.868653 3.75464)
(5.72112 -0.876054 3.62135)
(3.79041 -0.239194 3.17268)
(2.6913 1.2547 2.59708)
(1.14772 1.02633 2.32522)
(0.256506 -0.511811 2.49386)
(-3.16631 -0.904834 3.58017)
(-7.44245 -0.878785 5.41311)
(-9.77249 -0.512319 6.752)
(-10.5955 -0.336852 9.30014)
(-21.5948 -0.101523 7.37404)
(16.6393 0.00127051 2.78635)
(10.9119 -0.141189 5.88736)
(10.4701 -0.228273 4.58975)
(10.443 -0.376405 4.1108)
(8.45379 -0.473635 3.75963)
(6.30666 -0.547997 3.55104)
(4.05692 -0.39371 3.02985)
(2.43413 0.665217 2.42828)
(1.68321 0.502191 1.87617)
(0.170972 -0.524543 2.11797)
(-3.5618 -0.498121 3.52347)
(-7.55229 -0.501578 5.47455)
(-9.84984 -0.382228 6.81728)
(-10.6957 -0.277166 9.31928)
(-21.5741 -0.0872081 7.38992)
(16.6594 0.00409014 2.81475)
(10.891 -0.166874 5.9297)
(10.4223 -0.251394 4.61512)
(10.3736 -0.370059 4.1203)
(8.4941 -0.402465 3.72275)
(6.57317 -0.342755 3.48888)
(4.46709 -0.12271 3.08119)
(2.52677 0.449641 2.446)
(1.79051 0.351977 1.6379)
(0.128174 -0.214838 1.89534)
(-3.52056 -0.347461 3.38914)
(-7.38263 -0.486325 5.42595)
(-9.72333 -0.400399 6.80407)
(-10.6143 -0.317767 9.33771)
(-21.611 -0.107109 7.46244)
(16.6545 0.00843151 2.8316)
(10.9626 -0.140495 5.95225)
(10.504 -0.181636 4.65726)
(10.4064 -0.227311 4.16961)
(8.49388 -0.199545 3.75036)
(6.59194 -0.170861 3.46942)
(4.6237 -0.0884903 3.06867)
(2.74389 0.248206 2.47384)
(1.79059 0.208212 1.52204)
(0.291412 -0.134641 1.61899)
(-3.29465 -0.154611 3.29469)
(-7.26228 -0.289205 5.44911)
(-9.75134 -0.280077 6.85947)
(-10.6938 -0.261517 9.3744)
(-21.6169 -0.0986438 7.49916)
(16.6773 -0.00383537 2.85674)
(10.9811 -0.159504 5.99054)
(10.4887 -0.163153 4.68608)
(10.3424 -0.172724 4.18649)
(8.45587 -0.125304 3.73934)
(6.64729 -0.0741204 3.43678)
(4.75915 0.00643163 3.08479)
(2.88772 0.173306 2.5168)
(1.81412 0.152035 1.48025)
(0.404749 -0.00664457 1.47292)
(-3.10537 -0.0569924 3.187)
(-7.04481 -0.189066 5.40525)
(-9.6272 -0.20582 6.85978)
(-10.6347 -0.261341 9.40417)
(-21.6747 -0.156663 7.56868)
(16.7551 -0.028975 2.89687)
(10.9042 -0.131632 6.06337)
(10.3019 -0.0817063 4.72934)
(10.0845 -0.0508279 4.22295)
(8.19837 -0.00488459 3.76043)
(6.47763 0.0149504 3.43434)
(4.71112 0.0262713 3.08296)
(2.93069 0.0852893 2.52806)
(1.85441 0.0889272 1.48319)
(0.699391 0.0343549 1.31493)
(-2.58503 0.0412556 3.01778)
(-6.50233 -0.0354553 5.3204)
(-9.19316 -0.0629593 6.81674)
(-10.2586 -0.185081 9.45106)
(-21.7878 -0.190927 7.66195)
(16.8152 -0.00335726 2.92845)
(10.7572 -0.000668383 6.1185)
(10.0722 -0.000133651 4.73778)
(9.83886 -0.00024825 4.21502)
(7.9991 -0.0004614 3.74032)
(6.38254 -0.000863367 3.41032)
(4.6991 -0.00129904 3.07494)
(2.94842 -0.00174147 2.53243)
(1.87741 -0.0019396 1.48691)
(0.835559 -0.00217873 1.24988)
(-2.2705 -0.00116472 2.88435)
(-6.09411 -0.000364969 5.21599)
(-8.783 -0.000357742 6.72822)
(-9.8336 -0.00110292 9.45684)
(-21.8624 -0.00739926 7.72614)
(16.7525 0.0258537 2.89507)
(10.9016 0.130333 6.06331)
(10.2999 0.0807667 4.72952)
(10.0838 0.0498401 4.22302)
(8.19827 0.00373468 3.76036)
(6.47777 -0.0166362 3.43404)
(4.71116 -0.0287246 3.08274)
(2.93057 -0.088642 2.52803)
(1.8534 -0.0926841 1.48405)
(0.696844 -0.0383127 1.31646)
(-2.58564 -0.0437842 3.01812)
(-6.50139 0.0338464 5.32019)
(-9.19013 0.0611438 6.81681)
(-10.255 0.182808 9.45062)
(-21.783 0.182707 7.65652)
(16.6761 0.00382923 2.85566)
(10.9807 0.158015 5.9903)
(10.4879 0.161665 4.68603)
(10.3422 0.171395 4.1863)
(8.45593 0.124025 3.73901)
(6.64749 0.0725882 3.43613)
(4.75925 -0.00854478 3.08396)
(2.88773 -0.176277 2.51617)
(1.81341 -0.155526 1.48061)
(0.404256 0.00332041 1.47176)
(-3.10578 0.0545237 3.1863)
(-7.04473 0.186791 5.40475)
(-9.62606 0.203199 6.85978)
(-10.6353 0.258755 9.40398)
(-21.6715 0.154828 7.56381)
(16.6535 -0.00886737 2.83049)
(10.963 0.139081 5.95169)
(10.5038 0.180361 4.657)
(10.4064 0.226117 4.16923)
(8.49397 0.198342 3.74983)
(6.59208 0.169479 3.46848)
(4.62389 0.0866261 3.06728)
(2.74396 -0.251 2.47272)
(1.79029 -0.211804 1.52193)
(0.292239 0.13167 1.6162)
(-3.2949 0.152484 3.29335)
(-7.26276 0.2871 5.44845)
(-9.75122 0.277774 6.85921)
(-10.6959 0.259025 9.37376)
(-21.6137 0.0973019 7.49417)
(16.6584 -0.00459212 2.81359)
(10.8914 0.165825 5.929)
(10.4222 0.250306 4.6147)
(10.3736 0.368954 4.11971)
(8.49425 0.401341 3.722)
(6.57336 0.341511 3.4877)
(4.46732 0.121145 3.07945)
(2.52693 -0.452109 2.44445)
(1.79045 -0.355304 1.63715)
(0.128595 0.21217 1.89248)
(-3.52132 0.34547 3.38757)
(-7.38361 0.484413 5.42503)
(-9.72361 0.39842 6.80345)
(-10.6167 0.315866 9.33677)
(-21.6077 0.106448 7.45753)
(16.638 -0.00196237 2.78507)
(10.9122 0.140355 5.88648)
(10.47 0.227396 4.58914)
(10.443 0.375501 4.11001)
(8.454 0.472694 3.75869)
(6.30682 0.547013 3.54965)
(4.05712 0.392498 3.02785)
(2.4346 -0.667456 2.42642)
(1.68276 -0.505195 1.8749)
(0.170809 0.522523 2.1151)
(-3.56306 0.496429 3.52182)
(-7.55367 0.500021 5.47335)
(-9.8504 0.380658 6.81627)
(-10.6981 0.275646 9.31792)
(-21.5706 0.0867096 7.385)
(16.6512 0.00241171 2.77676)
(10.8511 0.170014 5.87947)
(10.3924 0.297624 4.55422)
(10.3324 0.597936 4.06439)
(8.0918 0.867858 3.75355)
(5.72125 0.875239 3.61981)
(3.79079 0.238097 3.1706)
(2.69179 -1.25639 2.59501)
(1.14679 -1.02858 2.32334)
(0.255694 0.510195 2.49109)
(-3.16795 0.903515 3.57847)
(-7.44407 0.877476 5.41168)
(-9.77316 0.511014 6.75071)
(-10.5978 0.335662 9.29852)
(-21.5912 0.101164 7.36911)
(16.6198 0.00646257 2.74573)
(10.8784 0.13603 5.81495)
(10.4835 0.281563 4.52051)
(10.601 0.721432 4.04211)
(8.77787 1.18354 3.81135)
(6.9109 1.12595 3.78544)
(5.19836 0.3323 3.331)
(3.05516 -1.24418 2.69921)
(0.28759 -0.984186 2.54186)
(-1.88442 0.646252 3.13162)
(-4.86714 1.20802 4.15657)
(-8.25104 1.01856 5.56153)
(-10.0725 0.478365 6.82024)
(-10.7679 0.271962 9.25693)
(-21.4901 0.0801341 7.2532)
(17.267 -0.00372069 2.13644)
(10.3585 -0.0837629 4.85574)
(9.69893 -0.24991 4.73408)
(10.7099 -0.75919 4.7847)
(9.26533 -1.37284 4.9791)
(7.56836 -1.4322 5.33345)
(5.83888 -0.453142 5.29391)
(3.1601 1.63368 5.29948)
(-0.557783 1.18531 5.32088)
(-3.56173 -1.06716 5.95408)
(-6.28224 -1.67659 6.82706)
(-9.52092 -1.19357 7.87938)
(-10.1557 -0.539376 8.62113)
(-10.2561 -0.266354 8.9858)
(-22.5424 -0.0395664 5.79026)
(17.2614 0.00478135 2.12241)
(10.3437 -0.0943461 4.88989)
(9.64429 -0.257567 4.79762)
(10.5369 -0.636801 4.84836)
(8.76493 -1.05296 4.96311)
(6.537 -1.19794 5.23674)
(4.47265 -0.336887 5.13686)
(2.98499 1.85809 5.04366)
(0.69124 1.47898 4.86515)
(-1.09787 -0.989832 5.35019)
(-4.87561 -1.3777 6.58253)
(-8.97314 -1.03283 7.92308)
(-9.9578 -0.56744 8.67094)
(-10.1827 -0.314072 9.03214)
(-22.5736 -0.0419718 5.79091)
(17.2449 0.00801638 2.11822)
(10.411 -0.0782905 4.88361)
(9.74397 -0.195776 4.80397)
(10.6775 -0.418261 4.86156)
(9.17039 -0.614771 4.94958)
(7.23034 -0.764663 5.19264)
(4.78819 -0.535738 5.05756)
(2.73142 1.08622 4.80572)
(1.63811 0.739847 4.30647)
(-1.47447 -0.982337 5.16691)
(-5.47471 -0.785934 6.61195)
(-9.18102 -0.621697 7.9907)
(-10.1074 -0.419404 8.70465)
(-10.3373 -0.256384 9.03021)
(-22.5386 -0.0403588 5.7812)
(17.2524 0.0144135 2.11008)
(10.3803 -0.0951594 4.91044)
(9.69316 -0.220575 4.83856)
(10.6192 -0.41286 4.89025)
(9.22202 -0.54667 4.92694)
(7.54528 -0.546485 5.11993)
(5.3574 -0.219143 5.07476)
(2.89512 0.724878 4.72265)
(1.81068 0.556195 4.00995)
(-1.80703 -0.51519 5.05846)
(-5.53953 -0.612549 6.5666)
(-9.07393 -0.609292 8.01377)
(-10.013 -0.442607 8.73064)
(-10.2642 -0.297122 9.05262)
(-22.5566 -0.0480581 5.78322)
(17.2381 0.0173882 2.10383)
(10.4627 -0.0719893 4.91222)
(9.80149 -0.158306 4.85649)
(10.7079 -0.260969 4.92246)
(9.30619 -0.299383 4.94796)
(7.63957 -0.310553 5.10645)
(5.59963 -0.170851 5.06854)
(3.23311 0.396677 4.6674)
(1.70487 0.31132 3.82044)
(-1.78926 -0.340479 4.89105)
(-5.4687 -0.315115 6.55978)
(-9.10029 -0.365615 8.07391)
(-10.128 -0.307793 8.77434)
(-10.42 -0.236988 9.06607)
(-22.5405 -0.0337465 5.77578)
(17.2298 0.0112783 2.09934)
(10.491 -0.0950117 4.9298)
(9.81605 -0.156804 4.88354)
(10.6912 -0.213602 4.95422)
(9.32484 -0.213723 4.95329)
(7.76526 -0.187764 5.0744)
(5.82417 -0.0499632 5.06921)
(3.48809 0.26003 4.64945)
(1.66955 0.213564 3.72351)
(-1.80988 -0.130475 4.79424)
(-5.40952 -0.183165 6.52566)
(-9.00751 -0.259949 8.0998)
(-10.0876 -0.243884 8.80516)
(-10.4351 -0.250876 9.08947)
(-22.5793 -0.0847944 5.78372)
(17.2629 -0.00659938 2.0967)
(10.5051 -0.0893622 4.96547)
(9.7389 -0.0901649 4.93213)
(10.5592 -0.0822361 5.01701)
(9.1944 -0.0536648 5.00157)
(7.69576 -0.0439405 5.08712)
(5.84611 -0.0061193 5.07021)
(3.60791 0.126957 4.62818)
(1.75192 0.119716 3.64016)
(-1.53661 -0.0223724 4.64001)
(-5.06067 -0.0148741 6.47501)
(-8.68956 -0.0675379 8.13052)
(-9.80745 -0.0896165 8.8498)
(-10.2309 -0.185704 9.14183)
(-22.6559 -0.14208 5.78764)
(17.2959 -0.00465103 2.0956)
(10.4193 -0.00100148 5.00247)
(9.57579 -2.67221e-05 4.96759)
(10.3818 -0.000234835 5.05003)
(9.05376 -0.000527127 5.01519)
(7.64757 -0.00100693 5.07798)
(5.87128 -0.00161903 5.06425)
(3.66225 -0.00220291 4.61954)
(1.80452 -0.00240843 3.60703)
(-1.40756 -0.00183661 4.56402)
(-4.83096 -0.00100926 6.4135)
(-8.39965 -0.000330375 8.11526)
(-9.4782 0.000116068 8.85748)
(-9.89718 -0.00101358 9.17533)
(-22.6993 -0.0124769 5.78513)
(17.2592 0.00291974 2.09434)
(10.4999 0.0876375 4.96528)
(9.73532 0.0889092 4.93241)
(10.558 0.0808865 5.01716)
(9.19428 0.052197 5.00147)
(7.69602 0.0418965 5.08663)
(5.84621 0.00311671 5.06954)
(3.6074 -0.13106 4.62801)
(1.75023 -0.12447 3.64144)
(-1.53716 0.018792 4.63907)
(-5.06071 0.0124802 6.47465)
(-8.68817 0.0655847 8.13059)
(-9.80213 0.087584 8.85)
(-10.2229 0.183219 9.14068)
(-22.6467 0.129498 5.77982)
(17.2289 -0.0108213 2.09784)
(10.4907 0.0930926 4.92928)
(9.81495 0.154606 4.88332)
(10.6908 0.211657 4.9539)
(9.32488 0.21199 4.95279)
(7.76545 0.185813 5.07349)
(5.82432 0.0474279 5.06789)
(3.4877 -0.263534 4.64853)
(1.66852 -0.217993 3.72379)
(-1.81017 0.127131 4.79221)
(-5.41009 0.180556 6.52472)
(-9.00739 0.25705 8.0993)
(-10.0855 0.240092 8.80466)
(-10.4357 0.247351 9.0884)
(-22.5743 0.0835416 5.77759)
(17.2372 -0.0182061 2.10216)
(10.4638 0.0700946 4.91124)
(9.80132 0.156541 4.85593)
(10.7077 0.259292 4.92183)
(9.30618 0.297757 4.94715)
(7.63959 0.308745 5.10516)
(5.5997 0.16861 5.06669)
(3.23277 -0.399931 4.66587)
(1.70449 -0.315643 3.81984)
(-1.7893 0.337279 4.8882)
(-5.46948 0.312622 6.55834)
(-9.1007 0.362953 8.07293)
(-10.1273 0.304538 8.77318)
(-10.4232 0.233404 9.06436)
(-22.536 0.032307 5.76972)
(17.2513 -0.0151563 2.10821)
(10.3812 0.0937623 4.90934)
(9.69291 0.219076 4.83777)
(10.619 0.411306 4.88931)
(9.22197 0.545142 4.92581)
(7.54525 0.544855 5.1183)
(5.35743 0.217242 5.07246)
(2.89495 -0.727725 4.72055)
(1.81037 -0.559892 4.00845)
(-1.8075 0.512302 5.05531)
(-5.54067 0.610221 6.56467)
(-9.07462 0.60679 8.01221)
(-10.0127 0.439781 8.72885)
(-10.2676 0.294361 9.05056)
(-22.5521 0.0473884 5.77734)
(17.2435 -0.00904948 2.11612)
(10.4115 0.0771311 4.88231)
(9.74365 0.194557 4.80294)
(10.6772 0.416985 4.86034)
(9.17031 0.613475 4.94818)
(7.23021 0.763339 5.1907)
(4.78813 0.534222 5.05487)
(2.73157 -1.08873 4.8032)
(1.63718 -0.743119 4.30425)
(-1.47524 0.980134 5.1634)
(-5.47606 0.78395 6.60958)
(-9.18193 0.619606 7.98863)
(-10.1072 0.417149 8.70229)
(-10.3404 0.254081 9.02766)
(-22.5339 0.0397376 5.77533)
(17.2596 -0.00593793 2.12036)
(10.3442 0.0934051 4.88845)
(9.64384 0.256533 4.79642)
(10.5365 0.635676 4.84695)
(8.76478 1.05185 4.96151)
(6.53676 1.1968 5.23455)
(4.4727 0.335505 5.13398)
(2.98504 -1.85985 5.04093)
(0.689997 -1.48127 4.86238)
(-1.09911 0.987818 5.34653)
(-4.87707 1.37604 6.57984)
(-8.9741 1.031 7.92062)
(-9.95756 0.565555 8.66819)
(-10.1855 0.312219 9.02929)
(-22.5688 0.0415279 5.78505)
(17.2646 0.00315036 2.13449)
(10.3587 0.0832451 4.85414)
(9.69832 0.249289 4.73266)
(10.7094 0.758474 4.78307)
(9.26508 1.37215 4.97733)
(7.56809 1.43158 5.33118)
(5.83867 0.452527 5.29103)
(3.15962 -1.63462 5.29682)
(-0.558641 -1.18647 5.31787)
(-3.56329 1.0664 5.9506)
(-6.28365 1.67559 6.82411)
(-9.5218 1.19241 7.8765)
(-10.1554 0.538281 8.61794)
(-10.2584 0.265383 8.98258)
(-22.5374 0.0393442 5.78444)
(18.3665 -0.0215239 2.40062)
(10.2098 -0.0769977 4.55862)
(9.03677 -0.237106 4.74722)
(10.3749 -0.772259 5.16308)
(8.99615 -1.39554 5.88692)
(7.39719 -1.44283 6.7752)
(5.73333 -0.418566 7.32431)
(3.08363 1.64616 8.01877)
(-0.620513 1.21671 8.23457)
(-3.59876 -1.1357 8.65936)
(-5.76712 -1.81006 9.08639)
(-8.83984 -1.27258 9.5973)
(-9.04101 -0.582443 9.92311)
(-8.72385 -0.295614 9.31664)
(-24.8026 -0.0773812 6.84593)
(18.3579 -0.0200452 2.3838)
(10.1487 -0.0767017 4.57347)
(8.93073 -0.230244 4.82137)
(10.171 -0.640663 5.21208)
(8.50843 -1.0913 5.81356)
(6.46341 -1.25882 6.66019)
(4.53228 -0.33939 7.18093)
(2.99676 1.95931 7.72674)
(0.616184 1.57508 7.80143)
(-1.33664 -1.17614 8.32387)
(-4.51525 -1.5572 9.04279)
(-8.31445 -1.09828 9.69466)
(-8.79465 -0.595896 10.0081)
(-8.51939 -0.324862 9.32014)
(-24.8251 -0.0838243 6.80775)
(18.3373 -0.0148792 2.37789)
(10.2302 -0.0596565 4.56305)
(9.03912 -0.167708 4.817)
(10.3152 -0.413466 5.20114)
(8.91461 -0.642069 5.7724)
(7.13201 -0.804644 6.61324)
(4.81882 -0.540258 7.13835)
(2.77 1.16145 7.49628)
(1.66559 0.762328 7.3517)
(-1.78193 -1.1824 8.26626)
(-5.17067 -0.904162 9.0853)
(-8.56437 -0.660042 9.74778)
(-8.98416 -0.430899 10.0163)
(-8.77005 -0.256061 9.30681)
(-24.7749 -0.0761179 6.78266)
(18.3417 -0.0104186 2.36779)
(10.163 -0.0733025 4.57526)
(8.94725 -0.188332 4.84946)
(10.2364 -0.400803 5.22744)
(8.97296 -0.572308 5.73843)
(7.45901 -0.606186 6.51479)
(5.42009 -0.245947 7.09317)
(2.97287 0.781856 7.37257)
(1.7746 0.589086 7.14403)
(-2.27739 -0.681745 8.24103)
(-5.30466 -0.731135 9.08667)
(-8.47807 -0.637323 9.80117)
(-8.86153 -0.44557 10.0526)
(-8.61542 -0.296256 9.29997)
(-24.7886 -0.0898759 6.75399)
(18.3192 0.00622057 2.35759)
(10.2429 -0.0479859 4.56754)
(9.05129 -0.129584 4.85709)
(10.3236 -0.246588 5.24153)
(9.0786 -0.312984 5.7355)
(7.58111 -0.354145 6.48755)
(5.6696 -0.206336 7.07057)
(3.31478 0.413717 7.26873)
(1.54665 0.292703 6.98126)
(-2.36861 -0.482513 8.17666)
(-5.31875 -0.396975 9.12107)
(-8.55048 -0.371296 9.86657)
(-9.00182 -0.297035 10.0787)
(-8.84545 -0.221358 9.2951)
(-24.7599 -0.0652638 6.72026)
(18.3158 0.00834998 2.35443)
(10.2644 -0.0731231 4.57097)
(9.05298 -0.134216 4.87866)
(10.3024 -0.201749 5.2714)
(9.11438 -0.225741 5.73612)
(7.74041 -0.229192 6.44487)
(5.92221 -0.0847186 7.04239)
(3.5845 0.263825 7.20743)
(1.42304 0.19468 6.8986)
(-2.51501 -0.238862 8.14152)
(-5.35581 -0.253811 9.13535)
(-8.50689 -0.258664 9.92589)
(-8.96999 -0.221121 10.1188)
(-8.86115 -0.239343 9.29826)
(-24.7963 -0.140248 6.69445)
(18.3492 -0.0118671 2.35182)
(10.2662 -0.0753046 4.5858)
(8.96902 -0.0754866 4.91871)
(10.1889 -0.0731081 5.33194)
(9.03612 -0.0588406 5.78218)
(7.73594 -0.0681546 6.45564)
(5.98766 -0.031872 7.03713)
(3.7302 0.121432 7.16079)
(1.46859 0.0954876 6.80485)
(-2.39103 -0.0910687 8.06971)
(-5.17777 -0.0570799 9.16378)
(-8.30248 -0.0561501 10.0076)
(-8.70983 -0.0561433 10.1888)
(-8.57215 -0.175489 9.31851)
(-24.8502 -0.214933 6.64834)
(18.3803 -0.00712436 2.34868)
(10.1468 -0.00145787 4.60724)
(8.78458 0.000126979 4.95488)
(10.0198 -0.000258707 5.37705)
(8.92664 -0.000730979 5.80986)
(7.72784 -0.00136212 6.45422)
(6.0419 -0.00210775 7.02949)
(3.80211 -0.00273013 7.14251)
(1.50727 -0.00288549 6.768)
(-2.34904 -0.00195409 8.03215)
(-5.05619 -0.00131517 9.15924)
(-8.08679 -0.000365379 10.0432)
(-8.37652 0.000641414 10.2354)
(-8.07972 -0.000962446 9.32702)
(-24.8655 -0.0189469 6.60561)
(18.3435 0.00623971 2.34837)
(10.2575 0.0729874 4.58544)
(8.963 0.0738245 4.91907)
(10.1868 0.071163 5.33217)
(9.03584 0.0567271 5.78202)
(7.73624 0.0653194 6.45499)
(5.98797 0.0279274 7.03614)
(3.72945 -0.126518 7.16044)