/*--------------------------------*- C++ -*----------------------------------*\
| =========                 |                                                 |
| \\      /  F ield         | OpenFOAM: The Open Source CFD Toolbox           |
|  \\    /   O peration     | Version:  4.1                                   |
|   \\  /    A nd           | Web:      www.OpenFOAM.org                      |
|    \\/     M anipulation  |                                                 |
\*---------------------------------------------------------------------------*/
FoamFile
{
    version     2.0;
    format      ascii;
    class       volScalarField;
    location    "0.5";
    object      p;
}
// * * * * * * * * * * * * * * * * * * * * * * * * * * * * * * * * * * * * * //

dimensions      [0 2 -2 0 0 0 0];

internalField   nonuniform List<scalar> 
204246
(
-136.249
-113.198
-94.7772
-82.4441
-74.4119
-67.3577
-62.6982
-59.4428
-56.8581
-55.1186
-53.6733
-52.4578
-51.6416
-50.6456
-50.0485
-49.7121
-49.6943
-49.53
-48.7726
-48.6394
-48.4349
-48.2815
-48.1146
-47.9712
-47.88
-47.815
-47.623
-47.594
-47.5483
-47.5314
-47.5017
-47.4957
-47.4574
-47.4659
-47.1786
-47.5658
-47.8179
-47.7832
-47.7955
-47.8191
-47.8917
-47.7751
-47.8613
-47.768
-47.9959
-47.8518
-47.9596
-47.9207
-48.2194
-48.1632
-48.0769
-47.9871
-48.3777
-48.6417
-48.3697
-48.5751
-48.6546
-48.6565
-48.6379
-48.633
-48.5175
-48.7337
-48.6168
-48.7692
-48.7511
-49.0763
-49.012
-48.8971
-48.8211
-49.2108
-49.58
-49.6436
-49.6403
-49.6671
-49.8101
-49.7432
-49.7984
-49.7311
-49.9611
-49.7828
-49.8863
-49.8495
-50.2261
-50.159
-50.02
-49.9921
-50.3413
-50.767
-50.9382
-51.0269
-51.0023
-50.9991
-51.0831
-51.275
-51.4544
-51.5773
-51.4632
-51.7202
-51.8282
-51.9552
-52.0238
-52.0243
-52.0056
-51.9999
-52.0909
-52.6872
-52.9753
-52.8413
-53.1138
-53.2103
-53.4364
-53.6392
-53.8546
-53.8368
-54.0168
-53.8403
-53.9243
-53.8768
-54.174
-54.1444
-54.0377
-54.0394
-54.4907
-54.7745
-54.5823
-55.0815
-55.1897
-55.2375
-55.3353
-55.5281
-55.4843
-55.669
-55.7391
-55.8078
-55.7955
-56.124
-56.1389
-56.1058
-56.0734
-56.579
-56.8316
-56.7524
-57.0332
-57.1117
-57.1193
-57.11
-57.2423
-57.208
-57.3753
-57.3379
-57.3142
-57.2458
-57.4558
-57.3256
-57.2345
-57.1712
-57.5379
-57.7204
-57.5359
-57.4752
-57.2998
-57.1029
-56.8499
-56.5273
-56.1131
-55.5973
-54.9541
-54.1393
-53.0839
-51.8153
-50.2911
-48.5814
-46.7299
-44.7229
-42.3527
-39.7466
-36.7476
-33.2596
-29.8152
-26.2785
-23.2949
-20.376
-16.401
-5.60754
12.7835
38.5999
67.0568
95.0756
123.093
158.599
216.808
311.372
436.986
-131.335
-112.433
-97.2182
-86.8127
-77.878
-71.6985
-66.6678
-62.6528
-59.575
-57.3912
-55.6481
-54.1672
-52.9293
-51.8306
-51.0098
-50.4277
-50.2789
-50.0614
-49.7308
-49.3715
-49.0141
-48.8579
-48.7455
-48.6816
-48.6266
-48.5445
-48.4081
-48.3617
-48.3414
-48.2613
-48.2134
-48.2201
-48.152
-48.1649
-48.1672
-48.2758
-48.4034
-48.4781
-48.533
-48.554
-48.6224
-48.6766
-48.7323
-48.7437
-48.8328
-48.8273
-48.769
-48.8033
-48.8929
-48.9539
-48.9975
-49.0063
-49.1179
-49.2256
-49.2422
-49.3243
-49.3953
-49.463
-49.5171
-49.5651
-49.5312
-49.5247
-49.5369
-49.5192
-49.5913
-49.7283
-49.7995
-49.8357
-49.8382
-50.0068
-50.2242
-50.326
-50.354
-50.429
-50.5795
-50.6608
-50.7013
-50.6905
-50.8411
-50.8462
-50.716
-50.7246
-50.7998
-50.8728
-50.9343
-50.9725
-51.172
-51.4025
-51.5535
-51.6827
-51.7911
-51.8643
-51.9383
-52.0765
-52.1665
-52.2858
-52.2471
-52.3406
-52.5356
-52.7273
-52.9224
-52.9452
-52.9667
-52.9777
-53.0099
-53.2437
-53.5177
-53.6774
-53.8072
-53.9283
-54.0668
-54.2313
-54.5034
-54.7076
-54.8599
-54.8614
-54.8074
-54.9124
-54.9189
-54.9677
-54.984
-54.9803
-55.1645
-55.3364
-55.4366
-55.6136
-55.7776
-55.9134
-56.043
-56.2407
-56.3158
-56.3748
-56.4868
-56.63
-56.8165
-56.8681
-56.9297
-56.9843
-57.0358
-57.2137
-57.3937
-57.4764
-57.6099
-57.769
-57.8537
-57.8861
-57.9913
-58.0332
-58.1608
-58.1879
-58.1492
-58.2918
-58.348
-58.3785
-58.3616
-58.3522
-58.4015
-58.4263
-58.3574
-58.245
-58.163
-58.0778
-57.9212
-57.7371
-57.4534
-57.1101
-56.6321
-56.0748
-55.3479
-54.4608
-53.3327
-52.1307
-50.8252
-49.3494
-47.5269
-45.5104
-43.3501
-40.8937
-38.4882
-36.6655
-35.8368
-36.4122
-36.4144
-30.5194
-13.1578
8.90797
33.4797
56.8427
78.3633
101.406
135.738
201.928
301.145
-110.353
-100.351
-90.6351
-82.3333
-75.3061
-69.6142
-65.1027
-61.2418
-58.4138
-56.2421
-54.5874
-53.1238
-51.8951
-50.8872
-50.1621
-49.6403
-49.1916
-48.8771
-48.6474
-48.508
-48.3493
-48.0293
-47.7344
-47.5191
-47.4051
-47.2277
-47.0642
-46.9649
-46.8915
-46.8417
-46.8491
-46.9327
-46.9263
-46.8041
-46.7128
-46.711
-46.8092
-46.9016
-46.9911
-47.0469
-47.0146
-47.0329
-47.024
-47.0121
-46.9996
-47.0536
-47.2436
-47.3472
-47.349
-47.2709
-47.2703
-47.3709
-47.4815
-47.5386
-47.5914
-47.6564
-47.7243
-47.7751
-47.8536
-47.8187
-47.8001
-47.7537
-47.8022
-48.0533
-48.2252
-48.2375
-48.1201
-48.0939
-48.1738
-48.2881
-48.4185
-48.539
-48.6599
-48.8059
-48.91
-49.0275
-49.0012
-48.9369
-48.9251
-49.0544
-49.2322
-49.3132
-49.3298
-49.2288
-49.2164
-49.3258
-49.434
-49.5674
-49.6905
-49.7758
-49.8766
-50.0341
-50.2344
-50.4471
-50.6853
-50.7643
-50.7838
-50.6965
-50.9104
-51.0432
-51.02
-51.095
-51.0185
-51.1591
-51.3546
-51.5565
-51.726
-51.8435
-52.0098
-52.2687
-52.48
-52.6983
-52.8461
-53.0879
-53.1922
-53.171
-53.0968
-52.9906
-53.0978
-53.146
-53.2185
-53.3815
-53.5538
-53.6742
-53.8091
-53.9608
-54.1421
-54.3261
-54.4802
-54.5234
-54.794
-54.8263
-54.859
-54.9185
-54.9992
-55.1176
-55.1303
-55.2657
-55.5017
-55.699
-55.8416
-55.9713
-56.0631
-56.1556
-56.28
-56.385
-56.4251
-56.5492
-56.5548
-56.6748
-56.6972
-56.4012
-56.3345
-56.3724
-56.5242
-56.6842
-56.8857
-57.0411
-57.1391
-57.1608
-57.1239
-57.0051
-56.8356
-56.6276
-56.3473
-55.997
-55.5463
-54.9885
-54.2712
-53.3954
-52.3223
-51.1048
-49.7923
-48.4134
-46.7804
-44.9814
-43.0112
-40.8672
-38.6102
-36.3759
-34.1733
-32.2054
-30.1342
-25.3293
-16.2957
4.1586
26.7056
50.2804
73.4951
96.2042
124.046
166.608
223.695
-88.5797
-86.3086
-82.364
-77.6449
-73.3064
-68.8655
-65.3664
-62.1102
-59.6196
-57.6217
-55.9495
-54.5665
-53.3522
-52.3408
-51.6039
-51.0185
-50.6865
-50.4361
-50.0186
-49.6573
-49.342
-49.2493
-49.2148
-49.2268
-49.1346
-49.0175
-48.8682
-48.8144
-48.7459
-48.7798
-48.836
-48.8103
-48.75
-48.7278
-48.7539
-48.8451
-48.9314
-49.0266
-49.1162
-49.1648
-49.258
-49.3271
-49.4845
-49.5849
-49.5922
-49.4905
-49.3777
-49.4038
-49.4428
-49.5473
-49.6367
-49.7199
-49.8316
-49.9114
-49.9399
-49.9621
-49.981
-50.0998
-50.236
-50.3986
-50.3817
-50.2698
-50.2002
-50.1306
-50.2023
-50.2221
-50.3611
-50.4852
-50.559
-50.6377
-50.7349
-50.8561
-50.9696
-51.0864
-51.2715
-51.3926
-51.5533
-51.6143
-51.5773
-51.5058
-51.3299
-51.3392
-51.3497
-51.4703
-51.5759
-51.6894
-51.8699
-52.0079
-52.0858
-52.1923
-52.3018
-52.4058
-52.5394
-52.5877
-52.7485
-53.1331
-53.2325
-53.2593
-53.2588
-53.3536
-53.5362
-53.4826
-53.6523
-53.6309
-53.7526
-53.8556
-54.0062
-54.1624
-54.2874
-54.4107
-54.6408
-54.8226
-55.0731
-55.2912
-55.7217
-55.8258
-55.6695
-55.6244
-55.4523
-55.5628
-55.5367
-55.6326
-55.7584
-55.8847
-55.9871
-56.0417
-56.106
-56.398
-56.724
-56.9079
-56.8686
-57.1263
-57.3382
-57.3764
-57.4276
-57.3571
-57.5175
-57.6119
-57.673
-57.7563
-57.8796
-58.0016
-58.0945
-58.2542
-58.4248
-58.5697
-58.7975
-58.8196
-58.8992
-58.9311
-58.9215
-59.1631
-59.1205
-59.1093
-59.0229
-58.9443
-58.8212
-58.7972
-58.814
-58.7995
-58.7761
-58.7313
-58.6522
-58.535
-58.3548
-58.1026
-57.7672
-57.3324
-56.7933
-56.1251
-55.3542
-54.4814
-53.5619
-52.4735
-51.1415
-49.6597
-48.1833
-46.4593
-44.686
-43.2217
-42.2848
-42.0491
-42.0918
-40.462
-33.5724
-15.5846
3.32865
24.1302
44.8723
67.1864
95.029
129.924
167.964
-70.6082
-71.8071
-71.7066
-69.9651
-67.7414
-64.9288
-62.1716
-59.5761
-57.3839
-55.6264
-54.1051
-52.8706
-51.7854
-50.816
-50.1287
-49.5612
-49.0818
-48.5872
-48.4063
-48.2714
-47.9941
-47.5755
-47.3604
-47.2811
-47.2162
-46.9609
-46.697
-46.5281
-46.4387
-46.3892
-46.3319
-46.3454
-46.4238
-46.3537
-46.1731
-46.0132
-46.0488
-46.1804
-46.2534
-46.2405
-46.1542
-46.2414
-46.3233
-46.4343
-46.454
-46.5002
-46.6555
-46.7539
-46.7497
-46.6123
-46.532
-46.5731
-46.6923
-46.8055
-46.9254
-46.9968
-47.0039
-46.9292
-46.9928
-47.0449
-47.1741
-47.1895
-47.2598
-47.4753
-47.6021
-47.5991
-47.4195
-47.3728
-47.4019
-47.5218
-47.6462
-47.7244
-47.8021
-47.9726
-48.1132
-48.2757
-48.2742
-48.2624
-48.2506
-48.467
-48.6605
-48.6977
-48.6981
-48.5328
-48.4689
-48.4864
-48.5669
-48.6982
-48.8123
-48.8555
-48.9407
-49.1683
-49.373
-49.5759
-49.8416
-49.9209
-50.0569
-50.0065
-50.2838
-50.3216
-50.1712
-50.2971
-50.2253
-50.3387
-50.4594
-50.7547
-50.9638
-50.9889
-51.1806
-51.4991
-51.708
-51.9514
-51.9723
-52.2143
-52.3036
-52.4767
-52.4591
-52.3415
-52.4716
-52.3683
-52.4209
-52.4491
-52.7113
-52.931
-53.0876
-53.2448
-53.366
-53.3847
-53.6611
-53.9327
-54.0713
-53.9142
-54.0968
-54.2574
-54.3063
-54.423
-54.4286
-54.5992
-54.8393
-55.0207
-55.1161
-55.1774
-55.3157
-55.4621
-55.6493
-55.8642
-55.8748
-56.041
-56.0571
-56.0059
-55.8764
-55.6648
-55.8717
-55.9863
-56.0423
-56.258
-56.5812
-56.8827
-57.0995
-57.2148
-57.2527
-57.2463
-57.2168
-57.1862
-57.1273
-57.0175
-56.8207
-56.5607
-56.1878
-55.7108
-55.108
-54.4973
-53.9187
-53.325
-52.5384
-51.6946
-50.8325
-49.932
-49.0283
-48.0549
-46.9547
-45.9644
-44.8146
-41.4727
-31.1719
-22.6186
-7.05806
8.73918
25.3031
44.7742
69.0805
97.3471
124.791
-56.9913
-59.3528
-61.3503
-61.9224
-61.6337
-60.753
-59.4138
-57.9667
-56.5444
-55.274
-54.1709
-53.2767
-52.4454
-51.7378
-51.2714
-50.8815
-50.5054
-50.0561
-49.7022
-49.5578
-49.3903
-49.25
-49.0808
-49.2052
-49.2627
-49.2917
-49.1909
-49.1153
-48.9855
-49.1029
-49.1269
-49.1552
-49.1145
-49.178
-49.2542
-49.3478
-49.3643
-49.4293
-49.5926
-49.7533
-49.8375
-49.7973
-49.9348
-50.004
-50.1682
-50.0881
-49.9234
-49.9211
-49.9609
-50.0897
-50.1619
-50.2006
-50.3024
-50.4043
-50.461
-50.5277
-50.5898
-50.6886
-50.714
-50.8412
-50.933
-50.9388
-50.8133
-50.6426
-50.7002
-50.7516
-50.9068
-50.9732
-51.0187
-51.09
-51.187
-51.3094
-51.4857
-51.6098
-51.7875
-51.9252
-52.1127
-52.2154
-52.2088
-52.0785
-51.8385
-51.8375
-51.7947
-51.9412
-52.1063
-52.2543
-52.3885
-52.4684
-52.5274
-52.5667
-52.6261
-52.7313
-52.9178
-53.1201
-53.3214
-53.705
-53.8219
-53.8561
-53.7756
-53.7453
-53.9282
-53.884
-54.0188
-54.045
-54.1946
-54.1496
-54.2947
-54.4731
-54.6384
-54.8088
-55.1086
-55.3349
-55.6332
-55.7622
-56.1158
-56.1631
-56.1083
-56.129
-55.9171
-55.9587
-55.9565
-56.0913
-56.1123
-56.1917
-56.2844
-56.4116
-56.6365
-56.8339
-56.8914
-57.2828
-57.6127
-57.9477
-58.0317
-58.0136
-57.983
-57.8308
-57.959
-58.01
-58.0452
-58.021
-58.0811
-58.296
-58.4958
-58.7322
-58.9208
-59.1655
-59.4974
-59.5539
-59.764
-59.6611
-59.5009
-59.677
-59.5568
-59.3784
-59.1004
-58.811
-58.7913
-58.9729
-59.1057
-59.1348
-59.1432
-59.1416
-59.091
-59.0135
-58.882
-58.7317
-58.553
-58.2752
-57.942
-57.5868
-57.146
-56.6098
-56.1448
-55.6483
-54.9908
-54.3958
-54.0534
-53.686
-53.2751
-52.9428
-52.5833
-52.2651
-51.8644
-50.7719
-47.2628
-34.7213
-20.9364
-7.10439
7.57232
25.1015
46.0721
68.8891
89.9462
-45.831
-49.1865
-52.24
-54.0255
-55.061
-55.4189
-55.1195
-54.614
-53.7317
-52.7521
-51.9635
-51.2333
-50.5814
-49.968
-49.5569
-49.1739
-48.7103
-48.3305
-48.1402
-47.9437
-47.5811
-47.1203
-46.9444
-46.9914
-47.1436
-46.9295
-46.535
-46.2065
-46.0756
-45.9641
-45.9071
-45.9066
-45.9743
-45.8849
-45.6806
-45.4829
-45.4873
-45.5995
-45.638
-45.6709
-45.6863
-45.759
-45.6781
-45.7872
-45.8609
-46.0012
-46.1931
-46.2683
-46.2657
-46.0969
-45.9955
-46.0048
-46.0816
-46.1658
-46.3169
-46.4064
-46.4007
-46.3824
-46.5321
-46.5821
-46.7023
-46.7418
-46.7849
-46.9368
-47.0053
-47.0997
-46.9365
-46.8322
-46.8068
-46.9407
-47.0899
-47.172
-47.1779
-47.2917
-47.4065
-47.5573
-47.5582
-47.7843
-47.9281
-48.0375
-48.1463
-48.1531
-48.2587
-48.0715
-47.8936
-47.7939
-47.9069
-48.099
-48.1612
-48.1823
-48.1685
-48.3314
-48.5714
-48.8242
-49.1352
-49.2808
-49.5321
-49.5905
-49.8834
-49.8504
-49.6475
-49.7318
-49.5995
-49.6842
-49.8541
-50.1421
-50.4103
-50.6108
-50.7801
-50.9014
-50.9504
-51.2049
-51.3495
-51.6129
-51.6945
-52.0255
-51.9901
-51.9193
-52.0268
-51.8141
-51.7674
-51.7875
-52.1098
-52.3657
-52.5173
-52.6374
-52.7302
-52.8644
-53.0729
-53.0512
-53.298
-53.4965
-53.8316
-53.8667
-53.6998
-53.8574
-53.8478
-54.0177
-54.2025
-54.3901
-54.5676
-54.6876
-54.8551
-54.9214
-55.0734
-55.3614
-55.5221
-55.7496
-55.7855
-55.7599
-55.6392
-55.4912
-55.7755
-55.9157
-55.9593
-56.0734
-56.3016
-56.6922
-57.0962
-57.3786
-57.5852
-57.7411
-57.846
-57.9432
-58.0284
-58.1053
-58.1336
-58.0748
-57.9404
-57.8323
-57.6953
-57.5432
-57.4742
-57.4625
-57.3281
-57.1601
-57.1082
-57.0602
-57.0658
-57.238
-57.3539
-57.3508
-57.0471
-55.9177
-52.4679
-44.7435
-33.0814
-21.4171
-8.81966
6.96198
25.4149
44.3604
61.0544
-36.7585
-40.5636
-44.3502
-47.01
-48.9428
-50.2426
-50.8105
-51.0887
-51.0543
-50.9051
-50.7684
-50.4511
-50.2174
-49.9584
-49.8692
-49.7788
-49.6018
-49.3312
-49.1622
-49.1356
-49.1053
-49.0127
-48.878
-48.8386
-48.8902
-49.0936
-49.1299
-49.22
-49.1612
-49.291
-49.297
-49.3652
-49.4005
-49.4635
-49.5252
-49.6332
-49.6433
-49.7069
-49.8609
-49.9838
-50.1308
-50.2482
-50.4122
-50.4814
-50.5009
-50.3784
-50.2044
-50.2454
-50.3063
-50.4418
-50.521
-50.5755
-50.6572
-50.7205
-50.755
-50.7987
-50.8528
-51.0111
-51.1369
-51.2676
-51.3051
-51.2935
-51.1496
-50.9752
-51.0547
-51.109
-51.2588
-51.2893
-51.3353
-51.4347
-51.5793
-51.7405
-51.8357
-51.8701
-52.0855
-52.2591
-52.4466
-52.4976
-52.5968
-52.4274
-52.1517
-52.2005
-52.1961
-52.3243
-52.4623
-52.5696
-52.6605
-52.6976
-52.7467
-52.7979
-52.8471
-52.938
-53.1625
-53.4216
-53.5839
-53.8966
-54.0572
-54.1758
-54.0953
-54.0144
-54.1053
-54.0904
-54.3325
-54.3067
-54.2958
-54.2119
-54.3623
-54.6712
-54.966
-55.2378
-55.5014
-55.6092
-55.8811
-56.1219
-56.3583
-56.3297
-56.3055
-56.2657
-56.1598
-56.362
-56.2858
-56.2252
-56.1767
-56.2962
-56.5378
-56.7203
-56.9217
-57.1437
-57.2844
-57.4985
-57.5125
-57.915
-58.2009
-58.4255
-58.3842
-58.162
-58.4746
-58.5119
-58.3504
-58.2103
-58.3047
-58.608
-58.8309
-59.038
-59.2493
-59.5026
-59.8294
-59.8769
-59.9989
-59.9071
-59.8043
-59.9027
-59.7765
-59.5417
-59.2082
-58.8287
-58.6782
-58.8222
-59.0769
-59.2246
-59.2819
-59.3275
-59.3393
-59.3091
-59.2423
-59.213
-59.159
-59.0115
-58.906
-58.8844
-58.8374
-58.788
-58.8907
-59.0734
-59.1713
-59.3008
-59.6516
-60.0936
-60.5874
-61.2355
-61.927
-62.492
-62.7035
-62.1123
-59.4905
-53.2218
-43.9046
-34.2986
-23.6237
-9.64994
6.64554
22.7965
36.56
-29.3392
-33.2155
-37.2873
-40.4829
-43.0553
-45.0579
-46.253
-47.1435
-47.7385
-48.0712
-48.273
-48.3107
-48.2644
-48.1825
-48.1474
-48.0794
-47.8938
-47.6719
-47.5193
-47.4292
-47.3655
-47.1286
-46.8458
-46.6411
-46.5777
-46.5682
-46.4065
-46.0892
-45.777
-45.5727
-45.5344
-45.6142
-45.6673
-45.5334
-45.3064
-45.0932
-45.0922
-45.1805
-45.1863
-45.2437
-45.2391
-45.2794
-45.289
-45.5551
-45.6488
-45.6718
-45.8184
-45.859
-45.9292
-45.7614
-45.6231
-45.5941
-45.6888
-45.8145
-45.9428
-45.9908
-46.0284
-46.0145
-46.1525
-46.2447
-46.4313
-46.4687
-46.459
-46.5731
-46.6183
-46.759
-46.6216
-46.4726
-46.3666
-46.4825
-46.6224
-46.7385
-46.823
-46.909
-46.8801
-47.0643
-47.2259
-47.5284
-47.6015
-47.6668
-47.8246
-47.8231
-47.8742
-47.6926
-47.507
-47.392
-47.5061
-47.6961
-47.7455
-47.7429
-47.6808
-47.7012
-47.912
-48.2477
-48.6443
-48.8199
-49.1582
-49.2813
-49.602
-49.5341
-49.3152
-49.3902
-49.2492
-49.2701
-49.3281
-49.6638
-49.961
-50.1396
-50.2824
-50.4444
-50.6379
-50.9535
-51.0393
-51.3174
-51.4999
-51.7653
-51.696
-51.6084
-51.7523
-51.5242
-51.4152
-51.3757
-51.6217
-51.8473
-52.002
-52.1403
-52.301
-52.5058
-52.7836
-52.7695
-52.9269
-53.0661
-53.4191
-53.4993
-53.3751
-53.5358
-53.4376
-53.5265
-53.5515
-53.8482
-54.1143
-54.2579
-54.4929
-54.6932
-54.8673
-55.0762
-55.2387
-55.5447
-55.6409
-55.6214
-55.5542
-55.3925
-55.6719
-55.823
-56.0554
-56.2589
-56.3807
-56.6162
-57.0349
-57.4788
-57.8393
-58.1231
-58.3875
-58.6113
-58.8121
-59.0134
-59.1503
-59.2058
-59.2745
-59.4645
-59.6566
-59.8285
-60.1277
-60.5391
-60.913
-61.4068
-62.1475
-62.9513
-63.8572
-65.0365
-66.3105
-67.4739
-68.2715
-68.2778
-66.5069
-61.6664
-53.928
-45.9616
-36.9816
-24.7501
-10.3768
3.59987
15.2766
-23.4182
-27.2409
-31.3597
-34.8251
-37.7834
-40.2731
-42.0801
-43.5118
-44.6543
-45.4407
-46.0438
-46.4853
-46.9192
-47.2877
-47.6162
-47.8309
-47.954
-47.9743
-48.059
-48.2822
-48.4393
-48.4492
-48.3723
-48.4029
-48.471
-48.7343
-48.9069
-49.0278
-49.1108
-49.2314
-49.3395
-49.4426
-49.5125
-49.6005
-49.6975
-49.7848
-49.8308
-49.8995
-50.0358
-50.1348
-50.2499
-50.2701
-50.3818
-50.4797
-50.729
-50.6848
-50.4549
-50.4611
-50.5402
-50.647
-50.7135
-50.768
-50.8536
-50.9374
-50.9704
-50.977
-51.0226
-51.1683
-51.1279
-51.2315
-51.2989
-51.5176
-51.454
-51.2727
-51.3162
-51.3642
-51.53
-51.6174
-51.6499
-51.6648
-51.7906
-51.9308
-52.0823
-52.1892
-52.2661
-52.185
-52.3112
-52.3973
-52.6861
-52.6157
-52.3994
-52.4475
-52.4721
-52.6361
-52.6896
-52.7455
-52.784
-52.8278
-52.8815
-52.8504
-52.8109
-52.8655
-53.1269
-53.408
-53.5648
-53.8676
-54.0762
-54.2617
-54.2009
-54.1102
-54.1909
-54.1444
-54.3875
-54.3389
-54.2706
-54.1264
-54.3396
-54.7678
-55.1284
-55.3565
-55.5748
-55.6704
-55.9103
-56.1443
-56.489
-56.4184
-56.3552
-56.4071
-56.327
-56.4979
-56.3609
-56.2751
-56.1482
-56.3342
-56.6262
-56.9045
-57.1686
-57.3446
-57.4263
-57.6479
-57.5928
-57.9579
-58.1644
-58.3558
-58.4393
-58.3041
-58.5357
-58.4417
-58.3255
-58.1584
-58.2879
-58.6719
-58.9449
-59.1941
-59.4113
-59.6323
-59.9737
-59.958
-60.0664
-60.0435
-59.9971
-59.9893
-59.7412
-59.7244
-59.4566
-59.0521
-58.7681
-58.7098
-58.8806
-59.1284
-59.2863
-59.4056
-59.4979
-59.5331
-59.5528
-59.6353
-59.6761
-59.5932
-59.6142
-59.8809
-60.2617
-60.6341
-61.1069
-61.7208
-62.3364
-63.0492
-64.103
-65.3626
-66.7614
-68.4056
-70.2734
-72.1364
-73.6425
-74.373
-73.4611
-69.8019
-63.4233
-56.8752
-49.3126
-38.5743
-25.8449
-13.6385
-3.53843
-18.5256
-22.2259
-26.2524
-29.8219
-32.9535
-35.6997
-37.9796
-39.8249
-41.312
-42.5247
-43.465
-44.1911
-44.8643
-45.4769
-45.9998
-46.3244
-46.4275
-46.4926
-46.6117
-46.7282
-46.8153
-46.6805
-46.4381
-46.2465
-46.2207
-46.2559
-46.1353
-45.7829
-45.4645
-45.298
-45.2316
-45.2486
-45.4659
-45.3518
-45.0899
-44.8398
-44.8204
-44.9157
-44.9191
-44.9813
-44.9698
-45.0573
-45.0827
-45.2878
-45.4202
-45.5345
-45.6818
-45.7058
-45.7073
-45.5313
-45.3889
-45.3595
-45.4653
-45.6149
-45.77
-45.8452
-45.8821
-45.9099
-46.0509
-46.0524
-46.1975
-46.2474
-46.2781
-46.4032
-46.4332
-46.5631
-46.4361
-46.288
-46.1734
-46.2571
-46.3498
-46.4283
-46.569
-46.7629
-46.8738
-46.9396
-46.9146
-47.1632
-47.3001
-47.4017
-47.6004
-47.6225
-47.7106
-47.5403
-47.3508
-47.226
-47.321
-47.498
-47.574
-47.5815
-47.4339
-47.4003
-47.4646
-47.876
-48.3479
-48.5374
-48.8808
-49.0336
-49.387
-49.3561
-49.1692
-49.2806
-49.0988
-49.0075
-48.9991
-49.2897
-49.5858
-49.8309
-50.0296
-50.2217
-50.409
-50.7072
-50.7666
-51.0694
-51.2672
-51.516
-51.4869
-51.353
-51.5649
-51.4456
-51.3135
-51.1905
-51.3754
-51.4133
-51.4308
-51.7282
-52.0453
-52.3347
-52.6399
-52.6126
-52.7232
-52.8231
-53.2772
-53.2971
-53.1838
-53.4289
-53.3206
-53.3002
-53.2538
-53.4893
-53.7562
-53.9656
-54.195
-54.4061
-54.638
-54.9108
-55.0946
-55.4747
-55.6365
-55.6618
-55.6144
-55.5111
-55.8088
-55.9414
-56.0501
-56.2397
-56.4608
-56.7402
-57.083
-57.4721
-57.8966
-58.2812
-58.641
-58.9779
-59.3154
-59.6324
-59.748
-59.7419
-59.9397
-60.3911
-60.9036
-61.3816
-61.9563
-62.7309
-63.5428
-64.445
-65.6668
-67.2492
-69.1349
-71.2831
-73.7145
-76.2959
-78.6383
-80.249
-80.2755
-77.7286
-72.5021
-67.2347
-60.8638
-51.4227
-40.0858
-29.2946
-20.4139
-14.6051
-18.1392
-22.005
-25.5293
-28.7806
-31.6808
-34.2196
-36.3992
-38.1983
-39.7464
-41.0294
-42.0729
-43.0323
-43.9347
-44.7623
-45.3591
-45.7808
-46.1957
-46.5679
-47.0408
-47.4231
-47.6406
-47.7135
-47.8788
-48.0339
-48.3371
-48.5719
-48.7604
-48.8343
-49.0207
-49.2201
-49.3789
-49.4481
-49.5594
-49.6701
-49.7946
-49.8435
-49.8824
-50.0129
-50.1092
-50.2389
-50.2092
-50.3295
-50.3999
-50.5944
-50.6116
-50.4766
-50.5066
-50.5548
-50.6663
-50.7504
-50.8194
-50.9062
-50.9686
-50.989
-51.0442
-51.117
-51.1062
-51.0175
-51.1723
-51.2433
-51.447
-51.4264
-51.2879
-51.3448
-51.3805
-51.4892
-51.5308
-51.6035
-51.6806
-51.755
-51.905
-52.0174
-52.1365
-52.2909
-52.2983
-52.3125
-52.3685
-52.6553
-52.5852
-52.351
-52.4126
-52.4825
-52.6506
-52.7074
-52.7421
-52.7387
-52.7417
-52.8191
-52.8365
-52.8581
-52.8664
-52.9483
-53.1706
-53.3771
-53.7212
-53.9793
-54.193
-54.0628
-54.0233
-54.1321
-54.105
-54.3462
-54.2845
-54.161
-53.955
-54.1534
-54.6222
-55.0423
-55.2977
-55.5024
-55.5782
-55.8244
-56.0517
-56.3935
-56.3576
-56.3315
-56.4123
-56.3415
-56.5311
-56.4312
-56.292
-56.1033
-56.2065
-56.5059
-56.7482
-56.9856
-57.229
-57.3923
-57.657
-57.6415
-57.877
-58.014
-58.1808
-58.3732
-58.3497
-58.4396
-58.3295
-58.2386
-58.0773
-58.212
-58.5883
-58.8346
-59.0938
-59.3532
-59.5455
-59.8109
-59.8386
-60.0167
-59.9833
-59.8908
-59.9267
-59.7834
-59.8111
-59.5121
-59.1284
-58.8234
-58.7593
-58.8789
-59.0653
-59.3044
-59.5109
-59.6277
-59.7778
-60.0208
-60.2187
-60.2013
-60.1258
-60.3039
-60.7307
-61.2713
-61.8641
-62.5803
-63.4694
-64.4824
-65.5931
-66.9554
-68.7414
-70.9663
-73.5871
-76.6058
-79.9032
-83.138
-85.7669
-86.8837
-85.5331
-81.2871
-77.1691
-71.8376
-63.5243
-53.3601
-43.7272
-35.7977
-11.4396
-14.8025
-18.4787
-21.8784
-25.1256
-28.1293
-30.7394
-33.1391
-35.1765
-36.9761
-38.524
-39.8134
-40.9947
-42.119
-43.1533
-43.9072
-44.3785
-44.7878
-45.1644
-45.4427
-45.6364
-45.6776
-45.6983
-45.8525
-46.0257
-45.9521
-45.6689
-45.3297
-45.141
-45.0057
-44.9694
-44.9632
-45.1385
-45.1688
-45.0496
-44.7838
-44.7491
-44.8384
-44.8303
-44.8816
-44.8988
-45.0472
-45.0439
-45.2418
-45.3593
-45.482
-45.6047
-45.6428
-45.6682
-45.4801
-45.3149
-45.2717
-45.4018
-45.5839
-45.7353
-45.8292
-45.9079
-45.9972
-46.0771
-45.9697
-46.0923
-46.1767
-46.2832
-46.4126
-46.4445
-46.5536
-46.4228
-46.2502
-46.1242
-46.2297
-46.3943
-46.383
-46.3819
-46.561
-46.7622
-46.9713
-46.9596
-47.1184
-47.2351
-47.3988
-47.5738
-47.6028
-47.654
-47.5024
-47.342
-47.2403
-47.3374
-47.5133
-47.5808
-47.6133
-47.5008
-47.3972
-47.3852
-47.6987
-48.1526
-48.3685
-48.8096
-49.0646
-49.3553
-49.2828
-49.154
-49.3054
-49.1106
-48.9537
-48.8467
-49.0955
-49.3523
-49.6143
-49.8563
-50.0893
-50.3031
-50.5658
-50.6011
-50.9322
-51.2349
-51.5568
-51.4781
-51.3505
-51.5437
-51.4305
-51.3343
-51.2925
-51.2914
-51.3039
-51.3045
-51.5507
-51.856
-52.1432
-52.4672
-52.5627
-52.7434
-52.8622
-53.2567
-53.257
-53.1486
-53.3618
-53.2719
-53.224
-53.2099
-53.3533
-53.5779
-53.7889
-54.0252
-54.2738
-54.5486
-54.8668
-55.0881
-55.4845
-55.656
-55.7306
-55.7567
-55.7222
-55.9918
-56.0695
-56.1022
-56.2281
-56.5064
-56.8534
-57.1402
-57.4055
-57.78
-58.1744
-58.5483
-58.8643
-59.2095
-59.5937
-59.8168
-59.922
-60.2417
-60.8129
-61.4508
-62.1405
-62.9658
-63.998
-65.1742
-66.4148
-67.8877
-69.8327
-72.2841
-75.2557
-78.7714
-82.7606
-86.9189
-90.7118
-93.1274
-93.1294
-89.8159
-86.8016
-82.405
-75.1042
-65.9521
-57.2598
-50.0392
-8.98642
-12.1859
-15.6521
-18.8901
-22.0042
-25.0031
-27.6576
-30.1654
-32.3726
-34.3683
-36.1376
-37.6635
-39.0914
-40.4754
-41.7435
-42.7486
-43.5982
-44.4012
-45.08
-45.6421
-46.0731
-46.5671
-47.01
-47.336
-47.5474
-47.8077
-48.0309
-48.2667
-48.4435
-48.6585
-48.8563
-49.0454
-49.2007
-49.3937
-49.5322
-49.6756
-49.7551
-49.7969
-49.8623
-49.9024
-49.9758
-49.9671
-50.1094
-50.1527
-50.3521
-50.4058
-50.3549
-50.3837
-50.3898
-50.5371
-50.6299
-50.6939
-50.7512
-50.7747
-50.8011
-50.8404
-50.8921
-50.9715
-50.9866
-51.05
-51.0753
-51.2308
-51.2108
-51.0923
-51.1595
-51.2319
-51.3541
-51.3984
-51.4661
-51.5056
-51.5901
-51.6302
-51.7504
-51.9041
-52.0412
-52.0623
-52.1151
-52.14
-52.3605
-52.2806
-52.1081
-52.1831
-52.2784
-52.4607
-52.517
-52.5928
-52.5192
-52.479
-52.6084
-52.6436
-52.6624
-52.6467
-52.6956
-52.8311
-53.0162
-53.404
-53.6314
-53.9192
-53.8095
-53.8307
-53.9271
-53.9471
-54.2042
-54.1082
-53.9462
-53.7081
-53.9166
-54.3549
-54.7108
-54.9619
-55.214
-55.3487
-55.5608
-55.6546
-56.0722
-56.1892
-56.2385
-56.299
-56.2377
-56.4192
-56.3418
-56.2757
-56.1017
-56.094
-56.2021
-56.3797
-56.6655
-56.9607
-57.1488
-57.4197
-57.4412
-57.6082
-57.7002
-57.851
-58.0826
-58.1557
-58.3046
-58.1884
-58.0944
-57.9554
-58.0151
-58.257
-58.4907
-58.782
-59.0891
-59.2835
-59.5109
-59.5725
-59.8192
-59.746
-59.6601
-59.7776
-59.6574
-59.8711
-59.6392
-59.3413
-58.9876
-58.8822
-58.9681
-59.1466
-59.4014
-59.7262
-59.9603
-60.1007
-60.2844
-60.5836
-60.746
-60.7414
-60.9013
-61.3448
-61.9097
-62.5155
-63.3002
-64.3334
-65.5299
-66.8533
-68.4477
-70.4946
-73.0939
-76.3051
-80.2023
-84.8127
-89.9014
-94.9396
-98.7812
-100.097
-98.2536
-96.2607
-92.775
-86.383
-78.0368
-70.1103
-63.4414
-7.2517
-10.2168
-13.4267
-16.4394
-19.3812
-22.2952
-24.9476
-27.5051
-29.8049
-31.9093
-33.8301
-35.5331
-37.0936
-38.5755
-39.9212
-40.9879
-41.823
-42.6211
-43.256
-43.7767
-44.2947
-44.5985
-44.7392
-44.9787
-45.3051
-45.3016
-45.1547
-44.9676
-44.862
-44.8186
-44.8116
-44.8232
-45.0411
-45.1194
-45.0341
-44.8189
-44.8295
-44.9602
-44.9915
-45.0463
-45.0468
-45.1666
-45.1368
-45.2738
-45.3393
-45.486
-45.6079
-45.6844
-45.7979
-45.6583
-45.4893
-45.4179
-45.5307
-45.7543
-45.9109
-45.9941
-46.0037
-46.0891
-46.2786
-46.2387
-46.2595
-46.2481
-46.3239
-46.5075
-46.6361
-46.7019
-46.5237
-46.3574
-46.2725
-46.3894
-46.5016
-46.4519
-46.5526
-46.7067
-46.9189
-47.1665
-47.1847
-47.2551
-47.3519
-47.5168
-47.665
-47.7363
-47.7938
-47.63
-47.4686
-47.4014
-47.5316
-47.6888
-47.7398
-47.825
-47.7373
-47.6063
-47.4831
-47.6838
-48.1042
-48.3367
-48.8021
-49.0771
-49.3682
-49.2984
-49.2645
-49.457
-49.2757
-49.1134
-49.018
-49.1688
-49.2987
-49.5219
-49.819
-50.0494
-50.2761
-50.5829
-50.6015
-50.843
-51.0964
-51.5338
-51.5525
-51.4928
-51.6757
-51.4983
-51.3922
-51.3376
-51.5651
-51.6376
-51.5202
-51.5613
-51.7564
-52.0905
-52.4501
-52.6333
-52.9248
-52.9929
-53.2502
-53.2324
-53.1517
-53.3537
-53.2775
-53.3637
-53.3806
-53.6094
-53.7328
-53.6843
-53.9048
-54.2332
-54.5273
-54.8627
-55.1164
-55.5393
-55.6665
-55.7407
-55.7984
-55.8718
-56.2207
-56.2704
-56.2436
-56.3282
-56.6226
-56.9765
-57.2011
-57.2996
-57.5356
-57.8871
-58.2823
-58.599
-58.9241
-59.3906
-59.7795
-59.906
-60.1047
-60.6346
-61.4068
-62.2188
-63.1576
-64.3515
-65.6526
-67.0042
-68.6206
-70.6706
-73.296
-76.6623
-80.8661
-85.9324
-91.7369
-97.944
-103.387
-106.256
-106.502
-105.633
-102.969
-97.2967
-89.8346
-82.6806
-76.3954
-5.91367
-8.66832
-11.588
-14.3869
-17.1426
-19.9549
-22.5543
-25.0995
-27.4409
-29.6422
-31.7229
-33.6714
-35.556
-37.3253
-38.9081
-40.2144
-41.3877
-42.5012
-43.4508
-44.2311
-44.8816
-45.4791
-45.9936
-46.4729
-46.8432
-47.1451
-47.4315
-47.7145
-47.9294
-48.1877
-48.3996
-48.5625
-48.7289
-49.0017
-49.1678
-49.3035
-49.3938
-49.4384
-49.4905
-49.5181
-49.5812
-49.6436
-49.8096
-49.8566
-49.967
-49.9665
-49.9388
-50.0074
-50.0493
-50.1599
-50.2383
-50.293
-50.3268
-50.36
-50.4326
-50.4964
-50.5345
-50.6101
-50.6464
-50.7408
-50.8036
-50.9132
-50.8414
-50.7455
-50.8236
-50.8812
-50.9894
-51.0377
-51.0897
-51.1212
-51.191
-51.3049
-51.3831
-51.4651
-51.5813
-51.6551
-51.8107
-51.889
-51.9279
-51.7963
-51.6995
-51.8207
-51.9335
-52.135
-52.1665
-52.1536
-52.0871
-52.088
-52.2415
-52.3098
-52.3897
-52.4082
-52.3665
-52.2743
-52.4006
-52.8578
-53.0774
-53.3875
-53.3979
-53.4915
-53.5773
-53.6273
-53.8728
-53.7431
-53.5744
-53.3989
-53.625
-53.9584
-54.2423
-54.467
-54.6762
-54.8324
-55.0267
-55.0589
-55.4975
-55.7477
-55.9148
-56.0344
-55.9861
-56.0656
-55.9789
-55.9197
-55.7709
-55.8292
-55.9767
-56.0518
-56.2393
-56.5166
-56.7062
-56.9336
-56.9757
-57.1439
-57.2643
-57.4458
-57.6556
-57.7551
-58.0215
-57.8665
-57.7709
-57.6384
-57.7589
-57.998
-58.157
-58.3964
-58.662
-58.8259
-59.0514
-59.0763
-59.3126
-59.3229
-59.3889
-59.6168
-59.5323
-59.8229
-59.6531
-59.3527
-58.9955
-58.9101
-59.1407
-59.2868
-59.3923
-59.6483
-60.0121
-60.213
-60.3118
-60.6287
-61.0105
-61.2887
-61.5167
-61.8293
-62.2265
-62.8035
-63.6702
-64.7215
-65.8447
-67.0644
-68.6093
-70.532
-73.0106
-76.3204
-80.6147
-85.9997
-92.4688
-99.8898
-107.135
-112.21
-114.239
-114.301
-112.555
-108.223
-101.915
-95.1644
-89.1103
-4.93223
-7.54926
-10.1691
-12.7804
-15.2972
-17.9425
-20.3725
-22.8299
-25.1441
-27.3654
-29.4795
-31.4594
-33.3066
-35.049
-36.6237
-37.9555
-39.0864
-40.1698
-41.1227
-41.9689
-42.8041
-43.3832
-43.7388
-44.0573
-44.3733
-44.4932
-44.5873
-44.5635
-44.6534
-44.7333
-44.7789
-44.8364
-45.1191
-45.2106
-45.1539
-45.002
-45.0892
-45.2601
-45.3253
-45.4052
-45.4453
-45.5355
-45.4801
-45.5794
-45.6139
-45.7458
-45.8794
-45.9737
-46.1055
-46.0195
-45.8754
-45.8099
-45.9011
-46.0934
-46.2429
-46.365
-46.4088
-46.4445
-46.5435
-46.5136
-46.5909
-46.6523
-46.7198
-46.808
-46.8917
-47.0015
-46.8863
-46.7137
-46.6204
-46.7471
-46.9322
-46.956
-47.0092
-47.1056
-47.2329
-47.4424
-47.4682
-47.5759
-47.685
-47.7919
-47.8802
-47.959
-48.1013
-47.9782
-47.8202
-47.7425
-47.8259
-47.9953
-48.0669
-48.1747
-48.1226
-48.0719
-47.9795
-48.034
-48.2898
-48.4894
-48.8716
-49.081
-49.4365
-49.4616
-49.5144
-49.7392
-49.6224
-49.4982
-49.4874
-49.4983
-49.5293
-49.6573
-49.9591
-50.267
-50.5111
-50.732
-50.808
-51.0337
-51.2033
-51.6108
-51.7062
-51.7569
-51.9733
-51.8253
-51.6901
-51.6363
-51.8623
-51.9972
-51.9845
-52.0051
-52.1002
-52.326
-52.6268
-52.7229
-52.9939
-53.0617
-53.3142
-53.3548
-53.3576
-53.594
-53.5393
-53.5958
-53.6565
-53.8991
-54.0507
-54.0896
-54.2095
-54.3893
-54.6696
-54.9976
-55.0897
-55.3419
-55.4847
-55.8518
-55.9654
-55.996
-56.4395
-56.5033
-56.4784
-56.5804
-56.7937
-56.9646
-57.0587
-57.2429
-57.5723
-57.8719
-58.0729
-58.2495
-58.6538
-59.1714
-59.568
-59.7368
-59.958
-60.4387
-61.0944
-61.8056
-62.6311
-63.7254
-65.0234
-66.4955
-68.2359
-70.2835
-72.7005
-75.7805
-79.7916
-85.0179
-91.66
-99.8384
-108.682
-116.107
-120.643
-122.195
-122.454
-119.396
-113.645
-107.543
-102.126
-6.157