/*--------------------------------*- C++ -*----------------------------------*\
| =========                 |                                                 |
| \\      /  F ield         | OpenFOAM: The Open Source CFD Toolbox           |
|  \\    /   O peration     | Version:  4.1                                   |
|   \\  /    A nd           | Web:      www.OpenFOAM.org                      |
|    \\/     M anipulation  |                                                 |
\*---------------------------------------------------------------------------*/
FoamFile
{
    version     2.0;
    format      ascii;
    class       volScalarField;
    location    "658";
    object      p;
}
// * * * * * * * * * * * * * * * * * * * * * * * * * * * * * * * * * * * * * //

dimensions      [0 2 -2 0 0 0 0];

internalField   nonuniform List<scalar> 
204246
(
136.631
4.8451
49.9326
32.9363
28.8232
35.9975
24.1823
35.879
22.6483
35.495
21.7123
35.7016
19.7468
35.2524
20.5232
31.8704
25.3088
19.2131
29.4584
16.6699
27.2605
14.6325
22.9532
11.3537
18.304
6.88044
13.1698
-0.278873
6.80042
-7.50906
-1.20243
-15.705
-10.21
-23.2883
-21.0329
-26.7302
-37.2626
-30.3711
-43.4064
-32.4345
-44.3842
-32.3327
-39.9513
-26.553
-33.1587
-18.2098
-23.1484
-8.03084
-11.4711
0.459703
-0.233436
8.14863
12.1039
9.27206
21.01
13.6942
26.0488
17.673
30.4254
19.8745
33.9922
19.162
36.1085
19.8189
36.5835
21.4974
34.7285
23.9943
32.5513
29.4205
23.6149
33.4478
22.2689
34.3485
21.7775
34.6398
21.217
35.5221
19.2902
36.3013
19.0432
35.9229
20.1183
33.5907
22.2566
30.9709
27.5374
21.667
31.46
20.0779
32.3364
19.0553
33.1537
16.6798
33.6678
15.7346
33.1233
15.173
31.7797
15.6118
28.6971
15.2301
26.8049
15.1696
23.6787
17.2412
12.4297
20.0845
7.99907
19.0308
3.89758
15.7448
1.34869
11.4001
-2.63909
7.06566
-7.05669
2.5896
-11.4422
-2.112
-14.8947
-7.87742
-13.5908
-21.9003
-11.4279
-26.4315
-12.2886
-28.538
-12.885
-29.1916
-12.5748
-28.6814
-11.4374
-27.2803
-9.85676
-24.8328
-9.02342
-20.9404
-9.47483
-13.3737
-17.6921
-5.47939
-18.6238
-2.68731
-17.8089
-1.0623
-16.8746
0.101212
-15.8595
1.1138
-14.7573
2.04361
-13.3077
2.64831
-10.4823
1.32743
-3.11668
-7.16647
4.91824
-7.60902
8.46862
-5.46509
10.9094
-1.72516
13.6636
2.9609
17.5807
8.73778
22.7133
15.7426
29.0373
24.7367
37.0389
36.2995
46.5463
53.0818
55.3225
69.1804
73.7228
87.0302
96.7818
110.153
124.496
139.397
159.339
177.167
205.457
228.113
272.015
300.959
388.691
404.615
611.655
54.3097
33.2727
31.3032
35.8446
28.7663
33.2514
27.5981
31.9875
26.832
31.3254
26.2027
31.0154
25.7538
29.4953
26.3599
26.886
28.975
23.1491
26.2892
21.4234
24.7478
19.7016
21.7018
16.589
17.7508
12.4675
12.8116
6.87206
6.23426
0.588117
-1.9747
-7.00592
-11.501
-14.8616
-21.9458
-21.3037
-32.1643
-32.0079
-38.9834
-37.303
-40.5746
-36.922
-40.0179
-33.2896
-33.2371
-26.8036
-23.1567
-17.7488
-11.8366
-7.94891
-1.30184
0.799127
9.10287
8.26755
16.1386
16.0412
20.9663
19.925
25.0349
22.492
28.1289
24.152
29.505
25.5223
29.9218
26.9346
29.4611
28.1303
28.0509
30.7715
26.1932
30.2259
26.1229
30.1902
25.9604
30.2628
25.5335
30.6229
25.0674
30.2745
25.2174
29.6085
25.9277
28.4339
26.8136
26.6914
29.2019
24.4984
28.476
24.141
28.3971
23.5358
28.5734
22.7364
28.002
22.2685
27.2241
21.8264
26.0234
21.4167
24.7668
20.5982
22.8026
20.2036
20.0195
21.016
15.8342
18.2005
13.1962
15.8785
10.1237
12.7204
7.10706
9.12181
3.28932
5.03747
-0.948428
0.386237
-5.09765
-4.83446
-8.42171
-11.1495
-9.30749
-17.1825
-14.8138
-20.4822
-17.3541
-22.644
-18.7445
-23.6708
-18.9028
-23.4833
-18.0618
-22.2018
-16.707
-19.8934
-15.4842
-16.9048
-15.4395
-12.0711
-16.027
-10.1585
-14.4303
-8.64463
-13.0308
-7.32222
-11.8445
-6.24307
-10.7861
-5.30383
-9.71035
-4.52413
-8.31405
-4.15874
-5.88395
-4.79488
-1.84749
-5.90586
-0.152524
-4.08215
1.77627
-1.6401
4.15847
1.15601
7.13787
4.66192
10.8985
9.21999
15.6698
15.0713
21.0976
22.8407
28.0728
32.6236
36.2678
45.0217
48.7225
57.796
64.3662
73.8864
83.5768
94.0346
107.077
118.659
135.841
148.654
171.864
185.29
220.543
227.186
301.908
267.348
402.028
27.2155
39.4022
32.8634
35.2805
30.4139
33.0202
28.2262
31.9604
27.1658
31.2795
26.539
30.7021
26.1908
29.5252
26.4722
27.1549
27.0289
24.4715
26.2273
22.4889
24.0988
20.5587
21.203
17.7345
17.36
13.6534
12.4918
8.27139
6.20957
1.73481
-1.39243
-5.98055
-10.5723
-14.6347
-20.5979
-23.4526
-30.0252
-32.0822
-37.9808
-38.3144
-41.0553
-39.0191
-40.0298
-35.7521
-34.1916
-28.3574
-24.6073
-18.1983
-13.223
-7.67178
-2.12654
1.77047
7.64096
9.33892
15.3895
15.652
20.7834
20.5737
24.7374
23.517
27.8462
24.8857
29.5194
25.9155
30.1992
27.0114
29.9608
28.2608
28.8303
29.6814
27.3839
30.0437
26.64
30.2618
26.2193
30.344
25.7991
30.4348
25.3885
30.2557
25.3508
29.7532
25.7429
28.7859
26.5037
27.2558
27.7955
25.4659
28.0737
24.4818
28.2347
23.7275
28.237
22.955
27.8887
22.3466
27.2579
21.837
26.2319
21.3689
24.7124
20.7035
22.9199
20.3523
20.2215
19.765
16.8028
18.1643
13.9272
15.8976
11.0967
12.5614
8.16957
8.69409
4.49404
4.46557
0.375222
-0.210461
-3.83427
-5.25667
-7.48373
-10.6515
-11.1354
-15.9703
-14.8794
-19.781
-17.4885
-22.3843
-18.7946
-23.6985
-19.0501
-23.6791
-18.319
-22.4383
-16.9589
-20.1877
-15.873
-16.8081
-15.4158
-13.0254
-14.7906
-10.6267
-13.8869
-8.69276
-12.7429
-7.22015
-11.6221
-6.04238
-10.5533
-5.04351
-9.43381
-4.23959
-8.01157
-3.8073
-5.84292
-4.09517
-2.79748
-4.45177
-0.466676
-3.49644
1.9009
-1.56332
4.16336
1.4362
6.78768
5.34129
10.3081
10.1305
14.9801
16.102
21.0347
23.5602
28.5563
33.0794
38.1826
44.6977
49.7287
58.7316
65.3491
75.5829
85.2575
96.5143
110.065
122.588
141.172
155.047
180.705
195.385
235.088
243.011
319.171
297.9
386.681
14.7876
29.3659
25.6172
31.7776
27.5658
31.4335
28.1342
30.5951
28.068
29.8707
27.9868
29.274
28.0153
28.2512
28.1878
26.8568
28.2862
25.7484
26.4853
24.5371
24.6746
22.7371
22.406
20.0014
19.4092
16.3788
15.0742
11.5253
9.23769
5.31948
1.82481
-2.24895
-7.25763
-10.9601
-17.6684
-20.439
-28.2283
-30.9694
-36.6541
-39.2002
-42.0445
-42.4353
-42.8909
-40.2396
-38.47
-33.6782
-29.3644
-23.8376
-17.6225
-12.7288
-5.71353
-2.16132
5.10081
6.95347
12.9756
14.7274
18.5257
20.161
22.7904
23.5215
25.6884
25.8424
27.2118
27.3043
27.8645
28.3198
28.0021
29.0289
27.6865
29.7566
27.5887
29.2663
27.5437
28.9773
27.4173
28.8309
27.2032
28.7488
27.1098
28.3793
27.2154
27.8827
27.5063
27.2521
27.8855
26.4627
28.3333
26.0346
27.6716
25.7781
27.288
25.4279
26.9909
25.0572
26.4023
24.6741
25.6864
24.25
24.8135
23.7296
23.7887
22.8928
22.3745
22.1153
20.4871
21.2625
18.496
18.8102
16.2981
16.0106
13.8326
12.8793
10.7972
9.44898
7.13534
5.44319
2.96563
0.873038
-1.44674
-4.17284
-5.66864
-9.45268
-9.79285
-14.121
-15.0559
-18.0611
-19.0297
-20.7822
-21.1893
-22.3639
-21.7515
-22.5794
-21.1659
-21.4518
-19.7651
-19.3701
-18.2056
-16.6458
-16.9089
-14.0799
-14.9332
-12.2081
-13.1781
-10.9152
-11.7134
-9.7111
-10.5006
-8.67768
-9.45305
-7.81107
-8.42919
-7.13127
-7.21791
-6.67465
-5.52453
-6.28606
-3.90548
-5.3022
-2.77034
-3.73145
-1.37721
-1.73076
0.594777
0.594736
3.0409
3.51044
6.23383
7.19276
10.3194
11.889
15.2913
18.097
21.584
25.8404
29.4334
35.6418
39.7937
46.7276
52.8541
60.1875
68.8583
76.6854
88.2773
96.584
111.8
120.58
141.149
148.243
181.287
176.171
233.659
220.524
291.62
15.4354
30.2003
25.1868
30.6292
27.9547
30.5504
28.4723
30.2372
28.3221
29.6964
28.1748
29.1056
28.2319
28.1872
28.0954
27.1216
27.5869
26.2379
26.5857
24.9357
24.9109
23.1009
22.8055
20.5607
19.8713
17.1832
15.8802
12.699
10.4766
6.86758
3.47897
-0.471236
-5.30467
-9.3931
-15.4791
-19.6265
-26.0458
-30.4381
-36.2065
-39.3763
-43.4028
-44.0991
-45.4121
-43.252
-41.4085
-36.664
-32.0334
-25.8969
-19.7643
-13.814
-7.27952
-2.46389
3.71499
7.24999
12.3465
14.9195
18.8714
20.2472
23.2288
23.9358
25.9347
26.284
27.6075
27.7129
28.4169
28.591
28.7706
29.2166
28.6003
29.4844
28.4673
29.2612
28.11
29.1407
27.798
28.9815
27.5229
28.7797
27.3765
28.434
27.3432
28.003
27.4223
27.4832
27.5671
26.8339
27.6305
26.5135
27.3013
26.0745
27.0731
25.6118
26.7841
25.2046
26.3145
24.7349
25.7387
24.2274
24.9594
23.7332
23.8686
23.0837
22.44
22.2109
20.7991
20.8341
18.9363
19.124
16.9388
16.5517
14.4617
13.562
11.4285
10.1382
7.87537
6.16715
3.83544
1.62919
-0.568426
-3.35467
-5.15603
-8.49354
-9.85815
-13.2057
-14.4981
-17.3214
-18.6475
-20.437
-21.172
-22.4296
-22.0972
-22.9722
-21.7711
-21.965
-20.525
-19.7267
-18.7109
-16.9531
-16.5668
-14.4781
-14.3804
-12.5281
-12.5836
-10.9189
-11.1928
-9.52878
-10.011
-8.34217
-8.93696
-7.34229
-7.86215
-6.59158
-6.62308
-6.10491
-5.25595
-5.32752
-3.76341
-4.41524
-2.67382
-3.00243
-1.14743
-1.25421
0.803228
1.0714
3.37272
4.00379
6.68106
7.75319
10.874
12.6253
16.113
18.8471
22.7455
26.7562
31.0881
36.5192
41.7551
48.4838
55.365
63.1087
72.3962
81.031
93.483
102.851
119.296
128.944
151.449
159.205
193.554
190.493
239.781
228.419
273.517
13.3713
25.0541
22.2201
27.3654
26.0739
28.7073
27.6432
29.1567
28.3462
29.0145
28.5967
28.6861
28.7662
28.2566
28.7407
27.64
28.2484
26.963
27.3096
26.0108
26.1103
24.5748
24.3653
22.4965
21.8374
19.5458
18.2098
15.4833
13.1839
9.98875
6.47557
2.83787
-2.12564
-6.18494
-12.5395
-16.9823
-24.1695
-28.8592
-35.644
-39.8836
-44.946
-47.2324
-49.3734
-48.4413
-47.095
-43.0454
-38.2913
-32.2648
-25.2303
-19.0375
-11.3491
-6.14953
1.08749
4.86418
10.7317
13.5082
17.5292
19.6892
22.2138
23.6471
25.171
26.2088
26.9057
27.6776
27.8381
28.5219
28.2329
29.0239
28.2785
29.1863
28.2984
28.9276
28.1941
28.5834
28.0957
28.2912
27.9259
28.0868
27.9043
27.7693
27.9428
27.4465
27.989
27.1389
27.9894
26.831
27.8768
26.7637
27.3673
26.6377
26.9584
26.4049
26.5649
26.1566
26.0641
25.8013
25.5098
25.3182
24.877
24.7296
24.1211
24.015
23.0234
23.1473
21.6818
21.9693
20.0802
20.0452
18.2582
17.7006
15.9497
14.96
13.0794
11.6869
9.62685
7.79115
5.60236
3.25326
1.10369
-1.83584
-3.71517
-7.21105
-8.81346
-12.4484
-14.1376
-17.0902
-18.7716
-20.8201
-22.0414
-23.1677
-23.6073
-23.838
-23.51
-22.855
-22.1393
-20.7021
-20.0038
-18.045
-17.6033
-15.4828
-15.087
-13.4412
-13.0562
-11.9054
-11.4528
-10.6846
-10.2527
-9.72752
-9.2486
-8.94711
-8.34256
-8.24194
-7.40747
-7.60075
-6.38693
-6.9065
-5.38642
-5.73165
-4.42222
-4.49511
-3.20518
-2.97918
-1.64404
-1.17075
0.382737
1.08669
2.96495
3.9971
6.22974
7.8018
10.3381
12.7065
15.5286
18.9226
22.1753
26.6261
30.7787
35.9029
41.6107
47.1919
55.0452
60.9912
71.4736
77.7284
91.5199
97.4998
116.325
119.559
149.981
143.533
184.713
182.205
222.798
16.1088
26.4244
22.8018
27.1602
26.1378
28.2156
27.5605
28.7867
28.2734
28.8572
28.5713
28.579
28.633
28.3119
28.5743
27.8347
28.1087
27.2853
27.4007
26.3482
26.3133
25.0291
24.7384
23.1506
22.4635
20.5323
19.2656
16.9504
14.8324
12.0243
8.76623
5.34775
0.707479
-3.47602
-9.42836
-14.5278
-21.3743
-27.3003
-34.2432
-39.8309
-45.7217
-49.2649
-52.4668
-52.5841
-51.8077
-48.0798
-43.0699
-36.4195
-28.9125
-21.7982
-13.9529
-7.65072
-0.668593
4.38731
9.90524
13.7292
17.5235
20.1435
22.6429
24.1905
25.7408
26.7704
27.5882
28.3799
28.5647
29.271
29.0079
29.6314
29.0676
29.7159
29.0288
29.4013
28.8125
28.9935
28.4786
28.6256
28.1944
28.2669
28.0757
27.8936
28.0032
27.5525
27.9347
27.2356
27.8272
26.9393
27.5902
26.9156
27.1866
26.7567
26.8109
26.4862
26.4654
26.1986
26.046
25.8357
25.553
25.3755
24.9585
24.7997
24.1905
24.1217
23.1768
23.2399
21.9762
22.0539
20.5979
20.4513
18.9017
18.3357
16.6859
15.764
13.9588
12.637
10.6648
8.87609
6.77787
4.44367
2.32139
-0.565413
-2.62919
-5.87962
-7.94553
-11.1388
-13.3093
-16.152
-18.1838
-20.3829
-21.9148
-23.268
-24.0659
-24.4067
-24.3955
-23.8325
-23.1035
-21.6796
-20.6298
-18.6485
-17.7222
-15.6657
-15.002
-13.2403
-12.7963
-11.4631
-11.0985
-10.1812
-9.72582
-9.14226
-8.58718
-8.20189
-7.61509
-7.3875
-6.67971
-6.66929
-5.68424
-5.89474
-4.71017
-5.03828
-3.7834
-3.86865
-2.59815
-2.43946
-1.02698
-0.630844
1.0446
1.67286
3.72187
4.66312
7.07326
8.6001
11.3387
13.6468
16.7946
20.0207
23.769
27.957
32.723
37.7335
44.0868
49.7433
58.1964
64.3947
75.4914
81.9983
96.4434
102.562
122.189
124.409
152.351
149.003
180.213
176.372
205.174
15.0922
24.7581
21.5565
25.6744
25.0358
27.0937
26.9046
28.035
27.9721
28.4915
28.562
28.5888
28.8517
28.4766
28.9253
28.2155
28.6057
27.7343
28.0893
27.1316
27.3079
26.2043
26.0826
24.7515
24.1569
22.4959
21.2583
19.234
17.1475
14.6392
11.4551
8.30092
3.76465
-0.316899
-6.29741
-11.515
-18.787
-25.0044
-33.0115
-39.5041
-46.9987
-52.2416
-57.1209
-58.8338
-58.929
-55.9359
-51.2812
-44.7617
-36.4629
-28.297
-19.2587
-11.7232
-3.61177
2.06499
8.43744
12.551
16.9385
19.6033
22.1788
24.1183
25.2876
26.7402
27.1822
28.1756
28.1635
28.997
28.5786
29.4004
28.6402
29.3657
28.6589
29.0546
28.5016
28.7336
28.3032
28.3645
28.1741
28.0213
28.1338
27.71
28.1287
27.452
28.1082
27.2357
28.0396
27.0748
27.7619
27.1365
27.3542
27.0785
26.9932
26.9141
26.6192
26.7009
26.2046
26.3972
25.7489
25.9846
25.2567
25.446
24.6656
24.8074
23.8364
24.0225
22.773
22.9484
21.508
21.3879
19.9991
19.4613
17.9928
17.0597
15.4504
14.0835
12.2922
10.4336
8.46159
6.05381
3.94144
0.98625
-1.22531
-4.60364
-6.90684
-10.4431
-12.8141
-16.061
-18.3304
-20.99
-22.7806
-24.5436
-25.5246
-26.1591
-26.1779
-25.5831
-24.8812
-23.262
-22.2009
-19.9791
-18.9153
-16.6756
-15.7885
-13.9838
-13.3697
-12.1029
-11.5837
-10.8965
-10.3687
-10.0282
-9.46967
-9.34018
-8.69673
-8.76141
-7.93104
-8.16817
-7.11621
-7.4681
-6.30614
-6.48205
-5.5612
-5.4745
-4.57204
-4.34267
-3.32967
-2.99841
-1.76763
-1.27862
0.197179
0.99413
2.70365
3.95487
5.9352
7.77276
10.1125
12.6306
15.5325
18.7047
22.5615
26.2476
31.4735
35.5495
42.6548
47.0061
56.4667
60.9854
73.4519
77.2864
94.9626
95.6676
120.26
118.347
146.796
146.705
173.725
17.5999
25.917
22.5066
26.2024
25.2886
27.0498
26.8905
27.8601
27.8504
28.2785
28.4527
28.4103
28.7427
28.4161
28.8475
28.3178
28.7022
28.0634
28.1598
27.5039
27.4294
26.6642
26.4135
25.4335
24.8369
23.592
22.478
20.9173
19.0769
17.0181
14.1608
11.335
7.18783
3.22505
-2.38403
-7.85215
-15.0234
-22.116
-30.4509
-38.4383
-47.0073
-54.1938
-60.7392
-64.4922
-66.2125
-64.3549
-59.6783
-52.6324
-43.301
-33.8781
-24.207
-15.4505
-6.64319
0.369829
6.99631
12.385
16.8362
20.2337
22.5753
24.9478
26.1725
27.5148
28.0939
29.1525
29.119
29.9828
29.6391
30.2657
29.657
30.108
29.5058
29.7043
29.2297
29.2428
28.8391
28.7335
28.5084
28.2157
28.3154
27.8191
28.1825
27.5171
28.0619
27.259
27.9076
27.1174
27.5968
27.1601
27.2156
27.0849
26.9117
26.9135
26.585
26.7015
26.2248
26.4243
25.8006
26.0258
25.3414
25.5181
24.7712
24.932
24.0316
24.2139
23.1132
23.2157
22.085
21.8487
20.7136
20.1464
18.8831
17.9783
16.5411
15.2323
13.5867
11.7994
9.93648
7.6018
5.52835
2.66395
0.36662
-2.87528
-5.43634
-8.78327
-11.5761
-14.7749
-17.5079
-20.266
-22.5719
-24.5442
-26.0589
-26.9271
-27.4416
-27.079
-26.5569
-24.941
-23.5978
-21.1659
-19.6184
-17.1245
-15.9076
-13.9272
-13.1159
-11.8052
-11.1585
-10.387
-9.72533
-9.3058
-8.59449
-8.41292
-7.67901
-7.67004
-6.92665
-7.07042
-6.15356
-6.42684
-5.462
-5.69692
-4.78319
-4.82651
-3.88189
-3.76831
-2.71819
-2.43054
-1.19176
-0.708832
0.797756
1.55645
3.33146
4.53669
6.61184
8.37796
10.868
13.2554
16.3768
19.389
23.4763
27.0026
32.5335
36.4151
43.7964
47.9359
57.566
61.77
74.3469
77.5782
94.4947
94.8283
116.511
114.158
136.934
135.786
157.209
17.3221
25.5373
21.8379
25.8792
24.7705
26.6383
26.5655
27.4434
27.6923
28.0409
28.4033
28.4231
28.8006
28.593
28.9317
28.5828
28.9022
28.4565
28.6571
28.1282
28.2121
27.5429
27.4356
26.6016
26.1012
25.0077
23.9441
22.5527
20.8201
19.0169
16.401
13.8847
10.0473
6.33644
0.926159
-4.36471
-11.5106
-18.6635
-27.8309
-36.5963
-46.7876
-55.9167
-65.0305
-71.3594
-75.5091
-75.0314
-70.9511
-63.4364
-53.7986
-42.4019
-30.8729
-20.3394
-10.3702
-2.23231
5.24523
11.2586
16.453
20.1809
22.6575
24.9753
26.2209
27.4342
27.8894
28.8824
28.7852
29.6186
29.0755
29.8956
29.18
29.7578
29.0508
29.363
28.8188
28.9451
28.5516
28.4765
28.3848
28.0713
28.2816
27.7339
28.2383
27.4996
28.1961
27.3405
28.057
27.2803
27.7675
27.3611
27.4028
27.3276
27.129
27.1882
26.8356
27.0125
26.5098
26.7821
26.1362
26.4527
25.7224
26.0042
25.2423
25.4804
24.5831
24.8331
23.7843
23.9012
22.8522
22.6705
21.6241
21.1227
19.9768
19.1233
17.8268
16.5556
15.0561
13.2919
11.5434
9.22083
7.17427
4.30358
1.91917
-1.41551
-4.1338
-7.78166
-10.7382
-14.4067
-17.3819
-20.7459
-23.3583
-25.9467
-27.7367
-29.0535
-29.6329
-29.3295
-28.6827
-26.9372
-25.4405
-22.7486
-20.9224
-18.0963
-16.5248
-14.3068
-13.3478
-11.9627
-11.3239
-10.784
-10.2242
-10.0769
-9.51722
-9.55524
-8.91866
-9.07908
-8.31427
-8.54624
-7.64597
-7.88246
-6.94716
-7.08157
-6.3364
-6.29682
-5.55976
-5.44205
-4.65005
-4.45669
-3.5218
-3.20026
-2.0769
-1.52947
-0.216145
0.663706
2.22784
3.51417
5.45332
7.1758
9.69013
11.8275
15.2291
17.715
22.3478
25.0946
31.381
34.3027
42.6834
45.5979
56.8168
58.9733
74.5142
74.3064
93.7888
94.2089
114.625
115.117
135.16
19.0744
27.0491
22.8486
26.6709
25.194
27.0024
26.6329
27.5122
27.6427
27.9496
28.3189
28.2483
28.7361
28.4768
28.9936
28.561
29.0198
28.588
28.7591
28.3364
28.3839
27.9262
27.7783
27.2613
26.8074
26.1423
25.2398
24.313
22.8235
21.4611
19.1667
17.0717
13.6563
10.3522
5.38841
0.172759
-6.86353
-14.3409
-23.535
-33.4834
-45.0699
-56.7548
-68.616
-78.4998
-85.6238
-88.2243
-85.9631
-78.5999
-67.6025
-54.0063
-40.3246
-27.4303
-15.6527
-5.77043
2.71526
9.91844
16.2956
20.889
22.9995
26.2047
27.1494
28.664
29.0509
30.1659
30.0997
30.7985
30.4988
30.9708
30.4219
30.7658
30.0825
30.1993
29.6559
29.5499
29.1393
28.8582
28.6994
28.2372
28.4456
27.7879
28.2703
27.5022
28.124
27.324
27.9505
27.2569
27.6506
27.329
27.2837
27.3058
27.0388
27.1777
26.7795
27.0237
26.5
26.8243
26.1753
26.5318
25.7984
26.129
25.3581
25.6579
24.8085
25.0703
24.1733
24.2508
23.4285
23.1885
22.3939
21.8698
20.972
20.1391
19.0758
17.8552
16.5619
14.8729
13.2853
11.0536
9.09548
6.31376
3.91911
0.654408
-2.21918
-5.80178
-9.09884
-12.8024
-16.2578
-19.7862
-23.0252
-25.9365
-28.4656
-30.208
-31.552
-31.6782
-31.6075
-29.9488
-28.3586
-25.218
-22.8388
-19.4028
-17.2766
-14.7413
-13.3601
-11.9953
-10.9562
-10.373
-9.49577
-9.25879
-8.41795
-8.41601
-7.58366
-7.79246
-7.11037
-7.4064
-6.55135
-6.95059
-6.07158
-6.32516
-5.72204
-5.71406
-5.10473
-4.98198
-4.30464
-4.10434
-3.27778
-2.95942
-1.93578
-1.4019
-0.178611
0.662235
2.1515
3.35279
5.23437
6.80954
9.29637
11.2202
14.6062
16.7787
21.4419
23.7845
30.051
32.4915
40.7416
43.0234
53.998
55.0742
69.5811
69.4177
85.7937
85.7045
102.909
103.047
120.045
19.0069
27.2063
22.6911
26.7922
25.0514
27.0334
26.567
27.4653
27.6053
27.9136
28.2777
28.289
28.7292
28.5784
29.0054
28.7628
29.1396
28.8789
29.0731
28.8101
28.8873
28.5841
28.4715
28.0912
27.6701
27.1016
26.2506
25.4531
24.1318
23.0235
21.0585
19.3034
16.3077
13.3453
8.83043
4.04535
-2.60738
-9.93827
-19.4442
-29.8003
-42.3132
-55.6536
-70.482
-84.1936
-96.2799
-102.742
-102.766
-95.6277
-83.095
-66.5762
-50.5116
-35.0452
-21.2518
-9.53249
0.182923
7.90692
16.1313
20.0336
24.1103
25.7879
27.8894
28.3775
28.9393
29.7824
29.5091
30.3097
29.9059
30.4041
29.8539
30.3081
29.594
29.788
29.2708
29.2412
28.9054
28.6379
28.6229
28.1037
28.4203
27.746
28.296
27.5323
28.2171
27.4278
28.0866
27.4271
27.8226
27.5166
27.4631
27.5122
27.2335
27.4184
26.9973
27.2837
26.7437
27.1105
26.4651
26.8638
26.1219
26.5085
25.7335
26.0621
25.2551
25.5123
24.7029
24.7613
24.0431
23.8167
23.105
22.6472
21.8358
21.0908
20.136
19.0175
17.8501
16.2705
14.8
12.6789
10.7978
8.1066
5.72162
2.47824
-0.45043
-4.19396
-7.59626
-11.67
-15.3552
-19.4729
-23.0901
-26.7299
-29.7329
-32.1662
-33.8672
-34.3225
-34.1374
-32.4176
-30.5783
-27.19
-24.3035
-20.2896
-17.5191
-14.3527
-12.7542
-11.3371
-10.4513
-10.2499
-9.78817
-9.89112
-9.43828
-9.63707
-8.97409
-9.24766
-8.52165
-8.85486
-7.97466
-8.21351
-7.34687
-7.43386
-6.8878
-6.85211
-6.29061
-6.23394
-5.67421
-5.55183
-4.91956
-4.73358
-3.91884
-3.62628
-2.63166
-2.11088
-0.902715
-0.11812
1.44643
2.47627
4.57491
5.8478
8.69463
10.1591
14.1102
15.6614
21.0671
22.6162
29.9013
31.283
41.1545
41.7256
54.168
55.2579
69.4626
70.9651
86.1289
87.2553
103.12
20.8887
28.646
23.7377
27.6301
25.5789
27.4815
26.8687
27.6182
27.7294
27.9036
28.3325
28.1746
28.7332
28.4655
29.0301
28.6841
29.2021
28.854
29.1259
28.8906
28.9882
28.8135
28.7133
28.5725
28.2286
28.0127
27.3105
26.8794
25.7396
24.9783
23.2884
21.9476
19.4195
17.0041
13.1163
8.86279
2.85021
-4.07077
-13.1691
-23.8976
-37.4662
-52.6643
-70.2901
-88.6301
-106.272
-118.881
-124.346
-120.613
-108.898
-88.3112
-67.3516
-47.6018
-30.479
-15.8484
-4.3552
5.04212
13.7298
20.7726
24.4874
28.1125
28.7763
30.3975
30.2118
31.5547
31.0869
31.7102
31.5817
31.7991
31.2999
31.5006
30.8078
30.7534
30.134
29.864
29.5171
28.9721
28.904
28.2637
28.5086
27.737
28.2681
27.4471
28.1136
27.3497
27.9817
27.3495
27.73
27.4548
27.3652
27.4654
27.1381
27.3896
26.9297
27.2972
26.7223
27.1724
26.4932
26.9726
26.2077
26.6595
25.8736
26.2475
25.4975
25.757
25.081
25.1146
24.6012
24.3371
23.8419
23.3929
22.817
22.1069
21.3969
20.3381
19.4079
17.9115
16.6455
14.6229
12.8794
10.267
7.92233
4.70035
1.67933
-2.1083
-5.77297
-9.9855
-14.1248
-18.5233
-22.7932
-26.9033
-30.7529
-33.8463
-36.5525
-37.7497
-38.5889
-37.342
-35.8376
-31.9693
-28.4986
-23.4166
-19.5585
-15.6883
-13.1725
-11.6202
-10.0807
-9.66384
-8.70833
-8.70528
-7.85077
-8.05054
-7.1428
-7.74039
-7.12221
-7.66696
-6.8505
-7.38664
-6.57657
-6.8504
-6.51318
-6.43745
-6.11385
-5.93052
-5.65394
-5.40141
-5.05709
-4.74906
-4.23327
-3.86129
-3.12729
-2.6202
-1.62102
-0.927202
0.423844
1.30555
3.18867
4.22796
6.94112
7.95338
11.7726
12.8172
17.9661
18.9893
25.6832
26.5951
35.2808
36.2692
46.6363
47.8121
59.6499
60.9865
74.1203
75.1978
89.2956
20.8888
29.2812
23.8497
28.1642
25.7256
27.816
26.9765
27.8686
27.7756
28.0571
28.3493
28.2607
28.7409
28.5352
29.0581
28.7839
29.2974
29.1132
29.2941
29.2365
29.2536
29.2292
29.0751
29.0542
28.6899
28.5665
27.9239
27.6276
26.6698
26.1182
24.7093
23.6362
21.4785
19.4309
16.05
12.3427
6.94325
0.616822
-7.88205
-18.0499
-31.0918
-46.9709
-66.3572
-88.6095
-112.625
-131.935
-143.139
-144.14
-133.776
-111.237
-85.4517
-61.0888
-39.8316
-21.9983
-8.38495
1.83751
11.5937
19.2397
25.3322
27.608
30.3423
29.9776
30.3471
30.529
30.6186
30.961
30.6884
31.1942
30.6995
30.9367
30.3769
30.3526
29.8983
29.6011
29.4278
28.9091
28.8788
28.1427
28.5586
27.6976
28.2987
27.4876
28.199
27.435
28.1543
27.4881
27.9303
27.6274
27.5495
27.6568
27.3135
27.6079
27.0904
27.5373
26.8894
27.4362
26.6776
27.2714
26.4308
27.0068
26.1332
26.6116
25.8025
26.1401
25.468
25.5392
25.0771
24.844
24.4156
24.0337
23.5482
22.9294
22.3423
21.4046
20.6269
19.2854
18.1757
16.3364
14.7435
12.3174
10.0985
7.02556
4.083
0.317758
-3.34141
-7.73289
-11.9719
-16.806
-21.4202
-26.2552
-30.7622
-34.7747
-38.2903
-40.3037
-41.5625
-40.4067
-38.7089
-34.6995
-30.5335
-24.7182
-19.6614
-14.4704
-11.361
-9.97657
-8.66338
-8.92789
-8.97117
-9.61168
-9.41663
-9.76534
-8.78286
-9.24274
-8.52783
-9.21952
-8.22593
-8.50168
-7.46955
-7.60792
-7.21084
-7.2183
-6.87995
-6.73579
-6.4949
-6.31494
-6.10285
-5.90008
-5.51427
-5.30085
-4.72466
-4.44097
-3.63369
-3.28761
-2.10601
-1.72191
-0.0472732
0.321839
2.73935
3.14864
6.35465
6.79624
11.1611
11.6153
17.4695
17.8979
25.4258
26.1151
35.2775
36.4253
47.0067
48.553
60.463
61.7293
75.2181
22.4307
30.7192
24.7868
29.142
26.3025
28.4247
27.2581
28.1975
27.9432
28.1704
28.4681
28.2539
28.8215
28.4541
29.0597
28.7142
29.2215
29.0085
29.2727
29.243
29.2938
29.383
29.2353
29.3927
29.0912
29.2064
28.6629
28.6193
27.7954
27.5322
26.3726
25.6858
23.9523
22.4104
19.6409
16.5399
11.9126
6.2947
-1.36051
-10.7224
-23.1881
-38.2548
-58.5584
-82.392
-110.37
-136.458
-156.336
-166.222
-164.808
-140.569
-110.252
-80.0202
-54.5323
-32.3113
-15.6163
-3.13845
7.11411
16.6302
24.1581
30.0431
31.129
33.2913
31.9157
32.3781
32.1376
32.5024
32.5919
32.6167
32.4067
32.2115
31.7219
31.2982
30.7946
30.227
29.9325
29.1422
29.1696
28.291
28.5194
27.6054
28.1947
27.2848
28.0446
27.2568
28.0359
27.363
27.8384
27.5523
27.46
27.5936
27.2054
27.5684
27.0093
27.5536
26.8418
27.5203
26.6822
27.4013
26.4821
27.1864
26.2214
26.8216
25.9296
26.3907
25.6761
25.8664
25.4364
25.2711
24.9841
24.6307
24.3376
23.7607
23.3933
22.5296
21.9878
20.7696
19.8943
18.2119
16.8279
14.552
12.4624
9.47568
6.55246
2.78458
-1.04875
-5.60338
-10.3242
-15.5368
-20.8661
-26.3064
-31.7688
-36.6563
-41.441
-44.5725
-47.4424
-47.3562
-46.8105
-42.7197
-38.4529
-31.1605
-24.15
-17.4383
-12.2067
-10.3386
-7.86711
-7.4976
-6.81084
-7.36745
-6.87911
-7.47911
-6.5886
-7.09949
-6.87537
-7.8529
-7.29744
-7.81525
-7.02239
-7.2457
-7.09495
-6.92139
-6.8442
-6.55728
-6.57431
-6.30299
-6.32024
-6.05482
-5.94536
-5.69514
-5.41155
-5.10382
-4.58192
-4.20547
-3.37295
-2.99702
-1.64688
-1.35532
0.715867
0.908555
3.83414
3.90747
7.8808
7.93718
12.9566
13.0396
19.5895
19.6994
27.8485
28.0286
37.5858
38.0124
49.0448
49.3896
62.1806
22.5882
31.5534
25.1018
29.7923
26.689
28.8759
27.6085
28.5409
28.1589
28.4559
28.5804
28.436
28.9384
28.5295
29.179
28.769
29.309
29.2395
29.3444
29.4645
29.3699
29.6002
29.3782
29.6398
29.3042
29.5017
29.0141
29.057
28.3699
28.2204
27.2575
26.7419
25.313
24.0925
21.8245
19.2992
15.3942
10.5963
3.90696
-4.40755
-15.4203
-29.6086
-47.623
-71.524
-100.531
-129.614
-154.817
-172.41
-177.912
-162.787
-130.598
-97.2672
-65.9245
-41.189
-20.4767
-7.52181
4.17486
13.711
21.6692
29.109
29.0965
32.4882
31.9501
31.5462
30.9732
31.3594
31.0747
31.7642
31.5344
31.8392
31.2642
31.045
30.6507
30.1341
30.0681
29.226
29.217
28.2468
28.6555
27.5901
28.2224
27.2787
28.1345
27.2932
28.2262
27.4663
28.0597
27.731
27.6334
27.7721
27.3556
27.7635
27.0845
27.7547
26.9482
27.7054
26.7908
27.6512
26.6162
27.482
26.4051
27.1438
26.1415
26.7028
25.9417
26.1848
25.7792
25.6316
25.4161
25.1037
24.9065
24.4042
24.1651
23.4133
23.0241
21.97
21.2627
19.7896
18.5905
16.5618
14.674
11.9259
9.17286
5.56057
1.88938
-2.64603
-7.17477
-12.5904
-17.9539
-23.956
-29.9719
-35.8034
-41.7126
-46.0693
-50.2
-51.2688
-51.1778
-47.4627
-42.5251
-34.9275
-25.7036
-15.6546
-8.50195
-6.99037
-5.19369
-6.40944
-7.22435
-9.41794
-10.1536
-9.84534
-8.59469
-8.46775
-7.89137
-9.67844
-8.71131
-8.71699
-7.40758
-7.45787
-7.44972
-7.54699
-7.41124
-7.05753
-7.00244
-6.82022
-6.99888
-6.77186
-6.76849
-6.58819
-6.47517
-6.22807
-6.00086
-5.74484
-5.19195
-4.96696
-4.02426
-4.02761
-2.34416
-2.50425
-0.188127
-0.519137
2.67531
2.42428
6.36349
6.19364
11.469
11.4856
18.2636
18.8447
26.5639
27.5634
36.9536
37.6188
49.5551
23.9105
32.9827
25.9438
30.6902
27.2628
29.4052
27.9755
28.8156
28.4116
28.5488
28.7536
28.4342
29.0205
28.4569
29.2308
28.5886
29.281
29.0581
29.2456
29.4436
29.3204
29.6651
29.4021
29.8078
29.5217
29.852
29.4172
29.6182
28.9984
29.0548
28.2647
28.0197
26.8679
25.9598
24.1188
22.054
18.8705
14.7732
9.14817
1.82838
-7.61857
-20.0919
-36.009
-57.5466
-82.7043
-112.025
-139.548
-162.473
-175.299
-170.009
-140.614
-111.798
-79.2248
-53.661
-29.5534
-14.4441
-2.06405
9.21117
19.0853
27.6398
33.2425
31.9588
34.0672
33.5073
32.6863
33.1343
32.7669
33.0653
32.9854
33.1555
32.3777
32.0954
31.3032
30.5338
30.5012
29.4811
29.5557
28.3599
28.618
27.4817
28.0402
27.004
27.8501
26.9985
28.0617
27.3155
27.9476
27.7196
27.5216
27.739
27.2471
27.7465
27.015
27.8054
26.8779
27.8503
26.7614
27.8276
26.6429
27.6824
26.4822
27.3675
26.225
26.9265
26.0852
26.4157
26.002
25.9707
25.8676
25.5318
25.5136
25.0198
24.9837
24.2961
24.1258
23.2156
22.7588
21.4868
20.5436
18.7288
17.071
14.5139
11.9548
8.4574
4.81519
0.23305
-4.61773
-10.1772
-16.218
-22.6438
-29.6339
-36.3012
-43.6285
-49.3259
-55.631
-58.305
-60.3985
-57.9
-54.2101
-46.036
-35.9658
-23.3739
-11.0329
-7.33155
-3.7825
-2.37424
-2.3292
-3.60007
-5.75036
-8.73814
-6.71467
-6.24168
-5.62487
-7.46726
-8.28361
-9.03545
-7.53155
-7.32533
-7.15476
-7.10445
-7.46616
-7.0058
-7.06391
-6.74288
-7.06652
-6.87246
-7.08014
-6.90888
-7.05542
-6.81127
-6.78305
-6.47153
-6.30882
-6.05507
-5.38617
-5.41289
-4.16936
-4.3848
-2.32453
-3.10491
-0.21611
-0.795012
2.48214
1.72916
6.39149
5.33452
11.5322
10.6757
17.9728
17.0599
25.9129
24.8756
36.8923
24.1183
33.8526
26.4125
31.307
27.8014
29.8453
28.4528
29.1153
28.8137
28.7273
29.0797
28.5583
29.2806
28.5227
29.4436
28.6361
29.3803
29.1745
29.2069
29.5579
29.2675
29.7139
29.4124
29.8282
29.5082
29.9151
29.5348
29.7782
29.2602
29.3461
28.6741
28.5063
27.5897
26.8706
25.4035
23.7053
21.1197
17.6942
13.0007
6.71712
-1.35592
-12.0947
-25.5129
-43.5013
-65.5804
-90.685
-115.889
-137.651
-152.058
-155.135
-140.008
-115.93
-86.0506
-59.1962
-34.9804
-17.061
-5.98922
6.11896
14.6006
23.9391
29.2081
31.3258
29.9108
32.4931
30.3575
31.9256
30.7696
31.8089
32.0451
32.5835
32.0432
31.8945
31.6197
30.5889
30.7148
29.6108
29.7231
28.4908
28.7607
27.5154
28.0915
26.9603
27.9121
27.0176
28.1126
27.3788
28.142
27.915
27.7066
27.9059
27.3557
27.9054
26.9581
27.9466
26.8685
27.9781
26.7771
28.0137
26.703
27.9144
26.5957
27.6349
26.3791
27.1599
26.2489
26.6178
26.2081
26.1589
26.1196
25.8298
25.876
25.4422
25.5053
24.9143
24.8536
24.1017
23.793
22.7494
21.9987
20.4756
19.049
16.7867
14.4454
11.2277
7.84137
3.45723
-1.03124
-6.67946
-12.2761
-18.963
-26.0676
-33.1973
-41.4196
-47.7951
-55.5042
-60.0653
-63.6329
-62.2713
-59.5765
-53.958
-40.7573
-23.8549
-6.10565
-1.62335
-0.842997
-3.1425
-5.0323
-7.80823
-10.3858
-10.9526
-9.09428
-7.12523
-6.01684
-9.49837
-9.65147
-9.30589
-7.38442
-6.87029
-7.43977
-8.01295
-7.77993
-7.21371
-7.02807
-6.95148
-7.41374
-7.19103
-7.42824
-7.27586
-7.53455
-7.29639
-7.49787
-7.31714
-7.24157
-7.00128
-6.70881
-6.96396
-5.92142
-6.28252
-4.68652
-5.82569
-3.6138
-4.21085
-2.10423
-3.04849
0.423512
-1.1244
4.1193
3.97294
8.66861
9.13736
14.4814
14.6123
23.9205
25.3472
35.1091
27.1524
31.9896
28.2967
30.2497
28.7568
29.2369
29.0925
28.7293
29.2649
28.5401
29.3631
28.4993
29.4665
28.6058
29.3399
29.1164
29.1225
29.5908
29.0881
29.7644
29.2922
29.8782
29.5985
29.9668
29.62
29.9589
29.4533
29.6819
29.0808
29.0365
28.2584
27.6838
26.4719
24.9912
22.877
19.8636
15.9705
10.4384
3.54745
-5.95827
-17.5287
-33.0529
-51.574
-74.1351
-97.1747
-119.05
-134.053
-140.915
-131.463
-114.935
-89.9321
-66.2109
-42.7198
-23.9684
-11.0309
3.62927
14.6715
25.0996