/*--------------------------------*- C++ -*----------------------------------*\
| =========                 |                                                 |
| \\      /  F ield         | OpenFOAM: The Open Source CFD Toolbox           |
|  \\    /   O peration     | Version:  4.1                                   |
|   \\  /    A nd           | Web:      www.OpenFOAM.org                      |
|    \\/     M anipulation  |                                                 |
\*---------------------------------------------------------------------------*/
FoamFile
{
    version     2.0;
    format      ascii;
    class       volScalarField;
    location    "108";
    object      p;
}
// * * * * * * * * * * * * * * * * * * * * * * * * * * * * * * * * * * * * * //

dimensions      [0 2 -2 0 0 0 0];

internalField   nonuniform List<scalar> 
204246
(
124.261
-4.46469
40.7435
23.3813
19.9532
26.7592
15.2818
26.8174
13.7973
26.5479
12.9694
26.9983
11.2503
27.1294
12.2815
24.3979
18.511
13.0038
25.1091
10.4228
26.3101
10.7451
24.971
11.5275
24.8986
11.4047
25.8619
9.75934
26.8866
9.59815
27.0128
10.1659
26.2511
12.7678
22.5422
19.1364
12.5205
24.9171
11.264
24.7012
11.7015
24.8663
11.4564
25.7905
9.7127
26.6199
9.54034
26.2583
10.6931
23.9151
12.8436
21.3018
18.3734
11.2723
23.7241
9.83899
23.2375
10.0954
23.2253
9.7094
24.0511
7.87793
24.8586
7.68344
24.5608
8.8365
22.3791
11.0904
19.9355
16.5522
10.9573
20.7274
9.67357
21.8067
9.33717
22.2844
8.9528
23.3469
7.24076
24.3141
7.17856
24.1265
8.4488
21.9979
10.7786
19.6325
16.2633
10.6994
20.469
9.30983
21.656
8.58949
22.7992
6.61009
23.6911
6.05754
23.6152
5.91043
22.9415
6.61253
20.6456
7.27956
19.4193
7.83278
17.256
11.0874
7.30786
15.3829
3.83513
15.9533
0.629396
14.145
0.260274
10.6736
-2.10886
7.32182
-5.44132
3.66573
-9.30514
-0.698219
-13.0575
-6.51615
-13.134
-19.0345
-15.8021
-26.0435
-17.9791
-32.469
-21.2068
-37.8502
-24.1505
-41.6793
-26.0261
-43.1067
-27.0725
-42.9593
-27.661
-40.3913
-29.0098
-33.1087
-37.101
-24.4508
-37.2811
-20.6775
-35.3234
-17.9824
-33.2155
-15.82
-31.1815
-13.95
-29.2614
-12.3475
-27.119
-11.3627
-23.6315
-12.0437
-15.9713
-19.8833
-7.57121
-19.938
-3.79744
-17.4399
-1.28519
-13.4861
1.72939
-8.83455
5.71438
-3.10063
10.7764
3.79696
17.0161
12.6523
24.9351
24.1073
34.3297
40.8123
43.0057
56.8395
61.3708
74.6665
84.4013
97.7427
112.069
126.963
146.915
164.728
193.016
215.667
259.575
288.507
376.249
392.165
599.211
49.4683
22.7588
23.4263
26.6697
20.1487
24.3086
18.6019
23.0283
17.8232
22.3597
17.2036
22.1788
16.9014
21.0528
18.1023
18.6707
21.2218
15.5154
21.0451
15.5706
20.6495
16.0703
20.2375
15.9489
20.4482
15.6376
21.0164
15.2869
20.9742
15.5077
20.7436
16.1557
19.8409
17.8637
17.892
20.9272
15.4695
20.631
16.0343
20.3082
16.0189
20.542
15.7256
21.0327
15.3364
20.7803
15.5449
20.14
16.2856
18.9718
17.2463
17.0462
20.0475
14.4248
19.467
14.7455
18.8886
14.5026
18.9225
14.0323
19.2806
13.5311
18.9686
13.6996
18.35
14.485
17.2427
15.519
15.5567
18.1315
13.5014
17.6785
13.4674
17.7624
13.4387
17.9982
13.1691
18.5354
12.8464
18.3843
13.1708
17.9007
14.0838
16.9105
15.1872
15.259
17.8601
13.2413
17.485
13.114
17.6925
12.791
18.1883
12.2962
18.0054
12.197
17.6671
12.187
16.9936
12.4393
16.075
12.2243
15.0684
12.5339
13.0483
14.3453
9.68504
13.2314
8.27468
12.2661
6.82098
10.0085
5.19792
8.12874
2.71977
5.64658
-0.438449
2.34673
-3.79021
-2.17018
-6.8983
-8.65084
-8.38925
-15.4238
-14.5458
-21.7237
-18.9587
-27.0114
-23.4463
-31.5921
-27.6733
-34.7813
-31.3517
-36.7813
-33.2893
-37.3105
-34.1338
-35.9693
-34.9107
-31.9696
-35.7351
-29.5001
-33.4158
-27.1604
-30.8925
-24.7587
-28.5116
-22.6134
-26.4007
-20.7283
-24.4565
-19.1621
-22.366
-18.0902
-19.6167
-18.2253
-14.9891
-18.8159
-12.8462
-16.5285
-10.6311
-13.7443
-7.98074
-10.8235
-4.84755
-7.21924
-1.06609
-2.62544
3.75013
3.09738
9.10715
10.7556
15.9811
20.4723
24.0721
32.7803
36.4351
45.4791
52.0224
61.5302
71.2022
81.6435
94.6734
106.22
123.408
136.221
159.44
172.842
208.096
214.735
289.464
254.898
389.58
14.8926
30.6894
22.6898
25.9476
21.1894
24.075
19.247
22.9036
18.3235
22.2653
17.7324
21.8127
17.5005
20.9142
18.17
19.1549
19.7108
17.1093
20.2172
16.3242
20.3604
16.2071
20.2511
16.1183
20.3257
15.9566
20.5768
15.775
20.661
15.8968
20.5305
16.4414
19.8723
17.6628
18.3917
19.3685
16.834
19.9373
16.4199
20.1759
16.2404
20.3703
16.0401
20.5794
15.8064
20.4867
15.873
20.0411
16.3235
19.0944
17.1449
17.5245
18.5325
15.7798
18.8119
15.1312
18.7882
14.7354
18.78
14.3561
18.8505
14.0021
18.6898
14.0157
18.2529
14.4768
17.4069
15.3467
16.0484
16.753
14.577
17.1685
13.9565
17.5163
13.7046
17.7797
13.4694
18.0616
13.2691
18.072
13.4307
17.7683
14.0176
17.0213
14.9878
15.7369
16.445
14.2665
16.9346
13.5652
17.359
13.1086
17.6636
12.6801
17.6518
12.4414
17.4202
12.3295
16.8951
12.3587
16.0663
12.3057
14.9724
12.4973
13.1815
13.0807
10.7488
12.728
8.91015
11.9329
7.31675
10.3434
5.9578
7.64873
3.65504
4.91987
0.540663
1.69688
-3.00034
-2.5365
-6.44031
-8.30647
-10.0872
-14.0359
-15.0488
-19.5943
-19.9926
-25.2335
-24.5321
-30.148
-28.6759
-33.9909
-31.6353
-36.5412
-33.4152
-37.3965
-34.3369
-36.2827
-34.9812
-33.1931
-35.0043
-30.3099
-33.2783
-27.5011
-30.9053
-24.8955
-28.4455
-22.5755
-26.2223
-20.5748
-24.2127
-18.9347
-22.1358
-17.9111
-19.3233
-17.7985
-15.7719
-17.3426
-13.1126
-15.9249
-10.4743
-13.6027
-8.01465
-10.2651
-5.12914
-6.32651
-1.51056
-1.64708
3.12836
4.24978
9.11327
11.5615
16.4794
20.9675
26.0028
32.4811
37.4511
46.4175
53.0033
63.23
72.8904
84.108
97.6595
110.165
128.745
142.606
168.265
182.95
222.656
230.557
306.727
285.453
374.236
7.20767
20.8683
17.4037
22.8669
18.803
22.5491
19.1008
21.4346
19.0823
20.704
18.8977
20.1478
18.9559
19.2107
19.5292
18.0632
20.1611
17.4326
19.4682
17.5055
18.9414
17.621
18.7396
17.4838
18.7997
17.3408
18.9315
17.3491
18.8152
17.5793
18.5866
18.0747
18.0969
18.9281
17.4351
19.6946
17.2452
19.1934
17.5535
18.979
17.5747
19.0108
17.4967
19.0612
17.4897
18.7799
17.6404
18.3206
17.9475
17.6922
18.3535
16.8129
18.8712
16.339
18.1153
16.3692
17.6138
16.1219
17.4207
15.8309
17.3042
15.6793
16.9266
15.7635
16.4483
16.0784
15.8682
16.5415
15.1658
17.1048
14.9067
16.6036
14.9307
16.4232
14.9418
16.4396
14.8883
16.515
14.9435
16.3134
15.2033
15.9883
15.6598
15.5376
16.2112
14.912
16.8827
14.6691
16.4634
14.6543
16.3488
14.5682
16.3452
14.492
16.0989
14.4461
15.7687
14.4077
15.3056
14.3618
14.7989
14.1524
13.9837
14.0932
12.8487
14.1836
11.7721
12.8111
10.7206
11.5368
9.50774
9.91719
8.06614
8.11943
5.80436
5.86361
2.88746
2.84104
-0.256833
-1.27137
-3.67752
-6.72612
-7.73826
-11.719
-13.1949
-16.8562
-18.8649
-22.2325
-24.2496
-27.1339
-29.1006
-31.3415
-33.1722
-34.4306
-35.879
-35.9735
-37.0179
-35.7187
-36.909
-34.1581
-35.4932
-32.5526
-32.7175
-30.3222
-29.9627
-27.912
-27.412
-25.6628
-25.257
-23.6727
-23.3437
-22.0364
-21.4614
-20.6783
-19.4528
-19.9113
-17.3022
-18.3427
-15.6282
-16.3008
-13.9264
-13.9306
-11.7283
-11.3099
-9.02962
-8.30925
-5.68847
-4.63362
-1.56409
-0.0339185
3.32238
6.10962
9.51432
13.7335
17.2684
23.4323
27.5379
34.4311
40.529
47.8359
56.4908
64.293
75.8786
84.157
99.3747
108.138
128.728
135.772
168.85
163.724
221.212
208.073
279.172
5.56216
21.5647
15.9606
21.7322
19.0609
21.5929
19.6837
21.2112
19.5627
20.6738
19.3448
20.1199
19.314
19.3706
19.4859
18.5208
19.4888
18.2693
19.0283
18.0845
18.7875
17.889
18.7379
17.6937
18.7595
17.5973
18.7866
17.6592
18.7055
17.8354
18.5534
18.1906
18.2204
18.6717
17.8629
18.9778
17.9103
18.7664
17.9165
18.8253
17.8093
18.8968
17.7398
18.8856
17.7719
18.6861
17.8484
18.3428
17.994
17.8585
18.1757
17.2244
18.2014
17.0396
17.7361
16.7823
17.5113
16.4123
17.3503
16.1199
17.1583
15.9956
16.8409
15.9863
16.4654
16.1126
16.0341
16.3369
15.5468
16.4807
15.4786
16.2516
15.3267
16.2337
15.1999
16.2765
15.1181
16.2877
15.1782
16.1603
15.3436
15.9373
15.6141
15.6268
15.9529
15.2094
16.1746
15.1633
16.0122
14.9838
16.0268
14.7986
16.0135
14.6905
15.8467
14.5924
15.6008
14.4442
15.267
14.3144
14.766
14.2082
13.927
14.0319
13.0198
13.4774
12.0938
12.8311
11.0918
11.6583
9.88782
10.1345
8.33616
8.19035
6.31446
5.79574
3.81586
2.55506
0.689525
-1.47163
-2.80835
-5.83823
-7.40734
-10.7429
-12.584
-16.1139
-18.155
-21.4839
-23.7034
-26.6739
-28.7317
-31.1351
-32.9135
-34.4766
-35.8702
-36.3776
-37.3
-36.7287
-37.1969
-35.4806
-35.7181
-33.435
-33.1868
-30.8578
-30.2013
-28.1381
-27.2385
-25.5205
-24.8197
-23.3323
-22.8147
-21.5579
-21.0497
-20.2788
-19.0886
-18.9527
-17.1534
-17.448
-15.4821
-15.5083
-13.5092
-13.3193
-11.2477
-10.6589
-8.42219
-7.61505
-5.00843
-3.90139
-0.853924
0.886041
4.26201
6.95134
10.7505
14.6957
18.9583
24.3352
29.5152
36.1934
43.043
50.7632
60.0363
68.6352
81.0958
90.4299
106.89
116.495
139.033
146.762
181.11
178.05
227.338
215.973
261.072
5.19587
16.9939
13.7949
18.6245
17.3362
19.7681
18.7063
20.0108
19.2728
19.7697
19.4185
19.369
19.4896
18.9066
19.5901
18.3851
19.401
18.2219
18.8143
18.2892
18.3402
18.1804
18.1814
18.0426
18.1405
17.9833
18.117
18.0693
18.0187
18.2564
17.8901
18.5553
17.7538
18.8528
17.6427
18.9731
17.9351
18.6065
18.1599
18.4816
18.2181
18.4415
18.243
18.3647
18.3155
18.1521
18.382
17.8665
18.4007
17.5876
18.4311
17.2282
18.2259
17.1381
17.6637
17.1082
17.1591
16.8243
16.8825
16.6024
16.5938
16.4969
16.2434
16.4682
15.9051
16.4922
15.643
16.5414
15.3669
16.49
15.4714
16.0959
15.5512
15.9072
15.5763
15.8268
15.6001
15.7536
15.7159
15.5924
15.8865
15.4301
16.0754
15.2888
16.246
15.1745
16.2994
15.284
15.9834
15.369
15.8228
15.3742
15.6874
15.4162
15.4563
15.363
15.2145
15.2823
14.9435
15.0787
14.67
14.8522
14.1336
14.6295
13.4437
14.239
12.7283
13.3332
12.0336
12.2151
11.1293
10.8075
9.91836
9.05351
8.06731
6.85313
5.63751
4.02621
2.73563
0.51211
-1.01273
-3.73481
-5.36153
-8.64472
-10.6024
-14.0526
-16.4307
-19.866
-22.346
-25.5313
-27.9707
-30.6222
-32.8581
-34.6435
-36.4486
-37.1434
-38.3673
-37.8991
-38.5138
-37.0607
-36.8955
-34.9342
-34.2199
-32.2011
-31.2243
-29.3596
-28.3076
-26.8196
-25.7554
-24.6946
-23.689
-22.9644
-21.9634
-21.7111
-20.3975
-20.5833
-18.9382
-18.9883
-17.4958
-17.2605
-15.8323
-15.374
-13.8755
-13.2384
-11.5722
-10.7403
-8.83671
-7.74692
-5.57344
-3.97866
-1.53128
0.804454
3.53757
6.87102
10.0548
14.4491
18.5532
23.6185
29.2955
34.8357
42.6812
48.5832
59.0769
65.2897
79.1074
85.0391
103.892
107.103
137.53
131.082
172.26
169.753
210.348
7.37024
18.2005
14.2311
18.7683
17.5583
19.6066
19.0136
19.9454
19.6201
19.849
19.721
19.5491
19.7351
19.1257
19.5763
18.6796
19.3022
18.6505
18.7996
18.5993
18.3941
18.4359
18.2404
18.265
18.1892
18.1966
18.1613
18.2534
18.0733
18.3911
17.9911
18.5919
17.8943
18.7703
17.9012
18.7121
18.2132
18.4488
18.3682
18.4255
18.3862
18.4245
18.3984
18.3704
18.4491
18.2459
18.4802
18.0328
18.4654
17.7511
18.3642
17.4808
18.1091
17.4792
17.6368
17.368
17.2145
17.089
16.9232
16.8478
16.645
16.7049
16.3356
16.613
16.0351
16.5446
15.8038
16.4897
15.5783
16.2923
15.7559
15.9679
15.786
15.8361
15.7529
15.7746
15.7358
15.7062
15.791
15.6223
15.9084
15.4813
16.0225
15.3532
16.0979
15.2338
16.0118
15.4586
15.735
15.5023
15.6248
15.4773
15.5081
15.4104
15.3795
15.3977
15.1385
15.2617
14.901
15.0466
14.6103
14.7872
14.0761
14.495
13.4727
14.0004
12.9649
13.2181
12.3227
12.1901
11.4205
10.9202
10.204
9.32551
8.54159
7.26408
6.27583
4.66277
3.43922
1.40297
0.0180073
-2.61232
-4.30107
-7.31035
-9.44558
-12.7109
-15.2128
-18.5617
-21.2998
-24.4732
-27.2198
-29.948
-32.4597
-34.4439
-36.4749
-37.4579
-38.8255
-38.6861
-39.3103
-38.1331
-38.0723
-36.0471
-35.2341
-32.8921
-31.6975
-29.5232
-28.2402
-26.4399
-25.439
-24.0741
-23.1612
-22.326
-21.319
-20.9461
-19.6891
-19.6526
-18.2107
-18.2451
-16.6931
-16.5513
-14.9042
-14.6342
-12.9063
-12.4095
-10.5463
-9.88133
-7.78278
-6.82855
-4.47297
-2.99235
-0.349932
1.86573
4.91765
8.03142
11.7063
15.804
20.5275
25.4636
31.792
37.3991
45.8548
51.9995
63.1209
69.5759
84.058
90.1139
109.77
111.977
139.903
136.564
167.769
163.926
192.728
6.96031
16.3119
13.032
16.9938
16.3051
18.1782
18.0623
18.9232
19.0111
19.1481
19.4208
19.1074
19.509
18.9112
19.4531
18.6296
19.1005
18.5298
18.6606
18.4639
18.2789
18.2723
18.0121
18.1445
17.9019
18.1288
17.8396
18.2177
17.773
18.3619
17.7293
18.5525
17.6906
18.7165
17.8079
18.6418
18.1715
18.3762
18.3765
18.2856
18.4984
18.253
18.552
18.1915
18.5752
18.0995
18.601
17.9441
18.5855
17.7392
18.458
17.5152
18.0929
17.5035
17.6231
17.3849
17.2073
17.1092
16.8081
16.8741
16.4777
16.7108
16.1645
16.5947
15.8653
16.5081
15.647
16.4298
15.5074
16.189
15.6977
15.851
15.8077
15.6921
15.8442
15.598
15.8791
15.5157
15.9565
15.4365
16.0242
15.3404
16.1244
15.2763
16.2211
15.3321
16.0624
15.5789
15.7825
15.7059
15.6337
15.7236
15.5585
15.7661
15.36
15.7834
15.1725
15.7126
14.9775
15.5028
14.814
15.244
14.4436
15.004
13.9411
14.5397
13.5729
13.7428
13.0783
12.9123
12.3144
11.8614
11.2642
10.4725
9.77422
8.64876
7.7396
6.24298
5.13861
3.15306
1.79739
-0.651345
-2.38838
-5.29643
-7.47455
-10.7435
-13.3767
-16.8926
-19.8492
-23.3646
-26.4312
-29.6204
-32.5105
-34.9823
-37.3689
-38.7831
-40.3861
-40.5378
-41.1816
-40.098
-39.7475
-37.8777
-36.7693
-34.5264
-33.0445
-30.9115
-29.4135
-27.6941
-26.3602
-25.2161
-24.0316
-23.4601
-22.3529
-22.2479
-21.0973
-21.2515
-19.9931
-20.0033
-18.7827
-18.5921
-17.2945
-16.9295
-15.5881
-15.0791
-13.6407
-12.9846
-11.4554
-10.5764
-8.90843
-7.65892
-5.77041
-4.00444
-1.76499
0.651196
3.46845
6.55105
10.3537
13.965
19.1545
23.1732
30.2765
34.5739
44.0557
48.5245
61.0436
64.8177
82.5064
83.2252
107.796
105.888
134.341
134.248
161.273
9.26429
18.0306
14.177
18.0828
16.935
18.6823
18.4963
19.2047
19.3399
19.3784
19.6842
19.3132
19.7271
19.1156
19.6058
18.8669
19.2603
18.8073
18.7709
18.7286
18.4138
18.5168
18.1439
18.3668
18.0032
18.3266
17.9101
18.3984
17.8474
18.5071
17.8336
18.6421
17.8132
18.7026
17.9534
18.5777
18.2854
18.3609
18.4576
18.3189
18.5599
18.3406
18.6206
18.3026
18.6763
18.2153
18.714
18.0695
18.688
17.903
18.5249
17.7632
18.159
17.7683
17.6956
17.6209
17.3406
17.3667
16.9716
17.1319
16.6219
16.9401
16.3009
16.7762
16.0087
16.6226
15.8104
16.4699
15.6882
16.1843
15.8613
15.8625
15.9336
15.7119
15.9555
15.6261
15.9499
15.5439
15.9915
15.4643
16.0545
15.3707
16.1142
15.306
16.0869
15.3672
15.9187
15.6031
15.6591
15.6987
15.5778
15.7093
15.4594
15.731
15.2897
15.7259
15.1186
15.616
14.9459
15.4196
14.7322
15.1553
14.3644
14.8963
13.9577
14.4294
13.6757
13.6937
13.1709
12.9775
12.4915
12.0509
11.5708
10.8415
10.2833
9.23355
8.5134
7.09915
6.16073
4.34586
3.10554
0.832741
-0.840019
-3.56006
-5.78997
-8.90104
-11.675
-15.0834
-18.3051
-21.7981
-25.2284
-28.5052
-31.8197
-34.4797
-37.293
-38.9702
-40.9588
-41.4179
-42.4071
-41.653
-41.5903
-39.6474
-38.4799
-35.8368
-34.0411
-31.4227
-29.6049
-27.5119
-26.0755
-24.661
-23.4658
-22.7136
-21.5479
-21.3508
-20.118
-20.1576
-19.034
-19.0424
-17.8113
-17.6798
-16.3072
-16.0279
-14.5983
-14.172
-12.6931
-12.0838
-10.5014
-9.71187
-7.95625
-6.82725
-4.82454
-3.22992
-0.823572
1.36516
4.42024
7.27716
11.3368
14.7523
20.2733
24.0796
31.47
35.5439
45.2087
49.3231
61.9771
65.1548
82.0565
82.4127
104.06
101.71
124.482
123.333
144.755
8.77466
17.1278
13.2853
17.1993
16.0706
17.7567
17.7631
18.4373
18.7844
18.8539
19.2933
19.005
19.4699
18.95
19.3919
18.8032
19.0492
18.6808
18.6352
18.5232
18.2596
18.281
17.9402
18.1229
17.7548
18.0813
17.6741
18.1546
17.6394
18.3013
17.6448
18.4881
17.7008
18.5958
17.8793
18.5111
18.2416
18.309
18.4371
18.2609
18.553
18.2581
18.6525
18.236
18.7259
18.1747
18.7738
18.0729
18.7281
17.9613
18.52
17.825
18.1363
17.76
17.7004
17.5739
17.3098
17.2857
16.9139
17.0226
16.5449
16.8061
16.2069
16.6305
15.9081
16.472
15.689
16.3186
15.5991
16.0585
15.7698
15.7607
15.8746
15.6418
15.899
15.5653
15.9349
15.4899
16.0002
15.4149
16.0814
15.3405
16.147
15.3317
16.149
15.4521
15.9815
15.7073
15.7426
15.8049
15.6529
15.901
15.5682
15.9732
15.4337
15.978
15.3095
15.9234
15.1785
15.759
15.0489
15.5491
14.7572
15.3114
14.404
14.872
14.1949
14.2475
13.8305
13.6304
13.2624
12.8452
12.4734
11.7983
11.3443
10.3795
9.75772
8.45403
7.596
5.89904
4.72231
2.60463
0.967128
-1.60695
-3.79477
-6.85494
-9.64208
-13.1749
-16.5265
-20.3687
-24.0933
-27.9235
-31.6611
-34.9992
-38.2553
-40.5942
-42.9257
-43.8442
-44.8526
-44.1567
-43.7769
-41.8554
-40.3756
-37.7303
-35.5913
-32.8744
-30.6653
-28.4931
-26.6629
-25.3569
-23.9377
-23.4331
-22.3235
-22.3933
-21.4017
-21.6612
-20.7156
-20.8585
-19.8293
-19.7357
-18.5333
-18.2099
-16.9515
-16.5085
-15.2496
-14.7257
-13.4614
-12.8288
-11.5376
-10.6859
-9.21057
-8.05951
-6.25018
-4.69524
-2.30984
-0.304508
3.01194
5.40793
9.99063
12.6586
18.9623
21.8054
30.2525
33.0883
44.3481
46.5388
62.0143
61.8835
81.313
81.7503
102.165
102.658
122.712
10.8213
19.0688
14.631
18.5365
17.0443
18.6345
18.3728
18.9678
19.1899
19.1935
19.5812
19.2669
19.6892
19.1885
19.5972
19.0316
19.2828
18.9456
18.8118
18.8198
18.4247
18.5605
18.1015
18.3775
17.8844
18.3143
17.7589
18.3503
17.7129
18.4409
17.713
18.5614
17.7543
18.6161
17.9446
18.4961
18.2675
18.3124
18.4769
18.2783
18.6051
18.3095
18.7025
18.3066
18.7892
18.2702
18.8594
18.1879
18.8529
18.1105
18.6646
18.0327
18.2925
18.012
17.8322
17.83
17.476
17.5527
17.0959
17.2878
16.722
17.0602
16.3768
16.8588
16.0546
16.6665
15.8214
16.4525
15.7139
16.1258
15.8722
15.8129
15.9468
15.6789
15.9556
15.5796
15.9771
15.4832
16.028
15.395
16.0989
15.3233
16.1441
15.2957
16.0559
15.4225
15.8833
15.6597
15.6555
15.7718
15.5286
15.8073
15.4532
15.8535
15.3516
15.8798
15.2189
15.8589
15.0905
15.6915
14.9599
15.4542
14.6946
15.2382
14.4046
14.8267
14.2353
14.194
13.8923
13.681
13.4263
13.0351
12.8009
12.1887
11.9012
11.0354
10.6086
9.44139
8.78156
7.26538
6.26129
4.34935
2.8507
0.470996
-1.67299
-4.56724
-7.43064
-10.8514
-14.4206
-18.2552
-22.3524
-26.3115
-30.5401
-34.1398
-37.9566
-40.6286
-43.5562
-44.9582
-46.6676
-46.5572
-46.7625
-44.9864
-43.5208
-40.4047
-37.8566
-34.4523
-31.7178
-29.001
-26.813
-25.2226
-23.4995
-22.7803
-21.3989
-21.3415
-20.1463
-20.3236
-19.5174
-19.6888
-18.8501
-18.8499
-17.7663
-17.4831
-16.325
-15.8923
-14.7535
-14.177
-13.0377
-12.3382
-11.1117
-10.3564
-8.90081
-7.95129
-6.16772
-4.89854
-2.52288
-0.812923
2.51139
4.57362
9.22167
11.4663
17.7493
20.0916
28.3977
30.5636
41.5927
42.6944
57.0637
57.0489
73.3331
73.2363
90.4568
90.5731
107.589
10.4407
18.4294
14.1729
17.7654
16.4041
18.0974
17.8646
18.5092
18.8044
18.8734
19.3188
19.082
19.4975
19.1126
19.4284
18.9945
19.1347
18.8384
18.6947
18.6321
18.2586
18.3073
17.8672
18.0692
17.6229
17.9805
17.5396
18.0445
17.533
18.2105
17.5858
18.3956
17.7042
18.5239
17.8958
18.4724
18.2558
18.288
18.4665
18.247
18.6025
18.2552
18.7294
18.262
18.8432
18.2353
18.9274
18.2085
18.8798
18.1786
18.6566
18.1054
18.2816
18.0108
17.8448
17.7941
17.4408
17.4801
17.0233
17.1881
16.619
16.9346
16.2456
16.7251
15.9218
16.5121
15.6963
16.2859
15.6288
16.0167
15.7828
15.7281
15.8839
15.6111
15.9275
15.5352
15.9738
15.4664
16.0407
15.396
16.1157
15.341
16.1783
15.3722
16.1169
15.513
15.9697
15.7671
15.7649
15.919
15.6773
16.0285
15.6128
16.1036
15.5384
16.1375
15.4284
16.1298
15.3471
16.0003
15.2597
15.8104
15.0299
15.6159
14.7993
15.2275
14.6919
14.6705
14.4494
14.2074
14.0561
13.6508
13.5212
12.9296
12.7411
11.937
11.6025
10.5371
9.96141
8.58059
7.66122
5.92188
4.51923
2.33708
0.305
-2.44302
-5.20327
-8.59444
-12.1704
-16.2125
-20.5203
-24.9997
-29.6966
-34.0601
-38.4961
-42.0091
-45.4748
-47.4684
-49.4213
-49.399
-49.4579
-47.493
-45.7654
-42.4603
-39.3999
-35.7093
-32.3116
-29.3183
-26.607
-25.0463
-23.2693
-22.8415
-21.729
-22.1141
-21.2306
-21.8135
-21.0738
-21.4734
-20.7043
-20.7961
-19.7039
-19.3201
-18.0793
-17.5866
-16.4672
-15.9887
-14.9715
-14.5612
-13.5307
-13.1035
-11.9244
-11.3721
-9.97477
-9.21966
-7.35402
-6.27915
-3.57909
-2.19976
1.65507
3.15553
8.54066
10.038
17.3998
18.7059
28.5327
29.4054
41.6124
42.8477
56.9915
58.5299
73.6606
74.7967
90.6612
12.6289
20.2661
15.684
19.0994
17.5022
18.9601
18.5766
19.0622
19.2507
19.2279
19.5869
19.3497
19.7011
19.3425
19.6368
19.2001
19.3988
19.1259
18.9022
18.954
18.4692
18.631
18.0706
18.3672
17.7786
18.2435
17.6149
18.2309
17.5589
18.3122
17.5848
18.4378
17.6536
18.5393
17.8675
18.447
18.2189
18.279
18.4698
18.2193
18.6274
18.2517
18.7559
18.2717
18.8651
18.2855
18.9588
18.2915
18.9908
18.2989
18.8217
18.2792
18.4672
18.2498
18.0118
18.0415
17.6365
17.7384
17.2288
17.4454
16.8226
17.1931
16.4564
16.9432
16.1211
16.7142
15.8374
16.4444
15.6999
16.0859
15.8403
15.7839
15.9182
15.6289
15.9552
15.5244
15.993
15.4294
16.0561
15.3399
16.1209
15.2791
16.1378
15.3119
16.0462
15.4409
15.8779
15.6787
15.6579
15.8169
15.5378
15.8884
15.4747
15.9547
15.3929
16.0059
15.302
16.0171
15.2263
15.921
15.1343
15.7514
14.9557
15.5579
14.7538
15.1829
14.6894
14.6369
14.4712
14.2447
14.1669
13.8008
13.7939
13.27
13.2483
12.5561
12.4193
11.5127
11.1499
9.9706
9.26168
7.75124
6.54604
4.59722
2.71694
0.183549
-2.53682
-5.79762
-9.49961
-13.5675
-18.2258
-22.9353
-28.2075
-33.0234
-38.1509
-42.23
-46.5103
-49.2821
-52.2534
-53.2106
-54.1399
-52.8041
-51.3146
-47.665
-44.0347
-39.3643
-35.0799
-30.9306
-27.4799
-25.359
-22.9205
-22.0408
-20.3363
-20.4872
-19.3169
-19.942
-19.3064
-20.1235
-19.6565
-19.9978
-19.3172
-19.0217
-18.0293
-17.4788
-16.5782
-15.9162
-15.0335
-14.3702
-13.5047
-13.1271
-12.0662
-11.6953
-10.4621
-10.0391
-8.39019
-7.6976
-5.15318
-4.21676
-0.419734
0.520563
5.64936
6.53388
13.3381
14.1869
22.739
23.8616
34.0313
35.4034
47.0796
48.535
61.6659
62.6684
76.8171
12.4126
19.8242
15.4108
18.7184
17.2177
18.7027
18.3137
18.9006
19.059
19.144
19.5078
19.2944
19.6712
19.3421
19.6235
19.2267
19.3265
19.0648
18.8351
18.825
18.3259
18.3917
17.828
18.0318
17.479
17.8802
17.3689
17.9398
17.3967
18.1143
17.4935
18.3313
17.6324
18.5077
17.8661
18.452
18.2399
18.2775
18.4965
18.2349
18.6409
18.2502
18.7775
18.2839
18.9054
18.294
19.0215
18.3076
19.0523
18.381
18.8347
18.3777
18.4803
18.2721
18.0372
18.038
17.6104
17.6951
17.1563
17.3677
16.7089
17.0855
16.3011
16.851
15.9464
16.6053
15.6999
16.3211
15.6119
16.0048
15.7668
15.717
15.8622
15.5931
15.9294
15.5152
16.0067
15.4411
16.1072
15.3571
16.1876
15.3264
16.2111
15.3879
16.1377
15.5335
15.9924
15.7932
15.7829
15.9878
15.6783
16.1218
15.6025
16.2439
15.5412
16.2723
15.5164
16.2605
15.4622
16.2317
15.3861
16.1028
15.2266
15.9452
15.1051
15.5601
15.1
15.0411
14.9514
14.6568
14.7334
14.2653
14.4011
13.8464
13.9242
13.2622
13.2094
12.3891
12.1114
11.0618
10.4587
9.14093
8.088
6.39923
4.70868
2.43951
-0.0874714
-3.14154
-6.68808
-10.6886
-15.3483
-20.3319
-25.9433
-31.4716
-37.3765
-42.3816
-47.4264
-50.8661
-54.4246
-55.7788
-57.1158
-55.7627
-54.2106
-50.425
-46.1565
-41.2137
-35.6315
-31.113
-26.3193
-24.3468
-21.9745
-21.5639
-20.4187
-21.3468
-20.4767
-21.5952
-20.6724
-21.8926
-21.369
-21.8411
-21.0703
-20.4969
-19.1349
-18.4078
-17.4235
-16.9719
-16.2602
-15.8864
-15.0946
-14.9596
-14.0708
-13.9826
-13.0311
-13.0003
-11.8445
-11.6767
-9.7588
-9.37945
-6.29815
-5.87736
-1.47643
-1.11449
4.91111
5.33503
12.9022
13.6567
22.7887
23.9189
34.6301
35.9913
48.0987
49.2339
62.7581
14.6082
21.6379
16.8778
19.9205
18.1991
19.366
19.0234
19.2923
19.4722
19.4005
19.7138
19.5025
19.8153
19.5051
19.7805
19.4179
19.5725
19.3965
19.0374
19.1686
18.5829
18.7598
18.0788
18.3611
17.6561
18.1261
17.4185
18.0824
17.3709
18.1468
17.4087
18.2994
17.5062
18.4659
17.7601
18.4119
18.1593
18.2421
18.4466
18.1867
18.6552
18.1865
18.7942
18.2169
18.9063
18.2517
19.0351
18.338
19.0959
18.4468
18.9918
18.4989
18.6902
18.4893
18.2258
18.2591
17.8144
17.9325
17.3537
17.6161
16.9178
17.3177
16.5215
17.0322
16.1552
16.7623
15.8327
16.4612
15.649
16.062
15.7782
15.733
15.8754
15.5566
15.9453
15.4523
16.0211
15.3535
16.1258
15.2526
16.1901
15.2285
16.1771
15.2936
16.08
15.4308
15.906
15.6889
15.6715
15.8776
15.5477
16.0055
15.4839
16.0865
15.4212
16.1413
15.351
16.1726
15.2957
16.0968
15.2866
16.0054
15.1231
15.8617
14.9963
15.5049
15.0168
14.9912
14.9099
14.6305
14.7272
14.3278
14.514
14.0497
14.2598
13.7259
13.846
13.1969
13.1294
12.2989
11.9079
10.8252
9.97073
8.54681
7.0715
5.11664
2.80108
0.0468292
-3.41838
-7.3547
-12.3092
-17.6513
-24.0673
-30.3072
-37.0605
-42.8201
-48.8664
-53.3415
-58.3456
-61.0161
-63.5663
-63.1029
-62.3582
-58.3805
-53.6452
-47.3742
-40.9676
-34.173
-28.1652
-24.911
-21.5797
-20.2154
-17.813
-18.4502
-17.579
-18.511
-18.2156
-19.6771
-20.1263
-20.9492
-21.2094
-21.0605
-19.9289
-18.9482
-18.0727
-17.1551
-16.3934
-15.7086
-15.1417
-14.8721
-14.2403
-14.2216
-13.4461
-13.7134
-12.9193
-13.1295
-11.4676
-11.453
-8.38291
-8.43914
-4.43095
-4.7053
0.655608
0.45738
6.96889
7.24381
15.1626
15.5613
24.9882
25.5134
36.4891
36.9649
49.7008
14.2153
21.4576
16.8452
19.8572
18.3722
19.2373
19.113
19.3535
19.5544
19.4825
19.8212
19.5994
19.9482
19.5941
19.8687
19.5205
19.5848
19.3572
19.0514
19.1115
18.5007
18.5765
17.8827
18.0491
17.358
17.7953
17.1603
17.833
17.232
18.0388
17.3701
18.2733
17.5199
18.4896
17.8116
18.4362
18.2053
18.2697
18.5053
18.2003
18.6841
18.2417
18.8251
18.2892
18.9346
18.2994
19.0649
18.3399
19.1681
18.5125
19.0365
18.6187
18.7165
18.5606
18.2701
18.3234
17.8147
17.9431
17.3099
17.5762
16.811
17.2672
16.3726
17.0043
15.9894
16.7267
15.7265
16.4011
15.6086
16.0131
15.7494
15.7069
15.8406
15.5539
15.9363
15.4609
16.072
15.3641
16.2092
15.2742
16.289
15.2767
16.2779
15.3634
16.1842
15.5205
16.0185
15.798
15.784
16.0306
15.6473
16.206
15.5691
16.3535
15.5143
16.4342
15.4829
16.438
15.4864
16.3918
15.4642
16.3279
15.399
16.1954
15.3194
15.8755
15.3707
15.3484
15.3781
14.936
15.2541
14.6379
15.032
14.4804
14.7439
14.2207
14.3875
13.8087
13.8025
13.1004
12.8199
11.95
11.2752
10.1374
8.88675
7.24801
5.19588
2.7843
-0.342305
-3.91679
-8.53098
-13.7507
-20.2024
-27.0971
-34.8363
-41.6895
-48.5
-53.2464
-58.7036
-62.1418
-66.071
-66.6724
-66.7043
-63.5122
-57.8356
-51.5652
-42.856
-35.5087
-25.7845
-22.5404
-20.0278
-19.6472
-18.3228
-19.8267
-19.509
-20.8968
-19.5349
-20.669
-21.4407
-22.9334
-22.9889
-22.4653
-20.6931
-19.0999
-18.1699
-17.7745
-17.6035
-16.8873
-16.4718
-16.0423
-15.6652
-15.5083
-14.9866
-15.3821
-15.2268
-15.8139
-15.1205
-15.4382
-13.0795
-13.3975
-10.0683
-10.6651
-6.0673
-6.45835
-1.18618
-0.898221
5.64429
6.36237
14.0744
15.0947
24.3878
25.2425
37.0602
16.6386
22.9392
18.3562
20.7531
19.2448
19.6957
19.6528
19.6192
19.809
19.6341
19.917
19.6735
19.9638
19.6865
19.9366
19.6799
19.7206
19.746
19.2306
19.4967
18.8079
19.0149
18.2019
18.4211
17.5583
17.9715
17.1806
17.8474
17.1332
17.957
17.1998
18.1619
17.3277
18.3627
17.6304
18.3861
18.0921
18.1927
18.4557
18.103
18.7039
18.0941
18.8581
18.1113
18.9939
18.1779
19.0536
18.3294
19.1077
18.5124
19.1456
18.6454
18.9404
18.7556
18.4757
18.5332
18.0206
18.1785
17.4898
17.8146
17.0052
17.4668
16.5855
17.1461
16.1853
16.8275
15.8326
16.4911
15.5966
16.0572
15.6925
15.7079
15.7993
15.4953
15.9359
15.3526
16.0894
15.2325
16.2407
15.1436
16.3029
15.1466
16.2713
15.2401
16.1573
15.3995
15.9599
15.6978
15.6722
15.9592
15.5059
16.1447
15.4127
16.2737
15.3625
16.3533
15.333
16.3799
15.2998
16.3382
15.2921
16.2411
15.2287
16.1163
15.1673
15.7689
15.2917
15.2088
15.3162
14.8591
15.2084
14.6513
15.1217
14.5415
14.9754
14.5139
14.8463
14.3964
14.5658
14.0391
13.936
13.2788
12.78
11.9249
10.9221
9.68006
7.95446
5.99204
3.18286
-0.0448356
-4.56625
-9.74086
-16.5667
-23.8456
-32.4584
-40.4107
-48.9796
-55.3907
-62.7615
-67.4393
-72.5393
-74.0049
-75.6198
-73.3315
-68.0924
-60.8544
-52.8475
-42.3905
-30.6823
-23.6044
-19.0812
-17.2533
-12.7864
-14.8296
-14.7747
-16.9618
-17.3582
-17.3479
-18.8914
-21.1715
-23.5935
-24.764
-22.9465
-20.7531
-18.9736
-17.106
-17.2059
-16.3992
-16.2541
-15.8456
-15.7263
-15.517
-15.0555
-15.6241
-15.7765
-16.9151
-16.6066
-17.3406
-14.9089
-15.3944
-12.4631
-13.9375
-9.96588
-10.944
-6.6358
-7.04578
-1.25089
-1.92336
5.40701
4.50627
13.3947
12.4027
24.4396
16.4486
22.8113
18.6163
20.7791
19.6252
19.8553
19.9611
19.8154
20.1083
19.849
20.1628
19.8492
20.1894
19.8074
20.0926
19.7522
19.8023
19.6683
19.3236
19.3527
18.7909
18.8789
18.1023
18.2424
17.376
17.7653
16.9719
17.7311
17.0419
17.9779
17.2294
18.2337
17.4113
18.4195
17.7103
18.3726
18.1601
18.1988
18.5427
18.1308
18.8094
18.1169
18.934
18.1557
19.0525
18.1672
19.1368
18.3405
19.1218
18.6196
19.1595
18.7412
18.9676
18.8345
18.5113
18.6972
18.0369
18.2659
17.5028
17.8204
16.9392
17.4655
16.471
17.1837
16.0805
16.8906
15.7828
16.5407
15.6202
16.0865
15.7195
15.7017
15.8524
15.4317
16.0223
15.263
16.1927
15.1913
16.3638
15.1234
16.4414
15.1683
16.3818
15.2886
16.2538
15.4724
16.0459
15.812
15.7252
16.1092
15.5469
16.3314
15.4498
16.5119
15.3932
16.5975
15.3998
16.6347
15.4012
16.6108
15.4147
16.5365
15.4181
16.3934
15.4509
16.05
15.5831
15.5098
15.6709
15.1189
15.6228
14.8594
15.4741
14.8094
15.2451
14.7887
15.1216
14.7387
14.9411
14.5528
14.5348
14.0911
13.7315
13.1276
12.294
11.352
9.90003
8.35381
6.02049
3.39915
-0.484422
-5.18686
-11.7744
-19.6246
-29.0879
-38.1991
-47.2596
-52.8493
-59.8676
-65.1579
-72.271
-75.4944
-78.9097
-79.0587
-73.317
-66.4856
-56.3213
-47.035
-27.2307
-19.1205
-17.2853
-19.1276
-16.1355
-16.6849
-18.5755
-20.2902
-18.5453
-17.6264
-19.1385
-22.9122
-25.062
-25.7082
-23.1297
-19.9872
-18.6168
-18.4285
-18.5147
-17.6347
-17.0104
-16.435
-16.53
-16.1245
-15.4915
-15.7535
-16.4315
-17.9892
-19.3072
-20.2695
-18.7191
-18.8629
-16.0786
-17.9228
-14.4308
-15.5027
-12.7812
-13.2838
-8.90404
-8.31451
-3.93715
-3.18353
2.00088
2.18502
11.4251
19.3962
23.8754
20.1574
21.3647
20.3847
20.2544
20.2294
19.9406
20.1814
19.8506
20.1822
19.806
20.1847
19.7894
20.0556
19.8455
19.8376
19.889
19.4958
19.8129
19.0917
19.3755
18.4639
18.6726
17.5813
17.9254
16.9148
17.6026
16.8591
17.8612
16.9892
18.0609
17.1766
18.3036
17.5
18.3942
18.0084
18.1273
18.4789
18.004
18.7822
17.9685
18.9653
17.9867
19.1087
18.0106
19.1441
18.2591
19.0935
18.6031
19.1468
18.7984
19.0418
19.029
18.6332
18.8926
18.2384
18.4451
17.6626
18.0519
17.0803
17.7005
16.5755
17.4097
16.1114
17.074
15.758
16.6796
15.5724
16.159
15.6788
15.6559
15.9207
15.2665
16.0591
15.1405
16.1782
15.087
16.3688
15.0307
16.4337
15.0609
16.3965
15.1785
16.2629
15.3614
16.0167
15.7477
15.6287
16.092
15.4035