/*--------------------------------*- C++ -*----------------------------------*\
| =========                 |                                                 |
| \\      /  F ield         | OpenFOAM: The Open Source CFD Toolbox           |
|  \\    /   O peration     | Version:  4.1                                   |
|   \\  /    A nd           | Web:      www.OpenFOAM.org                      |
|    \\/     M anipulation  |                                                 |
\*---------------------------------------------------------------------------*/
FoamFile
{
    version     2.0;
    format      ascii;
    class       volScalarField;
    location    "8";
    object      p;
}
// * * * * * * * * * * * * * * * * * * * * * * * * * * * * * * * * * * * * * //

dimensions      [0 2 -2 0 0 0 0];

internalField   nonuniform List<scalar> 
6750
(
-627.999
-185.361
-727.249
-737.691
-691.474
-565.728
-406.293
-274.616
-191.898
-125.815
-108.42
-84.4535
-132.675
-75.5488
-183.346
-625.714
-186.234
-729.763
-737.98
-692.611
-567.448
-407.951
-276.131
-192.956
-127.858
-107.52
-83.656
-126.697
-75.2109
-182.23
-624.348
-187.039
-730.909
-737.857
-692.957
-567.944
-408.529
-276.844
-193.71
-129.485
-107.21
-85.0356
-120.94
-72.6121
-181.598
-622.378
-188.385
-732.801
-738.12
-693.906
-569.297
-409.93
-278.215
-194.807
-131.214
-107.396
-86.6678
-114.232
-71.3514
-178.756
-620.744
-189.529
-733.872
-738.077
-694.315
-569.878
-410.618
-279.061
-195.681
-132.687
-107.829
-87.9679
-106.967
-69.4154
-176.119
-619.029
-190.732
-735
-738.154
-694.893
-570.693
-411.547
-280.047
-196.684
-134.167
-109.112
-87.1583
-99.5942
-67.3577
-173.256
-617.603
-191.594
-735.58
-738.025
-695.005
-570.898
-411.881
-280.508
-197.249
-135.184
-109.543
-85.4458
-94.4111
-64.9618
-171.702
-617.011
-191.943
-735.777
-738.022
-695.144
-571.109
-412.156
-280.811
-197.574
-135.599
-110.01
-84.9903
-93.313
-63.6106
-171.515
-617.623
-191.515
-735.52
-738.011
-694.973
-570.878
-411.926
-280.63
-197.438
-135.423
-109.954
-85.6536
-94.1242
-64.9206
-171.932
-619.038
-190.616
-734.904
-738.12
-694.823
-570.662
-411.646
-280.294
-197.063
-134.628
-109.84
-87.5683
-99.2486
-67.3687
-173.768
-620.749
-189.386
-733.739
-738.019
-694.199
-569.825
-410.759
-279.418
-196.23
-133.342
-108.903
-88.6732
-106.567
-69.511
-176.897
-622.375
-188.231
-732.643
-738.04
-693.752
-569.236
-410.117
-278.679
-195.508
-132.02
-108.537
-87.5987
-114.788
-71.6283
-179.812
-624.339
-186.886
-730.728
-737.753
-692.757
-567.857
-408.743
-277.397
-194.552
-130.448
-108.499
-86.1259
-121.921
-73.0632
-182.869
-625.701
-186.085
-729.567
-737.861
-692.385
-567.356
-408.198
-276.754
-193.894
-128.937
-108.934
-84.9223
-127.973
-75.8127
-183.654
-627.982
-185.231
-727.036
-737.551
-691.202
-565.601
-406.55
-275.304
-192.951
-127.028
-109.964
-85.9002
-134.137
-76.3476
-184.89
-809.327
-194.514
-448.172
-550.112
-488.253
-407.942
-327.466
-258.355
-220.383
-175.68
-155.147
-116.673
-171.23
-68.3742
-279.454
-807.43
-191.314
-452.207
-553.136
-491.315
-410.603
-329.04
-259.246
-219.794
-175.535
-153.743
-115.644
-164.393
-68.2065
-280.005
-806.354
-190.251
-454.725
-554.214
-492.333
-411.513
-329.539
-259.616
-219.749
-176.219
-154.272
-115.983
-161.381
-66.9225
-278.321
-804.711
-188.477
-457.8
-556.35
-494.613
-413.556
-330.833
-260.441
-219.75
-176.39
-154.74
-115.977
-158.129
-65.1657
-276.375
-803.346
-187.608
-460.287
-557.708
-495.939
-414.691
-331.505
-260.921
-220.007
-176.901
-155.812
-115.988
-156.102
-63.3792
-273.987
-801.822
-186.86
-462.598
-559.111
-497.467
-416.035
-332.428
-261.601
-220.439
-177.39
-157.228
-116.356
-154.453
-61.3326
-271.101
-800.296
-186.892
-464.232
-559.966
-498.4
-416.802
-332.94
-262.015
-220.752
-177.74
-158.721
-115.882
-151.595
-59.9428
-268.583
-799.457
-187.206
-464.751
-560.234
-498.749
-417.12
-333.22
-262.288
-221.007
-177.996
-159.482
-115.903
-150.775
-59.6317
-267.869
-800.181
-187.076
-464.046
-559.824
-498.252
-416.715
-332.978
-262.164
-221.024
-178.108
-159.204
-116.309
-151.626
-59.9081
-268.954
-801.684
-187.061
-462.287
-558.864
-497.221
-415.9
-332.515
-261.897
-220.967
-178.098
-158.014
-117.176
-154.84
-61.5299
-271.826
-803.172
-187.802
-459.873
-557.354
-495.581
-414.489
-331.618
-261.342
-220.765
-177.884
-156.782
-117.003
-157.001
-63.7804
-275.04
-804.503
-188.648
-457.305
-555.91
-494.17
-413.314
-330.981
-260.98
-220.729
-177.64
-156.026
-117.202
-159.2
-65.7761
-277.711
-806.112
-190.395
-454.154
-553.684
-491.789
-411.202
-329.687
-260.242
-220.934
-177.702
-155.865
-117.557
-162.616
-67.6836
-279.919
-807.166
-191.435
-451.587
-552.552
-490.716
-410.266
-329.212
-259.954
-221.149
-177.179
-155.563
-117.45
-165.767
-69.0452
-281.82
-809.046
-194.613
-447.491
-549.446
-487.554
-407.526
-327.617
-259.123
-221.914
-177.485
-157.137
-118.667
-172.679
-69.3044
-281.601
-819.543
-249.555
-220.821
-360.745
-331.684
-293.744
-272.769
-246.963
-238.657
-211.32
-204.59
-158.34
-227.889
-72.0812
-454.362
-819.185
-247.7
-221.497
-361.63
-332.779
-294.976
-273.507
-247.268
-237.028
-208.197
-201.005
-156.878
-218.536
-65.6495
-460.055
-819.046
-246.966
-222.302
-362.13
-333.296
-295.439
-273.631
-247.147
-236.279
-206.742
-200.047
-155.636
-216
-64.9498
-456.747
-818.851
-245.53
-222.919
-362.781
-334.139
-296.355
-274.138
-247.293
-235.05
-204.407
-198.35
-153.299
-214.662
-62.8714
-452.736
-818.764
-244.622
-223.67
-363.376
-334.771
-296.939
-274.333
-247.235
-234.388
-203.137
-197.59
-151.211
-214.326
-61.5845
-448.972
-818.711
-243.613
-224.244
-363.875
-335.355
-297.538
-274.726
-247.433
-234.088
-202.038
-197.05
-148.869
-215.263
-60.3743
-443.31
-818.703
-242.973
-224.805
-364.335
-335.812
-297.941
-274.974
-247.617
-233.914
-201.567
-197.309
-147.331
-214.277
-61.1955
-439.522
-818.68
-242.775
-224.957
-364.431
-335.909
-298.048
-275.13
-247.796
-234.019
-201.66
-197.654
-147.107
-213.648
-61.6053
-439.251
-818.644
-243.126
-224.699
-364.199
-335.673
-297.845
-274.987
-247.738
-234.227
-202.021
-197.977
-147.501
-214.722
-61.2859
-439.966
-818.591
-243.812
-224.062
-363.652
-335.133
-297.392
-274.768
-247.687
-234.687
-202.907
-198.156
-149.258
-215.982
-60.8547
-444.232
-818.559
-244.805
-223.431
-363.066
-334.451
-296.731
-274.389
-247.617
-235.234
-204.346
-198.956
-151.955
-215.189
-62.1944
-450.319
-818.528
-245.677
-222.639
-362.398
-333.743
-296.107
-274.217
-247.795
-236.139
-205.954
-199.95
-154.376
-215.474
-63.5661
-454.546
-818.62
-247.061
-221.978
-361.669
-332.806
-295.123
-273.69
-247.741
-237.579
-208.584
-201.857
-157.077
-216.807
-65.5895
-458.918
-818.704
-247.748
-221.152
-361.125
-332.24
-294.631
-273.58
-247.956
-238.483
-210.233
-202.943
-158.49
-219.264
-66.4602
-462.288
-819.028
-249.537
-220.431
-360.168
-331.044
-293.303
-272.789
-247.699
-240.301
-213.461
-206.655
-160.035
-228.72
-73.1124
-456.748
-841.595
-286.573
-180.571
-316.894
-291.544
-263.975
-261.585
-251.606
-262.494
-246.502
-253.5
-192.299
-246.842
-36.0786
-715.251
-841.437
-285.775
-180.366
-317.117
-292.327
-265.223
-262.845
-252.547
-259.291
-242.727
-249.587
-191.063
-241.731
-21.1201
-719.918
-841.365
-285.417
-180.546
-317.429
-292.784
-265.6
-263.072
-252.321
-258.336
-242.116
-249.259
-191.098
-237.019
-15.6631
-720.998
-841.207
-284.81
-180.525
-317.68
-293.417
-266.405
-263.794
-252.679
-256.313
-239.384
-246.364
-188.547
-237.913
-17.6903
-712.9
-841.103
-284.426
-180.664
-317.99
-293.922
-266.87
-264.015
-252.596
-255.021
-238.421
-245.177
-187.176
-239.646
-22.182
-705.888
-841.001
-284.024
-180.672
-318.159
-294.333
-267.341
-264.432
-252.843
-254.414
-237.879
-244.086
-186.08
-243.193
-27.3321
-694.63
-840.95
-283.793
-180.706
-318.285
-294.618
-267.619
-264.667
-252.96
-253.879
-237.36
-243.895
-187.408
-242.847
-25.9661
-694.725
-840.877
-283.734
-180.687
-318.26
-294.676
-267.692
-264.822
-253.076
-253.911
-237.399
-243.876
-188.238
-241.789
-22.0331
-697.609
-840.765
-283.892
-180.675
-318.166
-294.514
-267.535
-264.641
-253.063
-254.23
-237.875
-244.549
-187.795
-243.27
-25.9245
-694.936
-840.708
-284.095
-180.586
-317.94
-294.126
-267.186
-264.397
-253.055
-255.078
-238.866
-245.201
-186.946
-243.275
-26.3614
-696.476
-840.742
-284.405
-180.527
-317.679
-293.607
-266.645
-263.965
-252.925
-255.973
-239.787
-246.538
-188.383
-239.877
-20.6649
-708.175
-840.76
-284.72
-180.352
-317.291
-293.009
-266.126
-263.741
-253.122
-257.588
-241.12
-247.955
-190.069
-238.206
-15.8314
-715.492
-840.849
-285.254
-180.325
-316.955
-292.265
-265.242
-262.969
-252.86
-259.881
-244.21
-251.052
-192.89
-237.426
-13.6998
-723.423
-840.869
-285.563
-180.121
-316.591
-291.739
-264.827
-262.745
-253.201
-261.111
-245.085
-251.411
-193.132
-241.82
-18.8527
-722.782
-840.99
-286.291
-180.271
-316.283
-290.822
-263.452
-261.386
-252.309
-264.856
-249.374
-255.489
-194.677
-246.694
-33.4652
-718.899
-863.709
-295.832
-159.927
-282.14
-259.152
-237.478
-243.325
-257.738
-310.223
-313.743
-309.128
-244.265
-255.97
91.0041
-1053.33
-863.67
-295.584
-160.032
-282.708
-260.36
-239.241
-245.654
-257.338
-301.033
-308.539
-309.158
-244.773
-257.412
98.09
-1050.05
-863.697
-295.477
-160.229
-283.136
-260.992
-239.721
-246.22
-255.146
-295.956
-306.726
-310.71
-245.56
-255.113
101.383
-1050.2
-863.656
-295.289
-160.383
-283.637
-261.911
-240.766
-247.559
-254.647
-291.136
-303.073
-310.335
-244.85
-256.895
98.8316
-1044.18
-863.647
-295.177
-160.566
-284.078
-262.595
-241.365
-248.131
-253.641
-287.186
-301.187
-311.111
-245.092
-258.186
93.57
-1041.34
-863.607
-295.035
-160.671
-284.413
-263.18
-241.966
-248.839
-253.311
-284.733
-300.657
-311.893
-246.001
-261.301
86.4173
-1033.46
-863.594
-294.937
-160.739
-284.636
-263.552
-242.335
-249.355
-253.009
-282.792
-300.617
-313.161
-248.163
-262.324
86.5774
-1032.23
-863.582
-294.849
-160.722
-284.673
-263.623
-242.425
-249.575
-252.941
-282.558
-301.3
-313.468
-248.383
-262.225
89.4547
-1031.78
-863.582
-294.819
-160.651
-284.54
-263.38
-242.209
-249.245
-253.143
-283.237
-301.009
-313.346
-248.48
-262.729
86.2556
-1031.47
-863.551
-294.812
-160.5
-284.218
-262.859
-241.737
-248.657
-253.559
-285.603
-301.505
-312.053
-246.521
-261.694
86.6444
-1033.11
-863.521
-294.858
-160.326
-283.78
-262.134
-241.03
-247.88
-254.035
-288.491
-302.491
-311.2
-245.748
-258.783
94.0806
-1040.65
-863.454
-294.888
-160.096
-283.247
-261.335
-240.343
-247.242
-255.17
-292.919
-304.834
-310.357
-245.651
-257.513
99.3746
-1043.76
-863.414
-295.002
-159.894
-282.641
-260.29
-239.184
-245.799
-255.783
-298.08
-308.824
-310.836
-246.516
-255.865
101.805
-1049.41
-863.302
-295.083
-159.684
-282.14
-259.585
-238.642
-245.214
-258.241
-303.603
-310.844
-309.289
-245.883
-258.033
99.0184
-1049.51
-863.258
-295.277
-159.537
-281.475
-258.233
-236.707
-242.728
-258.57
-313.283
-316.248
-309.482
-245.709
-256.662
92.4696
-1052.89
-892.011
-297.438
-150.616
-267.201
-239.744
-217.078
-221.73
-265.77
-335.658
-354.074
-342.929
-307.897
-304.186
127.739
-1387.29
-892.135
-297.482
-150.836
-267.956
-241.395
-219.506
-226.189
-261.358
-330.781
-352.507
-343.951
-307.422
-303.76
130.245
-1385.22
-892.262
-297.525
-151.033
-268.522
-242.38
-220.436
-227.584
-255.476
-323.343
-350.909
-344.875
-308.671
-301.423
127.2
-1385.4
-892.347
-297.598
-151.27
-269.203
-243.666
-221.915
-229.923
-253.347
-318.798
-348.646
-345.146
-308.333
-302
128.316
-1381.67
-892.409
-297.684
-151.485
-269.763
-244.668
-222.893
-231.301
-251.167
-314.276
-346.774
-346.34
-308.506
-302.717
127.17
-1380.63
-892.435
-297.733
-151.651
-270.208
-245.505
-223.791
-232.558
-249.886
-311.136
-345.39
-347.012
-309.739
-304.116
123.783
-1375.77
-892.442
-297.743
-151.758
-270.484
-246.035
-224.392
-233.55
-248.921
-308.535
-344.587
-347.522
-312.312
-304.07
119.252
-1374.16
-892.426
-297.679
-151.766
-270.547
-246.144
-224.542
-233.892
-248.555
-307.83
-344.265
-346.92
-313.449
-303.584
115.935
-1371.24
-892.397
-297.564
-151.679
-270.387
-245.811
-224.219
-233.359
-249.13
-308.716
-344.498
-347.225
-312.605
-304.21
116.281
-1371.32
-892.327
-297.398
-151.506
-270.003
-245.095
-223.466
-232.192
-250.186
-311.504
-345.409
-346.522
-310.161
-303.983
120.133
-1373.24
-892.219
-297.222
-151.275
-269.44
-244.085
-222.412
-230.786
-251.585
-314.881
-346.929
-345.646
-309.079
-302.317
123.644
-1377.56
-892.065
-297.038
-151.008
-268.772
-242.935
-221.281
-229.237
-253.8
-319.652
-348.957
-344.325
-309.041
-301.366
124.832
-1378.77
-891.883
-296.884
-150.712
-267.972
-241.497
-219.631
-226.727
-255.987
-324.313
-351.288
-344.171
-309.55
-300.707
123.655
-1381.81
-891.652
-296.813
-150.494
-267.327
-240.41
-218.584
-225.223
-262.228
-331.805
-352.841
-343.25
-308.425
-302.856
126.854
-1381.73
-891.434
-296.707
-150.221
-266.47
-238.599
-215.919
-220.499
-266.006
-335.976
-354.154
-342.348
-309.147
-303.222
124.587
-1383.62
-919.582
-293.843
-145.565
-255.222
-219.331
-192.409
-186.877
-218.246
-291.503
-335.235
-337.646
-353.886
-349.311
78.892
-1791.73
-919.795
-294.046
-145.89
-256.179
-221.406
-195.77
-194.129
-224.391
-289.225
-335.291
-340.186
-354.698
-349.255
82.0402
-1784.92
-919.998
-294.188
-146.135
-256.936
-222.817
-197.787
-197.49
-223.288
-285.607
-332.109
-340.245
-355.683
-349.276
76.748
-1784.32
-920.165
-294.418
-146.459
-257.842
-224.493
-200.053
-201.012
-222.762
-282.772
-331.195
-341.378
-357.052
-349.57
78.295
-1777.56
-920.283
-294.636
-146.73
-258.582
-225.844
-201.704
-203.49
-221.609
-279.076
-329.356
-341.479
-357.176
-348.545
75.6675
-1778.36
-920.354
-294.811
-146.951
-259.184
-226.965
-203.116
-205.559
-220.665
-276.312
-327.161
-341.333
-358.783
-349.468
73.6842
-1769.38
-920.379
-294.903
-147.088
-259.553
-227.69
-204.118
-207.26
-219.549
-273.121
-324.369
-340.574
-359.598
-348.992
66.5669
-1768.1
-920.368
-294.865
-147.111
-259.648
-227.867
-204.395
-207.838
-219.08
-271.625
-322.92
-339.363
-360.496
-350.021
59.8541
-1759.55
-920.325
-294.706
-147.012
-259.446
-227.448
-203.92
-207.098
-219.896
-273.327
-324.27
-340.278
-360.084
-351.08
59.4266
-1759.57
-920.226
-294.447
-146.809
-258.955
-226.52
-202.728
-205.17
-221.034
-276.626
-326.963
-340.69
-359.028
-349.812
67.3536
-1766.39
-920.063
-294.134
-146.521
-258.222
-225.211
-201.116
-202.918
-221.909
-279.441
-328.986
-340.647
-358.281
-349.01
70.92
-1771.12
-919.846
-293.808
-146.198
-257.363
-223.692
-199.254
-200.189
-222.841
-283.09
-330.755
-340.213
-357.898
-348.823
73.4908
-1772.07
-919.574
-293.484
-145.812
-256.327
-221.848
-196.769
-196.425
-222.984
-285.583
-331.524
-339.035
-356.896
-348.181
72.8525
-1777.34
-919.259
-293.307
-145.547
-255.484
-220.319
-194.597
-192.791
-223.592
-289.072
-334.742
-338.895
-355.849
-347.794
78.001
-1778.28
-918.943
-293.031
-145.169
-254.424
-218.086
-191.043
-185.218
-217.163
-290.765
-333.72
-336.277
-355.137
-347.665
75.376
-1784.22
-961.873
-292.415
-145.904
-254.293
-209.99
-178.736
-162.691
-174.377
-228.924
-282.604
-327.285
-390.06
-457.9
29.0964
-2213.87
-962.116
-292.698
-146.274
-255.343
-212.044
-182.306
-168.606
-180.095
-234.471
-284.743
-328.462
-390.161
-448.636
33.1849
-2212.41
-962.346
-292.896
-146.544
-256.192
-213.573
-184.817
-172.787
-180.89
-234.468
-282.187
-327.192
-389.978
-443.177
34.0268
-2217.33
-962.548
-293.205
-146.915
-257.223
-215.428
-187.564
-177.156
-182.131
-234.133
-281.879
-327.216
-390.817
-440.081
35.1355
-2207.05
-962.69
-293.489
-147.223
-258.077
-216.993
-189.67
-180.675
-182.7
-231.97
-279.579
-325.649
-390.269
-435.749
30.5809
-2208.58
-962.782
-293.724
-147.485
-258.788
-218.354
-191.509
-183.979
-182.977
-230.215
-277.363
-325.2
-392.738
-434.8
29.4317
-2199.26
-962.816
-293.854
-147.649
-259.236
-219.286
-192.882
-186.78
-181.492
-227.528
-273.883
-323.309
-391.233
-431.796
23.509
-2203.58
-962.806
-293.826
-147.687
-259.361
-219.545
-193.278
-187.476
-179.953
-226.398
-272.073
-323.072
-393.174
-438.098
14.679
-2181.77
-962.759
-293.641
-147.58
-259.132
-219.055
-192.685
-186.69
-181.764
-227.911
-273.931
-323.473
-391.637
-437.856
11.5925
-2186.57
-962.645
-293.332
-147.354
-258.564
-217.921
-191.112
-183.583
-183.262
-230.658
-277.448
-325.16
-392.637
-436.827
24.187
-2195.48
-962.456
-292.946
-147.028
-257.724
-216.378
-189.073
-180.071
-182.886
-232.293
-279.607
-325.741
-391.538
-435.784
28.0631
-2200.32
-962.21
-292.545
-146.67
-256.752
-214.651
-186.749
-176.259
-182.147
-234.275
-281.953
-327.049
-392.16
-438.212
31.8791
-2199.5
-961.9
-292.134
-146.235
-255.592
-212.642
-183.793
-171.727
-180.643
-234.11
-282.238
-327.023
-392.042
-441.845
30.8406
-2203.74
-961.553
-291.897
-145.949
-254.661
-211.019
-181.149
-167.541
-179.662
-233.687
-284.746
-328.119
-392.003
-446.403
30.8246
-2199.82
-961.2
-291.533
-145.526
-253.513
-208.831
-177.404
-161.56
-173.717
-228.051
-282.351
-326.913
-392.199
-455.384
29.0338
-2199.41
-1015.67
-293.478
-149.808
-261.545
-210.568
-176.982
-161.585
-155.557
-208.043
-268.166
-351.58
-386.39
-526.301
109.429
-2813.57
-1015.9
-293.777
-150.17
-262.518
-212.357
-179.984
-165.687
-160.15
-209.89
-269.44
-353.905
-393.984
-545.995
87.7062
-2784.04
-1016.12
-293.989
-150.431
-263.307
-213.695
-182.167
-168.41
-161.754
-208.348
-267.519
-353.453
-395.674
-540.048
71.6345
-2794.21
-1016.32
-294.311
-150.797
-264.298
-215.387
-184.747
-171.542
-164.146
-207.728
-267.575
-355.709
-404.644
-552.776
64.2268
-2756.23
-1016.46
-294.603
-151.101
-265.133
-216.836
-186.815
-174.207
-165.86
-206.113
-265.482
-354.241
-404.958
-533.187
58.8096
-2785.11
-1016.55
-294.847
-151.364
-265.853
-218.149
-188.821
-177.037
-167.73
-205.037
-264.31
-356.009
-413.216
-554.538
42.9617
-2738.36
-1016.59
-294.98
-151.53
-266.323
-219.081
-190.491
-179.659
-168.012
-202.762
-261.445
-354.714
-411.469
-543.442
28.2197
-2747.75
-1016.58
-294.951
-151.575
-266.466
-219.369
-191.081
-180.764
-167.375
-201.317
-260.392
-356.886
-414.777
-557.366
11.241
-2709.28
-1016.53
-294.755
-151.473
-266.235
-218.897
-190.359
-179.742
-168.233
-203.128
-261.61
-356.264
-411.404
-565.702
7.66505
-2706.34
-1016.41
-294.432
-151.253
-265.66
-217.795
-188.532
-176.876
-167.931
-205.516
-264.639
-357.11
-410.587
-552.358
38.994
-2750.32
-1016.21
-294.027
-150.93
-264.825
-216.329
-186.381
-173.951
-166.004
-206.719
-266.391
-356.352
-409.179
-544.296
53.8028
-2756.36
-1015.96
-293.61
-150.584
-263.887
-214.743
-184.134
-171.076
-164.165
-208.4
-268.625
-356.519
-406.784
-553.283
60.0196
-2744.5
-1015.65
-293.174
-150.156
-262.776
-212.916
-181.391
-167.856
-161.693
-209.054
-268.964
-354.814
-400.583
-540.684
73.2628
-2775.3
-1015.31
-292.924
-149.887
-261.919
-211.505
-179.127
-165.12
-160.092
-210.522
-270.878
-354.677
-398.003
-543.649
88.6623
-2765.92
-1014.95
-292.535
-149.473
-260.859
-209.606
-176.059
-160.965
-155.438
-208.623
-269.698
-352.465
-390.837
-524.041
112.592
-2789.6
-1084.59
-302.449
-159.549
-281.068
-227.55
-195.557
-188.757
-175.207
-243.232
-297.109
-441.784
-400.125
-748.149
46.9448
-3439.74
-1084.78
-302.721
-159.861
-281.855
-228.896
-197.606
-191.085
-177.47
-242.739
-296.766
-442.53
-412.463
-717.31
74.922
-3459.82
-1084.97
-302.916
-160.083
-282.498
-229.905
-199.225
-192.693
-178.314
-240.646
-294.719
-439.441
-410.371
-691.087
94.4559
-3514.92
-1085.14
-303.208
-160.401
-283.334
-231.253
-201.264
-194.749
-179.959
-239.386
-294.667
-443.325
-421.158
-719.956
108.464
-3474.69
-1085.26
-303.468
-160.664
-284.049
-232.428
-202.989
-196.597
-181.151
-237.204
-292.366
-438.784
-416.519
-694.305
71.6455
-3467.37
-1085.34
-303.684
-160.898
-284.686
-233.546
-204.822
-199.009
-183.012
-235.829
-292.056
-442.161
-431.652
-706.041
60.5275
-3362.24
-1085.37
-303.795
-161.047
-285.108
-234.359
-206.385
-201.556
-183.711
-232.987
-289.359
-438.002
-421.397
-673.679
43.4878
-3433.46
-1085.36
-303.757
-161.091
-285.244
-234.633
-206.995
-202.96
-183.73
-231.984
-289.283
-445.04
-428.31
-748.555
12.3172
-3310.01
-1085.3
-303.569
-161.004
-285.044
-234.227
-206.345
-201.699
-184.042
-233.493
-289.236
-442.216
-419.03
-710.606
15.2317
-3358.74
-1085.19
-303.265
-160.814
-284.539
-233.282
-204.69
-198.984
-183.377
-236.466
-292.362
-444.43
-428.176
-718.193
54.0138
-3390.7
-1085.01
-302.884
-160.531
-283.806
-232.045
-202.777
-196.573
-181.607
-238.062
-293.331
-441.858
-417.459
-701.215
82.3523
-3445.8
-1084.77
-302.497
-160.234
-283.005
-230.759
-200.923
-194.555
-180.345
-240.327
-296.018
-444.613
-421.19
-712.938
104.588
-3458.12
-1084.48
-302.088
-159.858
-282.062
-229.293
-198.759
-192.447
-178.736
-241.828
-296.852
-441.601
-414.448
-694.695
92.1353
-3469.11
-1084.17
-301.86
-159.637
-281.364
-228.226
-197.09
-190.822
-177.906
-243.936
-299.093
-443.711
-415.404
-715.15
72.4831
-3423.17
-1083.84
-301.493
-159.275
-280.496
-226.78
-195.011
-188.495
-175.706
-244.455
-299.867
-443.581
-405.919
-747.823
48.8882
-3390.42
-1166.51
-321.468
-175.211
-313.129
-261.417
-233.318
-241.524
-223.038
-313.669
-331.498
-550.77
-373.084
-813.521
301.6
-4362.3
-1166.64
-321.685
-175.453
-313.711
-262.351
-234.584
-242.593
-223.93
-312.963
-331.11
-553.856
-369.338
-811.67
304.902
-4428.31
-1166.77
-321.844
-175.624
-314.192
-263.078
-235.729
-243.802
-224.338
-311.47
-329.255
-558.374
-365.174
-816.408
185.983
-4579.56
-1166.89
-322.072
-175.872
-314.832
-264.082
-237.199
-245.232
-225.363
-310.737
-329.749
-569.589
-335.696
-1121.38
-3.10368
-4017.85
-1166.98
-322.269
-176.077
-315.388
-264.978
-238.529
-246.667
-226.113
-308.949
-328.969
-563.255
-378.442
-893.536
88.9704
-4187.72
-1167.03
-322.424
-176.261
-315.889
-265.861
-239.991
-248.888
-227.501
-308.924
-329.011
-568.753
-393.086
-930.825
72.2817
-4110.71
-1167.05
-322.484
-176.377
-316.222
-266.496
-241.179
-251.155
-228.111
-306.693
-326.207
-562.493
-391.492
-860.26
75.4083
-4277.99
-1167.03
-322.415
-176.411
-316.33
-266.72
-241.666
-252.512
-228.694
-307.416
-325.819
-582.164
-383.432
-1023.48
-4.39518
-4041.52
-1166.97
-322.228
-176.338
-316.17
-266.395
-241.207
-251.373
-228.495
-308.008
-325.904
-579.183
-381.94
-961.516
32.5861
-4162.31
-1166.86
-321.949
-176.184
-315.771
-265.653
-239.98
-249.016
-227.872
-309.91
-328.57
-572.396
-379.236
-931.191
81.3979
-4206.46
-1166.68
-321.608
-175.95
-315.181
-264.668
-238.49
-246.874
-226.726
-310.501
-330.738
-572.748
-379.604
-964.65
90.1019
-4077.15
-1166.46
-321.27
-175.713
-314.553
-263.677
-237.082
-245.259
-225.925
-311.912
-331.654
-572.164
-337.442
-1128.07
2.96209
-4005.88
-1166.2
-320.908
-175.402
-313.805
-262.556
-235.518
-243.757
-225.054
-312.896
-332.543
-562.61
-370.986
-847.204
190.531
-4496.8
-1165.91
-320.72
-175.239
-313.278
-261.779
-234.339
-242.49
-224.667
-314.226
-334.422
-555.22
-372.824
-818.56
305.259
-4351.72
-1165.61
-320.392
-174.942
-312.609
-260.736
-233.038
-241.44
-223.868
-314.912
-335.282
-551.767
-377.72
-814.041
312.064
-4272.43
-1258.17
-352.571
-196.24
-356.27
-310.513
-286.634
-318.257
-288.524
-420.357
-374.463
-709.054
-316.143
-883.397
574.713
-6139.66
-1258.25
-352.728
-196.412
-356.676
-311.133
-287.394
-318.732
-288.718
-421.044
-376.138
-731.332
-330.216
-1228.37
274.7
-5935.65
-1258.33
-352.845
-196.533
-357.007
-311.613
-288.122
-319.546
-288.857
-419.608
-374.316
-727.485
-340.001
-1119.31
240.554
-5889.27
-1258.4
-353.005
-196.71
-357.459
-312.312
-289.101
-320.589
-289.476
-420.828
-374.836
-756.25
-339.927
-1399.41
15.1047
-5001.52
-1258.45
-353.137
-196.853
-357.851
-312.919
-290.005
-321.481
-289.822
-417.79
-374.27
-721.667
-364.72
-1039.61
142.16
-5533.16
-1258.47
-353.227
-196.987
-358.206
-313.553
-291.021
-323.356
-291.127
-420.862
-374.832
-753.909
-384.184
-1268.82
67.125
-5140.75
-1258.48
-353.236
-197.069
-358.438
-313.97
-291.759
-324.743
-291.51
-417.948
-371.266
-732.245
-358.939
-1077.61
-4.1907
-5566.9
-1258.45
-353.148
-197.092
-358.512
-314.139
-292.102
-325.949
-292.399
-422.208
-369.998
-783.939
-368.058
-1503.93
-77.9711
-4884.13
-1258.38
-352.976
-197.035
-358.392
-313.894
-291.826
-325.116
-291.959
-421.145
-370.216
-770.139
-355.708
-1422.12
-125.311
-5019.38
-1258.27
-352.739
-196.922
-358.105
-313.384
-291.086
-323.688
-291.498
-422.641
-374.774
-757.546
-369.596
-1203.99
47.5216
-5534.31
-1258.1
-352.455
-196.742
-357.663
-312.654
-290.076
-321.974
-290.598
-420.834
-376.314
-735.203
-364.747
-1091.5
208.438
-5326.79
-1257.9
-352.183
-196.572
-357.208
-311.959
-289.14
-320.898
-290.252
-422.752
-377.981
-758.635
-343.523
-1395.79
-15.7598
-4985.09
-1257.65
-351.885
-196.329
-356.645
-311.136
-288.096
-319.79
-289.913
-421.971
-378.703
-734.911
-346.903
-1141.4
247.162
-5729.79
-1257.39
-351.75
-196.224
-356.273
-310.608
-287.359
-318.878
-289.839
-422.939
-380.8
-734.318
-333.426
-1248.06
235.562
-5786.44
-1257.12
-351.473
-195.99
-355.768
-309.851
-286.535
-318.37
-289.798
-422.354
-379.978
-715.181
-327.754
-907.26
559.416
-6037.99
-1353.72
-399.692
-225.126
-411.765
-379.722
-359.268
-425.333
-377.597
-586.29
-444.09
-1037.38
-418.166
-1721.25
-307.97
-5973.15
-1353.74
-399.766
-225.211
-412.014
-380.067
-359.674
-425.35
-376.842
-584.209
-439.8
-1019.86
-389.353
-1767.36
-435.98
-5602.52
-1353.76
-399.826
-225.272
-412.216
-380.29
-360.054
-425.415
-376.455
-579.817
-434.721
-1000.62
-372.503
-1639.62
-279.112
-6260.09
-1353.77
-399.889
-225.358
-412.493
-380.68
-360.629
-425.925
-376.295
-578.858
-431.425
-984.143
-364.002
-1273.76
-68.7713
-6751
-1353.78
-399.917
-225.425
-412.735
-380.96
-361.165
-425.91
-376.17
-572.127
-429.39
-929.785
-337.752
-1225.5
107.954
-6944.39
-1353.77
-399.899
-225.485
-412.953
-381.326
-361.812
-427.358
-377.465
-578.066
-428.093
-996.412
-346.33
-1728.72
-257.076
-6048.79
-1353.74
-399.831
-225.509
-413.087
-381.488
-362.22
-427.631
-377.894
-571.68
-423.42
-940.122
-326.353
-1208.98
-129.897
-7036.59
-1353.67
-399.703
-225.501
-413.11
-381.583
-362.439
-428.79
-378.969
-579.95
-424.404
-1020.24
-359.154
-1958.1
-179.217
-5943.09
-1353.57
-399.522
-225.438
-412.994
-381.357
-362.224
-427.989
-378.165
-575.392
-422.28
-979.816
-324.042
-1649.31
-154.981
-6170.15
-1353.42
-399.304
-225.348
-412.769
-381.039
-361.759
-427.56
-377.553
-579.745
-427.747
-1004.53
-337.754
-1841.64
-269.315
-6669.47
-1353.22
-399.055
-225.204
-412.42
-380.5
-361.042
-426.191
-376.406
-575.083
-427.973
-942.909
-295.663
-1275.59
207.986
-6894.12
-1353
-398.829
-225.087
-412.084
-380.068
-360.435
-425.848
-376.373
-579.298
-431.267
-978.929
-338.366
-1257.26
-26.1817
-6671.52
-1352.74
-398.577
-224.894
-411.643
-379.472
-359.725
-425.135
-376.659
-580.196
-436.069
-998.798
-358.451
-1644.25
-197.167
-6134.5
-1352.47
-398.488
-224.839
-411.38
-379.158
-359.307
-424.834
-376.981
-583.281
-440.911
-1010.72
-374.081
-1772.14
-395.454
-5401.25
-1352.21
-398.244
-224.648
-410.98
-378.592
-358.745
-424.607
-377.783
-584.993
-446.028
-1029.01
-408.332
-1727.05
-242.654
-5671.48
-1447.78
-461.733
-259.143
-474.94
-458.279
-437.342
-539.418
-468.59
-749.701
-496.918
-1272.79
-303.568
-2380.28
317.943
-6602.81
-1447.77
-461.744
-259.153
-475.09
-458.385
-437.584
-539.065
-467.777
-745.359
-493.366
-1234.81
-321.26
-2101.11
10.4509
-7018.19
-1447.76
-461.754
-259.16
-475.219
-458.37
-437.811
-538.396
-467.7
-740.151
-491.661
-1238.62
-313.956
-2622.84
-692.866
-7889.37
-1447.75
-461.749
-259.173
-475.395
-458.49
-438.219
-538.441
-467.66
-737.087
-486.364
-1173.05
-248.468
-1668.76
-270.093
-9030.47
-1447.71
-461.729
-259.176
-475.553
-458.473
-438.599
-537.568
-467.941
-729.487
-489.764
-1159.04
-365.853
-1751.88
26.755
-8945.73
-1447.66
-461.675
-259.181
-475.691
-458.629
-439.128
-538.722
-469.879
-737.203
-493.904
-1211.6
-369.545
-2146.87
-536.315
-7595.62
-1447.58
-461.59
-259.164
-475.766
-458.578
-439.428
-538.015
-470.56
-727.267
-490.177
-1138.66
-353.848
-1527.49
-335.788
-9139.75
-1447.47
-461.464
-259.142
-475.763
-458.651
-439.662
-539.476
-472.139
-740.12
-497.397
-1236.36
-389.694
-2489.91
-271.055
-7507.5
-1447.32
-461.306
-259.082
-475.651
-458.438
-439.487
-538.547
-471.318
-732.025
-493.954
-1176.71
-352.929
-2010.34
-52.7025
-7969.25
-1447.15
-461.126
-259.024
-475.469
-458.327
-439.201
-539.275
-470.846
-741.312
-497.761
-1234.35
-369.093
-2395.28
-396.25
-7789.01
-1446.94
-460.927
-258.922
-475.18
-457.977
-438.63
-538.355
-469.35
-736.095
-494.97
-1188.34
-351.378
-1832.13
38.1616
-8777.12
-1446.72
-460.753
-258.86
-474.922
-457.825
-438.236
-538.969
-469.225
-742.199
-494.516
-1203.49
-282.156
-1675.86
-35.1116
-8602.81
-1446.47
-460.554
-258.723
-474.559
-457.449
-437.671
-538.718
-469.349
-744.578
-500.954
-1245.72
-358.234
-2463.66
-533.838
-7638.91
-1446.21
-460.503
-258.713
-474.365
-457.357
-437.435
-539.181
-469.409
-749.004
-501.979
-1250.93
-342.908
-2121.85
-18.0107
-6668.58
-1445.96
-460.297
-258.57
-474.027
-456.951
-436.939
-539.162
-469.928
-752.2
-504.414
-1279.81
-312.392
-2331.04
401.545
-6223.25
-1511.65
-557.945
-309.282
-542.439
-571.999
-545.754
-710.688
-599.246
-1015.3
-604.099
-1742.08
-424.546
-3228.74
-695.364
-9542.85
-1511.59
-557.829
-309.107
-542.455
-571.629
-545.822
-709.369
-599.211
-1007.9
-609.081
-1706.18
-453.755
-3399.48
-1010.22
-10162.8
-1511.54
-557.748
-308.988
-542.514
-571.16
-545.932
-707.176
-599.313
-995.159
-607.345
-1631.27
-409.979
-2566.16
-369.814
-11531.8
-1511.45
-557.606
-308.802
-542.541
-570.701
-546.068
-705.895
-599.082
-989.702
-602.765
-1585.74
-372.217
-2332.06
624.039
-12056.5
-1511.34
-557.467
-308.633
-542.587
-570.094
-546.26
-703.21
-599.558
-976.862
-608.001
-1564.99
-381.149
-2716.56
171.028
-11201.2
-1511.2
-557.286
-308.46
-542.575
-569.72
-546.435
-702.844
-600.065
-977.63
-604.066
-1561.36
-358.112
-2670.71
-114.752
-10249.9
-1511.03
-557.091
-308.297
-542.528
-569.207
-546.528
-700.674
-600.597
-964.289
-607.054
-1475.78
-449.479
-2055.56
-106.585
-12351.5
-1510.83
-556.866
-308.164
-542.399
-569.028
-546.486
-701.703
-600.751
-975.894
-603.982
-1567.87
-372.017
-3085.71
56.7613
-9671.41
-1510.6
-556.632
-308.033
-542.194
-568.68
-546.24
-700.54
-600.72
-967.392
-609.956
-1502.07
-468.414
-2346.51
128.607
-11549.6
-1510.34
-556.393
-307.947
-541.93
-568.663
-545.845
-702.188
-600.042
-980.658
-607.896
-1587.33
-371.47
-2920.19