/*--------------------------------*- C++ -*----------------------------------*\
| =========                 |                                                 |
| \\      /  F ield         | OpenFOAM: The Open Source CFD Toolbox           |
|  \\    /   O peration     | Version:  4.1                                   |
|   \\  /    A nd           | Web:      www.OpenFOAM.org                      |
|    \\/     M anipulation  |                                                 |
\*---------------------------------------------------------------------------*/
FoamFile
{
    version     2.0;
    format      ascii;
    class       surfaceScalarField;
    location    "8";
    object      phi;
}
// * * * * * * * * * * * * * * * * * * * * * * * * * * * * * * * * * * * * * //

dimensions      [0 3 -1 0 0 0 0];

internalField   nonuniform List<scalar> 
19125
(
784.596
-25.4167
597.271
985.536
6.4903
1373.28
1122.17
32.7882
646.619
1248.59
36.2978
-71.1904
1289.08
53.7299
-820.018
1227.51
67.2834
-1386.81
1080.4
65.4738
-1591.46
894.935
61.232
-1498.95
697.003
53.1372
-1220.1
458.443
76.876
-775.561
171.698
24.2978
-180.49
77.5908
-5.60244
622.008
4.6107
-55.8668
1267.84
-40.447
-2.86551
1030.68
-9.57265
2125.54
767.226
-26.4178
627.944
969.021
8.88273
1402.34
1106.27
33.8253
658.977
1231.5
37.6694
-62.3464
1276.99
56.3311
-810.038
1225.2
70.4699
-1377.38
1087.81
68.9164
-1585.91
907.402
66.7265
-1494.84
713.035
62.8388
-1221.79
500.172
83.6153
-809.923
210.394
40.6373
-257.22
77.4829
46.465
558.846
14.2292
-76.0934
1303.38
-40.7191
-26.4681
1141.42
-7.77163
2102.13
762.538
-26.9564
639.761
964.56
10.6738
1410.16
1100.1
33.2064
663.014
1224.4
36.4947
-59.255
1271.25
54.8146
-806.758
1223.39
68.6014
-1373.37
1091.1
67.6239
-1583.21
914.99
66.6484
-1492.16
728.029
66.2893
-1223.28
535.845
80.3379
-839.318
251.771
59.7746
-303.841
87.8128
101.073
428.063
12.7549
-89.8399
1266.28
-42.812
-25.6519
1187
-14.7011
2069.65
755.1
-25.8272
657.843
958.463
10.3884
1422.19
1092.86
28.964
667.731
1216.85
31.2103
-55.2829
1265.91
48.4257
-801.994
1222.61
61.6925
-1368.4
1095.94
61.5829
-1580.31
924.608
61.442
-1490.8
741.296
66.2905
-1226.94
550.055
78.9274
-859.1
269.936
80.6326
-322.911
94.3413
133.257
316.485
14.3456
-106.089
1221.82
-38.6768
-24.9459
1198.11
-19.2023
2090.92
750.292
-23.9845
670.232
954.003
9.09861
1430
1085.96
23.8647
671.733
1208.82
24.1751
-51.7208
1259.73
38.2376
-797.862
1220.71
49.9087
-1363.74
1099.72
50.4364
-1576.93
933.851
50.7372
-1488.93
755.397
61.3344
-1229.09
567.743
74.8654
-874.511
297.208
98.7334
-341.823
118.294
111.302
198.111
18.9737
-110.569
1185.85
-31.6501
-32.681
1195.6
-16.3584
2100.44
743.186
-18.7601
684.916
947.615
6.32228
1441.52
1078.45
15.9128
676.89
1200.42
14.739
-48.0896
1253.04
24.1304
-793.853
1218.53
32.841
-1359.39
1103.31
33.9215
-1573.96
942.877
34.3141
-1487.46
774.829
45.5015
-1229.79
604.67
56.5349
-893.222
383.165
78.8397
-390.489
173.308
66.6545
37.975
28.6237
-82.1305
1105.87
-24.7911
-34.8603
1192.66
-7.79687
2114.53
735.363
-7.18205
696.488
940.45
2.07945
1453.9
1070.72
5.12241
682.716
1190.96
4.45014
-44.8804
1244.16
7.31183
-790.821
1214
10.2425
-1355.6
1105.12
10.9989
-1570.54
950.017
11.6949
-1484.64
793.714
17.2263
-1227.56
644.27
22.0733
-909.041
463.529
34.8393
-442.134
225.095
34.6332
-79.6548
35.2865
-27.4983
937.599
-22.0893
-16.6959
1197.43
-0.721274
2109.1
732.417
7.47169
699.671
937.78
-2.81187
1458.7
1067.75
-6.28646
685.009
1187.48
-5.71894
-43.91
1240.84
-9.96627
-790.412
1212.17
-14.0118
-1355.21
1105.47
-14.124
-1570.16
951.677
-12.6546
-1484.24
799.273
-15.3679
-1227.02
655.276
-16.5585
-912.708
492.321
-20.1581
-456.645
251.651
6.03303
-112.78
37.1337
28.6214
807.796
-23.1306
15.6412
1208.12
2.56782
2087.06
735.993
18.7764
694.963
940.929
-6.81425
1453.23
1071.26
-16.7585
682.419
1191.72
-15.8456
-45.3002
1244.88
-26.5138
-791.587
1214.37
-36.1325
-1356.46
1105.33
-36.7456
-1571.22
950.556
-35.3805
-1485.23
795.007
-44.4296
-1227.83
646.009
-52.1051
-908.486
468.223
-67.7885
-440.805
230.426
-31.4574
-86.8051
36.1487
86.0163
923.998
-21.7923
34.8801
1196.64
9.80933
2109.28
743.786
23.9169
683.128
948.146
-9.39375
1440.74
1079.22
-24.5004
676.443
1201.52
-25.1509
-48.7504
1254.14
-40.379
-794.862
1219.41
-52.8511
-1360.48
1104.17
-53.0761
-1574.88
944.34
-52.0783
-1488.39
777.127
-61.0282
-1230.61
607.078
-71.4865
-892.562
385.05
-88.3484
-387.794
175.713
-86.6466
30.4062
28.9927
115.49
1100.76
-24.6168
33.6744
1194.25
18.2471
2114.3
750.915
25.7512
668.227
954.617
-10.5346
1429.04
1086.95
-29.439
671.123
1210.24
-32.0479
-52.6399
1261.19
-50.3148
-799.179
1222.02
-64.3306
-1365.14
1101.05
-64.0644
-1578.15
935.83
-63.0286
-1490.2
758.149
-66.6157
-1230.32
570.407
-76.5229
-873.852
299.243
-71.1133
-338.714
122.17
-119.333
197.098
19.176
112.965
1187.26
-31.7064
26.6579
1199.31
20.8876
2099.8
755.746
26.9
655.739
959.149
-10.707
1421.08
1094.03
-33.5622
666.961
1218.55
-37.2106
-56.4347
1267.72
-56.4503
-803.576
1224.29
-70.9217
-1370.09
1097.63
-69.9054
-1581.83
926.9
-68.356
-1492.47
744.157
-66.9967
-1228.56
552.152
-78.5735
-858.064
268.65
-49.7265
-318.113
92.8418
-89.6898
319.764
13.9282
94.431
1223.24
-38.9775
27.338
1202.82
16.1398
2090.09
763.223
26.3816
637.591
965.328
-8.84147
1408.86
1101.43
-34.0815
662.059
1226.36
-38.2437
-60.67
1273.34
-57.6845
-808.652
1225.38
-72.449
-1375.39
1093.09
-70.9811
-1585.07
917.539
-68.4149
-1494.29
730.806
-63.6085
-1225.28
537.439
-82.6829
-837.652
250.664
-32.0151
-297.706
86.6814
-37.9569
432.987
12.0623
79.2547
1267.16
-43.4025
27.9927
1193.04
8.94686
2068.3
767.938
25.3944
625.737
969.845
-6.39806
1400.9
1107.73
-32.9554
657.887
1233.65
-36.7404
-63.9269
1279.32
-54.8034
-812.114
1227.42
-68.8877
-1379.62
1089.97
-67.2163
-1588
909.956
-62.6659
-1497.32
715.444
-53.8324
-1223.76
500.769
-76.9549
-807.024
208.832
-18.7369
-249.623
76.2231
10.997
566.971
13.2142
57.8664
1303.8
-41.7543
4.44553
1149.71
10.3239
2099.67
785.359
595.095
986.472
1371.66
1123.8
645.332
1250.96
-73.0615
1291.58
-822.458
1229.89
-1389.4
1082.8
-1593.93
897.892
-1501.8
699.971
-1222.14
459.545
-773.125
170.569
-173.248
76.373
630.109
3.42139
1267.64
-41.875
1042.68
2122.26
1587.42
-23.5811
124.098
2133.31
-36.6556
837.808
2361.88
12.0389
407.83
2433.96
40.5805
-157.653
2306.52
51.0996
-707.147
1995.63
48.4256
-1088.85
1594.08
40.307
-1199.81
1235.63
47.3104
-1151.69
954.107
40.537
-942.82
678.301
3.55216
-488.785
354.97
-47.9871
172.535
164.658
-28.1316
805.082
21.1626
-140.791
1455.11
-86.3144
9.89641
1159.55
-13.1839
2314.94
1584.72
-25.1773
135.391
2121.84
-34.2714
862.841
2351.63
14.3588
426.863
2427.57
44.1706
-141.871
2308.58
54.9671
-694.925
2008.3
52.2603
-1080.94
1612.53
43.9588
-1193.79
1248.94
54.0663
-1138
968.357
46.9456
-947.615
720.641
-2.24182
-556.414
403.733
-48.061
59.7614
177.3
35.6103
721.536
12.2079
-143.533
1471.21
-132.349
-40.4737
1336.35
-24.9642
2254.97
1585.53
-27.4658
140.819
2122.03
-31.4082
870.793
2350.32
16.8754
432.203
2426.87
45.1705
-136.806
2310.44
55.0313
-690.39
2014.5
52.2906
-1077.46
1622.28
44.3427
-1191.38
1259.76
53.862
-1129.44
988.885
49.6428
-955.106
756.885
2.36562
-611.926
449.757
-36.0384
-8.73669
188.596
100.604
624.229
25.0301
-141.457
1427.77
-116.491
-65.6728
1353.72
-32.4354
2235.06
1584.8
-27.6419
149.171
2120.3
-28.1305
883.417
2348.86
15.4211
440.619
2427.37
41.2789
-129.898
2314.65
50.7379
-684.984
2024.03
48.4502
-1073.93
1636.06
41.1837
-1189.19
1271.75
50.7063
-1123.34
999.356
52.9453
-957.844
765.605
11.7267
-634.71
463.43
-18.9955
-37.7803
193.001
136.042
551.476
23.7807
-149.353
1398.94
-106.809
-71.2647
1334.29
-38.9915
2260.56
1585.06
-28.0846
155.548
2120.02
-24.7694
891.675
2347.51
13.3271
446.337
2426.75
34.8689
-124.547
2316.85
43.0182
-680.242
2030.64
41.1926
-1070.28
1646.91
34.5605
-1186.57
1282.47
44.8535
-1118.64
1010.62
53.8637
-958.161
779.08
19.6314
-650.876
488.005
2.09149
-71.8365
211.682
137.908
472.566
23.3834
-147.726
1372.52
-100.605
-81.1536
1329.48
-41.7167
2269.04
1583.51
-25.3323
162.824
2115.98
-18.2633
902.534
2342.98
8.91998
454.299
2423.71
23.725
-117.682
2317.85
29.7152
-674.685
2037.35
28.6285
-1066.33
1658.54
23.6831
-1184.27
1296.77
32.8936
-1113.73
1033.11
44.2157
-956.478
815.245
19.8501
-675.577
551.914
14.7933
-139.86
270.001
91.4934
366.302
39.5313
-115.003
1303.62
-84.4465
-66.4596
1301.94
-33.9159
2285.51
1577.58
-11.6874
168.851
2106.84
-6.65997
913.034
2333.35
2.53322
462.589
2415.53
7.29273
-110.626
2314.28
9.08823
-668.942
2040.59
8.58908
-1061.88
1668.13
6.99643
-1181.4
1312.47
10.997
-1107.08
1064.56
16.7861
-952.224
867.044
9.48912
-701.164
646.759
12.2446
-219.302
356.182
43.8104
258.604
73.7838
-37.7294
1142.72
-62.3501
-25.304
1292.4
-11.4113
2287.97
1572.93
10.1038
170.989
2101.53
6.4238
917.01
2328.07
-4.61692
465.619
2410.86
-10.9995
-108.41
2311.3
-14.2159
-667.542
2040.09
-14.3476
-1061.07
1670.04
-12.1288
-1180.98
1317.23
-15.2339
-1105.2
1076.46
-18.9774
-950.494
886.622
-5.6554
-707.724
685.516
1.43022
-244.727
400.387
-3.03011
219.189
91.983
48.6381
1029.83
-56.0645
24.2948
1306.57
16.2642
2269.79
1577.04
24.5266
168.226
2106.7
17.7148
912.272
2333.36
-10.7877
461.933
2415.45
-26.9349
-111.455
2313.67
-34.0839
-669.946
2039.49
-33.7344
-1062.89
1667.39
-28.7658
-1182.49
1312.95
-37.6469
-1108.37
1066.14
-47.5321
-952.472
868.297
-16.6413
-699.656
650.63
-4.85159
-216.857
364.242
-56.956
253.507
77.0186
130.383
1129.48
-61.427
70.7905
1288.58
38.5816
2289.14
1583.15
27.5739
162.015
2115.85
24.1727
901.576
2342.97
-14.9718
453.506
2423.61
-37.6587
-118.664
2317.37
-46.8699
-675.837
2036.54
-45.8731
-1067.51
1658.23
-39.6269
-1185.7
1298.09
-50.097
-1115.81
1035.4
-57.9719
-957.477
816.713
-17.3178
-673.197
553.428
5.30948
-134.671
273.102
-110.541
364.316
41.3664
165.161
1297.72
-83.4236
87.668
1302.16
46.3217
2286.61
1584.72
27.2253
154.632
2119.83
27.5967
890.497
2347.43
-16.7938
445.345
2426.56
-43.6548
-125.768
2316.3
-54.1474
-681.649
2029.79
-52.7607
-1071.73
1646.55
-46.1421
-1188.4
1283.97
-56.3729
-1121.35
1013.08
-57.5977
-959.802
780.393
-10.3306
-648.156
484.552
27.1293
-64.6951
207.512
-111.667
475.263
23.0273
163.787
1373.11
-100.585
77.5178
1333.07
43.4276
2269.17
1584.43
27.1418
148.138
2120.04
30.9874
882.073
2348.73
-17.9923
439.475
2427.11
-47.1596
-131.316
2314.01
-57.9762
-686.644
2022.98
-56.1418
-1075.67
1635.41
-49.0071
-1191.41
1272.94
-59.5508
-1126.82
1001.14
-54.2642
-960.1
765.496
-1.73006
-631.023
458.93
43.9621
-28.3808
187.94
-79.5974
558.684
22.3171
152.789
1399.86
-107.776
70.2341
1340.19
36.6646
2259.83
1585.12
24.9458
139.712
2121.72
33.9747
869.275
2350.12
-15.2075
430.87
2426.51
-45.7487
-138.474
2309.63
-57.3975
-692.349
2013.18
-55.5884
-1079.5
1621.28
-48.1679
-1194
1260.3
-59.1726
-1133.69
989.204
-50.7987
-957.648
754.423
1.74094
-606.343
443.621
53.6643
3.38984
182.59
-19.5937
634.014
22.6763
152.026
1427.84
-118.341
43.7622
1360.52
28.9057
2233.31
1584.29
23.4223
134.249
2121.49
36.4853
861.183
2351.4
-12.6325
425.405
2427.17
-41.7534
-143.692
2307.7
-52.9737
-697.075
2006.76
-51.0862
-1083.18
1611.08
-43.712
-1196.77
1248.72
-51.3081
-1142.83
967.182
-43.5623
-949.457
715.489
-5.6104
-547.982
395.527
49.6063
74.3937
169.905
38.4621
734.534
8.92284
146.16
1470.64
-134.828
-6.81486
1344.04
16.4187
2252.23
1586.96
122.984
2132.93
836.009
2361.59
406.176
2433.44
-159.747
2305.43
-709.615
1993.82
-1091.44
1592.64
-1203.43
1235.83
-1156.92
953.733
-944.274
673.855
-480.874
347.354
186.135
157.231
817.353
16.2524
1454.41
-90.495
1171.56
2310.93
1448.75
-0.544436
7.23718
1950.14
-29.3799
344.99
2179.46
-19.9345
179.548
2170.83
-10.3601
-150.722
1928.61
-2.57721
-468.26
1528.85
8.98347
-694.6
1142.4
27.3838
-820.567
895.918
75.9447
-919.57
725.343
67.1617
-768.653
535.01
-51.433
-255.356
343.085
-171.749
434.518
113.864
-73.3118
1046.79
115.182
-252.956
1502.04
-143.549
-97.1998
1432.24
43.9784
2553.93
1452.93
-0.0262891
7.6431
1958.49
-29.0679
356.964
2192.2
-18.9523
192.168
2188.74
-8.89544
-139.876
1951.89
-0.62234
-460.032
1556.67
11.4432
-688.178
1166.35
30.2721
-806.355
911.271
84.4448
-891.422
757.094
67.9318
-794.209
593.67
-63.0972
-381.326
394.831
-188.156
275.007
139.506
-50.6125
954.161
12.4702
-205.581
1550.87
-278.503
-76.5067
1606.62
-21.9689
2439.12
1455.79
-0.328802
8.18262
1964.29
-28.1848
361.41
2198.74
-16.8726
195.671
2196.51
-6.71788
-136.749
1961.13
1.39684
-457.037
1567.85
13.023
-685.76
1176.02
29.9853
-799.26
924.62
79.8694
-873.466
793.907
66.5252
-822.986
642.498
-48.7636
-474.851
430.325
-166.855
182.134
154.982
-20.5099
869.468
13.3305
-144.583
1508.43
-283.682
-85.2721
1659.5
-66.0954
2392.37
1458.94
-0.0896115
8.85322
1970.99
-25.5997
368.777
2207.61
-15.2777
202.407
2208.02
-5.88187
-131.15
1975.43
1.54311
-452.531
1584.74
11.9092
-682.131
1190.49
26.9381
-791.887
931.368
73.4709
-857.824
801.471
67.8787
-829.301
651.889
-28.8602
-505.033
436.223
-136.478
147.509
148.525
-3.63052
822.294
39.0426
-127.658
1491.49
-226.772
-87.5947
1602.43
-78.2065
2434.94
1461.82
-0.300418
9.53396
1976.84
-22.6588
373.714
2214.47
-13.0646
206.49
2216.43
-4.7095
-127.673
1985.59
1.55497
-449.417
1597.06
9.43226
-679.274
1202.17
21.1987
-785.945
937.568
65.5927
-846.156
809.372
66.4635
-828.55
667.284
-10.9602
-526.689
457.774
-96.5245
97.7188
166.189
-4.2422
764.762
49.3118
-112.434
1474.18
-201.184
-77.0034
1569.38
-90.4696
2463.77
1464.94
-0.747277
10.2034
1982.22
-16.991
379.584
2221.17
-9.74755
212.032
2225.31
-3.70702
-122.83
1997.13
0.509109
-445.453
1611.16
5.24509
-676.168
1216.07
12.9789
-780.967
951.889
49.152
-833.111
834.536
53.9158
-826.578
708.452
1.22028
-561.674
517.057
-49.0695
4.07909
226.351
-7.83097
660.595
95.6066
-94.6331
1416.56
-149.909
-39.935
1510.39
-68.0995
2493.62
1467.18
-1.25976
10.942
1985.15
-6.65399
384.726
2224.94
-4.1259
217.177
2231.2
-2.38204
-118.212
2005.88
-1.35635
-441.758
1622.95
-0.207829
-673.501
1229.34
2.24549
-777.045
972.988
15.8738
-817.457
877.138
19.3872
-821.847
775.112
3.05147
-600.969
613.303
-7.68556
-98.8778
330.581
8.52684
524.967
143.265
-32.3982
1267.8
-142.119
-9.2552
1547.11
-20.022
2480.75
1467.3
-1.16121
11.3644
1985.06
5.76576
386.827
2225.05
2.30436
219.202
2231.84
-1.05651
-116.529
2007.33
-3.72998
-440.659
1625.41
-6.36083
-673.001
1232.83
-9.86927
-776.287
981.115
-25.5296
-812.08
895.159
-26.3778
-818.773
802.754
-0.775612
-611.494
652.72
27.6881
-130.067
382.788
27.8883
469.759
150.747
53.6344
1175.84
-170.039
14.7567
1603.34
25.6454
2441.44
1466.4
-0.999662
10.8931
1984.17
15.8076
384.456
2223.79
7.81973
216.796
2229.39
0.587985
-118.7
2003.38
-5.10335
-442.561
1620.29
-11.5841
-674.581
1227.71
-20.8361
-778.94
972.541
-59.0997
-819.637
877.17
-61.4863
-821.993
773.877
1.69074
-598.831
616.173
64.9993
-96.4655
336.181
41.8057
519.58
150.138
114.99
1254.16
-139.795
51.6657
1541.61
75.139
2482.42
1464.05
-0.870445
10.1413
1981.02
21.3328
379.083
2219.78
11.1215
211.442
2223.4
1.77338
-123.477
1994.86
-5.93548
-446.46
1608.84
-15.5535
-677.527
1214.95
-29.1469
-783.502
952.346
-75.6397
-836.662
834.667
-74.1217
-827.164
706.128
14.2664
-557.235
517.03
108.537
10.8872
225.8
35.1356
662.214
97.026
131.535
1409.95
-151.615
87.5735
1514.9
98.4347
2491.85
1460.96
-0.836437
9.51358
1975.51
24.3073
372.973
2212.86
13.4452
205.666
2214.27
3.15944
-128.556
1983.05
-5.69209
-450.679
1594.44
-17.6963
-680.982
1200.9
-34.8043
-789.196
938.416
-83.7362
-850.773
809.688
-75.5649
-829.632
664.374
32.2706
-520.846
452.962
146.962
108.29
159.048
30.7883
773.522
45.2035
144.104
1474.39
-206.27
95.2397
1576.88
85.8317
2459.22
1457.99
-0.32708
8.85281
1969.48
27.0097
367.882
2205.75
15.2159
201.427
2205.55
4.28342
-132.237
1972.45
-5.16562
-454.076
1581.61
-18.3321
-684.192
1188.79
-37.5289
-795.86
931.838
-89.7952
-863.815
800.614
-73.5948
-830.847
646.729
52.1438
-497.013
427.585
175.974
161.749
138.524
42.7484
835.783
31.5129
158.596
1492.37
-234.967
90.9855
1610.93
71.729
2428.55
1454.76
-0.318294
8.18888
1962.63
28.0547
360.365
2196.64
17.5493
194.52
2193.68
6.84457
-138.071
1957.67
-2.643
-458.865
1564.2
-16.2362
-688.129
1173.84
-37.2192
-803.957
923.998
-93.0198
-880.623
790.557
-73.8225
-823.982
634.023
65.5178
-463.184
418.785
193.753
200.846
143.88
65.5476
886.118
4.88674
216.677
1508.75
-293.329
83.4087
1666.31
25.2925
2384.48
1451.9
0.369971
7.60866
1956.75
28.5973
355.792
2189.96
18.8343
190.902
2185.72
8.74256
-141.353
1948.11
-0.057673
-462.045
1552.49
-13.0035
-690.798
1163.47
-33.143
-811.82
909.476
-82.6881
-899.17
751.261
-72.2064
-792.861
582.47
51.1186
-364.795
381.134
172.418
297.061
126.569
81.6531
972.992
3.75904
261.472
1548.66
-287.456
103.769
1614.89
-41.6438
2430.28
1447.71
7.16256
1948.27
343.694
2176.98
178.122
2167.44
-152.433
1924.25
-470.552
1523.99
-697.732
1139.14
-827.111
894.314
-927.533
720.216
-766.28
524.45
-239.179
329.516
454.354
99.2109
1063.51
104.112
1499.86
-153.633
1445.13
2543.37
1356.85
-0.460055
59.0494
1541.54
-12.5683
164.732
1632.11
-15.5948
91.8158
1564.94
-11.9563
-83.2128
1370.48
1.71413
-277.774
1122.65
25.3606
-455.708
941.177
65.4764
-654.27
835.43
156.868
-837.928
712.786
93.7595
-630.522
507.498
-83.1533
7.5361
273.696
-292.383
727.986
-32.4289
-134.517
1368.77
-105.337
-286.14
1627.95
-584.921
-219.141
1937.41
93.7969
2475.6
1356.27
-0.391775
59.0438
1544.9
-12.8605
168.626
1639.75
-15.0617
96.7836
1576.55
-10.5418
-78.0904
1385.76
4.2856
-271.814
1143.07
27.7933
-447.927
961.758
69.59
-629.153
873.23
164.736
-810.763
790.083
93.0055
-710.309
608.514
-86.2321
-196.679
335.391
-286.753
542.5
-27.6795
-120.038
1302.75
-202.498
-248.72
1688.27
-671.071
-147.348
2003.41
26.8694
2383.12
1356.69
-0.967126
59.1948
1547.85
-13.1598
170.546
1644.24
-14.3281
98.5435
1582.23
-9.11416
-76.169
1392.3
5.90472
-268.723
1150.63
28.1116
-444.406
967.767
65.6888
-612.498
901.141
150.316
-792.421
857.145
91.97
-777.955
685.121
-64.7276
-324.333
394.05
-252.465
438.916
16.8206
-114.468
1241.13
-301.876
-120.967
1699.37
-783.742
-74.5132
2068.53
-85.6958
2274.58
1356.41
-1.02758
59.2111
1550.55
-12.0339
173.509
1649.6
-13.0282
102.063
1590.14
-8.43671
-72.3708
1402.31
5.12959
-263.925
1162.49
24.7369
-438.94
975.666
57.9987
-597.373
908.421
133.86
-774.123
879.514
87.4512
-795.875
717.674
-35.6354
-372.287
415.344
-198.565
395.939
11.0206
-98.9359
1211.08
-235.815
-62.6899
1680.05
-687.574
-41.1428
2020.81
-126.276
2328.45
1356.6
-1.26438
59.2797
1553.34
-10.6441
175.586
1654.09
-11.4837
104.186
1596.18
-8.05206
-70.1469
1409.45
3.13676
-260.694
1171.57
17.989
-434.649
982.617
46.3951
-585.385
913.135
116.037
-758.853
896.05
75.4269
-799.442
757.23
-14.3181
-409.186
449.976
-128.152
334.559
9.86555
-64.9819
1170.92
-175.626
-56.3004
1653.28
-604.304
-23.4351
1980.35
-123.423
2388.72
1356.63
-1.38879
59.2767
1555.97
-8.07977
177.681
1658.73
-8.84713
106.632
1602.59
-7.15853
-67.5859
1417.35
0.317674
-257.387
1180.89
9.12766
-430.847
991.405
30.0672
-575.158
929.325
85.6699
-740.664
927.699
55.2219
-804.748
817.942
-6.16072
-460.075
534.173
-63.0836
222.779
60.8953
-15.6765
1084.57
-103.039
-85.4193
1609.61
-510.469
-37.0992
1931.48
-40.7898
2432.67
1356.93
-1.73533
59.3052
1558.53
-4.08614
179.13
1662.89
-4.34011
108.306
1607.86
-4.35713
-65.9786
1423.91
-2.17639
-255.323
1188.35
-0.101265
-428.709
1001.32
6.74681
-566.698
958.782
27.4159
-716.661
981.89
17.786
-807.519
893.639
-2.54839
-516.331
649.64
-13.7036
95.74
189.693
15.9205
953.317
-131.146
-40.9759
1544.2
-595.576
-23.9358
1998.37
7.58891
2376.27
1356.46
-1.55459
59.4765
1558.48
1.0005
179.715
1663.25
1.11956
108.974
1608.17
-0.487622
-65.3203
1424.78
-4.71198
-254.734
1189.4
-9.33939
-428.383
1004.26
-19.9439
-564.459
971.939
-45.2891
-707.056
1007.03
-29.9467
-806.134
923.679
0.872733
-531.563
692.848
30.1672
56.8919
252.614
24.9271
900.986
-193.056
61.079
1519.45
-698.346
28.3065
2056.39
-2.30286
2298.26
1355.58
-0.432115
59.7945
1556.55
5.40966
179.069
1660.71
5.6798
108.079
1605.19
2.50637
-66.1807
1421.2
-7.25485
-256.024
1185.79
-18.7243
-429.789
999.063
-43.0356
-569.12
955.887
-103.002
-718.75
978.621
-67.1596
-807.514
889.133
6.17477
-514.646
649.598
76.9036
96.332
193.627
53.2443
947.232
-126.043
98.6618
1536.25
-592.524
39.8902
1996.5
53.3541
2373.62
1355.4
0.479288
59.9634
1554.2
8.24301
177.45
1656.86
8.33153
106.131
1600.39
3.51204
-68.0165
1415.09
-9.96033
-258.458
1178.48
-27.2351
-432.401
989.549
-59.0464
-578.564
926.823
-132.64
-744.298
923.091
-86.4532
-804.139
809.902
16.2397
-454.111
526.198
139.783
231.711
57.1223
96.3293
1088.2
-113.476
70.0017
1609.21
-524.602
26.2881
1939.62
133.523
2419.13
1355.81
0.349191
59.9773
1551.93
9.85774
175.23
1652.35
10.0765
103.497
1593.9
4.19805
-70.7887
1406.93
-11.5761
-262.097
1168.76
-33.309
-436.736
980.69
-70.3641
-589.808
911.074
-150.097
-763.701
890.95
-97.4677
-798.494
746.542
39.7126
-399.912
433.436
210.408
350.769
-2.97549
124.292
1181.97
-191.575
75.6861
1657.3
-621.893
44.3545
1989.13
132.574
2371.3
1355.53
0.398133
59.9057
1548.96
11.261
173.051
1647.53
11.7073
101.224
1587.41
5.31767
-73.2375
1399.23
-11.8073
-265.672
1159.17
-35.9284
-441.512
973.398
-77.4905
-602.958
905.708
-165.534
-780.688
872.149
-100.277
-794.479
702.936
70.9588
-359.046
393.783
263.533
417.777
-6.20971
134.077
1225.99
-253.936
131.374
1684.41
-704.594
77.8006
2028.14
89.2862
2309.65
1355.69
0.0046157
59.8318
1546.01
11.3214
169.981
1641.81
12.842
97.5867
1579.04
7.2608
-77.2423
1388.66
-9.53502
-270.761
1146.88
-34.8984
-447.383
965.042
-80.3403
-619.267
896.63
-177.633
-800.113
846.231
-99.5503
-774.311
665.819
94.3072
-306.122
368.986
294.968
466.244
-2.81418
133.527
1258.47
-319.768
253.893
1703.18
-797.306
149.399
2072.25
-21.6945
2254.71
1355.26
0.236784
59.5644
1543
11.4128
167.956
1637.15
13.8463
95.7483
1573.06
9.32608
-79.3335
1381.63
-6.04762
-274.101
1138.67
-31.3902
-451.349
958.101
-74.43
-637.164
866.608
-166.99
-818.322
775.704
-99.7499
-701.759
586.105
92.6504
-173.541
308.916
297.252
571.964
-45.4624
141.055
1319.84
-222.437
289.402
1690.12
-688.94
219.416
2011.37
-88.3557
2360.21
1355.81
59.4438
1539.5
163.94
1629.21
90.6693
1560.92
-84.662
1365.45
-280.372
1117.02
-459.838
936.088
-663.335
828.189
-845.186
698.59
-618.943
485.367
36.7076
248.571
754.168
-50.7004
1382.99
-129.902
1631.41
-607.704
1948.43
2449.43
1370.79
0.155757
89.2798
1399.41
-3.26261
137.257
1394.72
-2.77229
96.2703
1317.38
4.06775
-9.39337
1190.47
22.4377
-160.207
1036.38
49.6843
-316.807
912.045
116.268
-558.331
788.822
233.54
-736.824
629.688
73.1105
-431.218
328.01
-171.164
368.987
-85.2909
-277.898
1168.36
-501.945
-117.234
1797.81
-872.609
-207.065
2035.39
-1251.86
-170.018
2324.51
54.9393
1966
1370.18
0.471659
89.5871
1399.54
-3.01715
139.013
1396.84
-2.00111
98.7175
1323.1
5.81486
-6.09749
1202.7
25.9568
-154.935
1060.89
52.0264
-308.46
950.683
125.842
-528.522
878.424
234.229
-739.194
750.069
74.534
-583.378
438.152
-157.641
101.714
-18.7083
-271.362
992.824
-480.244
-108.491
1755.54
-852.81
-197.391
2051.16
-1232.34
-121.058
2333.98
30.2452
1948.17
1370.5
0.142126
89.8403
1401.13
-3.21057
140.107
1399.52
-1.72236
99.867
1327.08
6.52348
-4.43386
1208.9
26.7972
-151.388
1069.34
50.4685
-303.29
967.403
117.929
-502.645
935.984
210.655
-737.429
843.318
76.0167
-686.772
525.677
-129.314
-35.0202
23.38
-244.587
914.439
-501.754
-84.5693
1742.34
-1004.6
-84.3424
2089.16
-1318.41
-66.9341
2328.22
-63.1077
1836.68
1370
0.163009
90.0884
1401.53
-2.89731
141.66
1401.57
-1.57404
101.867
1331.61
5.79427
-1.67709
1217.05
24.2567
-146.821
1081.32
44.4386
-297.189
980.46
103.457
-482.037
960.029
183.383
-726.42
891.738
64.4347
-716.002
588.87
-97.1285
-101.605
60.5272
-189.732
869.426
-482.323
-55.088
1724.45
-944.475
-14.8927
2072.75
-1269.39
-36.4977
2315.29
-104.308
1872.14
1370
0.00105277
90.247
1402.61
-2.73575
142.81
1403.87
-1.83683
103.192
1335.49
3.87166
0.148092
1223.22
19.1309
-143.293
1091.45
33.2871
-291.726
989.873
85.3983
-465.753
972.558
154.601
-712.757
922.695
41.1133
-726.258
644.753
-71.0944
-157.279
89.5129
-110.863
810.93
-468.692
-21.5139
1695.55
-863.047
-13.5559
2046.29
-1217.29
-14.2581
2312.35
-98.5655
1925.6
1369.73
0.0207633
90.401
1403.09
-2.29106
143.881
1405.47
-2.13788
104.546
1338.55
1.23303
1.97673
1228.83
11.4314
-139.97
1100.15
18.4753
-287.362
1002.38
58.9091
-450.9
998.583
112.709
-694.972
960.851
19.803
-745.706
710.157
-49.3496
-231.126
154.002
-47.641
715.712
-437.793
3.65546
1651.19
-809.436
-55.5751
2023.27
-1165.51
-25.2486
2298.55
-24.9267
1954.08
1369.7
-0.0529191
90.5008
1403.72
-1.69047
144.502
1406.85
-2.28138
105.32
1340.75
-1.62462
2.97783
1233.57
0.93794
-137.658
1106.52
1.71516
-284.892
1019.54
15.584
-436.396
1047.48
36.3753
-668.264
1025.95
2.82415
-769.012
793.839
-18.9204
-314.652
248.538
-10.936
604.335
-399.275
13.7956
1590.99
-906.223
-35.3067
2030.88
-1230.83
-16.3256
2314.06
7.22717
1888.65
1369.59
-0.138247
90.6147
1403.74
-0.873534
144.749
1407.02
-2.20045
105.609
1341.19
-4.46346
3.35047
1235.05
-10.7537
-136.908
1107.65
-14.8269
-284.432
1025.75
-35.5373
-431.443
1070.95
-60.0055
-655.879
1057.94
-16.0626
-774.229
826.421
14.0382
-333.007
274.341
17.441
580.594
-409.797
21.1268
1577.79
-1012.04
41.6606
2044.73
-1295.48
13.8199
2309.68
-14.0209
1810.24
1369.74
-0.402257
90.6885
1403.71
-0.230692
144.457
1406.56
-2.1346
105.157
1340.4
-7.26196
2.77864
1232.72
-20.8848
-138.216
1104.85
-31.0754
-285.669
1016.23
-77.5284
-438.505
1042.03
-135.491
-669.071
1020.53
-33.0062
-769.066
787.562
46.9631
-314.606
245.923
51.0165
604.395
-399.983
25.8519
1588.41
-911.344
58.8305
2030.44
-1234.2
20.6126
2312.56
25.0445
1875.89
1369.71
-0.594181
90.6361
1403.05
0.19374
143.681
1405
-2.14784
104.198
1337.85
-9.67772
1.54207
1227.45
-28.0369
-140.901
1097.79
-45.1529
-288.666
998.952
-103.131
-454.124
992.526
-176.401
-696.963
952.195
-53.4963
-743.319
696.326
71.7302
-223.01
138.744
113.947
726.361
-448.539
45.4849
1655.85
-824.908
18.2047
2026.2
-1174.34
10.5651
2299.1
99.2408
1934.03
1369.84
-0.894648
90.4539
1402.43
0.349682
142.476
1403.12
-2.05122
102.71
1334.34
-11.1997
-0.481893
1221.25
-32.4905
-144.554
1088.35
-55.3755
-293.613
986.225
-120.822
-469.996
966.423
-204.636
-715.665
912.047
-75.2541
-722.362
624.3
101.215
-141.65
63.9595
194.213
830.842
-486.67
73.0362
1705.05
-880.321
20.0184
2049.14
-1225.92
35.8829
2309.41
105.88
1901.75
1369.74
-1.02014
90.2615
1401.17
0.759152
141.217
1400.54
-1.45565
101.254
1330
-11.3953
-2.50218
1214.45
-34.2103
-148.409
1077.56
-60.3884
-299.606
975.836
-134.319
-487.742
951.899
-230.657
-730.731
877.149
-85.1043
-709.881
561.933
136.212
-78.8299
29.0058
249.562
895.354
-505.444
97.7115
1735.76
-963.201
87.2876
2074.9
-1277.6
66.9967
2311.43
64.3285
1848.76
1370.1
-1.46642
89.9634
1400.47
0.808431
139.563
1398.14
-0.677533
99.1328
1324.95
-10.0064
-5.43845
1205.62
-32.3873
-153.261
1064.96
-60.9182
-306.192
961.414
-140.241
-509.802
924.84
-252.29
-741.908
824.079
-81.6755
-676.981
493.26
166.647
-5.74022
-11.4897
275.607
944.946
-527.382
117.574
1754.49
-1023.18
196.574
2089.7
-1323.98
118.714
2321.33
-25.8687
1812.31
1369.52
-0.973966
89.6303
1398.42
1.48982
138.37
1394.97
0.627682
97.8892
1320.27
-7.38228
-7.25507
1198.52
-27.6738
-157.071
1055.31
-57.0901
-311.971
942.743
-127.99
-536.846
863.421
-249.588
-741.705
726.768
-79.4479
-567.336
404.363
182.92
132.586
-53.0242
281.672
1023.29
-504.117
121.835
1766.67
-876.552
206.813
2052.32
-1243.05
166.784
2329.8
-50.8632
1919.81
1369.84
89.2597
1397.76
136.504
1392.21
95.3124
1313.64
-10.7444
1184.89
-162.611
1028.72
-320.978
901.278
-566.801
769.205
-737.502
597.059
-404.074
288.55
405.452
-122.32
1194.5
-530.395
1806.75
-900.217
2036.87
-1263.57
2318.77
1935.46
1389.61
1.29378
107.457
1375.49
1.86466
150.614
1333.66
3.53755
136.329
1235.51
11.7346
83.1033
1086.77
35.2327
-25.7237
908.099
69.1953
-161.099
711.334
189.232
-411.67
487.771
289.187
-525.796
103.305
101.713
-18.433
-414.432
-192.425
927.534
-923.87
-155.895
1690.46
-1316.5
-100
2201.17
-1599.84
-146.681
2338.79
-1547.1
-93.4148
2264.55
18.3558
1488.94
1390.12
1.4978
107.639
1376.99
2.43424
151.574
1336.91
4.67604
137.657
1243.24
14.2207
85.0767
1105.35
40.6653
-22.476
945.764
73.7899
-153.467
789.276
207.75
-390.551
631.668
291.24
-583.639
322.189
65.8542
-238.041
-215.702
-215.006
662.186
-795.618
-155.376
1572.22
-1228.86
-87.463
2176.25
-1533.86
-136.67
2346.14
-1531.66
-56.3671
2294.74
12.8929
1501.13
1390.76
1.0546
107.792
1378.77
2.31836
152.213
1339.93
5.00774
138.374
1248.56
14.8059
86.3419
1115.98
41.5042
-19.6438
962.114
70.966
-146.599
836.983
193.425
-363.189
736.866
265.914
-611.988
451.179
44.4308
-379.662
-147.852
-196.411
545.414
-801.326
-130.84
1543.38
-1284.16
-49.1654
2186.87
-1612.88
-74.1046
2355.32
-1536.14
-56.3712
2251.49
-33.6019
1448.27
1390.97
0.656818
107.941
1379.94
1.90239
153.103
1342.7
4.5803
139.529
1254.47
13.1879
88.1718
1127.97
37.5145
-16.3288
979.952
62.0669
-140.275
866.857
166.865
-342.381
794.123
226.923
-614.695
536.081
17.8437
-431.374
-76.9167
-172.494
487.476
-773.884
-86.5938
1522.15
-1269.32
-11.4695
2182.19
-1590.97
-27.9019
2348.21
-1529.56
-51.6092
2249.12
-56.895
1453.6
1391.15
0.310419
108.007
1381.06
1.03393
153.764
1345.25
3.24329
140.333
1259.33
9.76644
89.4914
1137.4
29.7404
-13.5866
995.596
46.6669
-134.523
884.509
138.452
-326.254
821.404
184.317
-607.047
588.441
-16.7654
-458.686
-25.8973
-146.048
430.612
-753.609
-34.2463
1486.29
-1242.61
8.42724
2164.65
-1546.54
-16.1039
2338.42
-1528.17
-23.5076
2265.88
-63.402
1475.85
1391.23
0.111913
108.063
1381.78
-0.0193828
154.379
1347.21
1.23578
141.129
1263.18
5.04311
90.7301
1145.68
18.3048
-11.0418
1008.83
26.3252
-130.168
907.446
98.1303
-309.194
863.308
129.81
-596.328
646.022
-35.5699
-509.615
26.286
-112.186
354.747
-729.425
-4.78771
1441.96
-1231.62
10.4913
2151.32
-1524.61
-29.3155
2329.47
-1514.16
0.296596
2264.3
-34.1281
1480.15
1391.31
-0.0281225
108.07
1382.27
-1.20371
154.723
1348.61
-1.36478
141.581
1265.74
-0.523258
91.4126
1152.74
2.78608
-9.14537
1018.65
3.4639
-127.94
940.892
28.9712
-289.479
940.316
41.9177
-579.797
734.134
-21.0544
-577.345
86.7188