/*--------------------------------*- C++ -*----------------------------------*\
| =========                 |                                                 |
| \\      /  F ield         | OpenFOAM: The Open Source CFD Toolbox           |
|  \\    /   O peration     | Version:  4.1                                   |
|   \\  /    A nd           | Web:      www.OpenFOAM.org                      |
|    \\/     M anipulation  |                                                 |
\*---------------------------------------------------------------------------*/
FoamFile
{
    version     2.0;
    format      ascii;
    class       volVectorField;
    location    "8";
    object      U;
}
// * * * * * * * * * * * * * * * * * * * * * * * * * * * * * * * * * * * * * //

dimensions      [0 1 -1 0 0 0 0];

internalField   nonuniform List<vector> 
6750
(
(17.8997 -0.105017 8.35608)
(6.52129 0.023787 17.7559)
(12.7377 0.14015 8.23115)
(13.5416 0.169186 -0.217059)
(14.5755 0.249155 -9.27406)
(14.5967 0.31312 -16.5244)
(13.1709 0.306285 -19.5995)
(11.1991 0.280616 -18.847)
(8.86649 0.233047 -15.7231)
(6.96746 0.345583 -10.995)
(3.08198 0.130673 -4.8345)
(1.2079 -0.0908058 6.20483)
(-0.0976126 -0.197321 13.2464)
(0.99225 0.0541648 10.9202)
(-3.13062 -0.0553256 23.4148)
(17.5617 -0.16158 8.85573)
(6.26026 0.0465314 18.0818)
(12.625 0.209197 8.27345)
(13.3235 0.232068 -0.206574)
(14.3945 0.343073 -9.20776)
(14.5102 0.429281 -16.4261)
(13.2099 0.417463 -19.5314)
(11.327 0.39649 -18.8269)
(9.02328 0.35645 -15.7419)
(7.14923 0.498817 -11.2349)
(3.88989 0.169476 -5.58214)
(1.2338 0.0588562 5.55099)
(-0.0823059 -0.399052 13.8171)
(1.08985 -0.0963765 11.9366)
(-3.17373 -0.0476689 23.1775)
(17.4384 -0.144521 9.03581)
(6.19906 0.0555006 18.1623)
(12.5879 0.181805 8.28363)
(13.2337 0.199608 -0.210847)
(14.3153 0.299302 -9.20199)
(14.4616 0.37358 -16.3933)
(13.2182 0.36658 -19.497)
(11.3918 0.361462 -18.8118)
(9.13156 0.354408 -15.7487)
(7.35922 0.446118 -11.4552)
(4.53 0.285804 -6.04739)
(1.52317 0.444128 3.79421)
(-0.147093 -0.462535 13.349)
(1.07104 -0.1813 12.7217)
(-3.18559 -0.047804 22.7229)
(17.2506 -0.153285 9.30997)
(6.10617 0.0624124 18.2843)
(12.5451 0.183736 8.28427)
(13.1319 0.2037 -0.2159)
(14.2352 0.309923 -9.17817)
(14.4228 0.38998 -16.3429)
(13.2405 0.386885 -19.4551)
(11.4777 0.382248 -18.8017)
(9.2651 0.387935 -15.7913)
(7.51042 0.454871 -11.6555)
(4.73136 0.383263 -6.21526)
(1.74248 0.684445 2.20506)
(-0.222842 -0.546081 12.7776)
(1.13042 -0.11794 12.8729)
(-3.10965 -0.110088 22.9722)
(17.1246 -0.139623 9.49216)
(6.0487 0.0554226 18.3619)
(12.504 0.146421 8.29396)
(13.0299 0.151632 -0.211119)
(14.1485 0.239221 -9.15645)
(14.3733 0.308872 -16.2985)
(13.2488 0.310228 -19.4117)
(11.5543 0.312223 -18.7822)
(9.39843 0.359941 -15.8191)
(7.68432 0.435196 -11.8251)
(4.97619 0.532014 -6.3662)
(2.24501 0.759227 0.381501)
(-0.295556 -0.644579 12.3049)
(1.25998 -0.159373 12.7772)
(-3.05454 -0.107228 23.1037)
(16.9717 -0.128132 9.7107)
(5.95897 0.0457845 18.4795)
(12.4519 0.118883 8.3076)
(12.9245 0.116813 -0.21294)
(14.0559 0.186732 -9.13986)
(14.3177 0.248247 -16.26)
(13.2563 0.253147 -19.3745)
(11.6274 0.255129 -18.7696)
(9.5291 0.326743 -15.8338)
(7.98389 0.403585 -12.0062)
(5.49851 0.558252 -6.81879)
(3.55551 0.535343 -2.04937)
(-0.230825 -0.586863 11.2902)
(1.37162 -0.209387 12.775)
(-2.98147 -0.0721531 23.2705)
(16.8407 -0.0798963 9.8829)
(5.85956 0.0248718 18.6083)
(12.3923 0.0608967 8.33485)
(12.8179 0.0524497 -0.214761)
(13.9442 0.0878994 -9.13538)
(14.2325 0.124222 -16.2335)
(13.241 0.130895 -19.3381)
(11.6835 0.132674 -18.748)
(9.63428 0.186341 -15.817)
(8.29709 0.231557 -12.1366)
(6.07163 0.339667 -7.22397)
(4.703 0.265985 -3.61002)
(-0.120781 -0.321759 9.22367)
(1.40601 -0.175471 13.0159)
(-2.94617 -0.015295 23.165)
(16.7982 0.00112962 9.929)
(5.82479 -0.00228958 18.6585)
(12.3684 -0.00364133 8.35017)
(12.7784 -0.00385491 -0.212315)
(13.9038 -0.00789574 -9.13701)
(14.1998 -0.0113018 -16.2327)
(13.2335 -0.00929177 -19.3349)
(11.6996 -0.00280086 -18.7487)
(9.65597 0.00609951 -15.8158)
(8.40075 0.0168205 -12.1635)
(6.20979 0.0460951 -7.30962)
(5.20635 0.120991 -3.97872)
(-0.0391421 1.73831e-05 7.54258)
(1.38958 -0.00396167 13.2662)
(-2.96199 0.00493001 22.8759)
(16.8531 0.0807027 9.8612)
(5.86775 -0.0284143 18.6023)
(12.3956 -0.0665887 8.33587)
(12.8261 -0.0591257 -0.21444)
(13.9538 -0.102048 -9.14054)
(14.2389 -0.14399 -16.2412)
(13.2427 -0.147432 -19.3439)
(11.6866 -0.137864 -18.752)
(9.64341 -0.177681 -15.8202)
(8.31781 -0.203414 -12.1368)
(6.08709 -0.268023 -7.21385)
(4.80409 -0.0488143 -3.73169)
(-0.108996 0.336671 9.05512)
(1.41286 0.172132 13.0127)
(-2.94741 0.0263815 23.1647)
(16.985 0.127686 9.68592)
(5.96709 -0.0478751 18.4727)
(12.4561 -0.122845 8.30745)
(12.9368 -0.122597 -0.214987)
(14.0692 -0.199396 -9.14774)
(14.3288 -0.265591 -16.2703)
(13.2646 -0.268484 -19.3829)
(11.6381 -0.262047 -18.7761)
(9.55125 -0.323492 -15.8419)
(8.01444 -0.382124 -12.0083)
(5.51736 -0.504799 -6.79901)
(3.60004 -0.354598 -2.22262)
(-0.232885 0.614501 11.2239)
(1.37838 0.212754 12.8023)
(-2.98621 0.0835139 23.2619)
(17.1392 0.139235 9.46436)
(6.05749 -0.0566448 18.3532)
(12.5091 -0.149561 8.29266)
(13.046 -0.156789 -0.21525)
(14.1655 -0.250578 -9.16731)
(14.3887 -0.32453 -16.3121)
(13.2624 -0.324512 -19.4232)
(11.5705 -0.320342 -18.7918)
(9.42661 -0.359778 -15.8309)
(7.71962 -0.41897 -11.8284)
(4.99311 -0.475224 -6.34533)
(2.31538 -0.674203 0.308661)
(-0.302496 0.679163 12.3045)
(1.26483 0.167662 12.825)
(-3.06319 0.117227 23.0906)
(17.2659 0.152868 9.28084)
(6.11556 -0.0628453 18.2741)
(12.5511 -0.186005 8.28171)
(13.1513 -0.208062 -0.221966)
(14.2558 -0.319931 -9.19144)
(14.4423 -0.404146 -16.3593)
(13.2582 -0.400636 -19.4697)
(11.4977 -0.392044 -18.8148)
(9.29651 -0.391705 -15.8068)
(7.54476 -0.4435 -11.6579)
(4.73915 -0.325595 -6.18764)
(1.715 -0.608875 2.21772)
(-0.232556 0.579057 12.7811)
(1.13092 0.128251 12.9278)
(-3.1225 0.118786 22.9574)
(17.4543 0.144298 9.0056)
(6.20931 -0.0554763 18.1499)
(12.5946 -0.183517 8.27959)
(13.2561 -0.20321 -0.21905)
(14.3388 -0.307519 -9.21814)
(14.4845 -0.385335 -16.4132)
(13.2392 -0.378384 -19.5152)
(11.4152 -0.370886 -18.8289)
(9.16521 -0.358781 -15.7683)
(7.38946 -0.437876 -11.4571)
(4.53061 -0.231182 -6.01716)
(1.50474 -0.389262 3.82151)
(-0.157537 0.482877 13.3482)
(1.06798 0.18973 12.7898)
(-3.20259 0.0552709 22.7038)
(17.578 0.161408 8.82492)
(6.27116 -0.0460485 18.0679)
(12.6323 -0.210427 8.26833)
(13.348 -0.235102 -0.216101)
(14.4205 -0.350339 -9.22552)
(14.5362 -0.440034 -16.4481)
(13.2334 -0.428999 -19.5519)
(11.3517 -0.405978 -18.8472)
(9.05591 -0.360326 -15.7639)
(7.17238 -0.495992 -11.2317)
(3.87461 -0.126282 -5.54567)
(1.21696 -0.018126 5.61246)
(-0.0936452 0.414211 13.8118)
(1.08069 0.1056 12.0311)
(-3.19472 0.0534986 23.148)
(17.9163 0.104931 8.32518)
(6.53342 -0.0233494 17.7397)
(12.746 -0.140721 8.22428)
(13.5689 -0.17087 -0.229165)
(14.6036 -0.253561 -9.29569)
(14.6241 -0.32011 -16.5502)
(13.196 -0.314328 -19.6233)
(11.2274 -0.287575 -18.8708)
(8.90435 -0.237821 -15.7478)
(6.99749 -0.35055 -10.9977)
(3.07107 -0.114134 -4.8016)
(1.19506 0.109278 6.26863)
(-0.110509 0.204176 13.2338)
(0.97919 -0.047227 11.0467)
(-3.1551 0.0576778 23.38)
(25.7117 -0.0935474 3.87129)
(20.5068 -0.161866 13.2242)
(25.2061 0.0295972 7.12831)
(27.8746 0.162961 -0.475006)
(27.2687 0.218178 -8.45285)
(24.6678 0.209902 -14.216)
(20.26 0.177539 -15.9788)
(15.6588 0.207394 -14.8257)
(12.0522 0.200748 -11.8433)
(9.54442 0.0804702 -6.72082)
(5.4437 -0.128367 0.361944)
(3.31212 -0.212431 7.69234)
(-0.88316 -0.603691 15.2584)
(3.76274 0.174364 12.3522)
(-9.55228 -0.0504038 24.4863)
(25.7291 -0.150731 4.08997)
(20.3339 -0.226373 13.5704)
(25.0984 0.079097 7.35391)
(27.7674 0.267659 -0.284052)
(27.2344 0.335233 -8.29039)
(24.7491 0.317671 -14.1)
(20.4666 0.264913 -15.9203)
(15.8653 0.317998 -14.7511)
(12.1521 0.261504 -11.8566)
(9.74823 -0.0325485 -7.24484)
(6.22801 -0.352824 -0.576613)
(3.58396 -0.0722587 6.91651)
(-0.781538 -0.891331 15.4849)
(3.17392 -0.0740139 13.7856)
(-9.79663 -0.110736 24.2046)
(25.7212 -0.142955 4.18626)
(20.3182 -0.171645 13.673)
(25.1023 0.0921737 7.42398)
(27.7478 0.244852 -0.214852)
(27.2345 0.296871 -8.2244)
(24.7897 0.281333 -14.044)
(20.566 0.237188 -15.8939)
(15.9835 0.294722 -14.7055)
(12.2813 0.263387 -11.8798)
(10.0694 -0.00418431 -7.67846)
(6.73553 -0.221088 -1.14362)
(4.11415 0.44958 5.69479)
(-1.05479 -0.756145 15.1008)
(3.65448 -0.372814 14.0176)
(-9.86012 -0.159914 23.9272)
(25.7036 -0.159502 4.33475)
(20.266 -0.17426 13.8339)
(25.0963 0.0921227 7.51954)
(27.7356 0.253625 -0.129369)
(27.2552 0.312803 -8.14681)
(24.8636 0.298891 -13.9861)
(20.708 0.255763 -15.8715)
(16.15 0.307294 -14.684)
(12.3885 0.29606 -11.9158)
(10.1936 0.0375978 -7.91656)
(6.80643 -0.173026 -1.4072)
(4.35413 0.687975 4.7218)
(-1.18743 -0.82178 14.6542)
(3.73674 -0.362117 14.1179)
(-9.67918 -0.205434 24.1465)
(25.688 -0.154659 4.44254)
(20.2465 -0.14549 13.9399)
(25.0966 0.0832003 7.59091)
(27.7173 0.214957 -0.0569293)
(27.2587 0.262712 -8.07636)
(24.9102 0.250393 -13.927)
(20.812 0.211012 -15.8395)
(16.2899 0.265584 -14.6612)
(12.4917 0.29887 -11.9355)
(10.3422 0.0912328 -8.08924)
(6.95435 -0.044471 -1.6854)
(4.80076 0.848203 3.7269)
(-1.24368 -0.865264 14.2861)
(3.77582 -0.441549 14.1584)
(-9.55057 -0.233069 24.2251)
(25.6744 -0.160078 4.56666)
(20.1841 -0.130085 14.0876)
(25.0549 0.0642636 7.6856)
(27.6657 0.174097 0.0261389)
(27.2405 0.21776 -8.00226)
(24.9506 0.209865 -13.8675)
(20.9227 0.174999 -15.8093)
(16.44 0.236715 -14.6399)
(12.6638 0.305273 -11.9346)
(10.6753 0.128743 -8.32188)
(7.43681 0.0647247 -2.30804)
(5.82744 0.68404 2.55246)
(-1.04343 -0.809679 13.4638)
(3.9688 -0.462517 14.098)
(-9.37666 -0.231285 24.3676)
(25.6519 -0.119738 4.66377)
(20.0706 -0.077491 14.2391)
(24.9525 0.0339465 7.78465)
(27.556 0.0924827 0.104826)
(27.1675 0.11647 -7.93509)
(24.944 0.112622 -13.8074)
(21.0029 0.0921052 -15.7685)
(16.5753 0.133838 -14.5981)
(12.8818 0.192351 -11.9016)
(11.1659 0.0947904 -8.54181)
(8.11086 0.0926494 -3.05978)
(7.27955 0.371117 1.50359)
(-0.597952 -0.452586 11.7058)
(4.35583 -0.2792 13.9688)
(-9.28533 -0.14244 24.3529)
(25.6305 -0.00523138 4.69234)
(20.0069 -0.000620396 14.2968)
(24.8938 -0.00598028 7.81994)
(27.4972 -0.0109548 0.126793)
(27.1229 -0.0153943 -7.92253)
(24.9227 -0.0171023 -13.7988)
(21.0138 -0.0146172 -15.7631)
(16.6081 -0.0113685 -14.5886)
(12.9565 -0.00457334 -11.8916)
(11.3603 0.0116264 -8.59736)
(8.35433 0.042305 -3.30378)
(7.91547 0.119976 1.12933)
(-0.302139 0.0260735 10.4288)
(4.52356 -0.00922161 13.9556)
(-9.33024 0.0140043 24.1511)
(25.6471 0.11288 4.65084)
(20.0706 0.0753161 14.2291)
(24.9512 -0.0451265 7.77731)
(27.5568 -0.11206 0.0947475)
(27.1645 -0.143156 -7.94783)
(24.9333 -0.143038 -13.8195)
(20.9885 -0.120568 -15.7783)
(16.573 -0.158785 -14.6075)
(12.8949 -0.207951 -11.9049)
(11.1885 -0.0751351 -8.53014)
(8.11404 -0.0256167 -3.04231)
(7.3911 -0.153005 1.4466)
(-0.549719 0.526219 11.5647)
(4.3782 0.289002 13.9546)
(-9.28814 0.168804 24.3564)
(25.6707 0.156996 4.55077)
(20.1851 0.126703 14.0758)
(25.0533 -0.0742705 7.67674)
(27.6661 -0.190855 0.0137592)
(27.2377 -0.240485 -8.01748)
(24.9426 -0.237121 -13.8821)
(20.9123 -0.203857 -15.822)
(16.4433 -0.265332 -14.6547)
(12.6902 -0.327069 -11.9455)
(10.7004 -0.112634 -8.30629)
(7.44427 -0.0193161 -2.26765)
(5.88257 -0.518451 2.52285)
(-1.05076 0.907322 13.4096)
(4.00809 0.498737 14.1064)
(-9.3914 0.257286 24.3702)
(25.6841 0.152085 4.42469)
(20.2474 0.142197 13.9258)
(25.0941 -0.091713 7.58003)
(27.7168 -0.229464 -0.0723399)
(27.255 -0.283153 -8.09522)
(24.9016 -0.275628 -13.9451)
(20.8009 -0.239037 -15.8559)
(16.2929 -0.295905 -14.6808)
(12.5223 -0.323203 -11.9522)
(10.3662 -0.0808374 -8.07267)
(6.96177 0.0869935 -1.63255)
(4.73367 -0.700312 3.73568)
(-1.28682 0.958208 14.3062)
(3.80378 0.478966 14.1925)
(-9.57803 0.258724 24.223)
(25.6992 0.15748 4.31581)
(20.2663 0.171583 13.8179)
(25.0931 -0.0991261 7.50677)
(27.7344 -0.265968 -0.147522)
(27.2507 -0.330901 -8.16903)
(24.8535 -0.322351 -14.0077)
(20.694 -0.283697 -15.8915)
(16.1493 -0.34083 -14.7091)
(12.4154 -0.324115 -11.9379)
(10.2065 -0.0325222 -7.89311)
(6.79089 0.218785 -1.33018)
(4.28414 -0.559029 4.77538)
(-1.24387 0.894977 14.6769)
(3.7537 0.394587 14.1666)
(-9.71929 0.229807 24.1423)
(25.7162 0.141481 4.16682)
(20.318 0.169619 13.655)
(25.0983 -0.097649 7.40895)
(27.7458 -0.254696 -0.236229)
(27.2286 -0.31164 -8.25053)
(24.7772 -0.300938 -14.0697)
(20.5484 -0.261503 -15.9179)
(15.9785 -0.325067 -14.7367)
(12.2977 -0.287442 -11.9063)
(10.0605 0.00588668 -7.642)
(6.68815 0.263006 -1.04371)
(4.03401 -0.346709 5.77082)
(-1.11773 0.810401 15.1174)
(3.6597 0.391468 14.0823)
(-9.91145 0.183004 23.9156)
(25.7236 0.149606 4.07032)
(20.3336 0.225051 13.5508)
(25.0942 -0.0833498 7.33729)
(27.7652 -0.275875 -0.307467)
(27.2281 -0.348186 -8.31896)
(24.7355 -0.335872 -14.1283)
(20.4451 -0.288221 -15.9472)
(15.8543 -0.345168 -14.7874)
(12.1572 -0.28055 -11.8811)
(9.71785 0.0259201 -7.18629)
(6.14079 0.374272 -0.454156)
(3.48588 0.150768 7.03133)
(-0.847766 0.932086 15.4962)
(3.16617 0.0934191 13.8757)
(-9.85471 0.132929 24.1779)
(25.7054 0.0929763 3.85233)
(20.506 0.161344 13.2029)
(25.2014 -0.0316729 7.10921)
(27.8715 -0.167402 -0.501989)
(27.2604 -0.225716 -8.48558)
(24.6512 -0.221137 -14.2483)
(20.2352 -0.192298 -16.0106)
(15.651 -0.225397 -14.8664)
(12.0627 -0.216834 -11.8665)
(9.52649 -0.0985042 -6.66648)
(5.3593 0.122779 0.477297)
(3.21811 0.248352 7.80372)
(-0.948027 0.623305 15.2639)
(3.71966 -0.16021 12.4947)
(-9.61853 0.062024 24.4448)
(24.0182 0.000515543 -0.37291)
(20.2241 -0.127749 5.47177)
(22.5701 -0.102505 2.44441)
(25.5155 -0.062769 -2.65832)
(23.7835 -0.027756 -7.26155)
(19.6777 0.0257644 -10.1537)
(14.6686 0.117629 -10.9461)
(11.1054 0.348315 -11.0495)
(8.93541 0.386295 -9.31809)
(7.59237 -0.086606 -4.20962)
(4.01102 -0.626203 3.50156)
(4.63148 -0.358354 10.3247)
(-3.53318 -1.22059 17.2672)
(9.28625 -0.523287 13.51)
(-17.8863 0.28524 27.5946)
(24.0213 -0.00164503 -0.355203)
(20.2782 -0.185427 5.67751)
(22.6998 -0.124874 2.66042)
(25.6846 -0.0610392 -2.4773)
(24.0172 -0.00970748 -7.13879)
(19.9662 0.0651349 -10.0858)
(15.0083 0.182815 -10.8642)
(11.301 0.501169 -10.8114)
(9.08876 0.386198 -9.4163)
(8.13997 -0.435145 -5.19389)
(4.8055 -1.20949 1.93335)
(4.96596 -0.44594 9.22343)
(-3.22436 -1.505 17.4372)
(6.4152 -0.474528 16.0992)
(-17.9876 0.139349 26.5073)
(24.0205 -0.0013947 -0.338941)
(20.3245 -0.151794 5.74935)
(22.777 -0.0901681 2.71914)
(25.7621 -0.0360277 -2.42691)
(24.1126 0.0071957 -7.09947)
(20.0777 0.0697149 -10.0614)
(15.1491 0.163184 -10.8343)
(11.376 0.452914 -10.6627)
(9.3161 0.367376 -9.56078)
(8.735 -0.30196 -5.99336)
(5.296 -0.960018 0.996146)
(5.33643 -0.138218 8.27164)
(-3.32323 -0.85072 16.8339)
(6.51149 -0.441373 16.2436)
(-18.1489 -0.344676 26.3528)
(24.0226 -0.000592556 -0.313825)
(20.37 -0.158023 5.86685)
(22.8733 -0.0978788 2.82398)
(25.8745 -0.0407569 -2.34547)
(24.2583 0.00578976 -7.04759)
(20.2524 0.0728279 -10.0348)
(15.3558 0.17024 -10.8036)
(11.4914 0.442408 -10.5438)
(9.35664 0.3879 -9.58502)
(8.87035 -0.228178 -6.25575)
(5.34733 -0.889254 0.633992)
(5.50013 -0.0766535 7.62227)
(-3.73042 -0.775343 16.6344)
(7.59318 -0.499354 15.7185)
(-17.9531 -0.395801 26.709)
(24.0246 -0.000871555 -0.290204)
(20.4145 -0.133219 5.94464)
(22.9524 -0.0757548 2.89009)
(25.9582 -0.0256912 -2.29077)
(24.3631 0.0123425 -7.00756)
(20.3762 0.0628519 -10.0093)
(15.5112 0.135549 -10.775)
(11.598 0.386788 -10.4589)
(9.39085 0.37363 -9.57122)
(9.01829 -0.106076 -6.43582)
(5.51686 -0.657967 0.176808)
(5.90549 0.0285864 6.86332)
(-3.82642 -0.657793 16.4235)
(7.982 -0.490549 15.5873)
(-17.7631 -0.494543 26.8209)
(24.0327 -0.00235899 -0.264591)
(20.4542 -0.118695 6.0401)
(23.0248 -0.0703344 2.98237)
(26.0428 -0.0269996 -2.21169)
(24.477 0.00471634 -6.95137)
(20.5207 0.042182 -9.97612)
(15.684 0.101016 -10.7506)
(11.7366 0.349301 -10.3672)
(9.57414 0.372007 -9.53245)
(9.4032 -0.0137163 -6.75085)
(6.03359 -0.417833 -0.710598)
(6.82105 -0.0607402 5.70359)
(-3.49786 -0.63187 15.7066)
(8.81556 -0.356861 15.0417)
(-17.5039 -0.506157 27.049)
(24.0462 -0.00680708 -0.238489)
(20.474 -0.071753 6.12752)
(23.0626 -0.0415052 3.07497)
(26.0942 -0.0165902 -2.12693)
(24.558 -0.00016918 -6.88666)
(20.6365 0.0163254 -9.93433)
(15.8341 0.0452759 -10.7251)
(11.8842 0.203604 -10.258)
(9.90214 0.235169 -9.46883)
(10.0304 0.0253344 -7.10864)
(6.93782 -0.147508 -1.74407)
(8.08825 -0.0195834 4.37931)
(-2.51772 -0.412606 13.8284)
(8.93461 -0.11302 14.9315)
(-17.4283 -0.250736 27.1339)
(24.0507 -0.00785036 -0.224953)
(20.4695 -0.00234439 6.16218)
(23.0617 -0.00490131 3.11029)
(26.0989 -0.010014 -2.09702)
(24.569 -0.0149829 -6.86687)
(20.6589 -0.0187469 -9.92449)
(15.8674 -0.021168 -10.7212)
(11.9299 -0.0265533 -10.2249)
(10.0399 -0.0183757 -9.43959)
(10.2967 0.00607561 -7.20229)
(7.30802 0.0595582 -2.07389)
(8.58418 0.104231 3.88186)
(-1.88848 0.0607392 12.5502)
(8.46304 0.00520857 15.2478)
(-17.5509 0.0140589 26.9321)
(24.0407 -0.00578896 -0.240818)
(20.4651 0.0659482 6.12085)
(23.0503 0.0310036 3.06783)
(26.0789 -0.0017864 -2.13537)
(24.5332 -0.0268085 -6.89686)
(20.6049 -0.0524978 -9.94526)
(15.8058 -0.0886209 -10.7403)
(11.8759 -0.259037 -10.2778)
(9.90038 -0.27723 -9.47115)
(10.0332 -0.0122028 -7.08615)
(6.90761 0.250066 -1.7093)
(8.16438 0.220616 4.32771)
(-2.4445 0.528332 13.6703)
(9.0053 0.167168 14.8586)
(-17.4382 0.285779 27.156)
(24.0255 -0.00532814 -0.268317)
(20.4439 0.111464 6.0307)
(23.0094 0.0591072 2.97338)
(26.0246 0.00999772 -2.22149)
(24.4531 -0.0297847 -6.96279)
(20.4936 -0.0776257 -9.98879)
(15.6588 -0.146257 -10.7704)
(11.7367 -0.405885 -10.3992)
(9.58424 -0.415188 -9.54396)
(9.39607 0.0330898 -6.7125)
(5.98633 0.494615 -0.639706)
(6.84857 0.243438 5.70119)
(-3.51201 0.745403 15.627)
(8.83918 0.429593 15.0318)
(-17.5453 0.549959 27.073)
(24.0173 -0.00448433 -0.293946)
(20.4038 0.125743 5.93244)
(22.9348 0.0650812 2.87832)
(25.9373 0.00975506 -2.30324)
(24.3363 -0.0363759 -7.02129)
(20.3459 -0.0961018 -10.0246)
(15.4825 -0.179598 -10.8001)
(11.598 -0.443239 -10.5005)
(9.40976 -0.416371 -9.59125)
(9.00582 0.124623 -6.39084)
(5.46167 0.719266 0.275773)
(5.83849 0.134842 6.92338)
(-3.89931 0.757875 16.4217)
(7.9431 0.538699 15.6265)
(-17.823 0.540845 26.8273)
(24.0151 -0.00347705 -0.318114)
(20.3577 0.150907 5.85266)
(22.8533 0.0878086 2.81037)
(25.8505 0.0259261 -2.35994)
(24.2274 -0.028643 -7.06379)
(20.2164 -0.104946 -10.0529)
(15.3213 -0.214974 -10.834)
(11.4876 -0.501552 -10.597)
(9.37068 -0.431792 -9.61299)
(8.83582 0.247685 -6.19574)
(5.26417 0.945775 0.764028)
(5.37699 0.219533 7.73678)
(-3.81398 0.862409 16.6352)
(7.49098 0.536207 15.7943)
(-18.0259 0.434769 26.697)
(24.0126 -0.00117051 -0.34355)
(20.311 0.145724 5.73324)
(22.7549 0.0817328 2.70325)
(25.735 0.0236978 -2.44409)
(24.077 -0.0264321 -7.11859)
(20.0353 -0.0970068 -10.0824)
(15.1093 -0.202933 -10.8699)
(11.3665 -0.505279 -10.7272)
(9.31093 -0.403225 -9.59042)
(8.66343 0.319619 -5.90346)
(5.1779 1.00517 1.16774)
(5.18274 0.242767 8.42248)
(-3.40179 0.920925 16.8224)
(6.38078 0.471467 16.3257)
(-18.2295 0.368139 26.3238)
(24.0134 0.000303268 -0.360086)
(20.264 0.179955 5.65994)
(22.6767 0.117239 2.64305)
(25.6559 0.0499364 -2.49613)
(23.9791 -0.00828436 -7.15965)
(19.9194 -0.092303 -10.1087)
(14.9613 -0.221766 -10.905)
(11.2829 -0.545528 -10.8839)
(9.0658 -0.415906 -9.43147)
(8.03072 0.445209 -5.06173)
(4.66533 1.22812 2.14074)
(4.78741 0.510735 9.41034)
(-3.32507 1.56144 17.4161)
(6.30369 0.520116 16.1724)
(-18.0773 -0.123205 26.4735)
(24.0106 -0.000936171 -0.377754)
(20.2086 0.12487 5.45277)
(22.5448 0.0981633 2.42481)
(25.4833 0.0562445 -2.68)
(23.7399 0.0168904 -7.28515)
(19.6229 -0.0429961 -10.1805)
(14.614 -0.142831 -10.9962)
(11.0859 -0.379877 -11.1262)
(8.91724 -0.415023 -9.32435)
(7.49554 0.0711876 -4.08213)
(3.86969 0.613579 3.69445)
(4.46303 0.387251 10.5009)
(-3.68838 1.25767 17.2462)
(9.17091 0.550934 13.6231)
(-17.9958 -0.276762 27.5495)
(25.2588 -0.000868058 0.477973)
(17.5558 -0.0520161 2.23539)
(16.3111 -0.0733606 1.14688)
(18.8536 -0.0636543 -1.10989)
(16.9717 -0.00702108 -3.53863)
(13.9645 0.101313 -5.67658)
(11.1818 0.291906 -7.6631)
(10.0934 0.752988 -9.6846)
(8.53879 0.589795 -7.90031)
(7.81018 -0.205414 -1.25412)
(3.04221 -1.35111 6.3265)
(3.99999 -0.678391 13.3613)
(-6.19787 -1.34862 16.6255)
(7.34756 -1.17666 18.6005)
(-27.3902 0.478348 29.8365)
(25.2396 -0.00230441 0.47529)
(17.5564 -0.0794681 2.29805)
(16.3841 -0.0974783 1.21762)
(18.9624 -0.0718482 -1.04704)
(17.1232 0.0182931 -3.47707)
(14.1557 0.168802 -5.60045)
(11.4502 0.42811 -7.42773)
(10.2809 0.997073 -9.30107)
(9.22338 0.503536 -8.39408)
(8.80341 -0.63451 -3.19501)
(4.36789 -1.85555 4.31748)
(4.05163 -0.81334 12.3847)
(-6.0917 -1.82408 17.5437)
(4.92369 -1.1461 19.9939)
(-27.0868 0.538588 28.3407)
(25.2293 -0.00388858 0.475407)
(17.571 -0.070321 2.32564)
(16.4328 -0.0764489 1.23883)
(19.0194 -0.0479007 -1.02675)
(17.1924 0.0335036 -3.44874)
(14.2336 0.153212 -5.56976)
(11.5412 0.365623 -7.29803)
(10.3252 0.867812 -9.05323)
(9.81576 0.5157 -8.91761)
(9.68949 -0.398006 -4.553)
(5.21182 -1.4401 3.15871)
(4.546 -0.57289 11.4192)
(-5.6021 -0.938976 17.2241)
(2.12888 -0.526925 21.0818)
(-26.8008 -0.258144 27.4168)
(25.2164 -0.00523404 0.472387)
(17.5753 -0.0737584 2.371)
(16.4857 -0.0819304 1.2862)
(19.0931 -0.0536806 -0.982307)
(17.2951 0.0307555 -3.39961)
(14.3557 0.157565 -5.51505)
(11.6859 0.366089 -7.16373)
(10.353 0.815858 -8.82693)
(9.96492 0.531374 -9.04538)
(10.0351 -0.29061 -4.98788)
(5.58451 -1.34816 2.76069)
(4.69761 -0.677779 11.0091)
(-5.99263 -0.453811 17.039)
(4.24029 -0.336256 20.2855)
(-26.7909 -0.66163 28.0381)
(25.2063 -0.00631193 0.470704)
(17.5868 -0.0630828 2.40194)
(16.5336 -0.066816 1.31324)
(19.1519 -0.0427762 -0.958184)
(17.3712 0.0271767 -3.36947)
(14.441 0.12321 -5.47612)
(11.8056 0.291391 -7.05906)
(10.3879 0.695227 -8.65462)
(10.0443 0.451029 -9.0514)
(10.3167 -0.124937 -5.31484)
(6.16727 -0.905055 2.10997)
(4.96571 -0.44422 10.4647)
(-6.3762 -0.244914 16.8489)
(6.14041 -0.136533 19.6274)
(-26.8497 -0.780445 28.5978)
(25.1955 -0.00712024 0.467759)
(17.5952 -0.0548031 2.43467)
(16.5804 -0.061155 1.34681)
(19.2134 -0.0470281 -0.927772)
(17.4519 0.00788156 -3.33645)
(14.5378 0.0777553 -5.43931)
(11.9176 0.227723 -6.97167)
(10.4722 0.606744 -8.45679)
(10.3294 0.392652 -9.05278)
(10.7303 -0.0399499 -5.8051)
(7.08383 -0.523646 0.911973)
(6.05207 -0.261392 9.26402)
(-6.42803 -0.437901 16.2538)
(7.98243 -0.172044 18.7988)
(-26.6757 -0.538129 29.0711)
(25.1867 -0.0091597 0.465876)
(17.6073 -0.0357265 2.45889)
(16.6231 -0.0389323 1.37173)
(19.2669 -0.0343476 -0.907473)
(17.5161 -0.00503078 -3.3176)
(14.6221 0.0248669 -5.42072)
(12.0006 0.111328 -6.90873)
(10.6122 0.357872 -8.21652)
(10.8558 0.231762 -9.01438)
(11.4137 -0.024197 -6.33839)
(8.12493 -0.195213 -0.355972)
(7.59234 0.0511693 7.49779)
(-5.08552 -0.499144 14.8008)
(5.88152 -0.220735 19.7762)
(-26.4127 0.0436442 28.6729)
(25.1824 -0.0108722 0.466356)
(17.6031 -0.0096981 2.46905)
(16.6251 -0.00943017 1.38203)
(19.2713 -0.0140287 -0.899364)
(17.52 -0.0194038 -3.31303)
(14.6385 -0.0261969 -5.41965)
(12.0074 -0.0373402 -6.89598)
(10.6726 -0.0504784 -8.12999)
(11.092 -0.0337066 -8.9758)
(11.74 -0.00583844 -6.48109)
(8.49243 0.0488911 -0.723083)
(8.16437 0.118437 6.73404)
(-4.23078 0.0657548 14.0288)
(3.51257 0.00944053 20.7712)
(-26.2866 0.004859 27.9685)
(25.182 -0.00596415 0.469566)
(17.5891 0.0195079 2.45861)
(16.5966 0.0213861 1.36931)
(19.2394 0.00804473 -0.910391)
(17.4855 -0.0336534 -3.32572)
(14.5913 -0.0786014 -5.43401)
(11.9746 -0.184995 -6.9358)
(10.5868 -0.457913 -8.2452)
(10.8159 -0.30141 -9.01518)
(11.3803 0.0167419 -6.31291)
(8.05952 0.279877 -0.339642)
(7.64552 0.172632 7.42283)
(-5.04068 0.587537 14.6529)
(5.95726 0.245728 19.7269)
(-26.4258 0.0123118 28.688)
(25.1895 0.00145419 0.473367)
(17.5794 0.0414107 2.43218)
(16.5568 0.0432878 1.34133)
(19.1903 0.0208993 -0.932933)
(17.4272 -0.0473014 -3.34784)
(14.5114 -0.132083 -5.45712)
(11.8906 -0.300148 -7.00852)
(10.4571 -0.701662 -8.50389)
(10.2877 -0.457145 -9.05393)
(10.6684 0.0470476 -5.74359)
(6.96844 0.593835 0.988506)
(5.96592 0.456749 9.28953)
(-6.40066 0.509266 16.1922)
(7.69784 0.186667 18.9258)
(-26.6956 0.611351 28.9984)
(25.2015 0.0028176 0.476875)
(17.5758 0.0500944 2.39735)
(16.5133 0.049277 1.30523)
(19.1291 0.0178604 -0.965911)
(17.3444 -0.064388 -3.38433)
(14.4108 -0.172799 -5.49931)
(11.7736 -0.361199 -7.10667)
(10.376 -0.78716 -8.71596)
(10.009 -0.51012 -9.05484)
(10.2369 0.140326 -5.22775)
(6.01134 0.969222 2.24304)
(4.72617 0.60332 10.5882)
(-6.39163 0.322266 16.8619)
(5.76738 0.152586 19.7773)
(-26.8682 0.825522 28.479)
(25.2109 0.00158748 0.478717)
(17.5624 0.0620679 2.36515)
(16.4627 0.0660431 1.27651)
(19.066 0.0307331 -0.992595)
(17.2625 -0.0663174 -3.41836)
(14.3186 -0.204737 -5.54334)
(11.6496 -0.435802 -7.22246)
(10.3378 -0.906647 -8.90737)
(9.91727 -0.585541 -9.0512)
(9.91685 0.321442 -4.86572)
(5.37678 1.41673 2.9433)
(4.39736 0.803594 11.1852)
(-6.04803 0.52378 17.0624)
(3.86354 0.356299 20.4235)
(-26.8061 0.685946 27.8975)
(25.2231 0.00122999 0.481326)
(17.5556 0.0608002 2.31845)
(16.4066 0.0631194 1.22764)
(18.9876 0.0284521 -1.03956)
(17.1541 -0.0639186 -3.47094)
(14.1893 -0.19353 -5.60225)
(11.5028 -0.428028 -7.36789)
(10.3015 -0.947993 -9.14873)
(9.73544 -0.554656 -8.90934)
(9.52406 0.435595 -4.37812)
(4.94966 1.49444 3.39965)
(4.22229 0.66885 11.6316)
(-5.69344 0.982226 17.2451)
(1.80461 0.541355 21.1736)
(-26.8091 0.27881 27.2616)
(25.233 0.000641093 0.480146)
(17.5405 0.0713422 2.28957)
(16.3571 0.0854143 1.20547)
(18.9283 0.0538631 -1.06164)
(17.0807 -0.0477099 -3.50195)
(14.1046 -0.209338 -5.63678)
(11.404 -0.487702 -7.50988)
(10.2442 -1.06248 -9.4017)
(9.10731 -0.535686 -8.34742)
(8.59669 0.693804 -2.95126)
(4.07881 1.8966 4.59864)
(3.72132 0.868869 12.6093)
(-6.13531 1.84291 17.5196)
(4.50238 1.15505 20.132)
(-27.0991 -0.501924 28.1666)
(25.2522 0.000303267 0.481602)
(17.5386 0.0478093 2.22545)
(16.2817 0.0663924 1.13342)
(18.8151 0.052962 -1.12675)
(16.9216 -0.0108739 -3.56702)
(13.9002 -0.127108 -5.72032)
(11.1214 -0.331765 -7.75983)
(10.0388 -0.80141 -9.786)
(8.42389 -0.631795 -7.84252)
(7.6001 0.239457 -1.02672)
(2.77093 1.36145 6.57217)
(3.68095 0.693315 13.5472)
(-6.25897 1.36843 16.6063)
(6.82971 1.1753 18.8099)
(-27.4159 -0.458841 29.6299)
(26.0897 0.000410915 0.876758)
(17.1064 -0.0140557 1.54663)
(13.6576 -0.0159763 0.894292)
(15.8746 0.00844843 -0.704124)
(14.4613 0.0843991 -2.68193)
(12.4359 0.208939 -4.56406)
(10.8015 0.51186 -7.04725)
(9.81372 1.18653 -9.16735)
(7.60007 0.551985 -6.47659)
(6.74188 -0.714089 0.943642)
(0.40525 -1.41072 9.90888)
(-1.78809 -0.586493 17.3921)
(-10.6368 -0.951091 20.1412)
(-5.21437 -0.940459 25.4334)
(-32.4011 0.23525 25.6966)
(26.0871 0.00226445 0.880034)
(17.0955 -0.0191515 1.5717)
(13.6699 -0.0152998 0.930399)
(15.9147 0.030653 -0.656456)
(14.548 0.152215 -2.61172)
(12.6263 0.324481 -4.46592)
(11.1494 0.764627 -6.71541)
(10.3364 1.43197 -8.94156)
(9.17219 0.385019 -7.71072)
(7.82916 -1.07336 -1.5734)
(1.72399 -1.69857 7.6927)
(-1.53834 -0.733488 16.8673)
(-10.4288 -1.40209 20.5466)
(-4.91946 -0.926071 25.4571)
(-32.4847 0.409927 25.1393)
(26.0849 0.00182831 0.883242)
(17.1024 -0.0166176 1.58696)
(13.6966 -0.00839397 0.946398)
(15.952 0.0368111 -0.634721)
(14.597 0.147491 -2.57054)
(12.719 0.276752 -4.41642)
(11.2346 0.670538 -6.46929)
(10.6361 1.22507 -8.77678)
(10.2069 0.41621 -8.68002)
(8.85831 -0.777829 -3.02738)
(2.61447 -1.39218 6.48713)
(-1.43622 -0.499312 16.4433)
(-10.9915 -0.780838 21.0933)
(-7.86984 -0.428532 25.8121)
(-31.5293 -0.109723 23.632)
(26.0818 0.00082165 0.886151)
(17.0952 -0.0179903 1.60869)
(13.7104 -0.0103005 0.974944)
(15.9876 0.0353746 -0.596511)
(14.6617 0.149369 -2.51309)
(12.8397 0.282458 -4.34853)
(11.3744 0.644007 -6.26323)
(10.7911 1.1296 -8.59042)
(10.6242 0.44246 -8.93452)
(9.52324 -0.628204 -3.6381)
(3.31636 -1.32505 5.87327)
(-1.24448 -0.433989 16.1603)
(-10.8154 -0.190061 20.8479)
(-6.56059 -0.336933 25.5562)
(-31.6812 -0.560615 24.2115)
(26.0797 0.000693239 0.888644)
(17.0973 -0.0153521 1.62482)
(13.7309 -0.00832732 0.993315)
(16.0219 0.0294171 -0.572197)
(14.714 0.124758 -2.47097)
(12.9289 0.221459 -4.29074)
(11.5063 0.526996 -6.09769)
(10.8744 0.941447 -8.41727)
(10.8453 0.285967 -8.99352)
(9.98451 -0.471273 -4.12052)
(4.05533 -0.822019 5.09557)
(-1.2633 -0.187728 15.7866)
(-10.5361 0.0337538 20.4495)
(-4.90245 -0.0779017 25.3267)
(-32.1279 -0.646456 24.9881)
(26.0776 0.000122349 0.890974)
(17.0936 -0.0146417 1.63984)
(13.7423 -0.0119342 1.01224)
(16.0476 0.014106 -0.546961)
(14.7563 0.089478 -2.43014)
(13.0145 0.151044 -4.24189)
(11.6103 0.431051 -5.95464)
(11.054 0.79281 -8.20484)
(11.2688 0.168158 -9.1011)
(10.4015 -0.338426 -4.76261)
(5.04829 -0.417278 3.70964)
(-0.722773 -0.0496101 15.0257)
(-10.4147 -0.208353 20.074)
(-3.76763 -0.123724 25.0735)
(-32.1257 -0.412412 25.4791)
(26.0764 1.96097e-05 0.893092)
(17.0941 -0.0113039 1.64893)
(13.754 -0.0125203 1.02297)
(16.0684 -0.000903796 -0.532899)
(14.7848 0.0383651 -2.40278)
(13.0953 0.05647 -4.21231)
(11.667 0.230932 -5.82737)
(11.387 0.47642 -7.90473)
(12.0506 0.0626065 -9.19483)
(11.0688 -0.213785 -5.4862)
(6.21137 -0.138065 2.06837)
(0.297571 0.0643362 13.8459)
(-10.565 -0.411737 20.0469)
(-5.91354 -0.139923 25.5794)
(-31.4679 0.106981 24.6179)
(26.0766 -0.000517793 0.895837)
(17.0924 -0.00726849 1.65293)
(13.7551 -0.012852 1.02703)
(16.0729 -0.0172154 -0.527304)
(14.7901 -0.0279392 -2.39422)
(13.1243 -0.037415 -4.20614)
(11.6613 -0.0577367 -5.78989)
(11.5362 -0.0670982 -7.77542)
(12.4331 -0.0366825 -9.20228)
(11.3959 -0.015635 -5.69243)
(6.61282 0.0228941 1.54376)
(0.487277 0.106082 13.4491)
(-10.9804 0.0236957 20.2523)
(-7.96808 -0.00766415 25.8683)
(-30.8917 -0.0289559 23.5827)
(26.0778 -0.00159754 0.898258)
(17.0932 -0.00290052 1.64938)
(13.7524 -0.0121537 1.02078)
(16.0654 -0.0331948 -0.53514)
(14.7787 -0.0927063 -2.41033)
(13.0804 -0.128951 -4.22331)