/*--------------------------------*- C++ -*----------------------------------*\
| =========                 |                                                 |
| \\      /  F ield         | OpenFOAM: The Open Source CFD Toolbox           |
|  \\    /   O peration     | Version:  4.1                                   |
|   \\  /    A nd           | Web:      www.OpenFOAM.org                      |
|    \\/     M anipulation  |                                                 |
\*---------------------------------------------------------------------------*/
FoamFile
{
    version     2.0;
    format      ascii;
    class       volScalarField;
    location    "6.5";
    object      p;
}
// * * * * * * * * * * * * * * * * * * * * * * * * * * * * * * * * * * * * * //

dimensions      [0 2 -2 0 0 0 0];

internalField   nonuniform List<scalar> 
204246
(
-12.3373
-23.7403
-24.6048
-24.9659
-25.4101
-25.6486
-25.8818
-26.0342
-26.1404
-26.2162
-26.2946
-26.3362
-26.3247
-26.2809
-26.2647
-26.1793
-26.5828
-26.7292
-26.5166
-26.5943
-26.3497
-26.4837
-26.4247
-26.3373
-26.1465
-26.1668
-25.9736
-26.0392
-25.7301
-25.7113
-25.3139
-25.2341
-24.8193
-24.5442
-24.2954
-24.0347
-23.668
-23.1491
-22.6784
-22.0757
-21.5152
-21.0094
-20.6492
-20.5532
-20.9295
-21.9777
-24.282
-28.7758
-38.0155
-51.3526
-62.3585
-66.0611
-70.0178
-72.6226
-74.3516
-75.9415
-75.9855
-76.9785
-77.4986
-78.064
-78.4652
-78.6588
-78.3788
-77.6723
-76.5037
-75.0149
-73.0259
-71.1495
-69.408
-67.9983
-66.5779
-64.7591
-63.5743
-62.5645
-61.761
-61.1021
-60.8054
-60.726
-60.8882
-61.1071
-61.2239
-61.2814
-61.51
-61.8021
-62.2793
-62.5383
-64.1164
-65.1843
-65.1126
-65.8115
-65.7281
-66.5028
-66.5934
-67.5882
-67.3347
-68.2202
-67.8972
-68.8929
-69.0999
-69.3852
-69.5576
-69.6873
-69.7718
-69.847
-69.9596
-71.5215
-72.1811
-71.4951
-72.0927
-71.9398
-72.6943
-72.1803
-72.871
-72.5603
-73.2401
-72.8973
-73.5514
-73.1683
-73.8718
-73.6723
-73.482
-73.2639
-74.7231
-75.3562
-74.8261
-75.347
-74.8945
-75.4622
-75.0612
-75.8926
-75.9915
-75.9904
-75.7993
-76.522
-76.1627
-76.9675
-76.9036
-76.877
-76.8382
-78.4546
-79.3521
-79.2776
-80.1563
-80.0916
-81.0958
-81.1492
-82.5337
-83.3337
-84.2013
-85.0222
-85.805
-86.4569
-88.1346
-88.8937
-89.6273
-90.281
-92.6577
-93.9705
-94.167
-95.2246
-95.4736
-95.907
-94.8775
-95.4578
-93.9609
-93.1764
-91.0169
-89.243
-86.2369
-83.4516
-79.3451
-75.1867
-70.4347
-65.1377
-59.201
-52.6889
-45.3578
-37.1398
-28.1772
-17.951
-6.4503
6.66179
21.4162
38.1421
56.8363
77.7287
100.803
126.663
156.102
195.092
254.065
347.322
472.319
-19.2092
-20.8339
-22.6857
-23.9935
-24.9056
-25.478
-25.8096
-25.9882
-26.1213
-26.2256
-26.3113
-26.3557
-26.3723
-26.3468
-26.3286
-26.3594
-26.4735
-26.555
-26.5638
-26.5691
-26.5131
-26.5098
-26.4858
-26.4075
-26.3366
-26.2536
-26.1844
-26.1109
-25.9797
-25.8448
-25.683
-25.44
-25.2061
-24.9775
-24.7232
-24.4265
-24.0713
-23.6594
-23.1745
-22.6133
-21.9982
-21.3634
-20.7492
-20.2893
-20.0702
-20.387
-21.8109
-24.5258
-33.512
-49.7642
-61.5883
-67.6944
-69.7955
-71.8987
-74.0524
-75.4861
-76.1921
-76.7607
-77.5227
-78.1738
-78.82
-79.1081
-79.1315
-78.748
-77.9117
-76.9081
-75.2023
-73.2064
-71.1978
-69.2595
-67.4092
-65.6888
-64.1692
-63.0469
-62.0966
-61.3355
-60.8419
-60.6482
-60.6783
-60.8764
-61.0078
-61.2506
-61.4806
-61.8202
-62.1343
-62.553
-63.3415
-64.1136
-64.7247
-65.229
-65.6305
-66.0529
-66.5056
-66.9801
-67.3831
-67.7215
-68.0343
-68.4271
-68.9291
-69.1958
-69.5587
-69.7098
-69.8893
-69.9369
-70.2045
-70.8034
-71.3922
-71.6014
-71.7908
-72.0358
-72.2696
-72.4334
-72.5897
-72.797
-72.9652
-73.1754
-73.3355
-73.5461
-73.7343
-73.8726
-73.7159
-73.8293
-74.2439
-74.7191
-74.8923
-75.0595
-75.1871
-75.274
-75.441
-75.674
-75.9598
-75.9933
-76.1777
-76.3398
-76.606
-76.8442
-77.0982
-77.0869
-77.395
-77.9662
-78.5903
-79.127
-79.6696
-80.2215
-80.6939
-81.3227
-82.0433
-82.9635
-83.7632
-84.7214
-85.471
-86.5284
-87.6092
-88.8107
-89.648
-90.8284
-92.0638
-93.2879
-94.3665
-95.3235
-96.2828
-96.7157
-97.0571
-97.0146
-96.7292
-96.2867
-95.2193
-93.8192
-91.825
-89.343
-86.2237
-82.5896
-78.3736
-73.6734
-68.4002
-62.5714
-56.0092
-48.7476
-40.7352
-31.8112
-21.9056
-10.7382
1.80006
15.9866
31.8457
49.4563
68.6013
89.2413
111.318
136.824
172.669
238.846
336.83
-25.5698
-24.3174
-24.1277
-24.4301
-24.914
-25.3403
-25.6731
-25.8979
-26.0599
-26.1803
-26.2715
-26.3277
-26.3522
-26.355
-26.3742
-26.4163
-26.4627
-26.4779
-26.4806
-26.4846
-26.4753
-26.4825
-26.4467
-26.376
-26.3024
-26.2484
-26.204
-26.116
-25.9979
-25.8636
-25.6973
-25.5086
-25.3206
-25.1215
-24.8744
-24.5952
-24.2656
-23.8965
-23.4806
-23.0309
-22.5412
-22.0143
-21.4611
-21.0219
-20.8164
-21.3241
-24.3798
-30.7003
-37.8415
-49.656
-61.1593
-66.9551
-69.2996
-71.3214
-73.1027
-74.4475
-75.3328
-76.11
-76.9019
-77.6779
-78.4171
-78.9779
-79.2613
-78.8359
-78.025
-76.915
-75.5275
-73.8189
-71.8568
-69.8229
-67.8845
-66.0721
-64.4616
-63.199
-62.1592
-61.35
-60.7755
-60.4966
-60.4153
-60.5331
-60.6597
-60.9567
-61.2683
-61.6489
-62.088
-62.5938
-63.1407
-63.7189
-64.3155
-64.8729
-65.3788
-65.8447
-66.3018
-66.7235
-67.1729
-67.4954
-67.8872
-68.2148
-68.6292
-68.9233
-69.2841
-69.5284
-69.7799
-69.9862
-70.2617
-70.5718
-70.9423
-71.2605
-71.5313
-71.7852
-71.9674
-72.2006
-72.3418
-72.5668
-72.6959
-72.897
-73.0384
-73.2422
-73.3977
-73.5656
-73.627
-73.7857
-73.9806
-74.2556
-74.4936
-74.6516
-74.8137
-74.9008
-75.0698
-75.223
-75.4199
-75.5204
-75.6811
-75.8273
-76.0472
-76.2429
-76.4466
-76.6298
-76.92
-77.3279
-77.7707
-78.2281
-78.728
-79.2091
-79.7464
-80.3437
-81.0331
-81.7657
-82.559
-83.3604
-84.2447
-85.1775
-86.1917
-87.2381
-88.3704
-89.5687
-90.814
-91.9796
-92.9853
-93.8662
-94.5553
-95.0486
-95.1947
-94.9772
-94.3531
-93.3447
-91.9815
-90.2286
-88.1221
-85.5998
-82.6604
-79.2319
-75.3073
-70.805
-65.7167
-59.9669
-53.5105
-46.3742
-38.4168
-29.5912
-19.762
-8.85263
3.37838
17.0477
32.4052
49.4176
68.0513
87.6492
108.177
130.072
159.139
202.567
260.129
-28.2991
-26.8839
-26.011
-25.6381
-25.5813
-25.6868
-25.8439
-25.9992
-26.1316
-26.2415
-26.3258
-26.3773
-26.4038
-26.4252
-26.4517
-26.4911
-26.5193
-26.5308
-26.5417
-26.5352
-26.5405
-26.5473
-26.5277
-26.48
-26.4216
-26.3881
-26.3327
-26.252
-26.1448
-26.0395
-25.905
-25.7544
-25.5943
-25.4201
-25.2176
-24.9819
-24.6818
-24.3435
-23.9942
-23.6108
-23.1853
-22.7241
-22.2695
-21.9142
-21.7558
-22.0304
-24.1161
-30.8056
-39.4114
-50.3178
-61.1819
-66.8893
-70.2898
-72.0796
-73.6709
-74.9642
-75.8577
-76.5449
-77.2013
-77.9662
-78.7031
-79.3248
-79.715
-79.7734
-79.387
-78.6668
-77.4444
-75.6722
-73.5502
-71.196
-68.9221
-66.8713
-65.0761
-63.6399
-62.4645
-61.5263
-60.8619
-60.4742
-60.4334
-60.5247
-60.6385
-60.8824
-61.1951
-61.6459
-62.0934
-62.5742
-63.0429
-63.5652
-64.1069
-64.6545
-65.1988
-65.7186
-66.2107
-66.6599
-67.1042
-67.4937
-67.9082
-68.2626
-68.623
-68.9378
-69.3225
-69.5722
-69.8705
-70.1371
-70.4294
-70.6912
-70.9989
-71.3166
-71.6065
-71.8695
-72.0791
-72.3474
-72.5023
-72.7431
-72.8898
-73.1492
-73.3026
-73.5342
-73.6719
-73.8685
-73.956
-74.156
-74.3083
-74.525
-74.7242
-74.913
-75.1417
-75.2675
-75.4835
-75.6334
-75.8661
-75.9906
-76.2164
-76.3569
-76.6135
-76.7884
-77.0745
-77.2639
-77.6297
-77.9086
-78.2859
-78.7601
-79.2685
-79.8187
-80.3951
-81.056
-81.7272
-82.5093
-83.2778
-84.1552
-85.0191
-85.9871
-86.9746
-88.0705
-89.2167
-90.4593
-91.6924
-92.949
-94.162
-95.2982
-96.348
-97.2816
-98.1087
-98.7431
-99.2017
-99.3376
-98.888
-97.9322
-96.2611
-94.0556
-91.2883
-88.0597
-84.3405
-80.1655
-75.459
-70.2142
-64.2797
-57.6992
-50.3847
-42.2716
-33.288
-23.3291
-12.3001
-0.0697261
13.3955
28.1199
44.0321
61.1937
79.9754
102.107
130.271
165.613
204.345
-29.8105
-28.4236
-27.3958
-26.7234
-26.3405
-26.1755
-26.1284
-26.1495
-26.1996
-26.2584
-26.3138
-26.3524
-26.3851
-26.4083
-26.4372
-26.4638
-26.4926
-26.5052
-26.5047
-26.5094
-26.5082
-26.5119
-26.4896
-26.4402
-26.4069
-26.3853
-26.3549
-26.2783
-26.1945
-26.1036
-25.997
-25.8716
-25.7466
-25.6016
-25.4464
-25.2672
-25.0376
-24.7776
-24.4985
-24.1946
-23.8665
-23.5296
-23.206
-22.9702
-22.9409
-23.2969
-24.6586
-28.8451
-36.8796
-46.5549
-56.9084
-65.0383
-69.4828
-71.3531
-72.6851
-73.7144
-74.6621
-75.5232
-76.2905
-77.2009
-78.1622
-79.0788
-79.8134
-80.0894
-79.7067
-78.7517
-77.9445
-76.5291
-74.5775
-72.2889
-69.9057
-67.6042
-65.5957
-63.9427
-62.5821
-61.4738
-60.6162
-60.1197
-59.9916
-60.0193
-60.0879
-60.3667
-60.7443
-61.1253
-61.5484
-62.0935
-62.6268
-63.1586
-63.6879
-64.2201
-64.7666
-65.2959
-65.7841
-66.2505
-66.6729
-67.0815
-67.4599
-67.8462
-68.201
-68.541
-68.8526
-69.1594
-69.4226
-69.7082
-69.9881
-70.2941
-70.6003
-70.8881
-71.1537
-71.3995
-71.6374
-71.8722
-72.0675
-72.2807
-72.4474
-72.6168
-72.7967
-72.9719
-73.1374
-73.2867
-73.4226
-73.565
-73.7356
-73.9531
-74.1356
-74.2981
-74.4523
-74.5775
-74.7253
-74.8638
-75.0152
-75.1502
-75.2897
-75.4417
-75.5989
-75.764
-75.9028
-76.0855
-76.2847
-76.6306
-76.9944
-77.3386
-77.6973
-78.0594
-78.5212
-79.0378
-79.6463
-80.307
-81.0531
-81.8473
-82.7172
-83.6363
-84.6348
-85.6982
-86.8567
-88.0921
-89.3982
-90.7171
-91.9807
-93.1624
-94.1865
-94.9924
-95.4721
-95.6616
-95.4186
-94.9082
-94.1849
-93.1924
-91.9083
-90.2243
-88.1148
-85.5107
-82.422
-78.809
-74.6796
-69.9903
-64.7051
-58.8184
-52.2185
-44.8184
-36.524
-27.2749
-17.0488
-5.88683
6.13131
18.8453
32.2406
46.4112
62.1297
80.9517
104.528
132.893
161.034
-31.0001
-29.6128
-28.5166
-27.7
-27.1422
-26.7945
-26.585
-26.4867
-26.4498
-26.4689
-26.4814
-26.5081
-26.5117
-26.5201
-26.5334
-26.5564
-26.5658
-26.5733
-26.5832
-26.582
-26.5964
-26.5948
-26.5765
-26.5527
-26.5197
-26.4963
-26.4534
-26.3975
-26.3285
-26.2651
-26.1765
-26.0697
-25.9548
-25.8437
-25.7164
-25.5648
-25.3857
-25.1883
-24.9771
-24.7539
-24.5287
-24.3065
-24.1183
-24.0302
-24.1608
-24.7031
-26.0166
-29.0061
-35.2047
-43.4129
-52.9686
-61.845
-67.5196
-71.6581
-74.2451
-74.3014
-74.9152
-75.9391
-76.7475
-77.5596
-78.4339
-79.3888
-80.342
-81.121
-81.7281
-81.7299
-80.3451
-78.6767
-76.4591
-73.836
-71.1178
-68.5456
-66.3396
-64.5222
-63.0127
-61.7907
-60.8857
-60.3334
-60.0374
-60.0377
-60.2896
-60.5262
-60.7763
-61.2067
-61.6901
-62.1848
-62.6803
-63.1855
-63.7057
-64.245
-64.7879
-65.3236
-65.8416
-66.3326
-66.8137
-67.2364
-67.6558
-68.0396
-68.4496
-68.7736
-69.1142
-69.4189
-69.7473
-70.0363
-70.3368
-70.5812
-70.8443
-71.1127
-71.3862
-71.6749
-71.9329
-72.176
-72.3674
-72.6212
-72.7879
-73.0758
-73.2403
-73.4536
-73.6137
-73.8354
-73.9722
-74.1864
-74.2677
-74.4226
-74.6151
-74.8037
-75.0347
-75.1729
-75.3913
-75.5284
-75.756
-75.892
-76.1302
-76.2662
-76.5158
-76.6786
-76.9774
-77.1908
-77.4598
-77.6728
-77.9958
-78.4172
-78.8598
-79.357
-79.87
-80.4668
-81.0312
-81.7085
-82.3772
-83.1534
-83.9458
-84.8471
-85.7933
-86.8588
-87.9975
-89.2515
-90.5562
-91.9312
-93.308
-94.6689
-95.9964
-97.2778
-98.5205
-99.686
-100.72
-101.347
-101.374
-100.771
-99.5162
-97.7057
-95.3772
-92.5915
-89.3529
-85.6928
-81.5961
-77.0644
-72.0063
-66.4385
-60.2404
-53.2903
-45.5076
-36.851
-27.3281
-16.9672
-5.88709
5.81391
18.1166
31.1249
45.3559
62.0265
81.7918
104.588
126.095
-31.8134
-30.464
-29.3515
-28.4617
-27.7952
-27.3216
-26.9982
-26.7828
-26.6329
-26.5433
-26.5118
-26.4993
-26.506
-26.5088
-26.5185
-26.5274
-26.5461
-26.5539
-26.5505
-26.5576
-26.5509
-26.5551
-26.5475
-26.5257
-26.5159
-26.5035
-26.4792
-26.4282
-26.3869
-26.3388
-26.2772
-26.1981
-26.1217
-26.0395
-25.9544
-25.8471
-25.7146
-25.5744
-25.4281
-25.284
-25.1473
-25.025
-24.9431
-24.9691
-25.1969
-25.7875
-27.025
-29.4643
-33.9178
-40.4552
-48.5536
-57.0656
-64.1263
-69.0963
-71.2816
-72.97
-74.3439
-75.1678
-75.8361
-76.7495
-77.7245
-78.7535
-79.7341
-80.6001
-81.2624
-81.5558
-81.2871
-79.9471
-77.974
-75.453
-72.634
-69.8586
-67.2952
-65.1103
-63.2932
-61.8158
-60.7293
-60.0563
-59.6306
-59.5048
-59.3773
-59.7339
-60.2893
-60.5152
-61.0084
-61.5531
-62.0947
-62.6501
-63.1873
-63.7075
-64.2319
-64.7549
-65.2627
-65.7512
-66.212
-66.6411
-67.049
-67.4539
-67.8299
-68.1877
-68.5116
-68.8282
-69.1242
-69.4261
-69.719
-70.0346
-70.3383
-70.6085
-70.8771
-71.1177
-71.3573
-71.5894
-71.8167
-72.0265
-72.226
-72.3704
-72.5781
-72.7378
-72.9282
-73.0758
-73.2449
-73.3895
-73.5892
-73.771
-73.9163
-74.0759
-74.1984
-74.3481
-74.4707
-74.6189
-74.7331
-74.8835
-74.99
-75.1522
-75.2589
-75.4288
-75.5128
-75.6851
-75.7467
-76.0647
-76.353
-76.5455
-76.8145
-77.1688
-77.6074
-78.1005
-78.6766
-79.3049
-80.0048
-80.7521
-81.5684
-82.4436
-83.4028
-84.4446
-85.5875
-86.8286
-88.1717
-89.5834
-91.0099
-92.4251
-93.7811
-95.0382
-96.1276
-96.9806
-97.4149
-97.6285
-97.6233
-97.3592
-96.8293
-95.8882
-94.4846
-92.5488
-90.1
-87.1322
-83.6699
-79.712
-75.2315
-70.2417
-64.6807
-58.4713
-51.5683
-43.9353
-35.5757
-26.4867
-16.7221
-6.29951
4.78006
16.6167
29.5925
44.4471
61.3597
80.1059
97.2398
-32.4025
-31.1002
-30.0082
-29.0961
-28.3882
-27.8469
-27.4517
-27.1774
-26.9816
-26.8572
-26.7605
-26.7171
-26.678
-26.6712
-26.6546
-26.652
-26.643
-26.6401
-26.6468
-26.6445
-26.6591
-26.6523
-26.6397
-26.6306
-26.6148
-26.6009
-26.5691
-26.5378
-26.502
-26.472
-26.4204
-26.3588
-26.2952
-26.2416
-26.1775
-26.1006
-26.0178
-25.9306
-25.8435
-25.7671
-25.7081
-25.668
-25.6813
-25.8037
-26.1039
-26.6935
-27.7783
-29.727
-33.0262
-37.9508
-44.4009
-51.7832
-58.9914
-65.1359
-69.3585
-71.9614
-73.6752
-74.8954
-75.9738
-77.0189
-78.0664
-79.1689
-80.2537
-81.312
-82.1379
-82.5776
-82.2998
-81.559
-79.8398
-77.3012
-74.2363
-71.0727
-68.278
-66.0599
-64.0849
-62.3956
-61.1729
-60.3457
-59.9153
-59.8178
-59.9316
-60.0306
-60.3274
-60.9876
-61.3106
-61.7016
-62.217
-62.747
-63.2926
-63.8351
-64.3721
-64.9113
-65.4458
-65.9638
-66.4662
-66.9096
-67.3311
-67.7325
-68.1385
-68.5026
-68.8596
-69.1906
-69.5235
-69.8197
-70.1126
-70.372
-70.6483
-70.9289
-71.1988
-71.4667
-71.717
-71.9867
-72.2176
-72.4838
-72.6792
-72.9459
-73.1048
-73.3277
-73.4836
-73.6899
-73.8592
-74.0659
-74.1254
-74.2554
-74.4673
-74.6749
-74.8852
-75.021
-75.2195
-75.3438
-75.5836
-75.7107
-75.9536
-76.0851
-76.3379
-76.4824
-76.7562
-76.9061
-77.2238
-77.3359
-77.5707
-77.8761
-78.22
-78.6231
-79.003
-79.4817
-79.9463
-80.5122
-81.0955
-81.7713
-82.4898
-83.3043
-84.1831
-85.1678
-86.2458
-87.4513
-88.7694
-90.2211
-91.7601
-93.3688
-95.0155
-96.663
-98.2765
-99.7913
-101.152
-102.231
-102.901
-102.971
-102.386
-101.247
-99.6103
-97.5088
-94.9686
-92.0004
-88.603
-84.778
-80.4784
-75.72
-70.4606
-64.6689
-58.3045
-51.3568
-43.8283
-35.7149
-27.0131
-17.7084
-7.75876
2.96208
14.7768
28.0323
42.758
58.6089
72.6992
-32.6533
-31.4209
-30.3574
-29.4675
-28.7525
-28.1805
-27.7421
-27.4028
-27.1494
-26.962
-26.8289
-26.7393
-26.6862
-26.6501
-26.6384
-26.6243
-26.6276
-26.6266
-26.6161
-26.6191
-26.6078
-26.6134
-26.614
-26.6051
-26.6074
-26.6036
-26.5932
-26.5657
-26.5522
-26.5328
-26.5055
-26.4673
-26.4383
-26.4053
-26.3701
-26.3288
-26.284
-26.241
-26.2069
-26.1933
-26.1968
-26.2294
-26.3187
-26.5144
-26.8696
-27.4655
-28.4437
-30.0437
-32.5644
-36.2643
-41.2106
-47.1678
-53.5216
-59.5926
-64.6737
-68.5707
-71.4612
-73.4957
-74.9185
-76.0773
-77.3336
-78.5156
-79.5777
-80.6753
-81.5138
-81.9367
-82.0327
-81.3383
-79.9704
-77.9496
-75.3859
-72.5083
-69.5966
-66.9814
-64.7003
-62.776
-61.3117
-60.3003
-59.695
-59.4778
-59.2934
-59.3315
-59.4472
-60.0059
-60.6729
-61.1589
-61.7028
-62.2661
-62.7928
-63.3163
-63.8328
-64.3445
-64.8586
-65.3773
-65.8586
-66.3074
-66.7455
-67.1647
-67.5536
-67.9148
-68.2426
-68.5757
-68.8864
-69.2005
-69.5046
-69.815
-70.1131
-70.3838
-70.649
-70.8973
-71.1328
-71.3547
-71.5799
-71.7616
-71.994
-72.1983
-72.4231
-72.6105
-72.8138
-72.9574
-73.1413
-73.2751
-73.4855
-73.6533
-73.7798
-73.9394
-74.0112
-74.2071
-74.3248
-74.4724
-74.5452
-74.7056
-74.7696
-74.9511
-75.0151
-75.1737
-75.2515
-75.393
-75.5127
-75.6992
-75.8683
-76.0667
-76.3085
-76.619
-77.0121
-77.4649
-77.9824
-78.5537
-79.1816
-79.8581
-80.5993
-81.4043
-82.2866
-83.252
-84.3202
-85.4939
-86.7861
-88.2046
-89.7345
-91.3693
-93.0774
-94.8135
-96.5132
-98.1141
-99.5102
-100.624
-101.38
-101.829
-101.964
-101.655
-100.832
-99.4783
-97.5818
-95.1797
-92.2874
-88.9189
-85.058
-80.7498
-75.9599
-70.6889
-64.9318
-58.6721
-51.9108
-44.6454
-36.8654
-28.5282
-19.5767
-9.85853
0.841401
12.6933
25.6837
39.4184
51.3526
-32.624
-31.5099
-30.562
-29.7698
-29.069
-28.5247
-28.0834
-27.7441
-27.4731
-27.2663
-27.0964
-26.9808
-26.8845
-26.8334
-26.7931
-26.7685
-26.7386
-26.7238
-26.7224
-26.7131
-26.7211
-26.7142
-26.7063
-26.7076
-26.7025
-26.697
-26.676
-26.6648
-26.6515
-26.6444
-26.6243
-26.6027
-26.5788
-26.5672
-26.553
-26.5373
-26.5243
-26.5185
-26.53
-26.5621
-26.6191
-26.7064
-26.8559
-27.107
-27.4966
-28.0865
-28.9846
-30.3471
-32.3615
-35.2201
-39.0296
-43.7305
-49.0187
-54.4752
-59.5628
-63.9671
-67.5947
-70.4807
-72.7318
-74.5607
-76.1561
-77.5324
-78.822
-80.0308
-81.075
-81.7031
-81.5467
-81.0428
-79.8903
-78.0892
-75.7985
-73.2299
-70.5955
-68.0787
-65.8849
-64.0764
-62.5768
-61.3932
-60.5944
-60.1355
-59.9444
-59.9322
-59.8173
-60.0752
-60.7256
-61.4314
-61.8487
-62.3152
-62.8235
-63.3851
-63.9545
-64.4965
-65.0134
-65.5372
-66.0661
-66.5108
-66.9227
-67.3442
-67.7806
-68.1673
-68.5535
-68.8925
-69.229
-69.5276
-69.8156
-70.0995
-70.3918
-70.6825
-70.9693
-71.2457
-71.5046
-71.7778
-72.0174
-72.2798
-72.4734
-72.7121
-72.8992
-73.1132
-73.2949
-73.5032
-73.6723
-73.8661
-73.9545
-74.1084
-74.3025
-74.491
-74.6781
-74.8127
-75.0096
-75.1504
-75.3632
-75.4882
-75.7182
-75.8475
-76.0885
-76.1969
-76.4216
-76.5752
-76.8001
-76.8191
-76.9543
-77.1952
-77.4181
-77.6951
-77.9726
-78.3375
-78.7315
-79.2006
-79.7235
-80.3114
-80.9487
-81.6673
-82.4717
-83.3774
-84.3801
-85.4935
-86.7333
-88.1333
-89.6901
-91.4054
-93.2678
-95.2379
-97.2574
-99.2445
-101.118
-102.779
-104.127
-104.992
-105.251
-104.958
-104.137
-102.809
-101.005
-98.7656
-96.1034
-93.0238
-89.5056
-85.5966
-81.2648
-76.5184
-71.3639
-65.7672
-59.7296
-53.2392
-46.2905
-38.8337
-30.7774
-21.9756
-12.3063
-1.67338
9.91359
22.0035
32.4346
-32.2842
-31.344
-30.5076
-29.7715
-29.1385
-28.5949
-28.1611
-27.802
-27.5221
-27.3047
-27.1318
-26.997
-26.8982
-26.8294
-26.787
-26.7489
-26.7313
-26.7143
-26.693
-26.6883
-26.6754
-26.6777
-26.6794
-26.6754
-26.6837
-26.6866
-26.6919
-26.6829
-26.6856
-26.6827
-26.6811
-26.6762
-26.685
-26.6915
-26.7002
-26.7105
-26.7262
-26.753
-26.7983
-26.8731
-26.9724
-27.1071
-27.3023
-27.5905
-27.9997
-28.5814
-29.4118
-30.6002
-32.268
-34.5535
-37.5549
-41.2832
-45.5975
-50.2722
-54.937
-59.308
-63.1998
-66.5311
-69.298
-71.5973
-73.5446
-75.2055
-76.6168
-77.8307
-78.8172
-79.4933
-79.7336
-79.4821
-78.6939
-77.355
-75.5338
-73.3922
-71.0977
-68.8095
-66.6948
-64.8255
-63.2159
-61.9381
-61.1829
-60.5
-59.9224
-59.5138
-59.6893
-59.8516
-60.2232
-60.8153
-61.5616
-62.1659
-62.5373
-62.9568
-63.439
-63.9456
-64.4464
-64.9943
-65.5514
-66.0417
-66.481
-66.8976
-67.2801
-67.6454
-67.9806
-68.3337
-68.67
-68.9844
-69.3062
-69.624
-69.9236
-70.1938
-70.4598
-70.7164
-70.9558
-71.181
-71.4106
-71.6066
-71.844
-72.0873
-72.324
-72.5288
-72.7327
-72.8858
-73.0653
-73.2053
-73.3801
-73.532
-73.6801
-73.8487
-73.9888
-74.158
-74.2032
-74.3565
-74.4016
-74.5566
-74.6502
-74.8005
-74.936
-75.0958
-75.1972
-75.3434
-75.4343
-75.5629
-75.677
-75.8125
-75.9954
-76.2412
-76.5416
-76.9174
-77.3499
-77.8335
-78.3766
-78.9674
-79.6061
-80.2983
-81.0649
-81.9175
-82.8659
-83.9298
-85.1202
-86.4615
-87.9693
-89.67
-91.57
-93.6466
-95.8608
-98.1429
-100.407
-102.552
-104.431
-105.904
-106.863
-107.232
-106.949
-106.008
-104.48
-102.449
-99.9722
-97.1067
-93.8712
-90.3051
-86.3956
-82.1413
-77.5367
-72.5658
-67.2129
-61.4508
-55.28
-48.6488
-41.4317
-33.4946
-24.7624
-15.1829
-4.75836
6.05001
15.3223
-31.7445
-30.9661
-30.2855
-29.6741
-29.1508
-28.7012
-28.3244
-28.0062
-27.7415
-27.5215
-27.3413
-27.1991
-27.0778
-26.9938
-26.9297
-26.8857
-26.8419
-26.8147
-26.8016
-26.7825
-26.7822
-26.775
-26.7723
-26.7795
-26.7796
-26.7816
-26.7684
-26.7719
-26.774
-26.7806
-26.7809
-26.7912
-26.7975
-26.8148
-26.8376
-26.867
-26.901
-26.9492
-27.0248
-27.1275
-27.2613
-27.432
-27.6617
-27.9763
-28.3998
-28.97
-29.7466
-30.8037
-32.2233
-34.1056
-36.5293
-39.5286
-43.0467
-46.9744
-51.0673
-55.1156
-58.9424
-62.4167
-65.4659
-68.1058
-70.3819
-72.3509
-74.0333
-75.4699
-76.6478
-77.5492
-78.1809
-77.9255
-77.4011
-76.4433
-75.0748
-73.3939
-71.5232
-69.5933
-67.7399
-66.0492
-64.5496
-63.2683
-62.2857
-61.5656
-61.1545
-61.0031
-60.5212
-60.4875
-60.7032
-61.0167
-61.4387
-61.94
-62.4783
-63.0448
-63.6961
-64.2615
-64.6745
-65.1047
-65.5747
-66.0467
-66.5321
-67.024
-67.4902
-67.8717
-68.2287
-68.5647
-68.9071
-69.1998
-69.4749
-69.7779
-70.1048
-70.3998
-70.7024
-70.9954
-71.2514
-71.5293
-71.76
-72.0022
-72.1833
-72.4327
-72.6586
-72.8799
-73.0866
-73.2956
-73.4696
-73.6492
-73.7733
-73.9292
-74.098
-74.271
-74.4506
-74.6158
-74.8122
-74.9421
-75.1048
-75.2027
-75.4108
-75.5298
-75.7139
-75.8913
-76.0803
-76.2072
-76.3312
-76.3177
-76.3787
-76.5455
-76.6297
-76.7907
-76.9789
-77.2337
-77.5631
-77.9601
-78.4184
-78.9426
-79.5162
-80.1417
-80.8278
-81.5999
-82.4704
-83.4476
-84.5561
-85.8174
-87.2436
-88.8805
-90.753
-92.8634
-95.1903
-97.6784
-100.248
-102.785
-105.148
-107.169
-108.703
-109.621
-109.818
-109.273
-108.037
-106.213
-103.892
-101.191
-98.1729
-94.8963
-91.3542
-87.5289
-83.4216
-79.0292
-74.3217
-69.2581
-63.8224
-57.9719
-51.5897
-44.4949
-36.6193
-27.9582
-18.5081
-8.72331
-0.349006
-30.9493
-30.3461
-29.8273
-29.3486
-28.9084
-28.5293
-28.2001
-27.918
-27.6786
-27.4787
-27.3109
-27.1773
-27.0683
-26.9817
-26.9188
-26.8644
-26.8316
-26.8026
-26.7719
-26.7577
-26.7429
-26.74
-26.7339
-26.7345
-26.7483
-26.7527
-26.769
-26.7718
-26.7859
-26.7939
-26.8116
-26.8265
-26.8579
-26.8915
-26.9326
-26.9799
-27.0435
-27.1234
-27.2202
-27.3472
-27.5026
-27.6971
-27.9484
-28.2776
-28.7047
-29.2627
-29.9933
-30.9514
-32.1923
-33.7899
-35.8047
-38.2762
-41.1858
-44.4853
-48.0181
-51.643
-55.2194
-58.6108
-61.7244
-64.5213
-66.9956
-69.1629
-71.0273
-72.5999
-73.8758
-74.8375
-75.4349
-75.7485
-75.6096
-75.0276
-74.0708
-72.8109
-71.3337
-69.7367
-68.1354
-66.6088
-65.2165
-63.9994
-62.986
-62.1639
-61.4887
-60.962
-60.8837
-60.7597
-60.817
-61.0422
-61.4018
-61.8241
-62.2542
-62.677
-63.1438
-63.6584
-64.2251
-64.8533
-65.3765
-65.7375
-66.1173
-66.5133
-66.8882
-67.2896
-67.6752
-68.0447
-68.4196
-68.7682
-69.0909
-69.3994
-69.7269
-70.0072
-70.2558
-70.5165
-70.7731
-71.0015
-71.2358
-71.4743
-71.7122
-71.9518
-72.2047
-72.4484
-72.6631
-72.8229
-72.9936
-73.1361
-73.2936
-73.4434
-73.589
-73.7466
-73.9044
-74.0767
-74.1971
-74.3329
-74.3661
-74.4612
-74.572
-74.7188
-74.8776
-75.0672
-75.2679
-75.4539
-75.5478
-75.6508
-75.6809
-75.6905
-75.7744
-75.9293
-76.1372
-76.3999
-76.7263
-77.118
-77.5641
-78.075
-78.6367
-79.2554
-79.9219
-80.6497
-81.4603
-82.3696
-83.4026
-84.5972
-85.9662
-87.5601
-89.4201
-91.5633
-94.0029
-96.703
-99.5838
-102.543
-105.456
-108.14
-110.364
-111.929
-112.705
-112.633
-111.741
-110.115
-107.903
-105.301
-102.418
-99.3669
-96.1192
-92.6486
-88.9945
-85.1282
-81.019
-76.6272
-71.8979
-66.8046
-61.2433
-54.9901
-47.9379
-40.1042
-31.4897
-22.5383
-14.8919
-29.9407
-29.5296
-29.2113
-28.892
-28.5914
-28.3433
-28.1227
-27.9164
-27.7428
-27.5798
-27.4365
-27.3069
-27.1951
-27.108
-27.0345
-26.9805
-26.9309
-26.895
-26.8738
-26.8477
-26.8399
-26.8308
-26.835
-26.8409
-26.841
-26.8525
-26.8459
-26.8532
-26.8573
-26.8809
-26.896
-26.926
-26.9525
-26.9866
-27.0298
-27.0926
-27.1647
-27.2506
-27.3678
-27.5089
-27.6817
-27.8953
-28.1618
-28.5009
-28.9311
-29.4762
-30.1697
-31.0497
-32.1572
-33.5448
-35.2628
-37.3473
-39.7983
-42.6011
-45.6532
-48.8636
-52.1274
-55.3294
-58.3718
-61.1948
-63.7659
-66.0719
-68.0988
-69.8484
-71.3145
-72.4891
-73.3464
-73.8967
-73.9368
-73.698
-73.1243
-72.2569
-71.166
-69.9204
-68.6093
-67.3054
-66.0678
-64.9457
-63.97
-63.1588
-62.5138
-61.9928
-61.5604
-61.3624
-61.3037
-61.3849
-61.5959
-61.9132
-62.3104
-62.7555
-63.238
-63.7191
-64.1578
-64.621
-65.1285
-65.6464
-66.184
-66.7255
-67.227
-67.5904
-67.9182
-68.2254
-68.4935
-68.7883
-69.0935
-69.4254
-69.8319
-70.1878
-70.4757
-70.7785
-71.0301
-71.2614
-71.4665
-71.6996
-71.8884
-72.1427
-72.3828
-72.6367
-72.8803
-73.1122
-73.2885
-73.4626
-73.5799
-73.7253
-73.8866
-74.0434
-74.2305
-74.4157
-74.5621
-74.703
-74.8785
-74.9321
-75.0509
-75.1347
-75.2939
-75.4963
-75.6918
-75.8452
-75.973
-76.0196
-76.0251
-75.9907
-75.9359
-75.9514
-76.0407
-76.1996
-76.46
-76.8001
-77.1764
-77.6187
-78.1045
-78.6399
-79.2243
-79.8647
-80.5804
-81.3938
-82.317
-83.3921
-84.6373
-86.0947
-87.8195
-89.8822
-92.3476
-95.2027
-98.3787
-101.776
-105.268
-108.664
-111.689
-114.06
-115.571
-116.141
-115.694
-114.241
-112.085
-109.502
-106.65
-103.698
-100.65
-97.4921
-94.2316
-90.8344
-87.2622
-83.4958
-79.4653
-75.109
-70.3562
-64.9653
-58.7457
-51.7063
-43.8488
-35.5859
-28.5875
-28.7148
-28.4984
-28.3838
-28.2353
-28.0827
-27.9639
-27.8218
-27.6857
-27.5587
-27.4377
-27.3235
-27.2283
-27.1434
-27.0666
-27.0044
-26.9473
-26.909
-26.8735
-26.8377
-26.8196
-26.8019
-26.7947
-26.7883
-26.7892
-26.7977
-26.8075
-26.8225
-26.8374
-26.8539
-26.8717
-26.901
-26.9291
-26.9693
-27.0146
-27.0749
-27.1388
-27.2203
-27.3296
-27.4636
-27.6324
-27.8283
-28.0555
-28.3307
-28.672
-29.0926
-29.6177
-30.2743
-31.0908
-32.094
-33.3255
-34.8235
-36.622
-38.73
-41.1484
-43.8079
-46.6529
-49.6103
-52.5832
-55.4884
-58.258
-60.8458
-63.2174
-65.3478
-67.2197
-68.8221
-70.1426
-71.1649
-71.8796
-72.2177
-72.2618
-72.002
-71.4565
-70.6813
-69.7278
-68.6715
-67.5731
-66.4925
-65.4763
-64.5542
-63.7503
-63.0677
-62.5296
-62.1608
-61.8634
-61.7004
-61.6684
-61.752
-61.9392
-62.2086
-62.5419
-62.9326
-63.3648
-63.8234
-64.3126
-64.8092
-65.2766
-65.7084
-66.1368
-66.5787
-67.0184
-67.4469
-67.8427
-68.2498
-68.5571
-68.8107
-69.0823
-69.3799
-69.6556
-69.9698
-70.2666
-70.5491
-70.8033
-71.0437
-71.297
-71.5467
-71.7985
-72.0543
-72.3131
-72.5308
-72.7216
-72.9021
-73.0615
-73.2085
-73.3548
-73.4915
-73.6404
-73.808
-74.0134
-74.2147
-74.3633
-74.3969
-74.4792
-74.5519
-74.6548
-74.78
-74.9862
-75.2719
-75.546
-75.7523
-75.849
-75.838
-75.7848
-75.7333
-75.7381
-75.804
-75.9193
-76.1127
-76.4141
-76.7856
-77.2065
-77.6767
-78.1872
-78.7214
-79.3021
-79.9432
-80.6725
-81.5142
-82.4904
-83.6058
-84.9052
-86.459
-88.3411
-90.6657
-93.5158
-96.8662
-100.597
-104.602
-108.718
-112.665
-116.072
-118.627
-120.018
-119.91
-118.648
-116.585
-113.932
-110.927
-107.856
-104.899
-102.009
-99.0865
-96.1051
-93.0078
-89.8114
-86.4361
-82.7918
-78.8422
-74.362
-69.0341
-62.8216
-55.7235
-48.1036
-41.6086
-27.2976
-27.3123
-27.4064
-27.4589
-27.4904
-27.5187
-27.5073
-27.4847
-27.4579
-27.405
-27.3462
-27.2778
-27.2038
-27.138
-27.0792
-27.0317
-26.9854
-26.9488
-26.9241
-26.8973
-26.8878
-26.878
-26.8837
-26.8898
-26.9018
-26.9128
-26.928
-26.9314
-26.9411
-26.9468
-26.9674
-27.0113
-27.0528
-27.0964
-27.1444
-27.2184
-27.3095
-27.4139
-27.5536
-27.725
-27.9255
-28.1587
-28.4359
-28.7726
-29.1862
-29.6944
-30.3201
-31.0833
-32.0066
-33.1165
-34.4458
-36.0264
-37.8704
-39.987
-42.3304
-44.8693
-47.5471
-50.2917
-53.0338
-55.7088
-58.2635
-60.6572
-62.8497
-64.8167
-66.5372
-68.0009
-69.1895
-70.091
-70.6742
-70.8805
-70.9012
-70.6468
-70.1603
-69.4884
-68.6845
-67.8017
-66.8924
-66.0028
-65.1663
-64.409
-63.7473
-63.1873
-62.7277
-62.383
-62.1556
-62.0492
-62.0499
-62.1396
-62.3128
-62.5628
-62.875
-63.2339
-63.6244
-64.0544
-64.5214
-65.0067
-65.4974
-65.9936
-66.4887
-66.9437
-67.3408
-67.6802
-68.0266
-68.3673
-68.7178
-69.1077
-69.526
-69.9147
-70.2438
-70.5328
-70.7854
-70.9566
-71.1385
-71.3377
-71.5703
-71.8602
-72.1392
-72.4119
-72.6809
-72.9586
-73.1568
-73.3215
-73.425
-73.5411
-73.6766
-73.7921
-73.9517
-74.1393
-74.3411
-74.5115
-74.6622
-74.7024
-74.7282
-74.7654
-74.8813
-75.0484
-75.2766
-75.545
-75.7899
-75.9232
-75.9069
-75.7661
-75.5595
-75.4087
-75.3784
-75.4222
-75.554
-75.8054
-76.169
-76.5841
-77.0257
-77.511
-78.0151
-78.5281
-79.0854
-79.7069
-80.4271
-81.275
-82.2592
-83.4132
-84.7958
-86.4652
-88.5349
-91.1785
-94.4919
-98.4311
-102.888
-107.742
-112.737
-117.388
-121.048
-123.217
-123.964
-123.479
-121.645
-118.774
-115.318
-111.855
-108.82
-106.09
-103.493
-100.883
-98.2416
-95.5157
-92.7005
-89.7285
-86.5576
-83.0337
-78.738
-73.4672
-67.2552
-60.3276
-54.1531
-25.6628
-25.9484
-26.2673
-26.5312
-26.7452
-26.9289
-27.0429
-27.1254
-27.1703
-27.1769
-27.1688
-27.1448
-27.1085
-27.0664
-27.0235
-26.9797
-26.9468
-26.9148
-26.8806
-26.8636
-26.8439
-26.8325
-26.8207
-26.8235
-26.835
-26.8525
-26.87
-26.8931
-26.9123
-26.9359
-26.9559
-26.9908
-27.0363
-27.0819
-27.1493
-27.2195
-27.3015
-27.4151
-27.558
-27.7371
-27.9527
-28.2019
-28.4903
-28.8317
-29.2387
-29.7312
-30.3244
-31.0411
-31.891
-32.9011
-34.1003
-35.5125
-37.1509
-39.0332
-41.1279
-43.4123
-45.8521
-48.3886
-50.9669
-53.5305
-56.0286
-58.4114
-60.636
-62.6697
-64.4915
-66.0783
-67.4173
-68.4913
-69.3122
-69.8491
-69.9989
-69.947
-69.6823
-69.2234
-68.6167
-67.9073
-67.1408
-66.3619
-65.5988
-64.8906
-64.2495
-63.6925
-63.2214
-62.8633
-62.5831
-62.407
-62.3202
-62.3219
-62.4089
-62.5756
-62.8167
-63.1092
-63.445
-63.8181
-64.2266
-64.6573
-65.098
-65.5466
-65.9971
-66.4493
-66.884
-67.2972
-67.6883
-68.0503
-68.3859
-68.7068
-69.0207
-69.3426
-69.6809
-70.0187
-70.346
-70.6377
-70.8886
-71.1506
-71.3526
-71.5725
-71.8343
-72.068
-72.2887
-72.4924
-72.725
-72.9678
-73.1356
-73.2589
-73.3911
-73.5366
-73.704
-73.9094
-74.1837
-74.4123
-74.5229
-74.5389
-74.56
-74.5517
-74.6118
-74.78
-75.0786
-75.4583
-75.8357
-76.0666
-76.1015
-75.9536
-75.7633
-75.5527
-75.3932
-75.373
-75.4302
-75.5627
-75.8684
-76.268
-76.6898
-77.1343
-77.5886
-78.0596
-78.5478
-79.0781
-79.6967
-80.4269
-81.267
-82.2525
-83.4601
-84.9351
-86.749
-89.0884
-92.1932
-96.1434
-100.884
-106.335
-112.337
-118.343
-123.577
-127.468
-129.725
-129.834
-127.602
-124.057
-119.925
-115.861
-112.358
-109.561
-107.293
-105.092
-102.887
-100.573
-98.2198
-95.87
-93.3901
-90.8015
-87.7245
-83.6466
-78.5676
-72.4801
-66.5909
-23.8753
-24.4443
-25.0055
-25.5016