/*--------------------------------*- C++ -*----------------------------------*\
| =========                 |                                                 |
| \\      /  F ield         | OpenFOAM: The Open Source CFD Toolbox           |
|  \\    /   O peration     | Version:  4.1                                   |
|   \\  /    A nd           | Web:      www.OpenFOAM.org                      |
|    \\/     M anipulation  |                                                 |
\*---------------------------------------------------------------------------*/
FoamFile
{
    version     2.0;
    format      ascii;
    class       volScalarField;
    location    "23";
    object      p;
}
// * * * * * * * * * * * * * * * * * * * * * * * * * * * * * * * * * * * * * //

dimensions      [0 2 -2 0 0 0 0];

internalField   nonuniform List<scalar> 
6750
(
-142.544
-70.8571
-151.552
-150.078
-173.338
-180.566
-187.523
-191.978
-194.431
-192.705
-194.055
-186.6
-193.892
-100.931
-215.516
-142.304
-70.0988
-151.151
-150.028
-173.706
-180.969
-188.039
-191.976
-194.342
-192.667
-194.323
-187.047
-193.847
-100.295
-215.578
-142.09
-69.4327
-150.871
-150.078
-174.017
-181.29
-188.413
-191.929
-194.196
-192.597
-194.494
-187.239
-193.809
-99.7528
-215.71
-141.824
-68.5535
-150.496
-150.13
-174.411
-181.678
-188.81
-191.965
-193.997
-192.581
-194.641
-187.294
-193.871
-99.4303
-215.584
-141.597
-67.6358
-150.154
-150.214
-174.774
-182.015
-189.177
-192.146
-194.029
-192.886
-194.907
-186.47
-193.777
-99.1408
-215.528
-141.426
-66.728
-149.819
-150.29
-175.117
-182.386
-189.797
-192.524
-193.968
-192.917
-194.592
-186.687
-193.859
-98.8231
-215.493
-141.366
-66.0086
-149.547
-150.329
-175.327
-182.667
-190.086
-192.368
-193.879
-192.965
-194.428
-187.19
-193.908
-98.4559
-215.489
-141.403
-65.8145
-149.479
-150.351
-175.417
-182.806
-190.33
-192.523
-193.867
-192.901
-194.49
-187.726
-193.937
-98.1977
-215.577
-141.502
-66.1873
-149.664
-150.391
-175.38
-182.789
-190.321
-192.633
-194.007
-192.876
-194.442
-187.203
-193.883
-98.3464
-215.376
-141.697
-66.9917
-150.017
-150.403
-175.21
-182.566
-189.926
-192.512
-194.012
-192.845
-194.448
-186.289
-193.738
-98.6477
-215.246
-141.978
-67.9589
-150.429
-150.389
-174.93
-182.238
-189.388
-192.274
-194.096
-192.765
-194.814
-186.397
-193.587
-98.8331
-215.173
-142.291
-68.9084
-150.829
-150.353
-174.602
-181.919
-188.968
-192.114
-194.059
-192.549
-194.565
-186.917
-193.597
-99.0258
-215.123
-142.62
-69.8046
-151.251
-150.35
-174.248
-181.578
-188.628
-192.176
-194.354
-192.497
-194.279
-187.323
-193.533
-99.3053
-215.175
-142.873
-70.4788
-151.562
-150.331
-173.959
-181.284
-188.291
-192.287
-194.418
-192.596
-194.066
-187.272
-193.553
-99.8194
-214.995
-143.145
-71.239
-151.992
-150.416
-173.619
-180.917
-187.795
-192.388
-194.637
-192.605
-193.739
-186.828
-193.586
-100.449
-214.892
-195.627
-53.8996
-155.362
-149.905
-173.956
-181.056
-187.912
-192.404
-195.307
-192.642
-193.52
-185.035
-200.924
-79.4004
-299.201
-195.348
-53.1649
-154.879
-149.775
-174.368
-181.479
-188.512
-192.314
-195.07
-192.713
-193.783
-185.357
-200.837
-78.867
-299.488
-195.123
-52.6453
-154.615
-149.786
-174.673
-181.745
-188.878
-192.217
-194.894
-192.691
-194.028
-185.186
-200.707
-78.4373
-299.905
-194.841
-51.8905
-154.195
-149.771
-175.077
-182.104
-189.298
-192.167
-194.568
-192.609
-194.376
-185.161
-200.762
-78.0138
-299.842
-194.631
-51.1439
-153.811
-149.809
-175.43
-182.379
-189.621
-192.195
-194.511
-192.696
-194.765
-184.401
-200.553
-77.7256
-299.879
-194.514
-50.3986
-153.395
-149.843
-175.772
-182.701
-190.214
-192.576
-194.419
-192.7
-194.623
-184.878
-200.702
-77.4349
-299.913
-194.541
-49.8079
-153.024
-149.861
-175.967
-182.933
-190.479
-192.389
-194.47
-192.721
-194.529
-185.289
-200.823
-77.1535
-299.961
-194.629
-49.643
-152.923
-149.874
-176.05
-183.048
-190.694
-192.545
-194.28
-192.656
-194.488
-185.672
-200.911
-76.9967
-300.142
-194.708
-49.9364
-153.179
-149.919
-176.02
-183.04
-190.687
-192.623
-194.477
-192.595
-194.431
-185.489
-200.873
-77.0401
-299.813
-194.885
-50.5856
-153.636
-149.952
-175.86
-182.869
-190.318
-192.558
-194.524
-192.605
-194.511
-184.737
-200.658
-77.2423
-299.591
-195.173
-51.3762
-154.133
-149.984
-175.593
-182.614
-189.844
-192.432
-194.664
-192.602
-194.721
-184.522
-200.427
-77.4082
-299.405
-195.506
-52.144
-154.569
-149.994
-175.275
-182.367
-189.466
-192.398
-194.771
-192.545
-194.457
-184.951
-200.529
-77.5945
-299.227
-195.873
-52.9184
-155.039
-150.066
-174.925
-182.081
-189.151
-192.649
-195.311
-192.593
-194.036
-185.436
-200.518
-77.982
-299.162
-196.147
-53.4484
-155.332
-150.088
-174.649
-181.854
-188.847
-192.921
-195.494
-192.688
-193.791
-185.544
-200.643
-78.3811
-298.651
-196.467
-54.1937
-155.848
-150.262
-174.281
-181.485
-188.311
-193.155
-195.96
-192.552
-193.543
-185.43
-200.783
-78.9218
-298.294
-284.687
-16.5801
-158.034
-151.181
-175.004
-182.182
-189.01
-193.476
-196.296
-193.091
-195.128
-183.897
-211.91
-28.6539
-446.07
-284.297
-16.0807
-157.534
-150.889
-175.42
-182.628
-189.696
-193.465
-196.25
-193.166
-195.092
-183.99
-211.456
-28.1782
-446.587
-284.021
-15.8923
-157.324
-150.824
-175.686
-182.838
-190.003
-193.31
-196.13
-193.099
-194.807
-183.85
-210.732
-27.6416
-447.484
-283.69
-15.4847
-156.863
-150.669
-176.061
-183.168
-190.432
-193.155
-195.813
-193.071
-194.733
-183.997
-210.809
-27.4242
-447.186
-283.519
-15.1337
-156.42
-150.621
-176.369
-183.373
-190.7
-193.006
-195.821
-192.83
-194.639
-183.016
-210.373
-27.296
-447.261
-283.533
-14.6944
-155.868
-150.567
-176.67
-183.631
-191.198
-193.358
-195.756
-192.762
-194.725
-183.114
-210.48
-26.9843
-447.393
-283.738
-14.2836
-155.308
-150.55
-176.826
-183.801
-191.412
-193.185
-195.959
-192.97
-194.821
-183.11
-210.547
-26.6333
-447.53
-283.875
-14.154
-155.125
-150.553
-176.896
-183.895
-191.598
-193.378
-195.714
-192.962
-194.924
-183.422
-210.441
-26.2038
-448.137
-283.869
-14.337
-155.516
-150.608
-176.88
-183.894
-191.555
-193.473
-195.856
-192.942
-194.97
-183.588
-210.816
-26.4635
-447.301
-283.979
-14.6968
-156.156
-150.676
-176.758
-183.783
-191.286
-193.52
-195.71
-193.039
-195.171
-183.454
-210.705
-26.6762
-446.904
-284.274
-15.1037
-156.801
-150.8
-176.544
-183.601
-190.932
-193.361
-195.968
-193.135
-195.206
-183.082
-210.431
-26.7696
-446.549
-284.658
-15.4483
-157.288
-150.899
-176.271
-183.418
-190.628
-193.391
-196.019
-193.264
-195.467
-183.675
-210.683
-26.7177
-446.259
-285.127
-15.8719
-157.793
-151.121
-175.969
-183.169
-190.338
-193.747
-196.472
-193.35
-195.694
-183.892
-210.682
-26.8284
-446.377
-285.478
-16.0753
-158.022
-151.222
-175.732
-182.986
-190.081
-193.972
-196.606
-193.546
-195.871
-183.816
-211.42
-27.2548
-445.359
-285.932
-16.6036
-158.554
-151.572
-175.382
-182.598
-189.498
-194.041
-196.757
-193.501
-195.913
-184.26
-212.009
-27.6794
-444.773
-375.759
15.4185
-152.34
-156.745
-176.586
-184.868
-191.054
-193.843
-198.007
-198.489
-200.655
-187.843
-219.686
38.181
-608.625
-375.362
15.6529
-151.96
-156.368
-176.922
-185.327
-191.761
-194.411
-198.614
-198.235
-200.292
-187.253
-218.77
37.799
-609.521
-375.131
15.5689
-151.808
-156.285
-177.146
-185.531
-192.081
-194.583
-198.45
-197.216
-199.921
-186.268
-216.98
37.8842
-610.946
-374.851
15.5545
-151.399
-156.054
-177.443
-185.838
-192.517
-194.662
-198.031
-196.269
-199.425
-185.583
-216.681
37.0892
-610.33
-374.866
15.4625
-150.959
-155.968
-177.68
-185.998
-192.68
-194.509
-197.862
-195.723
-198.869
-184.495
-215.802
36.6566
-610.472
-375.083
15.5111
-150.35
-155.858
-177.884
-186.168
-192.957
-194.621
-197.858
-196.217
-198.949
-185.254
-215.997
36.6472
-610.691
-375.385
15.5027
-149.685
-155.818
-177.971
-186.267
-193.005
-194.415
-198.079
-196.777
-198.771
-185.728
-216.069
36.8959
-610.932
-375.516
15.4306
-149.447
-155.81
-178.008
-186.342
-193.129
-194.552
-197.807
-196.674
-198.432
-186.35
-215.67
37.4017
-611.82
-375.429
15.4547
-149.917
-155.879
-178.022
-186.338
-192.997
-194.64
-198.126
-196.969
-198.919
-186.248
-216.52
37.1715
-610.67
-375.461
15.6355
-150.643
-155.966
-177.966
-186.268
-192.938
-194.741
-198.009
-196.623
-198.944
-185.998
-216.466
37.1202
-610.057
-375.72
15.8505
-151.345
-156.151
-177.864
-186.187
-192.86
-194.768
-198.169
-196.222
-199.517
-185.024
-216.184
37.4162
-609.585
-376.079
16.0652
-151.827
-156.282
-177.664
-186.061
-192.69
-194.862
-198.331
-196.449
-199.909
-185.633
-216.786
38.0736
-609.089
-376.559
16.0492
-152.286
-156.591
-177.466
-185.855
-192.425
-194.917
-198.726
-197.363
-200.588
-186.635
-217.146
39.0004
-609.405
-376.901
16.0876
-152.447
-156.711
-177.27
-185.68
-192.131
-194.82
-198.952
-198.63
-200.902
-187.601
-218.973
39.0331
-607.738
-377.387
15.7613
-152.862
-157.162
-177.034
-185.319
-191.606
-194.488
-198.462
-198.797
-201.192
-188.469
-219.917
39.5076
-606.653
-478.797
11.6467
-144.629
-168.933
-180.008
-189.507
-194.753
-196.495
-199.947
-203.648
-210.564
-199.088
-235.508
83.0788
-790.394
-478.503
11.9704
-144.454
-168.579
-180.244
-190.04
-195.5
-197.105
-200.966
-203.97
-209.856
-198.945
-234.055
81.4077
-791.802
-478.371
11.943
-144.418
-168.521
-180.488
-190.38
-195.893
-197.346
-201.295
-203.61
-208.015
-197.956
-231.362
80.3102
-793.692
-478.267
11.9878
-144.195
-168.31
-180.699
-190.694
-196.414
-197.072
-201.044
-202.785
-206.475
-196.67
-230.132
78.8097
-794.213
-478.467
11.8889
-143.92
-168.231
-180.897
-190.858
-196.647
-196.844
-201.044
-202.338
-205.954
-195.302
-228.382
77.5011
-794.667
-478.737
11.77
-143.481
-168.1
-180.979
-190.945
-196.843
-196.496
-201.251
-203.096
-206.491
-196.334
-227.889
76.4901
-794.884
-479.041
11.3686
-142.989
-168.037
-180.99
-190.964
-196.75
-196.183
-200.704
-202.967
-207.038
-196.94
-227.294
75.8286
-795.033
-479.164
11.0588
-142.801
-168.032
-180.983
-191.054
-196.852
-196.406
-200.454
-202.091
-206.425
-197.36
-226.591
75.5562
-795.308
-479.115
11.259
-143.178
-168.119
-181.028
-190.986
-196.699
-196.132
-200.943
-203.194
-207.398
-197.095
-227.647
76.82
-794.688
-479.163
11.8271
-143.721
-168.22
-181.013
-190.938
-196.626
-196.232
-201.357
-203.46
-206.552
-196.435
-228.238
78.2334
-793.849
-479.393
12.3426
-144.254
-168.434
-181.065
-191.005
-196.778
-196.859
-201.253
-203.129
-206.291
-195.699
-228.709
79.7334
-793.099
-479.673
12.7247
-144.582
-168.557
-180.904
-190.877
-196.565
-197.133
-201.08
-202.956
-206.435
-196.536
-230.123
81.4789
-791.858
-480.071
12.6905
-144.886
-168.87
-180.84
-190.732
-196.352
-197.602
-201.204
-203.582
-207.879
-197.803
-231.264
83.1894
-790.729
-480.33
12.6378
-144.939
-168.972
-180.629
-190.42
-195.964
-197.198
-201.062
-204.121
-209.481
-198.657
-233.852
84.4308
-788.273
-480.744
12.139
-145.171
-169.436
-180.548
-190.079
-195.553
-196.875
-200.003
-203.71
-209.836
-198.706
-235.203
86.2392
-786.347
-598.726
-23.5195
-142.582
-191.293
-188.272
-196.851
-200.378
-197.864
-203.829
-208.27
-221.806
-211.771
-283.972
89.4081
-1002.16
-598.52
-23.068
-142.51
-190.974
-188.314
-197.297
-200.727
-199.208
-204.897
-209.062
-220.984
-211.74
-279.056
84.5987
-1006.49
-598.537
-22.8674
-142.55
-190.911
-188.581
-197.936
-201.853
-201.158
-205.763
-208.106
-219.793
-211.864
-273.912
81.3535
-1010.48
-598.599
-22.4855
-142.477
-190.711
-188.672
-198.337
-202.575
-200.952
-204.89
-207.876
-218.346
-211.845
-268.844
77.7095
-1011.43
-598.82
-22.3621
-142.425
-190.596
-188.775
-198.467
-202.816
-200.468
-204.786
-208.473
-217.617
-212.212
-264.625
74.2258
-1012.11
-599.04
-22.3586
-142.252
-190.433
-188.637
-198.324
-202.087
-199.149
-204.675
-209.444
-218.257
-213.153
-261.978
71.9413
-1011.52
-599.317
-22.6756
-142.066
-190.36
-188.557
-198.214
-201.781
-198.292
-204.106
-209.393
-218.318
-214.019
-260.12
70.1042
-1011.25
-599.5
-22.8504
-141.999
-190.381
-188.528
-198.419
-202.358
-199.147
-205.192
-207.326
-217.361
-213.814
-259.517
69.5704
-1010.67
-599.624
-22.6305
-142.198
-190.47
-188.55
-198.176
-201.518
-198.753
-204.756
-209.394
-218.404
-213.786
-260.585
71.7466
-1010.78
-599.767
-22.245
-142.411
-190.592
-188.556
-198.089
-201.094
-199.236
-205.604
-209.857
-218.368
-212.814
-262.682
74.8574
-1009.91
-600.004
-22.0571
-142.666
-190.87
-188.871
-198.524
-202.626
-200.504
-205.288
-209.596
-218.454
-212.169
-265.526
78.0764
-1009.86
-600.23
-21.9635
-142.799
-191.037
-188.812
-198.492
-202.56
-201.204
-205.374
-208.212
-218.382
-211.391
-269.674
82.412
-1008.11
-600.559
-22.2681
-142.988
-191.371
-188.924
-198.353
-202.342
-201.651
-205.963
-208.669
-220.137
-211.569
-274.708
86.4543
-1006.22
-600.752
-22.4496
-142.989
-191.48
-188.68
-197.717
-201.072
-199.542
-205.481
-209.559
-221.249
-211.255
-279.618
89.6842
-1001.3
-601.105
-23.0874
-143.161
-191.946
-188.836
-197.519
-201.167
-198.763
-204.327
-208.653
-221.947
-211.219
-284.418
94.4953
-996.14
-731.507
-65.9842
-151.654
-223.983
-207.002
-213.814
-217.323
-207.01
-219.615
-210.12
-247.885
-227.516
-401.684
100.438
-1238.42
-731.448
-65.5305
-151.547
-223.672
-206.76
-213.904
-216.549
-207.566
-219.643
-212.651
-246.43
-228.562
-388.049
95.1286
-1246.97
-731.563
-65.2842
-151.55
-223.57
-206.883
-214.434
-217.685
-208.808
-220.846
-211.708
-244.375
-230.122
-377.398
95.3778
-1259.17
-731.595
-64.9099
-151.49
-223.348
-206.799
-214.702
-218.075
-208.785
-219.404
-211.734
-242.075
-231.224
-362.3
90.9331
-1273.96
-731.784
-64.7645
-151.497
-223.204
-206.786
-214.674
-217.955
-208.048
-218.174
-213.174
-239.941
-232.082
-349.847
81.8096
-1275.86
-731.965
-64.653
-151.449
-223.044
-206.549
-214.445
-216.556
-207.659
-217.291
-214.387
-239.154
-234.22
-340.808
73.9973
-1276.34
-732.236
-64.7014
-151.475
-223
-206.461
-214.3
-216.285
-207.1
-217.125
-215.212
-238.215
-235.018
-334.906
69.5461
-1275.85
-732.481
-64.6549
-151.504
-223.042
-206.427
-214.527
-216.981
-208.437
-218.895
-213.605
-237.486
-234.904
-334.626
68.8728
-1271.74
-732.754
-64.5528
-151.588
-223.152
-206.489
-214.282
-215.737
-208.158
-217.497
-216.04
-238.204
-234.757
-335.797
73.2762
-1274.44
-732.99
-64.4515
-151.642
-223.3
-206.544
-214.256
-215.007
-208.663
-217.547
-216.611
-240.22
-234.138
-342.621
80.7439
-1271.92
-733.261
-64.5726
-151.812
-223.628
-207.047
-214.859
-217.62
-208.684
-219.081
-215.26
-241.732
-232.341
-352.449
90.8561
-1270.07
-733.458
-64.713
-151.901
-223.863
-207.174
-215.046
-218.125
-209.906
-220.558
-213.476
-243.621
-231.511
-364.91
102.084
-1264.89
-733.758
-65.1394
-152.115
-224.262
-207.535
-215.099
-218.401
-210.014
-222.154
-213.547
-246.669
-230.596
-379.69
107.633
-1249.04
-733.912
-65.3279
-152.16
-224.421
-207.454
-214.566
-216.967
-208.544
-220.993
-214.806
-249.161
-229.365
-389.966
108.388
-1235.54
-734.238
-65.9083
-152.394
-224.918
-207.951
-214.75
-218.124
-208.578
-220.992
-212.641
-250.939
-228.26
-403.631
114.273
-1225.11
-876.423
-108.752
-168.714
-264.749
-239.174
-244.929
-252.73
-229.578
-256.353
-218.512
-305.974
-218.444
-682.33
121.387
-1557.52
-876.425
-108.374
-168.58
-264.451
-238.729
-244.683
-251.407
-228.811
-255.023
-221.579
-301.856
-218.928
-621.572
109.337
-1580.81
-876.635
-108.124
-168.535
-264.321
-238.646
-244.881
-251.772
-229.634
-254.448
-223.522
-295.425
-224.142
-575.32
103.375
-1600.8
-876.725
-107.786
-168.451
-264.087
-238.358
-244.915
-251.325
-230.025
-251.417
-223.732
-287.924
-235.143
-513.544
94.791
-1609.27
-876.969
-107.64
-168.448
-263.946
-238.209
-244.79
-250.717
-229.027
-249.295
-224.477
-283.976
-246.086
-481.026
88.3426
-1617.65
-877.171
-107.485
-168.437
-263.813
-237.947
-244.603
-249.528
-228.855
-248.096
-226.388
-279.753
-250.214
-464.294
85.0283
-1610.19
-877.483
-107.448
-168.53
-263.821
-237.894
-244.531
-249.415
-229.127
-247.994
-229.661
-278.885
-254.501
-457.354
79.5423
-1607.65
-877.767
-107.354
-168.603
-263.878
-237.879
-244.654
-249.643
-230.437
-249.04
-230.747
-277.614
-254.035
-458.448
82.4248
-1598.92
-878.121
-107.347
-168.705
-264.022
-238.056
-244.615
-249.107
-229.024
-249.066
-230.632
-279.451
-253.787
-457.87
84.4567
-1607.52
-878.414
-107.373
-168.769
-264.201
-238.221
-244.725
-248.644
-228.629
-248.985
-229.256
-282.487
-249.993
-468.005
91.9938
-1603.48
-878.747
-107.612
-168.952
-264.582
-238.839
-245.379
-251.133
-229.463
-251.56
-227.254
-287.91
-245.561
-486.592
98.3762
-1610.04
-878.97
-107.808
-169.06
-264.873
-239.186
-245.761
-252.203
-231.451
-254.119
-227.307
-292.029
-234.18
-523.453
107.227
-1598.3
-879.313
-108.244
-169.317
-265.354
-239.842
-246.154
-253.429
-231.316
-257.657
-227.291
-301.275
-224.462
-587.018
117.652
-1588.27
-879.481
-108.411
-169.394
-265.57
-240.028
-246.02
-252.923
-230.109
-258.124
-225.631
-309.264
-218.604
-629.975
121.51
-1565.51
-879.841
-108.933
-169.671
-266.114
-240.823
-246.663
-254.779
-231.445
-260.07
-223.311
-314.949
-218.746
-689.047
130.402
-1539.86
-1034.99
-155.963
-190.872
-313.633
-285.653
-292.776
-313.024
-276.798
-331.286
-253.397
-420.856
-186.172
-1242.23
130.253
-1727.77
-1035.07
-155.606
-190.733
-313.355
-285.067
-292.378
-311.395
-275.793
-327.148
-256.202
-415.119
-199.016
-1178.32
145.014
-1765.23
-1035.39
-155.315
-190.67
-313.224
-284.818
-292.36
-310.866
-276.771
-325.254
-257.616
-405.802
-208.972
-1164.22
152.362
-1869.81
-1035.55
-154.976
-190.58
-312.997
-284.34
-292.15
-309.42
-276.755
-318.929
-257.456
-384.61
-228.229
-949.577
205.885
-2043.53
-1035.85
-154.845
-190.57
-312.893
-284.062
-291.961
-308.092
-275.75
-312.613
-257.769
-364.182
-251.209
-732.625
200.087
-2062.44
-1036.09
-154.701
-190.563
-312.809
-283.752
-291.753
-306.839
-275.298
-309.931
-261.341
-352.531
-272.112
-634.638
184.004
-2069.03
-1036.47
-154.696
-190.659
-312.89
-283.737
-291.768
-306.653
-276.05
-309.813
-264.868
-346.495
-277.861
-616.568
165.295
-2044.22
-1036.81
-154.636
-190.748
-312.985
-283.784
-291.833
-306.592
-276.606
-310.501
-266.967
-347.756
-278.479
-639.375
156.406
-2001.25
-1037.26
-154.69
-190.905
-313.181
-284.11
-292.035
-306.972
-275.17
-310.161
-266.188
-350.606
-276.254
-617.13
178.562
-2049.39
-1037.65
-154.721
-191.031
-313.388
-284.446
-292.263
-307.471
-274.123
-311.073
-263.305
-360.397
-271.56
-646.938
204.471
-2052.09
-1038.1
-154.975
-191.261
-313.825
-285.259
-293.083
-310.091
-276.454
-316.695
-260.671
-373.673
-251.702
-761.227
227.102
-2042.4
-1038.38
-155.187
-191.397
-314.156
-285.862
-293.645
-312.068
-278.623
-324.434
-261.802
-395.876
-229.755
-995.195
245.409
-2002.83
-1038.78
-155.664
-191.707
-314.725
-286.855
-294.457
-314.562
-279.541
-332.088
-262.497
-418.933
-210.501
-1198.82
199.357
-1831.47
-1038.99
-155.845
-191.807
-314.988
-287.301
-294.653
-315.343
-278.368
-333.713
-261.622
-431.976
-203.385
-1207
197.04
-1733.34
-1039.4
-156.392
-192.13
-315.604
-288.394
-295.642
-317.945
-280.124
-339.117
-259.863
-439.473
-192.261
-1278.33
185.177
-1682.07
-1202.84
-211.532
-216.964
-370.083
-342.939
-351.805
-393.564
-342.557
-437.095
-291.84
-545.734
-147.515
-982.536
-57.1388
-2406.66
-1202.99
-211.147
-216.807
-369.793
-342.165
-351.313
-391.403
-342.441
-431.98
-297.087
-538.524
-157.935
-1046.15
-107.771
-2300.07
-1203.41
-210.798
-216.737
-369.671
-341.796
-351.219
-390.218
-343.378
-429.053
-299.071
-534.131
-166.131
-1154.58
-23.2863
-2242.54
-1203.65
-210.427
-216.631
-369.441
-341.128
-350.869
-387.996
-343.243
-421.41
-299.432
-525.833
-187.647
-1355.08
-46.3565
-2364.17
-1204.04
-210.3
-216.608
-369.385
-340.76
-350.734
-386.099
-342.981
-411.673
-302.95
-485.747
-228.752
-1102.52
122.838
-2699.64
-1204.35
-210.151
-216.582
-369.343
-340.383
-350.539
-384.481
-342.827
-407.055
-308.578
-455.354
-268.252
-834.346
265.113
-2652.19
-1204.82
-210.182
-216.672
-369.496
-340.421
-350.689
-384.173
-343.799
-407.227
-315.279
-446.899
-297.447
-762.007
242.097
-2652.68
-1205.26
-210.141
-216.77
-369.642
-340.544
-350.804
-384.171
-344.012
-407.435
-318.005
-450.793
-298.224
-837.27
207.424
-2530.27
-1205.83
-210.235
-216.993
-369.926
-341.047
-351.208
-385.354
-343.777
-408.226
-316.312
-451.21
-295.699
-765.811
253.802
-2664.32
-1206.34
-210.267
-217.191
-370.179
-341.57
-351.51
-386.786
-343.115
-410.187
-310.644
-465.002
-267.621
-861.903
283.962
-2649.54
-1206.91
-210.576
-217.496
-370.701
-342.678
-352.481
-390.174
-345
-419.983
-306.457
-500.798
-225.673
-1157
157.865
-2686.75
-1207.26
-210.861
-217.677
-371.078
-343.562
-353.128
-393.223
-346.256
-432.015
-303.886
-548.244
-183.243
-1416.74
-6.3493
-2336.26
-1207.72
-211.451
-218.078
-371.772
-344.973
-354.295
-397.127
-347.818
-442.884
-304.105
-559.911
-162.701
-1206.72
21.8885
-2228.97
-1207.97
-211.689
-218.215
-372.082
-345.671
-354.702
-399.038
-347.38
-447.205
-304.07
-568.018
-154.984
-1102.35
-55.762
-2270.42
-1208.43
-212.335
-218.631
-372.829
-347.174
-356.03
-402.714
-348.828
-454.379
-301.399
-577.873
-145.67
-1047.31
-24.0074
-2323.74
-1377.75
-279.399
-248.903
-437.028
-415.135
-423.899
-496.824
-427.742
-576.295
-356.835
-673.889
-210.676
-653.769
447.887
-3788.11
-1377.96
-278.968
-248.705
-436.673
-414.042
-423.133
-493.703
-427.234
-570.068
-364.955
-683.882
-238.613
-743.964
-53.5985
-3714.19
-1378.48
-278.557
-248.621
-436.562
-413.563
-423.024
-492.015
-427.904
-565.266
-365.276
-678.63
-238.127
-976.353
-174.421
-3167.37
-1378.8
-278.131
-248.481
-436.301
-412.614
-422.536
-488.762
-427.719
-555.675
-364.585
-678.29
-214.459
-1212.09
-72.4862
-2784.59
-1379.29
-277.988
-248.449
-436.296
-412.156
-422.555
-486.182
-428.398
-542.73
-372.695
-646.124
-265.51
-1595.48
-91.7608
-3024.85
-1379.7
-277.81
-248.397
-436.269
-411.644
-422.395
-483.79
-428.558
-534.204
-373.939
-599.692
-321.831
-1226.3
188.007
-3414.06
-1380.3
-277.858
-248.5
-436.5
-411.756
-422.737
-483.469
-430.003
-534.971
-384.241
-595.039
-352.423
-978.959
401.639
-3307.05
-1380.86
-277.822
-248.613
-436.692
-411.948
-422.929
-483.614
-430.448
-535.891
-389.981
-606.727
-377.502
-1096.3
311.262
-3209.12
-1381.59
-277.97
-248.917
-437.109
-412.732
-423.483
-485.707
-430.608
-538.608
-383.587
-599.04
-349.66
-987.028
430.608
-3312.84
-1382.21
-278.036
-249.193
-437.441
-413.513
-423.766
-488.07
-429.864
-542.129
-373.651
-610.898
-316.698
-1289.12
270.985
-3379.34
-1382.93
-278.442
-249.61
-438.095
-415.085
-424.886
-492.979
-431.215
-556.965
-371.624
-671.375
-264.54
-1672.25
47.2994
-3020.79
-1383.37
-278.828
-249.859
-438.541
-416.339
-425.529
-497.305
-431.532
-572.164
-365.721
-710.539
-204.922
-1288.1
25.376
-2773.92
-1383.91
-279.564
-250.393
-439.409
-418.339
-427.052
-503.007
-433.473
-587.112
-367.333
-717.444
-233.593
-1011.12
-33.6141
-3112.29
-1384.21
-279.878
-250.586
-439.772
-419.323
-427.573
-505.937
-433.533
-595.405
-369.756
-730.455
-239.52
-778.298
87.5802
-3564.96
-1384.76
-280.657
-251.146
-440.721
-421.435
-429.445
-511.343
-435.948
-606.767
-365.617
-726.143
-209.329
-717.41
535.296
-3569.45
-1552.75
-358.322
-284.362
-510.123
-496.793
-501.358
-614.825
-527.168
-766.568
-472.948
-971.502
-369.911
-1633.94
974.889
-4144.69
-1552.98
-357.791
-284.042
-509.543
-495.002
-499.629
-609.249
-522.454
-753.334
-480.516
-955.131
-375.198
-1398.74
557.031
-4344.44
-1553.6
-357.294
-283.918
-509.402
-494.29
-499.393
-606.552
-521.878
-746.38
-481.069
-943.616
-435.162
-1445.89
-92.3371
-4447.86
-1553.99
-356.736
-283.683
-508.99
-492.742
-498.436
-600.653
-520.178
-722.45
-475.916
-907.451
-381.667
-1420.93
-3.84781
-3853.39
-1554.6
-356.536
-283.62
-509
-492.086
-498.628
-596.693
-521.712
-696.637
-476.952
-866.026
-345.374
-1934.53
-52.8951
-3419.57
-1555.11
-356.29
-283.501
-508.924
-491.253
-498.431
-592.776
-522.488
-681.39
-475.469
-814.352
-494.552
-1756.46
215.428
-4257.16
-1555.87
-356.344
-283.622
-509.243
-491.446
-499.049
-592.638
-524.833
-684.409
-480.103
-783.083
-469.124
-1439.88
574.289
-4340.22
-1556.57
-356.306
-283.74
-509.444
-491.677
-499.211
-592.945
-525.314
-686.238
-488.525
-823.491
-543.761
-1466.12
553.578
-4154.76
-1557.47
-356.519
-284.141
-510.026
-492.891
-499.967
-596.334
-525.716
-690.993
-475.701
-786.05
-462.34
-1444.21
632.41
-4346.02
-1558.26
-356.63
-284.505
-510.467
-494.075
-500.148
-599.907
-524.269
-696.492
-468.3
-824.929
-476.959
-1807.58
338.412
-4334.48
-1559.15
-357.157
-285.088
-511.323
-496.386
-501.53
-607.516
-525.52
-720.15
-471.078
-896.156
-325.911
-2041.43
40.0616
-3555.5
-1559.74
-357.652
-285.445
-511.887
-498.237
-502.202
-614.225
-525.177
-748.595
-471.831
-949.365
-356.879
-1491.06
76.8779
-3943.37
-1560.43
-358.584
-286.181
-513.056
-501.24
-504.442
-623.679
-528.73
-780.895
-480.409
-1006.17
-434.536
-1508.6
81.2978
-4473.31
-1560.8
-359.008
-286.462
-513.527
-502.702
-505.185
-628.358
-529.828
-794.765
-483.223
-1032.06
-380.073
-1530.79
682.946
-4320.77
-1561.47
-360.007
-287.256
-514.854
-505.877
-508.321
-637.248
-536.979
-817.86
-482.738
-1065.15
-370.91
-1772.31
987.801
-4117.49
-1723.21
-455.804
-329.831
-595.514
-603.92
-599.837
-777.475
-653.196
-1069.75
-639.652
-1629.03
-649.119
-3344.5
769.948
-4764.22
-1723.43
-455.184
-329.333
-594.569
-600.925
-596.332
-766.419
-639.624
-1035.86
-640.441
-1541.15
-703.509
-2975.13
724.5
-4886.74
-1724.1
-454.625
-329.149
-594.375
-599.772
-595.84
-761.372
-636.448
-1017.21
-635.258
-1493.64
-739.206
-2755.97
405.445
-5254.67
-1724.55
-453.957
-328.769
-593.75
-597.241
-594.253
-751.041
-632.473
-964.517
-622.111
-1398.53
-742.649
-2336.91
123.047
-5377.57
-1725.27
-453.716
-328.661
-593.787
-596.212
-594.796
-744.876
-635.864
-920.308
-614.401
-1278.61
-566.602
-2529.68
102.55
-4871.15
-1725.9
-453.417
-328.455
-593.638
-594.848
-594.572
-738.602
-638.7
-891.73
-620.734
-1205.87
-751.668
-2664.19
514.046
-5149.86
-1726.81
-453.48
-328.607
-594.065
-595.133
-595.562
-738.558
-643.333
-896.507
-625.511
-1112.73
-682.432
-2327.1
733.944
-5755.71
-1727.68
-453.445
-328.747
-594.236
-595.439
-595.491
-739.376
-643.437
-902.892
-633.651
-1197.3
-776.473
-2139.51
967.809
-5505.41
-1728.76
-453.723
-329.283
-594.971
-597.323
-596.334
-744.707
-643.448
-910.099
-619.783
-1131.94
-679.079
-2402.89
870.945
-5744.14
-1729.73
-453.907
-329.77
-595.5
-599.197
-596.146
-750.396
-639.168
-918.986
-609.462
-1238.97
-710.731
-2848.54
807.765
-5225.99
-1730.8
-454.571
-330.593
-596.568
-602.643
-597.563
-762.128
-638.205
-957.353
-602.744
-1341.42
-538.68
-2594.23
404.15
-5231.25
-1731.56
-455.185
-331.128
-597.229
-605.416
-597.943
-772.658
-635.159
-1009.3
-605.782
-1498.16
-717.32
-2478.03
440.804
-5534.38
-1732.41
-456.323
-332.15
-598.748
-609.912
-600.907
-788.053
-639.811
-1076.08
-620.948
-1653.13
-732.848
-3202.84
868.719
-5153.05
-1732.87
-456.876
-332.558
-599.334
-612.102
-601.821
-795.811
-642.235
-1106.05
-627.234
-1730.99
-692.047
-3611.83
1134.35
-4738.9
-1733.65
-458.13
-333.678
-601.176
-616.873
-606.943
-811.107
-658.252
-1155.89
-634.783
-1852.95
-615.542
-4018.13
1257.61
-4595.52
-1878.45
-568.126
-379.608
-683.319
-713.229
-689.743
-937.416
-762.824
-1384.63
-772.704
-2305.38
-817.366
-5096.08
1165.47
-6035.51
-1878.58
-567.288
-378.769
-681.696
-708.24
-683.353
-917.893
-739.149
-1329.97
-775.513
-2188.63
-934.809
-5000.8
980.827
-6085.95
-1879.26
-566.644
-378.463
-681.324
-706.298
-682.061
-908.813
-732.539
-1304.16
-774.117
-2211.6
-1085.36
-5004.1
1176.79
-6435.9
-1879.72
-565.755
-377.805
-680.303
-702.276
-679.446
-892.799
-727.76
-1230
-758.555
-2058.89
-1127.59
-4347.05
1116.71
-7299.73
-1880.53
-565.406
-377.617
-680.349
-700.774
-680.727
-884.518
-733.774
-1165.39
-750.072
-1851.51
-861.281
-3876.1
816.08
-7258.84
-1881.24
-564.998
-377.266
-680.085
-698.745
-680.669
-876.262
-739.422
-1122.6
-772.547
-1736.99
-974.798
-4151.12
1261.71
-7179.43
-1882.3
-565.062
-377.442
-680.652
-699.189
-682.305
-876.713
-746.684
-1118.34
-774.545
-1576.59
-908.906
-3566.54
1388
-8114.33
-1883.33
-565.019
-377.595
-680.802
-699.615
-682.065
-878.706
-747.303
-1130.5
-790.005
-1669.29
-1001.61
-3148.48
1609.45
-7860.23
-1884.64
-565.38
-378.296
-681.718
-702.412
-683.022
-886.929
-746.123
-1140.77
-767.015
-1592.84
-874.299
-3622.73
1509.86
-8193.7
-1885.81
-565.667
-378.927
-682.358
-705.295
-682.473
-896.606
-740.024
-1171.35
-758.781
-1789.15
-898.178
-4222.36
1397.17
-7679.67
-1887.11
-566.535
-380.065
-683.748
-710.385
-683.906
-914.017
-736.218
-1233.71
-730.029
-1943.93
-775.571
-3836.24
924.102
-7874.87
-1888.09
-567.311
-380.839
-684.573
-714.477
-683.849
-929.851
-730.092
-1316.6
-734.033
-2208.6
-1020.13
-4570.01
1148.96
-7625.42
-1889.18
-568.772
-382.283
-686.648
-721.161
-687.901
-953.362
-734.633
-1416.64
-753.247
-2494.12
-1071.23
-5524.42
1210.42
-6645.29
-1889.77
-569.512
-382.871
-687.494
-724.499
-689.399
-965.539
-738.26
-1455.42
-755.596
-2491.28
-919.893
-5593.8
947.796
-6153.28
-1890.73
-571.187
-384.48
-690.193
-731.747
-697.726
-990.573
-765.553
-1533.53
-760.965
-2654.34
-805.816
-5646.47
1195.91
-6006.44
-1984.5
-729.73
-456.903
-778.238
-884.384
-821.267
-1202.44
-893.682
-1826.25
-870.629
-2937.95
-794.435
-5447.6
1037.42
-8582.63
-1984.62
-728.889
-455.633
-776.291
-877.242
-813.899
-1174.91
-866.015
-1747
-898.045
-2798.01
-934.8
-5531.85
912.334
-8577.86
-1985.19
-728.243
-455.117
-775.902
-874.051
-813.015
-1160.46
-861.652
-1712.98
-899.507
-2847.87
-1150.3
-6013.59
820.853
-8590.24
-1985.64
-727.387
-454.045
-774.732
-867.843
-810.938
-1135.64
-868.389
-1625.16
-899.604
-2722.35
-1157.38
-6360.1
839.188
-8686.69
-1986.41
-727.1
-453.628
-774.854
-865.082
-813.427
-1122.97
-883.144
-1554.53
-921.392
-2458.51
-821.583
-6093.01
1303.98
-8296.5
-1987.21
-726.794
-453.033
-774.554
-861.737
-813.779
-1110.36
-891.111
-1501.14
-950.983
-2383.14
-726.564
-6347.69
1446.7
-8573.22
-1988.35
-726.961
-453.208
-775.164
-862.039
-815.58
-1110.24
-898.971
-1486.19
-971.584
-2248.37
-893.384
-5521.32
1634.25
-10847.8
-1989.53
-727.058
-453.418
-775.214
-862.718
-814.466
-1112.94
-895.828
-1490.1
-975.935
-2222.81
-906.473
-4884.81
2503.69
-10434.4
-1990.93
-727.578
-454.392
-776.047
-866.937
-814.262
-1126.13
-889.399
-1517.92
-956.845
-2269.44
-918.334
-5698.01
2400.42
-10898
-1992.23
-728.099
-455.328
-776.519
-871.591
-812.005
-1142.23
-875.68
-1570.3
-919.297
-2489.76
-752.248
-6469.91
2126.94
-10052.1
-1993.6