/*--------------------------------*- C++ -*----------------------------------*\
| =========                 |                                                 |
| \\      /  F ield         | OpenFOAM: The Open Source CFD Toolbox           |
|  \\    /   O peration     | Version:  4.1                                   |
|   \\  /    A nd           | Web:      www.OpenFOAM.org                      |
|    \\/     M anipulation  |                                                 |
\*---------------------------------------------------------------------------*/
FoamFile
{
    version     2.0;
    format      ascii;
    class       surfaceScalarField;
    location    "23";
    object      phi;
}
// * * * * * * * * * * * * * * * * * * * * * * * * * * * * * * * * * * * * * //

dimensions      [0 3 -1 0 0 0 0];

internalField   nonuniform List<scalar> 
19125
(
98.8019
-1.89953
1525.95
97.2482
-6.57829
1460
73.4122
-3.64477
1206.68
61.3672
-0.00776774
1001.64
50.7203
4.84868
889.618
36.2866
6.52509
709.656
29.3118
9.06906
683.477
16.1096
-2.09544
516.671
-8.52814
-1.40267
226.128
-16.6205
14.8064
90.3999
-28.7972
17.98
284.075
-54.5597
8.77348
620.716
-90.3217
-0.610181
1204.35
-98.273
-5.56739
1501.58
0.257412
1842.24
98.1616
-2.40954
1523.88
96.4426
-8.42444
1463.28
73.1643
-4.08608
1226.9
61.243
0.745978
1030.33
50.6984
5.97401
906.174
36.8329
7.72148
713.345
29.2735
10.8386
650.595
17.1003
-3.04723
477.678
-7.3556
-5.86785
222.1
-17.7658
15.9402
110.662
-31.4436
25.0725
267.648
-55.4857
8.51247
585.675
-90.2231
-0.0328615
1219.45
-98.9718
-5.94618
1492.76
0.199751
1822.7
97.5985
-2.59418
1522.53
95.8279
-9.62385
1470.2
73.1242
-4.27265
1245.52
61.5152
1.15476
1048.58
50.8536
6.46434
910.637
37.6823
7.99206
716.197
29.0587
11.1078
605.549
15.5258
0.255093
456.364
-4.82647
-3.00031
253.986
-20.1471
22.6894
142.217
-37.2144
26.0942
233.538
-56.872
1.58282
565.579
-90.9456
0.826726
1219.01
-101.153
-4.13033
1478.97
-0.601648
1782.71
97.0982
-2.39335
1516.75
95.5657
-10.3106
1473.88
73.5294
-4.16768
1262.21
62.1182
1.36263
1065.07
51.2194
6.3622
913.551
37.9067
8.01005
713.175
27.7403
12.5858
584.879
13.6868
6.89179
460.663
-3.27723
5.76708
307.564
-20.8403
32.4084
178.817
-38.2271
14.1519
233.77
-57.7427
-5.82895
633.734
-91.4792
0.490986
1220.95
-100.448
-3.27153
1500.87
-0.543653
1795.81
96.8749
-1.76649
1506.22
95.1758
-9.82217
1479.56
73.7742
-3.76281
1281.9
62.5457
1.19681
1082.73
51.5633
5.51602
916.366
38.173
7.90064
707.754
27.5716
14.6364
576.4
16.8057
9.28382
447.095
-3.89995
-0.552344
210.112
-20.4373
29.0847
119.812
-35.6818
-4.78518
300.788
-58.2139
3.47285
810.551
-92.0106
0.70839
1211.05
-99.9757
-3.33533
1510.23
-0.217469
1802.52
97.1059
-0.78285
1488.98
94.7493
-7.27784
1483.22
73.9064
-2.75084
1302.18
62.8541
0.707923
1101.84
52.1082
3.63737
921.563
39.9578
6.13609
707.176
31.4015
10.8242
550.095
19.1368
0.105411
322.48
-8.83803
-6.20667
146.604
-12.3085
7.65915
51.9513
-32.2164
-4.33632
296.537
-58.1451
12.7485
747.17
-92.5183
0.363652
1213.45
-99.9751
-3.32844
1521.04
0.0883397
1802.91
98.0076
0.243941
1464.37
94.4641
-2.09084
1480.4
73.8796
-0.661409
1317.62
62.7354
0.395703
1120.65
51.899
1.46122
930.441
40.9877
2.9891
716.404
29.4416
6.39532
503.173
15.4159
3.70334
344.901
-17.9937
0.546471
194.556
-14.8698
-26.1341
22.9262
-37.326
-0.55911
235.792
-58.0769
8.27109
628.66
-92.6014
-0.0945092
1225.74
-100.732
-1.85958
1520.16
0.0464958
1789.07
98.4714
1.15333
1454.19
94.5516
3.84308
1475.97
74.0049
1.85622
1319.31
62.765
0.31197
1125.64
51.8793
-0.753819
933.335
41.8092
-0.806709
724.569
31.5152
-1.75308
487.362
14.4585
5.31093
293.119
-13.1954
10.4125
179.965
-31.6215
-25.1469
57.3636
-48.5029
-2.81831
165.316
-58.4834
-13.1299
528.206
-93.3432
-0.365364
1224.46
-102.373
1.05601
1506.86
-0.937772
1759.85
97.7306
2.09509
1470.93
94.4939
8.37141
1480.59
73.9054
3.74899
1314.82
62.8127
-0.0270841
1117.64
52.1636
-2.97259
930.31
42.0953
-4.87608
718.59
33.8666
-11.7719
494.03
19.1199
-4.02281
270.126
-14.476
3.37291
87.5911
-20.7799
-21.2122
107.999
-31.0092
-1.62231
271.257
-57.3315
-17.7958
577.016
-92.2236
-0.887648
1232.27
-100.439
2.68417
1524.05
-0.99002
1793.23
96.9754
2.85932
1494.67
94.7924
10.4632
1482.22
73.8977
4.63282
1298.52
62.8666
-0.479513
1098.43
52.2284
-4.75636
922.088
40.3741
-7.2649
706.427
30.3041
-15.3567
530.58
17.0503
-8.73587
336.714
-6.50472
-7.44647
124.897
-11.6455
-28.146
123.167
-23.0393
-2.55496
415.369
-57.3371
-2.38436
736.502
-92.1267
-1.26907
1217.38
-99.5021
2.46368
1524.46
-0.577369
1809.37
96.849
3.23949
1511.31
95.221
10.6892
1478.46
73.7524
4.89107
1278.08
62.6014
-0.695381
1079.2
51.8116
-5.76368
915.364
38.3478
-7.612
704.22
27.2561
-13.2775
571.698
14.5292
-4.81341
444.235
-4.99314
-13.1435
232.202
-19.5396
-34.4216
108.72
-36.9399
-20.1217
279.277
-57.6563
5.77981
824.653
-91.6288
-1.01531
1218.63
-99.6086
2.56831
1516.5
-0.126184
1806.74
97.1476
3.21366
1521.05
95.6308
9.82717
1472.68
73.5072
4.85498
1258.13
62.1736
-0.551833
1061.22
51.3431
-5.9633
911.212
37.6116
-7.3383
708.774
26.8601
-10.883
586.642
11.6392
2.93492
464.849
-5.77439
-8.13447
278.631
-20.5312
-30.7048
180.912
-35.6079
-36.3385
259.261
-56.978
4.57836
684.369
-90.9083
-1.01309
1229.11
-100.093
3.8335
1508.88
0.130952
1799.5
97.706
2.83273
1526.15
95.9146
8.52133
1469.11
73.113
4.52721
1241.49
61.5918
-0.256897
1044.63
50.9398
-5.57258
907.464
37.6495
-7.01689
714.422
28.2586
-10.2486
601.509
12.1101
8.49641
462.685
-7.53865
-15.8757
206.01
-18.371
-36.5793
128.735
-37.1152
-39.218
205.593
-56.0635
-2.05007
571.317
-90.4951
-0.00462624
1230.31
-100.748
5.9275
1487.44
-0.48355
1786.95
98.3095
2.16355
1526.95
96.549
6.61088
1462.27
73.1635
3.94643
1222.9
61.3147
0.378301
1026.1
50.7679
-4.53038
902.861
37.019
-5.93511
712.483
28.8843
-8.77947
644.855
14.7202
7.53214
464.483
-3.71341
-26.4319
193.828
-12.8577
-49.3706
72.5152
-36.6939
-25.9677
191.82
-54.8749
-6.00012
580.14
-89.9561
0.689478
1230.62
-98.59
5.70209
1500.43
-0.42588
1826.73
98.9806
1528.6
97.3579
1459.3
73.4132
1203.14
61.4381
997.564
50.8009
886.385
36.6682
708.734
29.0771
678.461
17.3774
517.524
2.8028
179.285
-6.32825
50.6411
-28.4906
249.327
-53.9934
622.652
-90.0874
1216.19
-97.8901
1508.96
1846.58
299.718
-4.65204
1486.52
276.644
-18.2531
1489.79
224.626
-13.209
1263.13
183.515
-2.11657
1043
154.011
13.6231
913.943
113.506
18.4441
743.613
91.8815
27.6204
694.704
57.8227
-11.3334
556.235
27.7499
-0.979952
272.07
-11.574
50.3997
130.055
-65.868
36.4939
326.399
-153.824
17.7274
704.033
-238.399
-3.90199
1289.68
-282.166
-12.9464
1549.84
3.53255
1883.92
297.528
-5.82171
1485.68
274.411
-23.056
1491.2
224.097
-15.0606
1279.08
183.393
-0.322888
1069.24
153.979
16.8654
932.346
114.262
21.332
750.171
89.8909
33.0842
669.5
54.598
-16.1333
517.767
14.3535
-14.0866
275.446
-25.2051
55.7064
144.908
-72.7917
58.2127
293.513
-155.582
14.2777
671.915
-238.548
-1.96047
1300.47
-284.269
-14.3714
1539.91
4.30926
1866.18
295.783
-6.12019
1485.08
272.569
-25.9937
1496.36
223.843
-15.9028
1295.1
183.895
0.866782
1087.34
154.25
18.1663
938.979
115.928
21.6104
754.239
89.0851
33.667
631.806
48.8214
-8.43355
488.925
4.93914
-2.79828
286.576
-42.7216
66.8013
178.778
-87.3746
65.3433
271.057
-159.113
-0.462158
652.056
-241.653
2.0008
1297.59
-291.969
-11.7709
1526.69
1.50142
1827.71
294.141
-5.30032
1480.34
271.605
-27.5493
1497.98
224.996
-16.0882
1309.01
185.642
1.6494
1103.65
155.392
17.8811
944.084
116.234
21.3067
752.634
85.4287
36.9469
612.401
41.8325
13.0006
482.822
-10.8059
27.6536
329.746
-64.8779
69.9938
229.692
-97.4975
34.394
297.336
-164.425
-14.0092
714.207
-243.119
1.48443
1300.16
-290.098
-9.37769
1545.45
0.756865
1839.16
293.419
-3.33897
1470.72
270.64
-25.7587
1500.56
225.568
-14.9539
1325.84
186.711
1.59429
1121.64
156.328
15.3541
949.275
116.571
20.4722
748.343
84.8394
41.4245
603.651
46.5301
26.72
471.681
-19.29
21.8587
281.721
-75.1994
61.1458
184.561
-97.2545
4.84488
352.388
-165.922
11.0537
854.154
-243.794
2.12658
1288.28
-288.527
-8.51899
1554.11
0.705299
1845.97
293.979
-0.688856
1454.67
270.031
-18.6677
1500.08
225.806
-11.1546
1342.62
187.514
0.882995
1140.85
157.875
9.95137
956.603
121.08
15.5632
748.877
95.0889
31.8909
585.617
58.1659
4.64443
381.474
-1.60449
-0.52034
228.746
-45.8668
37.4378
119.91
-87.0309
15.0555
327.487
-165.741
31.8284
805.104
-244.923
1.09134
1293.67
-288.453
-7.49189
1563.55
0.804004
1846.28
296.729
1.38112
1431.24
270.436
-5.21311
1493.25
225.48
-2.86198
1354.29
187.217
0.776802
1159.02
157.144
3.91129
966.553
123.192
7.27533
758.641
92.6866
17.8739
547.692
52.6735
8.06433
381.49
-1.48996
-8.65844
256.85
-41.2512
-15.7553
115.868
-90.1308
18.815
280.908
-165.014
21.1787
714.192
-245.545
0.0453071
1307.32
-290.729
-3.96632
1561.81
0.299184
1832.67
298.353
2.79756
1421.36
271.155
10.051
1487.92
225.726
7.10469
1354.77
187.373
1.29666
1163.48
157.069
-2.03575
969.585
124.737
-2.21109
766.384
98.1417
-6.11053
537.939
50.7537
9.75411
338.812
-13.6759
4.75992
230.968
-58.9451
-42.4662
129.334
-99.6327
5.10778
219.706
-164.382
-22.2852
636.418
-248.016
0.0257442
1308.11
-296.352
1.33753
1549.89
-2.67584
1804.18
296.097
4.80515
1437.45
270.141
21.974
1494.64
225.584
14.3855
1352.1
187.399
1.15476
1155.97
157.834
-8.11117
965.949
125.44
-11.9527
760.724
103.426
-33.5121
543.442
60.4754
-12.4587
335.285
-21.4834
-1.99427
176.294
-55.9447
-34.5676
134.554
-81.0836
-4.05719
305.557
-163.345
-41.1315
678.123
-245.022
-1.31321
1315.28
-289.914
5.07613
1565.2
-3.11564
1836.59
293.752
6.81216
1460.4
269.851
27.8523
1500.25
225.759
17.5263
1339.47
187.535
0.547314
1137.26
158.078
-13.0523
956.485
121.95
-18.0729
748.673
91.9113
-42.5086
569.612
48.6125
-21.349
388.899
-15.6851
-13.9262
201.119
-40.9997
-42.7157
156.622
-69.589
-11.7316
451.629
-164.815
-12.213
802.808
-244.442
-3.17463
1298.87
-287.365
5.6239
1566.83
-2.73393
1852.12
293.38
7.93022
1476.23
270.527
28.853
1500.32
225.468
18.1345
1322.54
186.849
0.373274
1117.99
157.043
-15.9125
948.028
117.459
-19.6154
745.344
84.0883
-37.0983
599.656
43.6057
-6.34317
469.708
-8.55029
-22.0676
292.493
-57.1999
-55.0277
169.674
-94.5137
-34.0846
338.941
-164.642
13.515
869.052
-243.386
-2.47783
1296.67
-287.863
7.01024
1559.6
-2.4746
1849.31
294.306
7.97488
1485.14
271.615
26.8014
1497.43
224.89
17.5375
1305.46
185.778
0.988306
1099.72
155.82
-16.4112
941.667
115.847
-19.3456
748.474
83.3811
-31.1041
613.112
35.9255
20.2999
485.658
-17.8836
-10.5926
320.96
-63.0712
-61.4333
232.501
-93.097
-59.9086
315.108
-162.963
11.8307
755.919
-242.651
-1.97972
1308.3
-289.764
10.6414
1552.36
-2.93686
1841.63
296.111
7.05728
1489.17
272.673
23.5352
1495.82
223.77
16.3024
1291.63
184.112
1.86496
1083.41
154.712
-15.421
935.872
116.586
-19.1588
752.358
88.6174
-30.0532
628.423
44.6973
33.6661
493.234
6.64223
-30.3229
263.788
-29.5377
-82.1544
185.627
-81.4414
-60.4983
258.081
-157.876
-0.388321
659.968
-241.477
2.27573
1309.66
-291.614
14.2536
1533.97
-5.35546
1830.49
297.973
5.41238
1489.16
274.589
18.5096
1490.69
224.051
14.0704
1275.67
183.613
3.30516
1065.1
154.456
-12.4858
929.081
115.569
-16.7476
748.955
91.0879
-26.1071
665.386
57.0082
25.3452
506.878
39.4191
-60.3726
241.459
2.67634
-98.0905
125.184
-68.68
-33.1866
235.858
-153.536
-3.69123
668.297
-238.51
5.0588
1312.81
-283.978
13.5115
1546.64
-4.14169
1868.64
300.267
1489.52
276.859
1489.54
224.576
1260.2
183.732
1039.12
154.513
910.86
115.105
742.271
92.8106
691.225
67.0243
553.827
58.4149
209.76
11.2249
92.3398
-62.0433
301.984
-153.137
711.945
-238.898
1302.74
-282.142
1556.67
1886.44
546.15
-6.86338
1305.37
485.988
-23.8936
1557.21
399.084
-24.7349
1356.85
306.128
-10.6489
1138.04
251.937
18.9043
961.675
191.093
29.7765
795.592
155.148
47.2829
716.418
133.742
-10.762
578.499
142.099
57.3696
266.666
65.6615
60.7058
202.094
-75.5194
-12.0294
466.509
-262.083
-1.55825
894.541
-397.193
-21.4259
1431.26
-520.403
-18.0544
1678.52
9.43149
1808.31
541.634
-8.19714
1307.19
480.972
-29.758
1557.74
397.827
-29.0931
1366.58
306.57
-9.20661
1159.06
252.902
23.8144
981.103
192.211
34.4507
806.185
153.11
54.6464
701.236
119.473
-14.5694
555.209
121.068
51.0513
280.166
67.8525
66.0015
192.825
-69.5775
4.83473
414.077
-262.942
-9.67931
873.4
-399.308
-21.3269
1436.74
-525.044
-21.1915
1668.78
11.393
1792.03
538.233
-7.86216
1308.19
476.771
-32.9742
1561.05
396.588
-31.7007
1377.89
307.001
-7.64392
1175.36
253.393
25.6985
990.703
194.182
34.3265
813.571
152.205
53.1707
675.257
103.134
-9.61282
533.037
88.6389
48.1597
303.959
43.7706
64.0904
225.554
-77.5926
17.6016
379.651
-264.522
-23.447
852.753
-411.639
-8.68239
1432.06
-543.159
-17.3156
1654.33
3.58078
1751.99
534.669
-5.38854
1305.7
473.671
-34.5309
1560.55
397.837
-33.8137
1386.96
310.158
-6.48013
1190.16
255.684
25.5034
998.752
194.827
32.6872
815.128
146.063
55.3534
658.98
84.4809
18.4319
516.356
42.076
54.9652
365.342
-16.6744
52.0697
300.459
-106.382
7.19356
397.448
-271.145
-30.5854
886.108
-406.71
-4.32766
1431.37
-532.836
-13.6332
1667.9
2.91082
1765.77
532.559
-1.00644
1298.41
471.398
-31.7961
1558.99
398.088
-32.881
1398.22
311.754
-5.62499
1207.12
257.274
21.8295
1007.43
195.276
29.3563
813.669
144.938
58.5996
650.741
85.6514
43.008
506.388
34.2291
38.3026
349.802
-28.5587
44.3029
255.111
-110.545
24.0551
417.51
-270.309
12.3901
970.943
-403.373
0.210596
1416.81
-527.397
-12.1977
1676.7
4.52553
1774.73
533.189
3.02019
1284.93
471.147
-22.6336
1552.97
398.007
-25.547
1408.43
312.789
-4.33996
1224.78
259.789
14.0451
1017.39
200.842
21.4875
815.691
159.428
45.7229
639.906
119.686
19.3046
444.916
96.6536
20.3815
269.695
30.5751
47.047
183.239
-93.5026
55.8733
419.743
-273.482
48.2393
949.234
-404.72
0.10821
1425.01
-527.381
-10.791
1684.8
5.87144
1775.1
538.612
3.52526
1263.26
474.964
-5.91098
1540.18
397.266
-7.19313
1413.63
312.005
-0.546864
1240.49
258.554
5.49758
1028.55
203.28
9.28133
826.119
158.561
25.6522
612.478
118.745
9.71125
430.896
112.033
-2.82834
286.767
45.7133
16.0419
213.188
-95.281
56.0446
421.728
-276.931
39.0623
905.018
-409.716
0.0887467
1440.12
-534.753
-6.54487
1682.61
3.88138
1759.59
541.822
2.53053
1253.41
477.816
12.8617
1533.16
397.664
15.4187
1412.32
312.167
4.58812
1243.84
258.569
-2.7238
1031.4
205.246
-4.33487
833.32
167.151
-7.26898
608.953
123.712
-4.21667
396.175
104.074
-26.5363
274.308
37.9378
-17.4245
228.931
-102.795
22.6722
393.808
-281.655
-15.227
869.567
-423.537
5.57752
1444.51
-552.397
1.66909
1670.54
-7.23934
1727
537.587
4.4172
1268.3
473.981
27.7951
1543.32
397.44
31.2916
1412.77
312.194
8.07135
1237.74
259.439
-11.0808
1027.06
205.51
-17.0268
827.343
174.404
-44.2652
611.541
145.566
-33.2233
393.126
96.9557
-28.1964
226.56
12.3952
-12.2812
213.964
-105.496
-0.0797021
446.198
-278.566
-51.1233
887.088
-409.2
2.94391
1448.55
-533.258
6.0499
1684.88
-8.76765
1763.26
533.488
7.945
1289.66
470.926
35.5318
1555.08
397.96
37.0915
1406.65
312.629
9.31032
1221.35
259.98
-17.9472
1016
202.027
-25.6603
815.256
159.732
-58.4545
626.094
117.315
-39.1603
437.249
58.9804
-1.27149
232.523
-10.8927
-2.57935
216.786
-102.766
0.620035
542.8
-277.356
-26.0763
952.351
-404.638
-0.952031
1430.05
-525.229
6.45427
1687.02
-6.64075
1780.64
533.349
10.5105
1303.7
471.439
37.2353
1560.54
397.925
36.9418
1396.21
311.62
9.92756
1203.68
258.172
-21.9196
1005.45
197.045
-29.8981
810.706
145.346
-53.3293
646.227
88.529
-15.1014
502.463
59.2252
-9.33374
329.855
4.21957
1.17124
220.923
-103.557
21.9406
425.394
-271.842
22.4918
988.77
-403.915
3.27132
1424.52
-526.426
8.68945
1679.87
-4.49908
1777.14
535.513
11.3356
1310.72
473.938
34.8454
1561.4
397.673
34.0225
1384.65
309.984
10.7825
1186.55
256.185
-22.3721
995.917
194.881
-31.2097
811.087
144.918
-47.5067
657.248
79.955
19.5784
515.937
46.02
-34.5246
380.08
4.25816
-18.0134
293.44
-95.9819
37.5119
399.773
-271.487
35.7138
918.2
-407.529
10.0922
1437.53
-532.311
14.2682
1671.56
-4.77016
1767.01
539.299
10.4385
1312.4
477.332
31.025
1561.62
396.498
30.8003
1375.69
306.907
11.8411
1171.94
253.916
-20.999
987.489
195.502
-32.0336
811.593
153.326
-48.8417
671.93
107.289
24.4563
534.388
99.9196
-77.4174
314.045
68.6826
-40.0514
238.896
-63.5056
56.4561
371.321
-267.486
33.0713
866.59
-413.369
23.2781
1442.35
-542.953
19.7852
1658.03
-12.0258
1752.92
542.852
8.22682
1310.65
481.731
24.6979
1558.14
397.802
25.92
1364.49
306.447
12.6982
1155.6
253.387
-16.6712
977.812
193.726
-28.1636
804.743
156.035
-44.0902
698.321
126.363
11.8111
549.19
137.35
-99.6593
252.708
96.344
-52.6388
178.771
-56.5144
65.3674
379.801
-265.889
31.0375
879.704
-401.763
23.8736
1448.09
-525.599
18.1167
1672.15
-9.5856
1791.98
547.548
1308.19
486.895
1557.77
399.067
1355.27
305.898
1135.05
252.27
958.761
191.881
794.465
155.649
714.888
134.005
579.245
138.453
208.61
62.7536
166.772
-80.7066
450.13
-268.268
908.444
-401.559
1442.99
-521.956
1682.04
1807.55
792.561
-7.28896
1007.38
781.267
-22.0176
1574.16
654.654
-32.51
1491.49
478.353
-25.6293
1319.41
350.76
14.0807
1083.67
251.617
41.0863
883.585
187.496
69.7242
763.044
187.11
43.2529
558.888
189.238
121.186
231.904
39.9597
-46.7882
347.939
-205.44
-94.5558
734.421
-487.742
-33.9917
1197.75
-702.095
-35.4767
1658.33
-828.967
-0.169192
1803.49
18.6222
1563.86
787.567
-8.13652
1011.33
772.928
-25.9853
1576.35
649.837
-39.0435
1496.21
477.452
-26.7728
1332.59
353.009
19.432
1100.19
255.807
48.0887
896.382
193.228
79.284
754.253
187.307
54.8434
549.537
206.743
142.751
239.161
73.4149
-36.5348
315.898
-197.216
-110.699
700.85
-490.086
-63.4677
1195.75
-707.69
-38.8554
1657.73
-835.296
-1.0958
1797.31
20.4279
1552.64
783.781
-6.62467
1013.64
766.122
-26.5255
1579.26
645.362
-43.1456
1502.76
476.042
-26.5076
1344.42
354
21.4371
1110.74
260.527
47.1634
907.968
197.878
73.5096
743.678
178.003
41.31
566.444
212.734
106.892
305.083
116.907
-22.8794
307.723
-175.085
-93.3126
654.255
-496.555
-75.8238
1186.58
-734.858
-18.3418
1649.85
-858.17
-1.57533
1778.13
3.37246
1517.36
778.522
-1.61199
1014.22
759.44
-25.4729
1578.58
643.809
-47.2456
1506.7
479.187
-26.7738
1355.05
358.105
21.0104
1120.26
263.182
43.1008
914.112
193.331
68.8385
733.5
148.717
35.0766
567.202
174.301
40.9276
405.719
112.332
-5.40971
344.955
-160.571
-40.9652
618.003
-484.872
-51.1962
1185.78
-710.796
-8.82968
1647.78
-837.475
-2.19451
1795.2
3.16503
1535.15
775.179
4.7161
1010.87
754.831
-20.8115
1574.68
641.656
-46.8193
1510.98
479.834
-25.3345
1367.5
360.175
17.0673
1131.03
264.51
35.6557
916.777
191.363
65.4863
727.238
137.754
40.7761
554.295
162.456
-11.8096
377.834
111.076
10.2596
290.817
-152.093
36.6283
603.084
-470.857
24.7902
1213.72
-697.803
-1.08059
1636.01
-828.869
-4.059
1809.63
8.84648
1545.11
775.424
7.96367
1002.35
754.772
-12.094
1564.91
640.473
-36.5925
1512.5
479.675
-19.5023
1379.75
362.332
9.94568
1141.85
268.202
25.0481
920.426
206.849
47.9064
718.837
183.975
34.2071
474.355
202.77
-8.03664
247.123
101.279
9.28761
285.699
-176.618
80.526
653.741
-481.974
69.7377
1209.64
-698.873
-2.32129
1643.15
-830.04
-5.1282
1817.04
13.2055
1544.55
780.04
5.03396
986.558
762.364
-1.17849
1546.95
641.046
-10.2081
1508.57
477.918
-5.10552
1389.22
359.607
4.11907
1152.69
269.943
10.08
930.749
204.492
24.21
701.623
196.96
10.2581
462.375
211.695
-9.56952
273.56
64.6044
7.38369
362.179
-214.374
70.5409
710.689
-498.915
51.3028
1207.99
-713.546
-1.41684
1653.85
-842.971
-4.3162
1811.22
9.15136
1526.95
782.228
0.619693
978.948
767.22
8.92726
1538.07
642.84
22.0242
1504.47
478.337
12.7446
1390.5
359.088
-0.160433
1154.93
272.335
-6.92935
937.08
211.332
-9.21686
703.381
203.976
-44.2127
457.999
196.252
-22.2511
294.71
26.6319
29.4722
376.459
-248.77
12.4444
727.305
-522.945
-14.3966
1209.44
-745.323
11.2396
1654.23
-867.221
-2.47171
1790.59
-12.335
1493.26
778.239
1.82621
989.823
760.433
18.6797
1551.38
641.083
44.4027
1509.74
478.192
25.6045
1387.77
359.935
-5.44841
1150.6
270.643
-20.8588
930.563
217.493
-43.6491
699.121
216.027
-57.598
407.974
177.195
4.80921
238.327
8.57769
34.1082
377.942
-234.783
-28.0928
730.094
-504.59
-60.0308
1202.53
-712.283
7.18645
1660.3
-841.377
-0.948557
1812.45
-16.1005
1530.48
775.745
6.60789
1005.21
754.987
26.1361
1568.39
640.916
52.2252
1512.9
479.499
30.695
1377.68
361.739
-11.152
1139.46
267.553
-30.2815
918.864
209.004
-60.0237
701.015
183.121
-31.9736
437.504
149.916
47.5138
223.02
23.4796
29.1503
348.177
-206.376
10.8975
733.663
-487.357
-35.1286
1208.43
-697.205
0.712545
1646.37
-826.749
-2.71084
1818.33
-10.5887
1550.33
777.662
10.4753
1014.46
756.464
30.1659
1577.71
642.388
51.4135
1511.1
479.608
31.6547
1365.5
360.327
-15.1872
1128.76
264.959
-37.6419
913.433
192.292
-61.7386
720.606
143.856
-18.1436
537.066
174.467
23.4796
323.275
110.303
49.9788
264.256
-163.661
77.0111
633.242
-476.27
39.8193
1226.43
-698.482
7.23594
1640.21
-827.18
-3.80833
1809.67
-5.00091
1547.78
781.291
12.1499
1018.11
761.453
30.6202
1580.79
644.758
46.3727
1506.39
479.091
30.8656
1353.01
357.969
-15.8031
1117.65
262.557
-41.5486
910.404
191.788
-61.9789
728.257
146.311
-21.9559
565.224
186.749
-61.1179
424.238
129.328
63.0875
337.752
-158.246
143.017
621.34
-486.078
83.1587
1202.69
-710.991
19.8851
1649.79
-835.337
-2.4013
1794.51
-5.03753
1536.8
786.152
11.484
1017.04
768.363
29.2163
1580.82
646.574
41.4602
1502.4
476.179
30.4493
1342.76
354.034
-14.453
1108.28
261.219
-43.5652
906.423
199.192
-67.9614
739.937
183.728
-43.3732
571.268
229.18
-125.774
333.246
136.053
84.2048
310.903
-171.727
172.825
649.292
-502.311
83.4482
1196.89
-736.086
41.1254
1654.89
-856.127
-0.953774
1776.63
-21.4204
1518.05
789.758
9.26485
1014.1
775.352
24.2961
1577.48
651.239
34.2288
1495.84
477.681
28.5397
1331.07
353.155
-9.97187
1097.86
256.399
-37.4434
895.375
197.304
-61.9483
751.4
194.106
-40.847
549.859
212.058
-124.298
233.275
78.3622
85.0124
311.656
-201.474
142.749
689.712
-498.924
57.6823
1202.92
-710.457
36.9494
1663.8
-834.138
-0.159178
1795.03
-19.0601
1551.69
794.81
1009.5
783.898
1575.2
656.177
1491.54
478.541
1318.58
350.813
1082.04
251.602
883.463
189.392
762.428
181.087
568.368
169.32
201.838
18.7857
329.844
-222.987
726.45
-498.756
1207.35
-707.145
1664.57
-828.583
1800.81
1561.57
941.672
-4.93932
739.423
1053.45
-17.3848
1466.4
979.35
-31.163
1572.55
764.012
-38.027
1542.26
525.124
-5.27908
1320.55
324.381
42.731
1071.5
173.406
93.4348
889.599
92.2326
131.994
597.965
-22.5746
36.2092
311.607
-230.619
-178.827
576.367
-518.89
-98.2698
1052.8
-836.064
-39.6797
1534.15
-1081.43
-37.2419
1914.76
-1070.92
24.9111
1780.24
23.5247
1268.7
938.919
-4.86014
742.792
1045.32
-18.1574
1470.73
970.936
-36.8297
1576.27
758.413
-42.2059
1549.29
524.484
-1.78262
1330.63
329.541
52.3322
1081.72
184.685
111.622
880.921
122.286
175.864
568.065
13.4646
89.8811
294.308
-224.678
-176.976
552.188
-529.528
-142.931
1050.36
-839.802
-72.122
1538.46
-1084.08
-41.1243
1905.89
-1073.33
27.8227
1783.66
26.9907
1266.98
936.503
-2.30439
744.978
1038.81
-14.9682
1473.77
963.591
-39.3059
1580.46
752.856
-43.6013
1556.55
524.066
-0.884618
1338.63
341.073
49.6713
1093.62
209.303
102.241
884.827
184.998
138.302
628.309
131.672
98.265
350.024
-136.376
-107.519
506.313
-516.256
-144.19
1035.39
-854.394
-88.1974
1540.79
-1108.08
-24.0694
1886.49
-1082.61
18.0655
1762.41
11.688
1250.58
932.373
3.21255
747.104
1030.75
-9.45849
1474.7
957.672
-41.589
1582.06
752.53
-45.726
1562.32
528.661
-2.98682
1346.23
347.915
42.1795
1102.35
218.976
82.8183
881.86
193.828
59.7829
670.867
212.634
21.6588
463.519
-8.5085
-19.4426
478.018
-447.998
-73.6367
986.938
-818.708
-62.8326
1531.13
-1069.22
-13.9991
1888.22
-1065.37
15.582
1793.83
8.13136
1273.57
930.377
7.85942
746.835
1025.6
-1.43769
1471.45
952.494
-39.1132
1581.61
749.71
-43.7592
1568.32
529.171
-6.48301
1355.06
349.437
30.9726
1107.72
216.964
65.3498
877.178
174.964
3.5907
652.486
229.628
-68.9743
413.801
54.1726
23.5731
423.255
-404.586
39.5232
948.682
-793.596
12.5239
1527.37
-1051.06
-6.8678
1886.35
-1061.04
15.4003
1819.79
11.3698
1279.68
930.104
8.62954
743.836
1025.18
6.0949
1462.31
950.39
-28.1963
1576.38
747.205
-33.1253
1572.3
527.61
-7.99205
1362.95
346.895
19.9501
1112.16
216.728
46.5266
867.825
151.393
22.2038
521.075
118.996
-96.8328
307.376
-64.9354
-30.643
523.844
-448.057
82.374
994.01
-803.09
52.1178
1525.08
-1049.35
-7.43592
1889.98
-1063.43
14.3646
1832.15
14.2133
1276.62
930.364
4.37244
737.38
1031.48
6.56058
1445.37
953.499
-5.93627
1564.3
746.072
-8.54212
1572.06
522.718
-1.77601
1369.83
344.199
8.2753
1120.94
213.403
18.8717
860.072
160.987
18.9752
518.018
44.2298
-41.0134
334.494
-199.999
-31.5667
607.33
-513.34
46.2958
1060.11
-829.976
34.099
1542.65
-1069.12
-4.46903
1890.02
-1072.83
4.55708
1824.75
8.4616
1262.03
929.021
0.263061
734.476
1034.72
1.57266
1437.37
956.648
19.0699
1557.54
748.088
20.5636
1569.95
522.315
8.24327
1370.68
347.524
-5.60124
1125.75
227.372
-23.2978
865.701
198.831
-64.2445
569.758
38.4643
53.0931
360.968
-267.444
60.7605
590.038
-566.803
-9.45382
1082.41
-862.471
-11.5339
1550.74
-1100.51
8.01385
1879.79
-1084.98
-18.4688
1798.08
-11.1674
1237.56
927.615
1.61239
739.316
1028.7
2.08799
1449.79
952.678
37.432
1567.4
746.377
41.829
1572.81
522.118
14.535
1368.57
342.676
-15.5853
1119.99
210.714
-46.3325
854.116
141.905
-41.5373
454.073
-8.0032
118.488
322.838
-243.442
65.6873
608.452
-527.078
-56.3487
1060.62
-833.843
-44.1515
1541.91
-1067.47
7.13644
1894.8
-1072.62
-26.4297
1825.57
-18.7911
1265.43
929.321
5.72465
745.508
1025.33
8.7139
1465.76
951.374
45.7257
1578.56
747.723
50.6884
1572.47
525.581
14.7855
1361.35
341.304
-22.7915
1110.35
200.441
-48.9406
844.485
113.176
25.0074
458.222
44.0004
88.7042
321.976
-128.009
11.349
574.522
-462.649
-3.69904
1015.65
-803.408
-16.4335
1521.47
-1046.05
3.14833
1893.01
-1061.16
-25.7115
1832.72
-15.9339
1281.31
933.281
8.57003
748.503
1029.04
16.3051
1474.36
955.285
47.2974
1583.29
750.932
52.0865
1568.46
528.806
11.5065
1354.17
346.581
-32.322
1105.19
212.527
-63.5097
869.228
167.407
-7.18037
614.372
205.858
19.7399
353.787
18.9826
21.7905
440.688
-421.913
93.5991
976.839
-795.764
51.9119
1531.94
-1050.31
9.66971
1888.24
-1058.68
-24.3138
1816.64
-13.6262
1282.43
936.727
9.65431
748.946
1035.19
21.5947
1477.05
961.146
44.5445
1583.19
754.391
49.4792
1562.37
528.801
9.2485
1345.5
345.838
-39.3923
1100.44
215.391
-79.9039
875.095
194.516
-92.9805
671.896
220.099
-66.2591
484.65
-6.37348
109.42
476.591
-446.964
164.884
990.645
-815.124
87.4324
1535.33
-1066.61
22.7213
1888.22
-1061.06
-24.0475
1788.7
-16.5436
1275.44
940.109
8.7373
746.903
1042.95
23.9915
1475.58
967.345
41.2607
1581.29
755.39
47.2802
1556.91
525.228
9.22129
1338.47
341.518
-43.1544
1093.89
211.257
-91.6143
881.906
194.534
-145.943
640.95
150.666
-74.1338
384.985
-123.796
184.382
510.401
-514.413
167.488
1037.3
-854.518
80.2913
1544.13
-1105.82
40.8192
1888.09
-1077.7
-31.7688
1756.23
-31.0213
1251.87
941.399
7.13188
744.695
1048.99
21.7961
1472.09
974.733
34.4813
1576.87
761.217
42.1065
1549.76
526.055
11.526
1330.71
330.029
-34.3168
1082.56
188.895
-77.3887
878.306
126.795
-104.351
570.364
14.0785
-48.5342
320.386
-225.91
161.951
574.073
-533.975
109.418
1055.85
-843.332
51.3481
1541.22
-1082.78
36.5667
1907.5
-1068.19
-27.1699
1775.84
-26.4836
1266.85
943.928
741.036
1057.18
1467.51
983.321
1573.32
767.127
1543.37
527.158
1321.6
326.113
1073.35
178.935
888.724
99.9546
604.496
-15.4345
317.113
-233.14
587.952
-527.69
1056.43
-840.385
1537.81
-1081.09
1916.17
-1065.54
1771.26
1266.83
1007.6
-1.48533
607.768
1185.58
-12.7586
1291.23
1234.1
-23.805
1528.75
1101.3
-39.7376
1682.93
828.347
-28.2077
1596.46
513.812
19.689
1376.78
216.123
85.5311
1158.86
-75.8537
169.759
842.516
-316.228
-72.4237
576.357
-479.896
-184.94
782.007
-764.267
-96.8492
1364.28
-1058.19
-18.5395
1846.82
-1284.72
14.1647
2154.51
-1134.21
113.01
1591.53
45.1992
1129.16
1006.35
0.117024
609.378
1180.56
-11.8182
1295.58
1226.23
-26.5228
1533.32
1092.12
-44.5717
1688.24
820.815
-28.154
1601.88
510.492
29.3393
1382.39
206.78
118.75
1151.41
-75.941
236.224
784.32
-308.29
-61.7267
515.959
-500.781
-209.758
769.497
-786.891
-118.306
1357.93
-1066.51
-42.8713
1842.42
-1293.52
6.09529
2140.96
-1145.32
126.41
1622.07
45.6242
1142.12
1006.01
2.24057
610.571
1177.28
-7.29581
1297.99
1219.97
-25.3195
1536.57
1084.13
-45.3604
1693.17
816.284
-28.5637
1606.89
523.061
26.2813
1389.9
259.493
108.934
1158.21
82.5935
199.131
842.3
-156.956
-7.39346
535.238
-475.679
-114.206
729.482
-810.766
-102.849
1355.02
-1096.95
-51.8638
1835.97
-1315.11
2.9957
2107.75
-1152.14
95.267
1630.58
13.0418
1159.18
1004.8
4.91271
611.949
1171.75
0.32516
1300.14
1212.78
-22.6833
1538.4
1079.44
-46.1418
1696.44
817.552
-31.7697
1611.33
532.105
17.0601
1397.02
290.077
74.1068
1158.71
176.483
87.4297
896.161
-13.5443
7.89899
638.252
-369.5
9.47761
710.289
-762.517
-60.4275
1337.53
-1070.29
-39.2196
1826.25
-1281.22
0.575122
2101.58
-1140.8
69.8521
1678.83
0.0601212
1177.59
1004.78
6.13123
612.514
1168.33
9.4104
1298.82
1207.13
-16.5
1536.63
1073.41
-41.8457
1697.75
813.652
-32.9213
1615.97
529.835
6.35388
1402.24
283.373
42.1421
1155.6
159.517
-12.1431
875.913
36.5371
-43.4086
588.087
-269.38
37.0914
701.556
-709.439
8.81976
1319.49
-1050.22
4.65999
1824.28
-1264.92
0.246519
2101.37
-1139.72
50.5656
1713.88
-2.14884
1176.29
1004.28
5.64321
612.546
1167.18
15.1732
1293.66
1204.81
-7.27536
1529.52
1069.57
-29.1258
1694.83
807.114
-26.1217
1618.61
518.52
0.990473
1406.12
241.444
35.5514
1151.49
-12.2513
14.5791
748.047
-196.68
-94.9944
543.389
-385.334
-66.3199
815.909
-730.687
12.5522
1335.63
-1049.99
25.1297
1823.92
-1261.93
1.05132
2101.12
-1144.42
37.295
1727.91
0.680799
1164.86
1002.1
3.74655
612.328
1168.79
9.97557
1283.89
1207.84
2.44426
1515.53
1070.64
-5.52327
1685.66
802.813
-6.66714
1618.2
510.517
2.61149
1411.62
239.604
15.0964
1151.44
-24.5983
41.9497
754.848
-293.723
-34.3632
542.986
-513.584
-71.1919
832.062
-793.652
-10.7045
1363.43
-1074.07
9.34864
1838.85
-1274.79
-0.14402
2091.93
-1147.87
11.4467
1723.68
1.34241
1152.98
999.508
3.02809
612.652
1168.55
-1.3952
1279.7
1209.89
9.87086
1508.77
1074.1
20.0008
1680.22
804.879
16.8743
1616.37
516.188
3.25699
1413.79
279.855
-38.2159
1155.35
107.507
-42.2171
826.27