/*--------------------------------*- C++ -*----------------------------------*\
| =========                 |                                                 |
| \\      /  F ield         | OpenFOAM: The Open Source CFD Toolbox           |
|  \\    /   O peration     | Version:  4.1                                   |
|   \\  /    A nd           | Web:      www.OpenFOAM.org                      |
|    \\/     M anipulation  |                                                 |
\*---------------------------------------------------------------------------*/
FoamFile
{
    version     2.0;
    format      ascii;
    class       volVectorField;
    location    "23";
    object      U;
}
// * * * * * * * * * * * * * * * * * * * * * * * * * * * * * * * * * * * * * //

dimensions      [0 1 -1 0 0 0 0];

internalField   nonuniform List<vector> 
6750
(
(3.06386 -0.00700408 17.2266)
(0.199815 -0.024326 16.3399)
(1.45427 -0.0142179 13.3002)
(0.486408 -0.00104146 11.1337)
(0.761951 0.0182205 9.91375)
(0.433724 0.0246306 7.85464)
(0.372523 0.0335479 7.65669)
(0.286089 -0.00487355 5.65264)
(0.0261866 0.00878608 2.24131)
(-0.0635851 0.092619 0.900878)
(-0.497076 0.0678847 3.13088)
(0.01557 0.0340959 6.72503)
(-1.58032 -0.00308622 13.1643)
(0.239227 -0.0212852 16.7328)
(-3.80109 0.000516396 20.5162)
(3.05372 -0.0132955 17.2002)
(0.197451 -0.0461046 16.3861)
(1.44138 -0.0240922 13.5454)
(0.488118 0.00187763 11.4649)
(0.75899 0.0333747 10.0908)
(0.436928 0.0445085 7.88491)
(0.377685 0.062496 7.25638)
(0.285544 -0.0193178 5.22836)
(0.047899 -0.023369 2.18456)
(-0.0622955 0.0750946 1.14197)
(-0.52851 0.126872 2.9308)
(-0.00419091 0.0572557 6.30653)
(-1.57927 -0.00351799 13.353)
(0.241792 -0.0383432 16.6457)
(-3.83532 0.00241633 20.2873)
(3.04353 -0.0141266 17.1828)
(0.19577 -0.0499563 16.4711)
(1.43217 -0.0229599 13.7639)
(0.491887 0.00591723 11.6696)
(0.762231 0.0347869 10.1324)
(0.437947 0.0436447 7.91406)
(0.392038 0.0610322 6.72083)
(0.271652 -0.0132526 5.02085)
(0.0367476 -0.0427368 2.66972)
(-0.0233653 0.107611 1.50555)
(-0.621109 0.157087 2.44071)
(-0.0223903 0.0397148 6.0523)
(-1.5943 0.00364354 13.3583)
(0.247249 -0.0279989 16.4986)
(-3.91811 -0.00129695 19.8237)
(3.03843 -0.0146946 17.1146)
(0.193963 -0.0575911 16.5212)
(1.42933 -0.0244742 13.9622)
(0.499858 0.00725649 11.8549)
(0.768174 0.0371502 10.1559)
(0.441321 0.0452105 7.87551)
(0.391047 0.0633529 6.48473)
(0.24657 0.016927 5.10025)
(0.0334794 0.0147239 3.37388)
(-0.0148861 0.155711 1.92399)
(-0.63869 0.140631 2.2963)
(-0.0257404 -0.0288856 6.81606)
(-1.60349 0.00434355 13.3704)
(0.240151 -0.019245 16.7484)
(-3.88302 -0.00432164 19.984)
(3.04259 -0.0121504 16.9932)
(0.191632 -0.0582086 16.5972)
(1.42446 -0.0225283 14.1942)
(0.505883 0.0078342 12.0515)
(0.772461 0.0345018 10.1783)
(0.445923 0.0456329 7.81208)
(0.390787 0.081264 6.39078)
(0.244522 0.0613214 4.9359)
(0.0923837 0.0423296 2.06764)
(-0.051502 0.18458 1.11984)
(-0.603254 0.00275689 2.9977)
(-0.0253354 -0.0197305 8.96221)
(-1.61016 0.00291987 13.2647)
(0.237487 -0.0177987 16.8552)
(-3.86481 -0.00195129 20.063)
(3.06165 -0.0074983 16.795)
(0.188834 -0.051558 16.6543)
(1.41852 -0.0195341 14.435)
(0.510432 0.00546975 12.2646)
(0.775859 0.0267759 10.2277)
(0.456288 0.0421331 7.80057)
(0.415694 0.0769372 6.05178)
(0.304514 0.029726 3.3871)
(0.0779273 -0.0473137 1.28207)
(-0.02881 0.158501 0.290107)
(-0.541256 -0.0406993 3.11733)
(-0.016984 0.0531699 8.21091)
(-1.61974 0.00394724 13.2788)
(0.2343 -0.0197988 16.9835)
(-3.86004 -0.000442351 20.0674)
(3.10106 -0.00136189 16.512)
(0.186043 -0.0289208 16.6391)
(1.41388 -0.0107533 14.6233)
(0.51098 0.00259821 12.4771)
(0.774281 0.0142318 10.3231)
(0.452744 0.0264364 7.90255)
(0.437187 0.0479829 5.48343)
(0.250119 -0.0123475 3.76292)
(0.0622888 -0.0184725 1.89913)
(-0.122939 -0.103474 -0.116662)
(-0.635616 -0.00489517 2.44382)
(-0.0168899 0.0881859 6.77925)
(-1.62229 0.000187778 13.4141)
(0.234037 -0.016998 16.9825)
(-3.88634 0.00166344 19.9061)
(3.12013 0.00396944 16.3942)
(0.184903 0.00557634 16.5937)
(1.41543 0.00354589 14.6477)
(0.511719 0.00205108 12.5349)
(0.774645 0.00214597 10.3548)
(0.452135 0.00708165 7.99657)
(0.453546 0.0212492 5.27779)
(0.280795 0.047354 3.12401)
(0.0122394 0.0274816 1.83208)
(-0.149139 -0.159173 0.43808)
(-0.841274 -0.0127999 1.64445)
(-0.0152425 -0.00818649 5.5772)
(-1.6405 -0.00162046 13.3984)
(0.24012 -0.00268086 16.8392)
(-3.95073 -0.00249015 19.563)
(3.09189 0.00914084 16.5856)
(0.185681 0.0370878 16.6373)
(1.4149 0.0169304 14.5896)
(0.51119 0.0011949 12.4435)
(0.775735 -0.0106749 10.3233)
(0.457195 -0.0166226 7.92618)
(0.456267 -0.0426192 5.35488)
(0.327674 0.00795051 2.76785)
(-0.007467 0.0717574 0.551258)
(-0.129477 -0.128536 1.18138)
(-0.507988 -0.0136844 2.94976)
(-0.0130924 -0.131291 6.13354)
(-1.61461 -0.00253135 13.4828)
(0.232919 0.0134906 17.0272)
(-3.87508 -0.00678251 19.9535)
(3.05792 0.0143767 16.8573)
(0.187908 0.0559729 16.6397)
(1.41981 0.0247189 14.3918)
(0.509904 -0.00151361 12.2268)
(0.776643 -0.0226261 10.2358)
(0.457216 -0.0373824 7.78841)
(0.423216 -0.0866548 5.81771)
(0.276308 -0.0500774 3.58626)
(0.0383428 -0.0161658 1.03379)
(-0.0388296 -0.112757 1.24411)
(-0.365593 -0.000231282 4.53449)
(-0.0121107 -0.055894 8.06673)
(-1.60993 -0.00700802 13.3181)
(0.232623 0.0156159 17.0203)
(-3.84251 -0.00441418 20.1423)
(3.04278 0.0175697 17.0482)
(0.19026 0.0609934 16.5825)
(1.42592 0.0270492 14.149)
(0.505088 -0.00386243 12.0121)
(0.774239 -0.0304842 10.1674)
(0.449161 -0.0433684 7.76889)
(0.391259 -0.0832049 6.33278)
(0.237578 -0.0449421 4.89965)
(0.0522488 -0.0760227 2.33676)
(-0.0265063 -0.209006 0.984486)
(-0.631951 -0.049031 2.74732)
(-0.0170725 0.0234147 9.12936)
(-1.60268 -0.00641791 13.3484)
(0.235526 0.0125877 16.9277)
(-3.8496 -0.00219725 20.113)
(3.04186 0.0188078 17.1606)
(0.192108 0.0591155 16.5057)
(1.43136 0.0281389 13.9139)
(0.498649 -0.00365343 11.8118)
(0.770244 -0.0342225 10.1292)
(0.441319 -0.0425374 7.82428)
(0.385417 -0.0666659 6.50835)
(0.231456 -0.00737678 5.14727)
(-0.000606136 -0.0613572 3.00323)
(-0.0336428 -0.166073 1.91111)
(-0.603048 -0.163798 2.56323)
(-0.0157866 0.0371818 7.43632)
(-1.59152 -0.0062457 13.4639)
(0.237912 0.0166205 16.8409)
(-3.86718 0.00104384 20.0294)
(3.04941 0.0169757 17.2212)
(0.193618 0.05074 16.4571)
(1.43474 0.0257988 13.716)
(0.490477 -0.00285488 11.6249)
(0.764997 -0.0322453 10.0958)
(0.436414 -0.0394246 7.89355)
(0.393735 -0.0566565 6.67118)
(0.250888 0.0380343 5.08919)
(-0.0342914 -0.0452528 2.02507)
(0.0103968 -0.17858 1.26262)
(-0.632226 -0.242854 2.06607)
(-0.00476448 0.00999372 6.12924)
(-1.58659 -0.00439459 13.4832)
(0.244713 0.0271222 16.5967)
(-3.89993 -0.000728415 19.8755)
(3.0613 0.0152767 17.2326)
(0.195112 0.0464234 16.3734)
(1.44441 0.0262846 13.4977)
(0.486579 0.000676219 11.4169)
(0.76183 -0.031256 10.0527)
(0.434929 -0.0405593 7.87554)
(0.384785 -0.0602298 7.18243)
(0.266997 0.0567435 5.0595)
(0.00937094 -0.120985 1.87295)
(0.099353 -0.247062 0.57272)
(-0.643156 -0.205044 2.03461)
(0.0139623 -0.0322482 6.26844)
(-1.57577 0.00397618 13.4763)
(0.239164 0.0390478 16.7353)
(-3.81776 -0.00364245 20.3363)
(3.07273 0.00789363 17.2543)
(0.197325 0.024389 16.3306)
(1.45742 0.0152761 13.2576)
(0.484753 0.00242325 11.0869)
(0.764959 -0.0169902 9.87612)
(0.431642 -0.0223362 7.84529)
(0.384655 -0.0325505 7.59233)
(0.265833 0.0270236 5.66189)
(0.0711189 -0.189224 1.77905)
(0.163824 -0.303023 0.413494)
(-0.509787 -0.0760862 2.70874)
(0.034521 -0.0263183 6.73484)
(-1.57776 0.00356917 13.2941)
(0.236603 0.0220584 16.8177)
(-3.78327 -0.00105968 20.5686)
(8.80144 -0.0174355 17.1342)
(0.833375 -0.0704715 16.4696)
(4.00206 -0.0537592 13.8356)
(1.68859 -0.0119075 11.4116)
(2.17649 0.0525532 10.103)
(1.3904 0.0733087 8.11541)
(1.146 0.106509 7.72562)
(0.924224 -0.0346249 5.97734)
(0.279189 0.0739844 2.83608)
(0.558135 0.289417 1.14679)
(-1.07972 0.147217 3.30264)
(-0.0379972 0.0789743 7.25362)
(-4.26046 -0.018487 13.9345)
(0.79869 -0.0515535 16.9877)
(-10.9188 0.0110789 20.9868)
(8.77339 -0.0324429 17.1139)
(0.812617 -0.127785 16.4982)
(3.97979 -0.0885997 14.0462)
(1.68991 -0.00899129 11.7258)
(2.17287 0.0943545 10.2983)
(1.39651 0.125379 8.16817)
(1.14753 0.190705 7.38595)
(0.891019 -0.0915725 5.52686)
(0.232099 -0.071795 2.81224)
(0.318413 0.268377 1.35655)
(-1.17257 0.251887 3.1293)
(-0.0799279 0.106708 6.88465)
(-4.26038 -0.0251714 14.0843)
(0.798357 -0.0893408 16.876)
(-10.9977 0.027735 20.7759)
(8.7486 -0.0338675 17.1003)
(0.796724 -0.13496 16.5693)
(3.96178 -0.0841201 14.2466)
(1.69452 0.00356961 11.9312)
(2.1804 0.0978771 10.3567)
(1.3973 0.118371 8.20324)
(1.17682 0.186385 6.90756)
(0.853772 -0.0887758 5.25524)
(0.145489 -0.0961666 3.04858)
(0.165134 0.361232 1.69877)
(-1.406 0.406154 2.83986)
(-0.153369 0.0653528 6.69276)
(-4.27802 0.00511271 14.0667)
(0.758098 -0.0730367 16.7114)
(-11.1861 0.0170268 20.3394)
(8.73315 -0.0340231 17.0385)
(0.782827 -0.155682 16.6024)
(3.95793 -0.093119 14.4241)
(1.71706 0.00702006 12.1167)
(2.19711 0.104676 10.3985)
(1.40924 0.122013 8.1739)
(1.16532 0.189662 6.67841)
(0.790639 -0.00579587 5.2729)
(0.0765099 0.0811122 3.55383)
(-0.161644 0.402092 2.1074)
(-1.56651 0.327096 2.97535)
(-0.233786 -0.0856878 7.4627)
(-4.30041 0.0133172 14.0984)
(0.73812 -0.058459 16.9559)
(-11.1046 0.00357251 20.4731)
(8.73977 -0.0254495 16.9236)
(0.774654 -0.154315 16.6552)
(3.94825 -0.0884556 14.6357)
(1.73145 0.0109083 12.3176)
(2.20766 0.0969479 10.4395)
(1.42271 0.119576 8.11581)
(1.15521 0.232671 6.58194)
(0.793195 0.158388 5.13279)
(0.168983 0.21889 2.67133)
(-0.41794 0.373616 1.58786)
(-1.57039 0.0400049 3.76918)
(-0.239131 -0.0425902 9.28914)
(-4.31263 0.0091308 13.9816)
(0.738671 -0.0480421 17.061)
(-11.0614 0.00438761 20.5456)
(8.77906 -0.0116975 16.7336)
(0.774276 -0.134353 16.6799)
(3.93492 -0.0791408 14.8511)
(1.74212 0.0069244 12.534)
(2.21626 0.0741646 10.5066)
(1.45266 0.108655 8.11417)
(1.21897 0.222329 6.32847)
(0.960936 0.116556 3.87922)
(0.255875 0.0363116 2.03271)
(-0.040123 0.318401 0.901943)
(-1.35361 0.032715 3.55253)
(-0.21347 0.149294 8.60946)
(-4.33674 0.0111633 14.0203)
(0.732381 -0.0477103 17.1755)
(-11.0503 0.00368833 20.5493)
(8.86486 0.00331087 16.463)
(0.788571 -0.0736363 16.6311)
(3.9225 -0.0444594 15.01)
(1.74134 0.00309756 12.7445)
(2.21284 0.0381688 10.6108)
(1.44009 0.0659588 8.21993)
(1.27017 0.141476 5.84117)
(0.875003 -0.0369275 4.00901)
(0.211709 -0.0621621 2.49274)
(0.0491526 0.0926151 0.685123)
(-1.40131 0.137502 2.86031)
(-0.204581 0.209339 7.37413)
(-4.34065 0.00104483 14.1609)
(0.72188 -0.0357054 17.1556)
(-11.1107 0.0061402 20.3991)
(8.90834 0.0117069 16.3519)
(0.797648 0.0152388 16.5772)
(3.92442 0.0129907 15.024)
(1.74417 0.00599477 12.7994)
(2.21403 0.00580864 10.6445)
(1.43807 0.0157938 8.30998)
(1.30283 0.0559242 5.69152)
(0.964225 0.114327 3.48473)
(0.0873572 -0.00328158 2.23899)
(-0.15315 -0.26099 0.884752)
(-1.58262 0.0724774 2.08305)
(-0.181628 0.0192486 6.31958)
(-4.36799 -0.00153009 14.1468)
(0.703498 -0.00834993 16.9984)
(-11.2597 -0.00682259 20.086)
(8.84787 0.0205683 16.5365)
(0.780944 0.0970492 16.6375)
(3.92534 0.0656044 14.9806)
(1.74177 0.0081388 12.7105)
(2.21593 -0.028948 10.6077)
(1.45272 -0.0413068 8.24557)
(1.3065 -0.127473 5.76375)
(1.07775 -0.00644309 3.32474)
(0.141577 0.0235107 1.43183)
(-0.355359 -0.212988 1.27507)
(-1.23432 -0.00811329 3.16239)
(-0.179279 -0.26976 6.85849)
(-4.33345 0.0014607 14.2395)
(0.723958 0.0230646 17.1982)
(-11.0871 -0.0193843 20.445)
(8.77469 0.0335804 16.7989)
(0.76657 0.148562 16.6719)
(3.93778 0.0948816 14.8116)
(1.74015 0.00493699 12.495)
(2.21812 -0.0620469 10.5102)
(1.45385 -0.0920355 8.10951)
(1.23655 -0.244367 6.12367)
(0.877476 -0.131306 4.00291)
(0.0936952 -0.0297193 1.78304)
(-0.195428 -0.182055 1.55342)
(-1.01165 -0.0391069 4.81757)
(-0.207856 -0.175416 8.51431)
(-4.32332 -0.0147012 14.0703)
(0.729017 0.0325747 17.2151)
(-11.0118 -0.0161034 20.6193)
(8.74392 0.0425462 16.9827)
(0.766756 0.163573 16.6448)
(3.95117 0.101429 14.595)
(1.72894 0.00100426 12.2776)
(2.2122 -0.0841582 10.4279)
(1.43341 -0.109893 8.07931)
(1.16506 -0.230127 6.53403)
(0.76528 -0.104694 5.1042)
(0.127606 -0.133575 2.89605)
(-0.0980743 -0.300547 1.48655)
(-1.5287 -0.114315 3.54549)
(-0.213068 0.0385492 9.43684)
(-4.30097 -0.0178782 14.0688)
(0.730583 0.0310596 17.129)
(-11.0276 -0.0148231 20.5902)
(8.74504 0.046573 17.0891)
(0.775399 0.161253 16.5905)
(3.96193 0.103375 14.3805)
(1.71363 0.00402915 12.0733)
(2.20254 -0.0946476 10.3725)
(1.41206 -0.111519 8.12575)
(1.15627 -0.188029 6.69456)
(0.751237 0.0378972 5.31851)
(-0.0243303 -0.0981511 3.26827)
(-0.199965 -0.310671 2.17471)
(-1.50071 -0.256781 3.28884)
(-0.208083 0.105711 7.97793)
(-4.28114 -0.0140875 14.1889)
(0.722835 0.0491208 17.0428)
(-11.0687 -0.0123955 20.5106)
(8.76633 0.0422212 17.1434)
(0.789788 0.138414 16.5581)
(3.96671 0.0920902 14.2036)
(1.69092 0.00592557 11.8871)
(2.1881 -0.0887373 10.3219)
(1.39863 -0.10461 8.1832)
(1.19294 -0.162912 6.86606)
(0.823825 0.184679 5.3256)
(0.0681326 -0.0534815 2.59977)
(0.313705 -0.383875 1.64837)
(-1.29117 -0.404813 2.60084)
(-0.123843 0.0200712 6.74102)
(-4.26758 -0.00602013 14.1963)
(0.740687 0.0692003 16.8026)
(-11.1451 -0.0241656 20.3828)
(8.79514 0.0381838 17.1506)
(0.806175 0.129789 16.4878)
(3.98544 0.0948143 14.0037)
(1.68631 0.0171768 11.6788)
(2.18085 -0.0867531 10.2618)
(1.39789 -0.113952 8.15738)
(1.17885 -0.179324 7.33019)
(0.879363 0.192867 5.39243)
(0.307585 -0.259281 2.47135)
(0.807597 -0.556898 1.0769)
(-1.07957 -0.28032 2.34163)
(-0.0374903 -0.0223142 6.79599)
(-4.25303 0.0305659 14.2125)
(0.780782 0.0920611 16.9577)
(-10.9578 -0.0323914 20.8178)
(8.82635 0.0200111 17.1659)
(0.827408 0.0712725 16.4623)
(4.00784 0.0568923 13.7981)
(1.68478 0.0164859 11.3667)
(2.18465 -0.0480792 10.0678)
(1.39205 -0.0667521 8.1029)
(1.1842 -0.101885 7.67621)
(0.89965 0.0882855 5.9794)
(0.530495 -0.447806 2.22593)
(0.979846 -0.526987 0.749634)
(-1.00327 -0.0808818 2.95675)
(-0.0117105 -0.0126772 7.28538)
(-4.26286 0.0252576 14.0709)
(0.776699 0.0549046 17.067)
(-10.8791 -0.012958 21.0321)
(13.9361 -0.0262601 16.1873)
(2.67234 -0.0968263 17.1433)
(6.38171 -0.104554 14.5583)
(3.29599 -0.0508584 12.0681)
(3.36137 0.0744617 10.4607)
(2.39382 0.123386 8.62082)
(1.89112 0.19553 7.90565)
(1.60063 -0.0560537 6.52199)
(1.34894 0.338058 3.29037)
(2.01829 0.319632 1.85655)
(-0.805268 -0.0744337 4.0641)
(-0.451747 0.014874 8.62014)
(-6.53618 -0.0876519 15.0538)
(0.335507 -0.0738234 17.9381)
(-17.6682 0.0289057 21.2558)
(13.9043 -0.047367 16.1894)
(2.5987 -0.166753 17.1459)
(6.34956 -0.167806 14.7071)
(3.29437 -0.0642286 12.3451)
(3.37032 0.132168 10.6795)
(2.41064 0.202788 8.71567)
(1.8905 0.321366 7.67789)
(1.56909 -0.0667039 6.11)
(1.04353 0.307607 3.39033)
(1.86908 0.35294 1.98816)
(-0.632466 -0.0684477 3.5079)
(-0.471886 -0.0381011 8.26398)
(-6.52922 -0.152277 15.1482)
(0.278081 -0.126662 17.8295)
(-17.7488 0.0764377 21.0669)
(13.8804 -0.0460651 16.1895)
(2.54195 -0.171443 17.1893)
(6.3202 -0.163506 14.8669)
(3.2901 -0.0422051 12.5469)
(3.38368 0.138502 10.7703)
(2.41044 0.189464 8.77228)
(1.92894 0.300909 7.30894)
(1.52025 -0.0937154 5.73655)
(0.718691 0.263062 3.40149)
(1.45506 0.393726 2.38894)
(-0.767213 0.135618 3.3173)
(-0.504156 -0.0638452 7.99896)
(-6.52832 -0.0796627 15.1009)
(0.00168237 -0.109375 17.6995)
(-17.9403 0.0427609 20.6346)
(13.8607 -0.0408598 16.1446)
(2.49009 -0.197747 17.1918)
(6.3072 -0.191164 15.0029)
(3.32543 -0.0420664 12.7289)
(3.41767 0.148749 10.8433)
(2.43119 0.193552 8.76559)
(1.91579 0.292931 7.10157)
(1.40552 -0.0143723 5.58562)
(0.419924 0.293704 3.86507)
(0.687124 0.317018 3.10382)
(-1.3472 0.0525707 3.78263)
(-0.596936 -0.2188 8.61773)
(-6.5685 -0.0283971 15.1252)
(0.15467 -0.0868297 17.8776)
(-17.8517 0.00650122 20.7597)
(13.8627 -0.0195678 16.0435)
(2.46129 -0.191664 17.1967)
(6.28912 -0.190166 15.1709)
(3.34169 -0.0318431 12.9336)
(3.43731 0.138787 10.9195)
(2.45035 0.176405 8.72762)
(1.90173 0.335793 7.00103)
(1.40423 0.231801 5.47728)
(0.427717 0.313535 3.65923)
(0.542327 0.283789 2.61963)
(-1.4907 0.0306552 4.22863)
(-0.567637 -0.098316 9.94227)
(-6.57438 -0.0121136 14.9745)
(0.244276 -0.0682901 17.968)
(-17.8094 0.0245173 20.8418)
(13.8983 0.00829577 15.8704)
(2.47186 -0.165306 17.1607)
(6.2707 -0.179029 15.3331)
(3.35108 -0.0310929 13.1491)
(3.4516 0.105317 11.017)
(2.49611 0.151997 8.74098)
(1.97578 0.315278 6.84801)
(1.65703 0.2293 4.69753)
(0.940529 0.127934 3.09916)
(1.44957 0.220949 1.86864)
(-1.06684 0.23645 3.87716)
(-0.614376 0.22365 9.52886)
(-6.60323 0.00990713 15.0577)
(0.236249 -0.0680643 18.0662)
(-17.7951 0.0262151 20.8444)
(13.9817 0.0238134 15.6117)
(2.55568 -0.0876891 17.057)
(6.26107 -0.105605 15.4374)
(3.3396 -0.0179037 13.3475)
(3.44751 0.053286 11.1366)
(2.4733 0.0898211 8.85497)
(2.04693 0.202957 6.48113)
(1.5818 0.00836979 4.56685)
(0.983005 0.0784441 3.27218)
(1.74491 0.28698 1.97868)
(-1.00766 0.392651 3.51268)
(-0.704405 0.324544 8.72803)
(-6.59574 -0.00960515 15.2255)
(0.11013 -0.0536 18.0483)
(-17.8547 0.042627 20.6875)
(14.023 0.0153005 15.5)
(2.60778 0.0213938 16.9925)
(6.26707 0.0260969 15.4351)
(3.34207 0.0120098 13.3933)
(3.44921 0.00852198 11.1713)
(2.47288 0.0143345 8.93937)
(2.08921 0.0822187 6.41121)
(1.72996 0.0894884 4.12832)
(0.959841 -0.0823053 2.93993)
(1.58153 -0.0971871 2.0851)
(-1.04397 0.236226 2.90496)
(-0.799765 0.109141 8.03717)
(-6.61239 0.0155956 15.2588)
(-0.187615 -0.0152784 17.9404)
(-17.9964 -0.00990975 20.357)
(13.9684 0.0150596 15.6786)
(2.53487 0.122411 17.0819)
(6.26415 0.14501 15.4175)
(3.34061 0.0392651 13.3129)
(3.45015 -0.039405 11.126)
(2.49071 -0.0633364 8.87612)
(2.08013 -0.164097 6.46252)
(1.89834 -0.13543 4.20749)
(1.2723 -0.239343 2.51653)
(1.1421 -0.0895628 1.83298)
(-1.188 0.0241291 3.75658)
(-0.737154 -0.282514 8.43114)
(-6.59932 0.0398062 15.3255)
(0.123836 0.0295153 18.0819)
(-17.8284 -0.0607321 20.7303)
(13.9032 0.035121 15.9342)
(2.46248 0.189443 17.173)
(6.27538 0.20525 15.3018)
(3.347 0.051902 13.1074)
(3.45152 -0.0851145 11.0105)
(2.49952 -0.127759 8.74085)
(2.00007 -0.331454 6.69184)
(1.63621 -0.241696 4.73608)
(0.90228 -0.0524138 2.74237)
(0.670544 -0.0580114 2.04451)
(-1.22313 -0.0349555 5.3762)
(-0.688518 -0.291212 9.57035)
(-6.61035 -0.00429523 15.1241)
(0.246896 0.0381133 18.1007)
(-17.7485 -0.0402096 20.9066)
(13.8787 0.0535565 16.1083)
(2.45407 0.209588 17.2021)
(6.2942 0.210851 15.1371)
(3.33577 0.0521309 12.8914)
(3.43923 -0.116467 10.903)
(2.46841 -0.159981 8.6966)
(1.92442 -0.323886 6.95862)
(1.3865 -0.190345 5.45905)
(0.512013 0.0153786 3.68427)
(1.0466 0.0290018 2.38079)
(-1.28975 0.053665 4.13229)
(-0.604038 0.0105505 10.1338)
(-6.56915 -0.00114434 15.0764)
(0.226689 0.0343024 18.024)
(-17.7621 -0.0343825 20.8733)
(13.8837 0.0646694 16.2022)
(2.48424 0.210218 17.1914)
(6.3138 0.206032 14.9664)
(3.31843 0.0608728 12.6839)
(3.41977 -0.129818 10.8149)
(2.43986 -0.177287 8.7203)
(1.90942 -0.276691 7.10093)
(1.38463 0.0233381 5.60431)
(0.336192 -0.101464 3.95933)
(0.884542 -0.0196177 3.09422)
(-1.09576 0.186127 3.8383)
(-0.614264 0.226686 9.04508)
(-6.55711 0.0318227 15.2183)
(0.123248 0.0653953 17.9469)
(-17.7985 -0.014251 20.7788)
(13.9097 0.061414 16.2384)
(2.54012 0.17987 17.1884)
(6.32838 0.174543 14.8317)
(3.28329 0.0582494 12.5026)
(3.38744 -0.120896 10.7352)
(2.41823 -0.172124 8.75037)
(1.95165 -0.257438 7.274)
(1.51995 0.187001 5.76405)
(0.816715 -0.309234 3.346)
(1.62784 -0.175959 2.57915)
(-0.396695 0.23832 3.22336)
(-0.561056 0.176596 8.1345)
(-6.53136 0.0895608 15.2432)
(-0.0416861 0.0960204 17.7731)
(-17.8795 -0.0481595 20.6543)
(13.9377 0.0576254 16.2308)
(2.59986 0.172669 17.145)
(6.35868 0.176268 14.6731)
(3.28814 0.0782946 12.299)
(3.37299 -0.117255 10.6426)
(2.41877 -0.19189 8.69979)
(1.91721 -0.2975 7.64102)
(1.60443 0.0869154 6.00352)
(1.17127 -0.551561 2.97784)
(2.11953 -0.284885 1.81447)
(-0.268192 0.395275 2.96006)
(-0.531529 0.20758 8.2795)
(-6.53219 0.165951 15.2982)
(0.217434 0.124579 17.9011)
(-17.6868 -0.0781093 21.081)
(13.973 0.0309603 16.2224)
(2.67636 0.0996885 17.1452)
(6.39116 0.109078 14.5297)
(3.28943 0.0591077 12.0255)
(3.36182 -0.0653306 10.4266)
(2.40111 -0.117334 8.60398)
(1.90143 -0.18554 7.87695)
(1.59924 0.0466732 6.47346)
(1.3613 -0.575374 2.51252)
(1.95321 -0.291411 1.40558)
(-0.83766 0.342389 3.82815)
(-0.545872 0.129916 8.76832)
(-6.56404 0.0995986 15.2108)
(0.252703 0.0765844 18.0143)
(-17.6047 -0.0288042 21.2669)
(17.3456 -0.028599 13.2221)
(6.2595 -0.0933643 17.9764)
(9.25132 -0.140114 15.9957)
(6.03639 -0.118436 13.5425)
(4.61635 0.0507749 11.1823)
(3.31696 0.17347 9.28096)
(2.33418 0.302586 8.21719)
(1.91597 0.140109 6.51856)
(2.24164 0.511107 2.70178)
(2.09126 -0.290451 2.60542)
(-1.33727 -0.41085 6.41755)
(-2.95678 -0.0791269 11.5093)
(-9.11091 -0.133592 17.1882)
(-3.40753 -0.00962864 19.9333)
(-22.751 0.0573934 19.4425)
(17.3406 -0.0492659 13.2611)
(6.14419 -0.151254 17.9849)
(9.18194 -0.221923 16.0656)
(5.99725 -0.165025 13.7387)
(4.63114 0.103542 11.4011)
(3.35556 0.280841 9.42497)
(2.38583 0.468116 8.10421)
(1.99851 0.330947 6.39743)
(2.14989 0.824343 2.89615)
(2.60117 -0.248566 2.27608)
(-1.11007 -0.648723 5.78753)
(-2.99848 -0.301229 11.3977)
(-9.10903 -0.265319 17.2173)
(-3.54551 0.00340734 19.8218)
(-22.7885 0.150229 19.2655)
(17.3406 -0.0438524 13.283)
(6.0559 -0.143258 18.015)
(9.12132 -0.22028 16.1598)
(5.95464 -0.139362 13.9034)
(4.64048 0.116774 11.5263)
(3.37028 0.264196 9.53471)
(2.47443 0.430651 7.88828)
(2.01496 0.291887 6.26543)
(1.92539 0.796567 3.42885)
(2.97792 -0.13791 2.65574)
(-0.542027 -0.599351 5.17913)
(-3.05454 -0.407056 11.2074)
(-9.1891 -0.157697 17.1614)
(-4.09324 -0.00846184 19.6265)
(-22.8224 0.0654106 18.7964)
(17.3338 -0.0281505 13.2722)
(5.95819 -0.154333 17.9998)
(9.06945 -0.263738 16.2277)
(5.96912 -0.156749 14.0546)
(4.69416 0.12321 11.6346)
(3.41141 0.263586 9.57648)
(2.48865 0.391216 7.73008)
(1.9015 0.170236 6.03297)
(1.38044 0.415541 4.35114)
(2.66618 -0.11619 3.65487)
(-0.357667 -0.449393 5.11234)
(-2.89316 -0.453969 11.3477)
(-9.10318 -0.0616288 17.1216)
(-3.62549 -0.0156561 19.7504)
(-22.8238 -0.0117791 18.9858)
(17.3396 0.0093535 13.2092)
(5.89817 -0.133461 17.9594)
(9.02539 -0.268621 16.3137)
(5.96035 -0.145691 14.2318)
(4.71677 0.113402 11.7541)
(3.43732 0.223006 9.582)
(2.48973 0.388345 7.64713)
(1.86199 0.233397 5.91522)
(1.1567 0.0413006 4.2137)
(2.65342 0.0745941 3.12115)
(-0.401303 0.00239229 5.13319)
(-2.64569 -0.102503 11.9316)
(-9.04776 -0.0275802 16.9452)
(-3.3835 -0.00931698 19.8581)
(-22.8502 0.0437523 19.1065)
(17.3593 0.0428246 13.078)
(5.91093 -0.0995525 17.859)
(9.00521 -0.25743 16.3807)
(5.94959 -0.138667 14.4133)
(4.72345 0.0778227 11.8806)
(3.48106 0.17712 9.61404)
(2.52603 0.343624 7.55821)
(2.17711 0.213043 5.31124)
(1.87741 -0.169283 2.97596)
(2.83838 0.0169845 2.23896)
(-0.779695 0.392303 5.54315)
(-2.84754 0.363417 11.8482)
(-9.08299 0.00800832 17.043)
(-3.38633 -0.0354054 19.942)
(-22.8552 0.0556029 19.1113)
(17.3798 0.044877 12.8493)
(6.04308 -0.0364632 17.6747)
(9.03286 -0.151312 16.3942)
(5.93209 -0.0810515 14.5684)
(4.70283 0.0346459 12.0123)
(3.44038 0.105098 9.73472)
(2.60299 0.199265 7.30935)
(2.05775 0.184965 5.12642)
(2.28411 0.0573199 3.17654)
(2.6073 0.0643705 2.78274)
(-1.33197 0.51463 5.96468)
(-3.17179 0.425409 11.6455)
(-9.12024 -0.0361563 17.2126)
(-3.69928 -0.0222462 19.9118)
(-22.847 0.0965946 18.9186)
(17.3806 0.0113966 12.7401)
(6.12001 0.0222885 17.5816)
(9.06223 0.0381787 16.3677)
(5.9425 0.0239245 14.5986)
(4.70253 0.0118699 12.0421)
(3.42934 0.00770612 9.8128)
(2.66695 0.0682268 7.30075)
(2.1446 -0.0773242 4.78613)
(2.36719 -0.136766 3.22684)
(2.16166 0.0499243 3.01968)
(-1.73038 0.295526 5.94989)
(-3.55781 0.143953 11.5324)
(-9.25099 0.0306663 17.2783)
(-4.30661 -0.0210725 19.7502)
(-22.8301 -0.00865428 18.5146)
(17.3717 -0.00188288 12.8964)
(6.00949 0.0777942 17.72)
(9.02965 0.206815 16.3945)
(5.93565 0.119028 14.5411)
(4.7049 -0.0140928 11.9893)
(3.44526 -0.0855917 9.74101)
(2.61642 -0.167316 7.30839)
(2.3308 -0.418998 4.63493)
(2.43996 -0.142229 2.5716)
(1.67605 0.24977 2.92473)
(-1.66109 -0.175839 6.27773)
(-3.29719 -0.301133 11.538)
(-9.1183 0.0827019 17.3012)
(-3.67386 -0.0115543 19.9281)
(-22.8287 -0.115636 18.9583)
(17.3651 0.023232 13.1214)
(5.90914 0.133037 17.8943)
(9.01491 0.291033 16.372)
(5.95073 0.169581 14.3779)
(4.71777 -0.0470327 11.8557)
(3.47268 -0.148532 9.60431)
(2.52159 -0.324972 7.40391)
(2.22781 -0.232256 5.09855)
(1.80497 0.219761 2.48305)
(1.71142 0.151062 2.80097)
(-1.37287 -0.12477 6.83483)
(-2.94696 -0.379775 11.872)
(-9.09638 0.00207984 17.0888)
(-3.33227 -6.72638e-05 19.9547)
(-22.8247 -0.0677255 19.173)
(17.3645 0.0501658 13.2636)
(5.91544 0.161176 17.9896)
(9.04365 0.295323 16.3021)
(5.96101 0.174682 14.1967)
(4.71004 -0.0788786 11.726)
(3.44759 -0.192429 9.54653)
(2.48992 -0.351158 7.58858)
(1.88212 -0.123462 5.84542)
(1.27243 0.302637 3.73169)
(2.80991 0.196409 2.58627)
(-0.57078 0.236137 5.40962)
(-2.74365 0.00473979 12.1358)
(-9.06791 0.0128968 17.0151)
(-3.37868 -0.0306008 19.8702)
(-22.8065 -0.0522821 19.1277)
(17.3665 0.0678426 13.3272)
(5.97677 0.179473 18.0205)
(9.09164 0.284257 16.2122)
(5.97145 0.183074 14.0184)
(4.68873 -0.0911087 11.5991)
(3.41366 -0.231453 9.53088)
(2.47275 -0.343491 7.69226)
(1.88333 -0.082438 6.0042)
(1.33979 -0.0326329 4.58004)
(2.99043 0.361893 3.50168)
(-0.295318 0.63748 5.12628)
(-2.90772 0.4332 11.6376)
(-9.11643 0.0615856 17.1655)
(-3.61575 -0.0118469 19.7597)
(-22.7743 0.000622282 18.9923)
(17.3742 0.0669558 13.3286)
(6.07529 0.163413 18.0294)
(9.14635 0.235779 16.1455)
(5.96012 0.161539 13.871)
(4.63713 -0.0866773 11.4891)
(3.3747 -0.234715 9.51232)
(2.48501 -0.352874 7.84953)
(2.0338 -0.166829 6.26952)
(2.03405 -0.662897 3.70598)
(3.24157 0.343775 2.76458)
(-0.373469 0.959855 5.10272)
(-3.15265 0.499892 11.376)
(-9.21552 0.17275 17.2486)
(-4.09634 -0.00918872 19.6319)
(-22.7626 -0.0728824 18.795)
(17.3753 0.0643265 13.2974)
(6.16552 0.167615 17.9959)
(9.20843 0.234004 16.0527)
(6.00542 0.184758 13.7074)
(4.62741 -0.0763545 11.3641)
(3.36281 -0.257919 9.4086)
(2.39186 -0.414617 8.07679)
(2.08301 -0.323061 6.3666)
(2.21841 -0.767259 2.68605)
(2.65219 0.565185 2.12825)
(-1.04823 0.990118 5.57183)
(-3.16089 0.438928 11.5127)
(-9.13881 0.275908 17.3201)
(-3.58027 -0.00872793 19.8216)
(-22.7187 -0.153891 19.2478)
(17.3822 0.0352941 13.25)
(6.28445 0.101876 17.9878)
(9.27863 0.147007 15.9887)
(6.04599 0.130647 13.518)
(4.61003 -0.0332613 11.1508)
(3.32528 -0.157194 9.27259)
(2.3249 -0.27257 8.21283)
(1.96541 -0.127303 6.57827)
(2.05701 -0.605922 2.16573)
(1.83663 0.413321 2.25027)
(-1.56398 0.612962 6.29154)
(-3.13548 0.202256 11.666)
(-9.16742 0.139382 17.2929)
(-3.46868 0.0116359 19.9315)
(-22.6727 -0.0578531 19.4113)
(19.1661 -0.019686 9.46843)
(9.43549 -0.0769201 17.4254)
(12.2252 -0.137062 17.5831)
(10.1151 -0.173661 16.1492)
(7.10539 -0.0392772 13.2085)
(4.69603 0.173 10.6002)
(2.60217 0.396288 8.95013)
(1.32801 0.514175 6.02346)
(0.74107 0.0450423 2.54661)
(-1.21594 -0.885572 5.22036)
(-4.08772 -0.39046 10.0761)
(-7.34677 -0.116039 15.4099)
(-12.4653 -0.154226 20.1786)
(-8.28338 0.0761 20.6748)
(-25.4193 0.076295 15.7773)
(19.187 -0.0322773 9.51793)
(9.34246 -0.115141 17.4673)
(12.1347 -0.211908 17.6194)
(10.0193 -0.250475 16.2496)
(7.07198 -0.0218096 13.3615)
(4.71577 0.301216 10.7432)
(2.69613 0.642977 8.86291)
(1.49704 0.959566 5.94522)
(1.22176 0.303713 2.51106)
(-0.87095 -1.14516 4.81094)
(-4.28615 -0.717678 9.95339)
(-7.40573 -0.334354 15.4708)
(-12.47 -0.263754 20.1293)
(-8.35575 0.194005 20.6506)
(-25.4263 0.183301 15.7084)
(19.2047 -0.0234363 9.5476)
(9.27072 -0.0913679 17.5028)
(12.0589 -0.204091 17.6718)
(9.93009 -0.226866 16.3505)
(7.03428 0.00160897 13.4731)
(4.74485 0.289449 10.8941)
(2.92541 0.618805 8.84392)
(1.82424 1.02191 6.4743)
(2.29895 0.720653 3.4463)
(0.70645 -0.846692 4.21053)
(-3.86137 -0.876506 9.53485)
(-7.54944 -0.473261 15.4548)
(-12.6322 -0.185962 20.0037)
(-8.74643 0.123565 20.4144)
(-25.322 0.109964 15.3885)
(19.2215 -0.000316368 9.57099)
(9.17067 -0.0759122 17.5034)
(11.9716 -0.237412 17.6919)
(9.88522 -0.262049 16.4384)
(7.06947 -0.0114683 13.579)
(4.81476 0.268228 10.9908)
(3.00308 0.526479 8.77302)
(1.97538 0.538514 6.72997)
(2.33782 0.398185 4.77167)
(2.49744 -0.341747 4.04402)
(-2.78511 -0.737908 8.79791)
(-7.08024 -0.51723 15.3026)
(-12.3109 -0.0943894 19.9926)
(-8.18351 0.0768833 20.6787)
(-25.4908 0.029075 15.5931)
(19.2462 0.0346373 9.55809)
(9.11163 -0.0311642 17.4573)
(11.9074 -0.23103 17.7025)
(9.83259 -0.253412 16.5415)
(7.05759 -0.0228242 13.7017)
(4.83969 0.206925 11.0452)
(3.00854 0.408236 8.71406)
(1.93623 0.13127 6.55719)
(1.93614 -0.152991 4.27556)
(3.30087 0.14893 3.35866)
(-2.20095 -0.0903799 8.43525)
(-6.6693 -0.173382 15.3566)
(-12.1658 -0.0544067 19.9026)
(-7.9344 0.0979991 20.8982)
(-25.6107 0.06176 15.696)
(19.2559 0.0534841 9.49737)
(9.11331 0.0163652 17.3368)
(11.8899 -0.208417 17.6689)
(9.80114 -0.238246 16.6351)
(7.032 -0.0499027 13.818)
(4.83099 0.141425 11.0942)
(2.95478 0.323614 8.60791)
(2.00732 -0.0890622 5.36091)
(1.30528 -0.64978 2.55869)
(1.44276 0.060595 4.1212)
(-2.9978 0.523926 9.16038)
(-6.87089 0.29533 15.3478)
(-12.1607 -0.0297334 19.9636)
(-7.92403 0.0750087 20.9789)
(-25.6524 0.0671755 15.6762)
(19.224 0.0419071 9.37102)
(9.19359 0.0501847 17.1153)
(11.9469 -0.106915 17.5666)
(9.81215 -0.134487 16.6933)
(6.99646 -0.0396792 13.9301)
(4.75604 0.0841242 11.2056)
(2.96778 0.205315 8.46835)
(1.92002 0.346353 5.27104)
(1.61677 -0.412338 2.9756)
(-0.559055 -0.398824 5.32774)
(-4.02667 0.392278 10.0059)
(-7.32647 0.292539 15.5149)
(-12.2874 -0.0541681 20.035)
(-8.26281 0.0865341 20.8769)
(-25.5499 0.0940886 15.4727)
(19.196 0.00735558 9.30967)
(9.22535 0.021357 17.0082)
(11.9843 0.0414882 17.5013)
(9.84445 0.0385595 16.6923)
(7.01068 0.0201542 13.9512)
(4.73225 0.00703764 11.2706)
(3.06768 0.00178277 8.51927)
(2.12309 -0.151005 5.5163)
(2.27842 -0.0309538 3.42223)
(-1.34755 0.0949384 5.41824)
(-4.75689 0.154315 10.3899)
(-7.8138 0.0873262 15.661)
(-12.5101 0.0128347 19.9791)
(-8.76136 -0.0404838 20.5719)
(-25.3878 -0.00476314 15.1214)