/*--------------------------------*- C++ -*----------------------------------*\
| =========                 |                                                 |
| \\      /  F ield         | OpenFOAM: The Open Source CFD Toolbox           |
|  \\    /   O peration     | Version:  4.1                                   |
|   \\  /    A nd           | Web:      www.OpenFOAM.org                      |
|    \\/     M anipulation  |                                                 |
\*---------------------------------------------------------------------------*/
FoamFile
{
    version     2.0;
    format      ascii;
    class       volScalarField;
    location    "15.5";
    object      epsilon;
}
// * * * * * * * * * * * * * * * * * * * * * * * * * * * * * * * * * * * * * //

dimensions      [0 2 -3 0 0 0 0];

internalField   nonuniform List<scalar> 
204246
(
2.89197
3.09281
3.10269
3.11542
3.12563
3.13637
3.14467
3.15504
3.1629
3.17332
3.18141
3.19192
3.19931
3.21259
3.22145
3.23451
3.24402
3.24627
3.27244
3.27515
3.29214
3.30165
3.31392
3.32598
3.33816
3.35003
3.36246
3.37343
3.38886
3.40101
3.41617
3.42899
3.44455
3.45818
3.47234
3.48741
3.49122
3.5221
3.52656
3.54686
3.55951
3.57441
3.58909
3.6037
3.61748
3.63524
3.65036
3.66777
3.68377
3.69968
3.71707
3.73289
3.74993
3.75512
3.79031
3.79598
3.82016
3.83461
3.85321
3.87064
3.88765
3.90497
3.92551
3.94438
3.96468
3.98467
4.00348
4.02537
4.04419
4.06591
4.07339
4.11218
4.12205
4.15185
4.16758
4.19322
4.2132
4.23618
4.25706
4.28255
4.30689
4.33157
4.35735
4.38056
4.40887
4.43216
4.46056
4.47158
4.51927
4.53231
4.57094
4.58988
4.62489
4.64529
4.68295
4.71039
4.74144
4.77382
4.80491
4.83818
4.86775
4.90522
4.93492
4.97269
5.00338
5.04066
5.06194
5.12215
5.13954
5.19351
5.21328
5.27023
5.29721
5.34629
5.38494
5.42748
5.46847
5.51168
5.5557
5.59902
5.6472
5.69013
5.74104
5.76842
5.84879
5.87028
5.94497
5.9722
6.04487
6.07806
6.14866
6.18562
6.25594
6.29615
6.36705
6.4102
6.48113
6.52722
6.59927
6.64812
6.7017
6.78785
6.82816
6.91262
6.95537
7.04061
7.08423
7.17142
7.21559
7.30479
7.34911
7.44031
7.48432
7.57779
7.62154
7.71762
7.7611
7.83554
7.92281
7.97565
8.0638
8.11488
8.20582
8.25459
8.34851
8.39448
8.49259
8.53485
8.63761
8.6769
8.7862
8.82168
8.93946
8.97221
9.10301
9.13004
9.24932
9.34015
9.42227
9.53989
9.61749
9.76389
9.84593
10.0251
10.1231
10.3404
10.4686
10.7298
10.9027
11.1838
11.364
11.5178
11.5377
0.430769
0.68549
0.69497
0.695583
0.704707
0.699946
0.708216
0.704835
0.713134
0.709596
0.718343
0.715009
0.723731
0.718797
0.728173
0.722339
0.733251
0.728799
0.728428
0.739023
0.73405
0.744436
0.738938
0.749238
0.746195
0.757034
0.754161
0.764911
0.760226
0.771748
0.766205
0.777788
0.772165
0.784224
0.778875
0.792227
0.790741
0.790453
0.803391
0.79842
0.810855
0.807995
0.820844
0.818043
0.830766
0.826067
0.839753
0.834346
0.848256
0.842911
0.856576
0.853764
0.869417
0.868194
0.869271
0.884173
0.879432
0.894374
0.891935
0.907428
0.905096
0.92058
0.916285
0.932889
0.927892
0.944864
0.939982
0.956809
0.954625
0.97377
0.973349
0.978152
0.994737
0.993474
1.01249
1.01095
1.03051
1.02887
1.04946
1.04656
1.0679
1.06369
1.0857
1.08171
1.10383
1.10281
1.12824
1.1297
1.13925
1.16013
1.16055
1.18566
1.18549
1.21228
1.21082
1.23879
1.23609
1.26437
1.26122
1.29145
1.28945
1.3202
1.32179
1.35317
1.35494
1.38942
1.39116
1.41674
1.44245
1.44646
1.4823
1.48377
1.5222
1.5221
1.56246
1.5626
1.60578
1.60916
1.6534
1.65784
1.70254
1.70642
1.75738
1.76528
1.79865
1.83796
1.84494
1.89848
1.90675
1.96106
1.96891
2.02755
2.03723
2.09824
2.10901
2.17315
2.18491
2.25224
2.26539
2.33919
2.3563
2.40668
2.46701
2.48285
2.56105
2.57864
2.65985
2.67827
2.76297
2.78258
2.87109
2.89215
2.98225
3.00337
3.09739
3.11995
3.22262
3.24985
3.31696
3.40083
3.42492
3.52522
3.54886
3.64976
3.67334
3.773
3.79576
3.89352
3.91468
4.00943
4.02934
4.12081
4.13908
4.22966
4.25243
4.33782
4.35868
4.39457
4.46092
4.46471
4.5294
4.52614
4.57549
4.56549
4.60035
4.58474
4.62061
4.60889
4.74686
4.87192
5.34669
5.62744
5.7706
0.596205
0.607924
0.613887
0.616892
0.621091
0.623207
0.626873
0.628929
0.632537
0.63475
0.638299
0.640689
0.644143
0.646609
0.650048
0.652967
0.656427
0.659646
0.662382
0.666003
0.668739
0.672341
0.675448
0.679183
0.682597
0.686425
0.690044
0.693923
0.697626
0.7015
0.705511
0.709586
0.71396
0.718197
0.722959
0.727444
0.732431
0.736299
0.741703
0.745751
0.751128
0.755727
0.761038
0.766064
0.771335
0.776652
0.781845
0.787576
0.792758
0.798857
0.804331
0.810914
0.816656
0.823393
0.8285
0.835578
0.840959
0.847912
0.853942
0.86079
0.867345
0.874125
0.88108
0.887704
0.89522
0.90179
0.90979
0.916734
0.92529
0.93262
0.941378
0.948076
0.957134
0.964145
0.973103
0.980824
0.989769
0.998228
1.00719
1.01607
1.02483
1.03434
1.04314
1.05329
1.06253
1.07339
1.08314
1.09426
1.10327
1.11475
1.12408
1.13567
1.14591
1.15757
1.16831
1.17981
1.19114
1.20279
1.21479
1.22698
1.23951
1.25177
1.26475
1.27775
1.29141
1.30509
1.31873
1.33169
1.34614
1.35877
1.37403
1.3866
1.40258
1.41516
1.43187
1.44439
1.46205
1.47471
1.49302
1.50555
1.52466
1.53732
1.55806
1.57006
1.58828
1.60382
1.61866
1.63743
1.65021
1.67062
1.68179
1.70414
1.71366
1.73671
1.74571
1.7687
1.77722
1.80016
1.80834
1.83145
1.83913
1.85583
1.86989
1.8777
1.89525
1.89938
1.91608
1.91857
1.93291
1.93355
1.9455
1.9444
1.95151
1.94751
1.9517
1.94451
1.94795
1.93385
1.92685
1.92242
1.90019
1.89817
1.8675
1.86303
1.82664
1.82009
1.77905
1.77133
1.72697
1.71844
1.67114
1.66221
1.61239
1.60306
1.55436
1.54563
1.49346
1.47026
1.45166
1.41101
1.40551
1.36114
1.35694
1.31565
1.31349
1.27912
1.2808
1.2629
1.27295
1.262
1.27002
1.15816
1.11648
0.752985
0.735258
0.746341
0.752086
0.755739
0.761591
0.763343
0.768465
0.769951
0.774838
0.776256
0.781058
0.78244
0.787505
0.788674
0.79405
0.795313
0.801137
0.803841
0.806366
0.811082
0.812354
0.817865
0.819435
0.824841
0.826608
0.832113
0.833953
0.839775
0.841439
0.84768
0.849518
0.856093
0.858104
0.864903
0.867191
0.874216
0.877813
0.881965
0.888011
0.89067
0.897519
0.900183
0.907285
0.910062
0.917502
0.920135
0.927845
0.930572
0.938596
0.941663
0.949603
0.952836
0.961094
0.965533
0.971072
0.977729
0.981831
0.989567
0.992985
1.00117
1.00468
1.01313
1.01654
1.02519
1.02869
1.03756
1.04134
1.05017
1.05411
1.06299
1.06801
1.07467
1.08097
1.0866
1.09389
1.09892
1.10691
1.11157
1.12014
1.12429
1.13311
1.13721
1.1462
1.15049
1.15945
1.16394
1.17264
1.17792
1.18491
1.19106
1.19737
1.20409
1.20996
1.21707
1.22247
1.22977
1.23489
1.24231
1.24741
1.25466
1.2597
1.26669
1.27206
1.27869
1.28434
1.29021
1.29557
1.30118
1.30591
1.3117
1.31543
1.32165
1.32412
1.33047
1.33212
1.33798
1.33952
1.34452
1.34547
1.34982
1.35003
1.35391
1.35342
1.35345
1.3545
1.35233
1.35341
1.34921
1.34978
1.34341
1.34341
1.33455
1.33371
1.32242
1.32065
1.30663
1.30369
1.28731
1.28346
1.26261
1.25275
1.23831
1.21923
1.20901
1.18271
1.17394
1.14313
1.13305
1.09942
1.08815
1.05175
1.03927
1.00036
0.986821
0.946377
0.932433
0.88847
0.867606
0.836484
0.80497
0.783328
0.74406
0.729395
0.688015
0.673879
0.634428
0.62127
0.585498
0.573592
0.541473
0.531101
0.502751
0.493943
0.469172
0.461819
0.440226
0.430709
0.417543
0.405915
0.398255
0.384511
0.380745
0.367065
0.364007
0.355283
0.355139
0.355023
0.368782
0.380912
0.403649
0.411242
0.416908
0.922759
0.887344
0.89365
0.898443
0.901696
0.906603
0.908014
0.911819
0.912745
0.915943
0.916636
0.919576
0.920179
0.923228
0.923643
0.926891
0.927398
0.930861
0.932396
0.933745
0.936469
0.937037
0.94031
0.94113
0.94435
0.945361
0.948695
0.949808
0.953377
0.954423
0.958264
0.959476
0.963552
0.96494
0.969184
0.970782
0.975035
0.977209
0.980131
0.98339
0.985613
0.989423
0.991381
0.995485
0.997351
1.00164
1.00346
1.00784
1.00972
1.01419
1.01622
1.02065
1.02275
1.02707
1.0296
1.03288
1.03603
1.03877
1.0422
1.04462
1.0482
1.05041
1.05412
1.05607
1.05973
1.06165
1.06523
1.06717
1.07067
1.07259
1.07589
1.07783
1.08045
1.08256
1.08475
1.08689
1.08881
1.09085
1.09263
1.09437
1.09612
1.09736
1.09911
1.09981
1.10162
1.10199
1.1036
1.10365
1.10377
1.10453
1.10398
1.10448
1.10342
1.10378
1.10166
1.10208
1.09908
1.09933
1.09544
1.09551
1.09043
1.08985
1.08435
1.08332
1.07701
1.07565
1.06703
1.06331
1.05826
1.05049
1.04721
1.03645
1.03385
1.02109
1.01792
1.00362
0.99937
0.984447
0.979376
0.963114
0.957422
0.939752
0.933665
0.913439
0.903722
0.888929
0.873022
0.861651
0.840664
0.832042
0.807935
0.799298
0.773877
0.764796
0.738506
0.729125
0.702093
0.692387
0.665066
0.65523
0.626724
0.613197
0.592335
0.57318
0.557672
0.534119
0.523498
0.497999
0.488776
0.463837
0.455074
0.431489
0.423283
0.401274
0.393747
0.373671
0.366969
0.348208
0.339707
0.327744
0.31716
0.309924
0.29822
0.294252
0.283582
0.280481
0.271902
0.269608
0.26287
0.261249
0.256262
0.255327
0.251973
0.251708
0.249834
0.250175
0.249518
0.249815
0.251698
0.251995
0.255006
0.255731
0.258743
0.259433
0.261792
0.262222
0.265512
0.266843
0.27402
0.27883
0.287782
0.291392
0.293976
1.04937
1.02075
1.02236
1.02489
1.02595
1.02803
1.02801
1.02874
1.02798
1.02813
1.0264
1.02615
1.02391
1.02352
1.02104
1.02061
1.01812
1.01764
1.01569
1.01407
1.01311
1.01104
1.01047
1.00853
1.00793
1.00632
1.0058
1.00444
1.00403
1.00282
1.0025
1.00153
1.0013
1.00061
1.00044
0.999887
0.999686
0.999286
0.998892
0.998625
0.998215
0.997936
0.997588
0.997302
0.997046
0.996739
0.996487
0.996073
0.995812
0.995285
0.995105
0.994429
0.994345
0.993319
0.992731
0.992284
0.99087
0.990655
0.988899
0.988582
0.986514
0.986109
0.983569
0.98328
0.980252
0.979858
0.976364
0.975683
0.9721
0.971238
0.966669
0.964227
0.96181
0.957367
0.955813
0.950227
0.948533
0.942338
0.940431
0.933392
0.931675
0.923774
0.9218
0.913154
0.91062
0.901837
0.898928
0.888797
0.88353
0.876736
0.868368
0.863023
0.852343
0.84793
0.835415
0.831486
0.817715
0.81342
0.79886
0.79424
0.778784
0.773418
0.757752
0.751876
0.735602
0.729431
0.711356
0.702964
0.689092
0.676632
0.665399
0.649123
0.641217
0.622056
0.615317
0.595029
0.587683
0.56788
0.560237
0.54048
0.532846
0.51325
0.505705
0.485321
0.475797
0.460831
0.447629
0.436735
0.420456
0.413133
0.39562
0.389248
0.372198
0.366156
0.350046
0.344412
0.329274
0.323999
0.309993
0.30515
0.291714
0.285547
0.276683
0.268739
0.262891
0.253687
0.250228
0.241056
0.238008
0.229794
0.227116
0.219872
0.21755
0.211246
0.209273
0.203846
0.202191
0.197394
0.195293
0.192668
0.190142
0.188811
0.186296
0.185608
0.183661
0.183269
0.182008
0.181921
0.181427
0.181669
0.181638
0.182748
0.183024
0.18489
0.185561
0.188156
0.189237
0.192381
0.194383
0.197893
0.200819
0.204712
0.208572
0.212925
0.217756
0.222585
0.228322
0.233495
0.239911
0.245054
0.250264
0.252573
0.253879
1.15719
1.13075
1.12914
1.12814
1.127
1.12636
1.12328
1.12178
1.11698
1.11443
1.1082
1.10474
1.0975
1.09345
1.08541
1.08104
1.07248
1.06784
1.05974
1.05373
1.04676
1.03988
1.03372
1.02654
1.02089
1.01389
1.00863
1.00199
0.99702
0.990761
0.985924
0.980174
0.975353
0.970201
0.965226
0.960551
0.955368
0.950344
0.946253
0.940447
0.936846
0.930708
0.927406
0.920876
0.917832
0.910827
0.908175
0.900837
0.898181
0.890625
0.887793
0.880335
0.877405
0.869413
0.865037
0.859611
0.852873
0.848642
0.840807
0.837109
0.828418
0.824976
0.815562
0.812361
0.802363
0.799023
0.788537
0.784785
0.774298
0.770271
0.758918
0.752994
0.744512
0.736024
0.728958
0.718522
0.712437
0.700414
0.69505
0.68168
0.676948
0.662683
0.657746
0.642902
0.637436
0.622693
0.616909
0.601249
0.593273
0.581372
0.57033
0.560613
0.547229
0.539224
0.523614
0.517745
0.500978
0.495052
0.478253
0.472325
0.455512
0.449267
0.433179
0.42687
0.411191
0.405038
0.388941
0.38156
0.369432
0.359845
0.350449
0.338642
0.332535
0.31934
0.31466
0.301518
0.296831
0.284895
0.280404
0.269338
0.265189
0.254965
0.251164
0.241222
0.236823
0.229962
0.224369
0.219697
0.21305
0.210402
0.203615
0.201347
0.19519
0.193187
0.187709
0.18597
0.181118
0.1796
0.175359
0.174058
0.170198
0.16848
0.166305
0.164053
0.162931
0.160569
0.159871
0.157764
0.157223
0.155498
0.1551
0.153741
0.153481
0.152473
0.152348
0.151683
0.151699
0.151383
0.151323
0.151637
0.151608
0.152317
0.152468
0.153529
0.153876
0.155277
0.155824
0.157658
0.158448
0.160735
0.16178
0.164556
0.165888
0.169145
0.170774
0.174483
0.176426
0.180399
0.182994
0.187074
0.190344
0.194541
0.198373
0.202763
0.207171
0.211881
0.216853
0.221864
0.227137
0.231747
0.23574
0.237675
0.238641
1.23812
1.21632
1.21364
1.20914
1.20653
1.20303
1.1983
1.19396
1.18702
1.18134
1.1723
1.16511
1.15424
1.14572
1.13319
1.12366
1.10982
1.09937
1.08525
1.07307
1.05956
1.0461
1.03314
1.01913
1.00652
0.992633
0.980285
0.966874
0.954737
0.94209
0.930192
0.918313
0.906643
0.895563
0.884016
0.873577
0.862139
0.851402
0.841607
0.830211
0.821172
0.809609
0.801065
0.789296
0.781199
0.768998
0.761708
0.748944
0.742305
0.729064
0.722734
0.709555
0.703323
0.689885
0.6821
0.671812
0.661456
0.652954
0.641317
0.633853
0.621178
0.614515
0.600716
0.595251
0.580808
0.575341
0.560705
0.554957
0.540646
0.534759
0.519948
0.512413
0.500928
0.490987
0.481496
0.469766
0.461854
0.448739
0.442135
0.427953
0.422536
0.407968
0.402619
0.388197
0.382677
0.368995
0.363498
0.3498
0.342965
0.332658
0.324114
0.315985
0.30611
0.299875
0.288845
0.284625
0.273331
0.269352
0.258675
0.254947
0.244889
0.241224
0.232167
0.228696
0.220381
0.217202
0.20915
0.205549
0.199816
0.195498
0.191297
0.18616
0.183705
0.178216
0.176379
0.171199
0.169447
0.164965
0.163359
0.159387
0.157971
0.154444
0.1532
0.149878
0.148445
0.146305
0.144582
0.143153
0.141131
0.140425
0.138403
0.137795
0.136029
0.135521
0.134006
0.133594
0.132304
0.131973
0.130895
0.130643
0.129701
0.129304
0.128989
0.128478
0.128402
0.127979
0.127972
0.1277
0.127758
0.127654
0.127821
0.127787
0.128146
0.128196
0.128761
0.128921
0.129694
0.129971
0.130847
0.131482
0.13235
0.133338
0.13431
0.135707
0.136886
0.138657
0.14004
0.142203
0.143874
0.146474
0.148521
0.151617
0.154096
0.157694
0.160645
0.164735
0.168173
0.172648
0.176519
0.181178
0.185306
0.190128
0.194553
0.199492
0.204201
0.20923
0.214157
0.219149
0.223955
0.228256
0.231641
0.233475
0.23429
1.28969
1.27376
1.27084
1.26413
1.26078
1.25577
1.25046
1.24476
1.23721
1.23002
1.21997
1.2109
1.19833
1.18729
1.17218
1.15933
1.14198
1.1273
1.10875
1.09147
1.07274
1.05327
1.03434
1.01356
0.994339
0.973113
0.953831
0.932682
0.913599
0.892924
0.874215
0.854282
0.836025
0.81705
0.799257
0.781242
0.763835
0.746175
0.730322
0.712846
0.697831
0.680849
0.666525
0.649923
0.636314
0.619818
0.607319
0.590753
0.579259
0.562622
0.551885
0.535615
0.525466
0.509282
0.498382
0.485263
0.472581
0.461553
0.448116
0.438551
0.424596
0.416288
0.401725
0.395078
0.380336
0.374302
0.359937
0.354008
0.340559
0.334848
0.321695
0.315135
0.304925
0.297146
0.288899
0.280199
0.273656
0.264295
0.259221
0.249467
0.24565
0.236057
0.23251
0.223504
0.220062
0.211949
0.208714
0.20101
0.197242
0.191655
0.187288
0.183039
0.178198
0.175134
0.169912
0.167934
0.16279
0.161008
0.156334
0.154733
0.150497
0.148986
0.145301
0.143918
0.140637
0.139409
0.136321
0.134959
0.132819
0.13124
0.129702
0.127867
0.126997
0.125064
0.124438
0.122646
0.122064
0.12055
0.12003
0.118721
0.118281
0.117152
0.116784
0.115746
0.11531
0.114727
0.114189
0.113872
0.113301
0.113179
0.112679
0.112602
0.112236
0.112209
0.111956
0.111976
0.111864
0.111942
0.111895
0.112089
0.112091
0.112343
0.112591
0.112776
0.113241
0.113423
0.114045
0.114283
0.115043
0.115357
0.116257
0.11665
0.117695
0.118182
0.119372
0.119986
0.121329
0.122105
0.123533
0.124576
0.126047
0.127365
0.128962
0.130541
0.132281
0.134164
0.136104
0.138366
0.140589
0.143236
0.145791
0.148855
0.151842
0.155415
0.158902
0.16301
0.167036
0.171657
0.176121
0.181176
0.186037
0.191383
0.196487
0.201992
0.207142
0.212599
0.2175
0.222601
0.226815
0.230995
0.233625
0.235473
0.236155
1.31225
1.29846
1.29553
1.28778
1.28425
1.2788
1.27377
1.26803
1.26112
1.25409
1.2449
1.23597
1.22419
1.21308
1.19835
1.18503
1.16743
1.15169
1.13213
1.11318
1.09256
1.07061
1.04918
1.02505
1.00263
0.977156
0.953854
0.927653
0.903932
0.877461
0.85383
0.827514
0.804278
0.778537
0.755893
0.731023
0.708949
0.685059
0.663978
0.641456
0.620942
0.599836
0.580044
0.560194
0.54127
0.522475
0.504616
0.486725
0.469919
0.452851
0.43709
0.420925
0.406189
0.390726
0.376601
0.363044
0.349192
0.337054
0.323835
0.312929
0.3004
0.290708
0.278782
0.270484
0.259076
0.252025
0.241185
0.235208
0.225164
0.220076
0.210686
0.205841
0.198324
0.193334
0.187223
0.182176
0.177301
0.172253
0.168445
0.163346
0.160603
0.155589
0.153487
0.148856
0.146955
0.142909
0.141206
0.137521
0.135721
0.132992
0.131073
0.128942
0.126937
0.125328
0.123197
0.122155
0.12001
0.1192
0.117225
0.116512
0.114737
0.114075
0.112541
0.111945
0.110588
0.110064
0.108798
0.108231
0.10735
0.106726
0.106062
0.105372
0.104965
0.104224
0.103976
0.103281
0.103059
0.102491
0.102306
0.101837
0.101695
0.101318
0.101217
0.100892
0.100767
0.100672
0.100546
0.100541
0.100466
0.100519
0.100486
0.100609
0.100607
0.100828
0.100874
0.101187
0.101283
0.101685
0.101831
0.102323
0.10252
0.103046
0.103427
0.103934
0.104479
0.105
0.105687
0.106253
0.107072
0.107711
0.108658
0.109393
0.110473
0.111327
0.112549
0.113543
0.114917
0.116079
0.117613
0.119052
0.12076
0.122509
0.12443
0.126475
0.1287
0.131086
0.133667
0.136403
0.139345
0.142451
0.145807
0.149354
0.153181
0.157224
0.161592
0.166166
0.171121
0.17625
0.181617
0.18727
0.192989
0.199061
0.204994
0.211299
0.217199
0.223405
0.228858
0.234467
0.238923
0.243269
0.245955
0.247843
0.248516
1.30529
1.29278
1.28977
1.28158
1.27809
1.27262
1.26822
1.26298
1.2573
1.25126
1.24385
1.23632
1.22676
1.21731
1.20516
1.19348
1.17848
1.16425
1.14689
1.12962
1.11057
1.09014
1.06981
1.04679
1.02497
1.00006
0.977003
0.950703
0.926959
0.899581
0.875718
0.847845
0.824236
0.796406
0.773345
0.746121
0.723544
0.697805
0.675253
0.651818
0.629275
0.607878
0.585938
0.566235
0.545168
0.526976
0.506781
0.489993
0.470697
0.455154
0.436801
0.42233
0.404911
0.391286
0.374911
0.361869
0.346916
0.334
0.320595
0.307921
0.295877
0.283653
0.272808
0.261163
0.251505
0.240468
0.231916
0.221634
0.214085
0.204654
0.197959
0.189398
0.183543
0.176006
0.170685
0.164264
0.159391
0.153997
0.149571
0.145063
0.141021
0.137337
0.13367
0.130672
0.127421
0.124956
0.122095
0.120035
0.117467
0.11587
0.113589
0.112255
0.110284
0.109143
0.107437
0.106445
0.104987
0.104114
0.102875
0.102104
0.101046
0.100383
0.0994805
0.098911
0.0981323
0.0976499
0.0969581
0.0965233
0.0960198
0.0955936
0.095202
0.0948057
0.0945274
0.0941607
0.0939833
0.0936602
0.0935407
0.0932962
0.0932139
0.0930494
0.0930073
0.0929204
0.0929176
0.0928902
0.0929091
0.0930138
0.0930552
0.0932351
0.0933154
0.0935741
0.0936986
0.0940344
0.0942116
0.0946243
0.0948628
0.0953508
0.0956499
0.0962185
0.0965839
0.0972354
0.0976822
0.0983927
0.0989761
0.0997199
0.100431
0.101244
0.102074
0.102973
0.103924
0.104924
0.106002
0.10712
0.10833
0.109585
0.110939
0.112353
0.113868
0.115483
0.117175
0.118966
0.120848
0.122834
0.124944
0.127166
0.129595
0.13213
0.134948
0.137921
0.14118
0.144661
0.148426
0.152448
0.156783
0.161377
0.166334
0.171511
0.177139
0.182939
0.189009
0.195411
0.201869
0.208741
0.215428
0.222534
0.22914
0.236061
0.242053
0.248156
0.25284
0.257412
0.260049
0.262004
0.262648
1.27752
1.26829
1.26524
1.25678
1.25329
1.24794
1.24418
1.23961
1.23525
1.23048
1.22507
1.21934
1.21238
1.20511
1.19611
1.18698
1.17555
1.16413
1.15043
1.13643
1.12084
1.10395
1.08683
1.06745
1.04871
1.02745
1.0073
0.984566
0.963497
0.939483
0.91809
0.893239
0.871983
0.846844
0.826169
0.801346
0.781193
0.758127
0.737375
0.717026
0.696103
0.678033
0.657624
0.641506
0.621909
0.607784
0.588654
0.576456
0.557849
0.547284
0.529475
0.519783
0.502766
0.493758
0.479139
0.467479
0.45601
0.442642
0.432858
0.418572
0.409919
0.394945
0.387511
0.371642
0.364861
0.348834
0.342154
0.326435
0.319548
0.304227
0.297451
0.284121
0.274788
0.263989
0.253138
0.244487
0.232672
0.225829
0.213715
0.208432
0.196595
0.19183
0.181008
0.176705
0.167085
0.163066
0.154655
0.151098
0.144193
0.140364
0.134927
0.131208
0.127043
0.123389
0.120406
0.116725
0.114785
0.11131
0.109914
0.106917
0.105755
0.103305
0.102299
0.100317
0.0994885
0.0978634
0.0971903
0.0959151
0.0952723
0.0943027
0.0937802
0.0930312
0.0926005
0.092041
0.0916767
0.0912883
0.0909842
0.0907384
0.0905057
0.0903758
0.0902291
0.0901703
0.090123
0.090117
0.0901232
0.0902273
0.0902891
0.0904637
0.0906127
0.0908383
0.0910782
0.0913537
0.0916755
0.0920065
0.0924022
0.0928111
0.0932817
0.0937678
0.0943195
0.0948749
0.0955191
0.0961524
0.0968995
0.0976181
0.0984641
0.0992896
0.100229
0.101179
0.102218
0.103308
0.10446
0.105706
0.106985
0.108406
0.109832
0.111447
0.113041
0.114888
0.116696
0.11878
0.120855
0.123233
0.125648
0.128337
0.131142
0.134131
0.137379
0.140718
0.144478
0.14829
0.152649
0.157041
0.162099
0.167146
0.172968
0.178701
0.185346
0.191837
0.199011
0.206255
0.21389
0.221731
0.229629
0.237789
0.245568
0.253532
0.260528
0.267489
0.272811
0.277888
0.280777
0.282884
0.283549
1.25848
1.24537
1.24161
1.23283
1.22897
1.22368
1.21994
1.21591
1.21217
1.20848
1.20433
1.20025
1.19518
1.19013
1.18359
1.17715
1.16868
1.16034
1.14994
1.13924
1.12715
1.11387
1.10021
1.08462
1.06939
1.05207
1.03543
1.01678
0.999172
0.979397
0.961335
0.940827
0.922783
0.902039
0.884458
0.864054
0.846973
0.828155
0.810831
0.794304
0.777336
0.762746
0.746609
0.733831
0.718754
0.707875
0.693554
0.684595
0.671031
0.663688
0.651072
0.644658
0.633002
0.627334
0.61766
0.610145
0.602938
0.594201
0.58821
0.578675
0.573335
0.563116
0.558348
0.547038
0.542525
0.530503
0.525766
0.513222
0.507846
0.494695
0.488918
0.476944
0.4674
0.457148
0.445048
0.435905
0.421823
0.413436
0.397784
0.390393
0.373176
0.366185
0.348435
0.34137
0.323781
0.316319
0.299161
0.291811
0.276975
0.266729
0.255053
0.243086
0.234072
0.221045
0.214678
0.201293
0.196088
0.183651
0.178984
0.167884
0.16377
0.154139
0.150336
0.142136
0.138884
0.13191
0.129267
0.123711
0.120693
0.116651
0.113857
0.111033
0.108147
0.106515
0.103728
0.102752
0.100441
0.0996249
0.0978845
0.0972751
0.0959727
0.0955353
0.094595
0.0943204
0.0937518
0.0934417
0.0932041
0.0930225
0.0930108
0.0929417
0.0930471
0.0930624
0.093374
0.0934736
0.0939311
0.0941238
0.0947156
0.0949931
0.0957141
0.0960729
0.0969323
0.0974325
0.0983296
0.0990084
0.0999504
0.10082
0.101814
0.10288
0.103942
0.105211
0.106361
0.107841
0.109099
0.110806
0.112193
0.114138
0.11568
0.117899
0.119698
0.122056
0.124216
0.126784
0.129349
0.132185
0.135217
0.138418
0.141969
0.14562
0.149754
0.153944
0.158754
0.163596
0.169208
0.174809
0.181327
0.187757
0.195276
0.202644
0.210843
0.219154
0.227954
0.237018
0.246191
0.255677
0.264791
0.274086
0.282343
0.290438
0.296684
0.30244
0.305699
0.308003
0.308698
1.26457
1.24558
1.24056
1.23092
1.22623
1.22038
1.21591
1.21176
1.20765
1.20425
1.20019
1.1968
1.19231
1.18837
1.18289
1.17798
1.17102
1.16465
1.15625
1.14765
1.138
1.12703
1.11596
1.10299
1.09043
1.07591
1.06202
1.04633
1.03151
1.01488
0.999554
0.982361
0.966903
0.949571
0.93438
0.917404
0.902585
0.886967
0.872138
0.858399
0.844248
0.832046
0.819022
0.808407
0.796663
0.787799
0.777116
0.770091
0.760446
0.755097
0.746629
0.742406
0.735117
0.731892
0.726455
0.722392
0.719024
0.714519
0.712222
0.707518
0.705694
0.700952
0.699327
0.694189
0.692602
0.687087
0.68538
0.67951
0.677343
0.670975
0.668527
0.662987
0.657772
0.653168
0.646142
0.64185
0.633384
0.629067
0.61932
0.615124
0.603672
0.599373
0.586654
0.581863
0.56817
0.562429
0.547769
0.541363
0.528015
0.516876
0.505433
0.491195
0.480886
0.464312
0.455325
0.436059
0.428238
0.407761
0.399749
0.378901
0.370806
0.350195
0.341611
0.32157
0.313192
0.293945
0.28625
0.268977
0.258617
0.245201
0.233032
0.223401
0.209306
0.203391
0.189428
0.184349
0.172156
0.167444
0.15711
0.153117
0.144397
0.141086
0.13388
0.131312
0.125839
0.122829
0.119132
0.11647
0.11413
0.11146
0.110442
0.108104
0.107507
0.105859
0.105436
0.104426
0.104232
0.103714
0.103746
0.103562
0.10383
0.103948
0.104382
0.104838
0.105372
0.10616
0.106765
0.107863
0.108563
0.109933
0.110767
0.112389
0.11338
0.115259
0.116431
0.118583
0.11996
0.122413
0.124119
0.126703
0.12886
0.131634
0.134281
0.137299
0.140516
0.143873
0.147716
0.151529
0.156065
0.160471
0.165797
0.170932
0.177197
0.183205
0.190565
0.197563
0.206175
0.214349
0.223874
0.233259
0.243632
0.254016
0.26497
0.275977
0.287021
0.297987
0.308155
0.317886
0.325616
0.332631
0.336448
0.339212
0.339993
1.30915
1.28163
1.27477
1.26371
1.25734
1.25056
1.24433
1.2395
1.23383
1.22993
1.22452
1.22078
1.21517
1.21112
1.20472
1.19996
1.19243
1.18645
1.17817
1.16976
1.16079
1.15024
1.14014
1.12797
1.11651
1.10307
1.09044
1.07605
1.06264
1.0475
1.03367
1.01813
1.00416
0.988548
0.974746
0.959492
0.945949
0.931856
0.918345
0.905824
0.892991
0.881802
0.870123
0.860332
0.849993
0.841761
0.832689
0.826096
0.81835
0.813384
0.807038
0.803388
0.798411
0.795992
0.792799
0.790562
0.78924
0.787592
0.78712
0.78606
0.786005
0.785415
0.785665
0.785271
0.785725
0.785349
0.785896
0.785556
0.785904
0.785414
0.785691
0.785648
0.784844
0.784889
0.783596
0.783531
0.781625
0.781338
0.778865
0.778494
0.775175
0.774644
0.770595
0.769783
0.765134
0.763723
0.758404
0.756643
0.752073
0.747366
0.743742
0.737144
0.73378
0.725703
0.722634
0.712766
0.709527
0.698234
0.694444
0.681712
0.677306
0.663235
0.657584
0.64202
0.63541
0.618083
0.610996
0.594125
0.580989
0.566867
0.549194
0.53719
0.514858
0.50502
0.48
0.470281
0.444548
0.433857
0.40819
0.397476
0.372152
0.361697
0.337337
0.327687
0.305838
0.292914
0.276119
0.261043
0.249215
0.231976
0.225014
0.208306
0.202455
0.188347
0.183093
0.171594
0.167349
0.158068
0.154926
0.147397
0.145149
0.140055
0.137222
0.134369
0.132043
0.130695
0.128842
0.128493
0.127366
0.127414
0.127069
0.127568
0.127557
0.128834
0.129173
0.131001
0.131674
0.134058
0.135252
0.137708
0.139656
0.14223
0.144915
0.147682
0.151133
0.154203
0.158444
0.161954
0.167043
0.171161
0.177181
0.182083
0.189195
0.195072
0.203472
0.210511
0.220435
0.228963
0.240031
0.250211
0.262399
0.274047
0.28706
0.299808
0.313061
0.326258
0.338645
0.350933
0.360415
0.369715
0.374245
0.377824
0.378792
1.38606
1.35309
1.34493
1.3318
1.32356
1.31495
1.3067
1.30018
1.29244
1.28685
1.27934
1.27386
1.26613
1.26032
1.25178
1.24529
1.23575
1.22816
1.21819
1.20821
1.198
1.18613
1.17516
1.162
1.14993
1.13586
1.12287
1.10814
1.09459
1.07935
1.06558
1.05016
1.03637
1.02104
1.00745
0.992534
0.979177
0.96532
0.952028
0.939541
0.926845
0.915525
0.903869
0.893772
0.883354
0.874627
0.865465
0.858214
0.850432
0.84467
0.83837
0.833967
0.829161
0.826077
0.822976
0.820759
0.819415
0.818564
0.818402
0.818311
0.818809
0.81941
0.8209
0.822021
0.824236
0.825594
0.828295
0.829898
0.832826
0.834619
0.837694
0.839989
0.842606
0.84537
0.847687
0.850733
0.852763
0.855977
0.857758
0.86116
0.862535
0.865987
0.867239
0.870623
0.871829
0.874928
0.876027
0.879166
0.880772
0.882511
0.884793
0.885669
0.888105
0.888678
0.891056
0.891168
0.893409
0.893274
0.895177
0.894787
0.896178
0.895592
0.896253
0.895119
0.895547
0.893509
0.893877
0.892106
0.889368
0.888444
0.883629
0.882795
0.87578
0.874496
0.865332
0.863189
0.851926
0.848052
0.834185
0.82888
0.811923
0.804741
0.784456
0.776334
0.755924
0.738825
0.72144
0.6975
0.68231
0.651465
0.638624
0.603963
0.590658
0.554925
0.540191
0.504757
0.490143
0.455635
0.442054
0.407765
0.395012
0.365365
0.348501
0.326387
0.307052
0.291855
0.271118
0.262198
0.242993
0.236207
0.220525
0.215321
0.203152
0.199389
0.190403
0.187914
0.181736
0.180367
0.177399
0.175467
0.175332
0.174739
0.175441
0.175795
0.178354
0.179156
0.183171
0.184746
0.190006
0.192483
0.198957
0.202526
0.210317
0.214961
0.224226
0.230135
0.241167
0.249014
0.261116
0.27144
0.284764
0.297525
0.311891
0.326819
0.341732
0.35813
0.372557
0.388911
0.400455
0.413275
0.419286
0.42401
0.425297
1.46154
1.43271
1.42521
1.411
1.40187
1.39202
1.38249
1.3745
1.36519
1.35789
1.34855
1.34113
1.33132
1.32336
1.31251
1.30367
1.29165
1.28163
1.2692
1.2568
1.24429
1.23017
1.21713
1.20196
1.18809
1.17229
1.15776
1.14157
1.12672
1.11026
1.09542
1.07902
1.06436
1.04825
1.03392
1.01835
1.00433
0.989828
0.975968
0.96276
0.949448
0.937317
0.924928
0.913883
0.902596
0.892742
0.882597
0.874032
0.865145
0.857896
0.850379
0.844401
0.838312
0.833593
0.829092
0.825531
0.822689
0.820341
0.818933
0.818152
0.817918
0.817944
0.818635
0.819716
0.82147
0.823191
0.82566
0.827991
0.831023
0.833787
0.837198
0.84051
0.844212
0.848003
0.851885
0.856039
0.86006
0.864549
0.868671
0.87348
0.87764
0.882809
0.887014
0.892474
0.896775
0.90236
0.906818
0.912564
0.917502
0.923011
0.928501
0.933864
0.939916
0.945222
0.951794
0.957022
0.964102
0.96933
0.976809
0.982123
0.989925
0.995483
1.00334
1.00915
1.01712
1.02296
1.03136
1.03785
1.04498
1.05267
1.05902
1.06756
1.07299
1.08217
1.08687
1.09637
1.10071
1.10982
1.1138
1.12254
1.12595
1.13402
1.13682
1.14496
1.14857
1.15209
1.15689
1.15763
1.16155
1.16036
1.16236
1.15833
1.15916
1.15068
1.14874
1.13465
1.12953
1.10931
1.10159
1.07353
1.06347
1.03481
1.00911
0.983849
0.946605
0.923138
0.875614
0.854433
0.801511
0.780143
0.725973
0.704763
0.650976
0.629894
0.577572
0.557278
0.508485
0.489877
0.45008
0.426689
0.399314
0.374631
0.35776
0.334282
0.325726
0.306762
0.301223
0.28843
0.285571
0.278585
0.278028
0.276035
0.277655
0.278294
0.284032
0.285661
0.294276
0.298486
0.307398
0.315703
0.32554
0.337903
0.34927
0.365326
0.378914
0.39826
0.413194
0.434474
0.448762
0.466752
0.475243
0.481813
0.483602
1.49114
1.47187
1.46807
1.45652
1.44931
1.44083
1.43267
1.42521
1.41669
1.40938
1.40037
1.39257
1.38267
1.37392
1.3626
1.3526
1.33965
1.3281
1.3142
1.30035
1.28605
1.27033
1.25544
1.23862
1.22299
1.20557
1.18939
1.17164
1.15524
1.13731
1.12103
1.10327
1.08733
1.06998
1.05451
1.0378
1.02273
1.00713
0.992353
0.978072
0.963826
0.950626
0.937213
0.925035
0.912613
0.901513
0.890103
0.880137
0.869817
0.860987
0.851839
0.844099
0.836191
0.829543
0.823032
0.817551
0.812555
0.808239
0.804705
0.801707
0.799484
0.797696
0.796735
0.796535
0.79648
0.796986
0.797929
0.799498
0.801294
0.803525
0.805857
0.808438
0.811822
0.814898
0.818777
0.822346
0.826648
0.830686
0.835376
0.839758
0.844912
0.849659
0.855154
0.860296
0.865999
0.871566
0.877498
0.88338
0.889324
0.896057
0.902306
0.909399
0.916152