/*--------------------------------*- C++ -*----------------------------------*\
| =========                 |                                                 |
| \\      /  F ield         | OpenFOAM: The Open Source CFD Toolbox           |
|  \\    /   O peration     | Version:  4.1                                   |
|   \\  /    A nd           | Web:      www.OpenFOAM.org                      |
|    \\/     M anipulation  |                                                 |
\*---------------------------------------------------------------------------*/
FoamFile
{
    version     2.0;
    format      ascii;
    class       volScalarField;
    location    "15.5";
    object      k;
}
// * * * * * * * * * * * * * * * * * * * * * * * * * * * * * * * * * * * * * //

dimensions      [0 2 -2 0 0 0 0];

internalField   nonuniform List<scalar> 
204246
(
2.14104
2.23401
2.2438
2.24488
2.25484
2.25568
2.26325
2.26463
2.27198
2.27336
2.28084
2.28224
2.29014
2.29131
2.3007
2.30173
2.31144
2.31251
2.3197
2.32621
2.32901
2.33875
2.34006
2.34946
2.35147
2.36077
2.36287
2.37254
2.37442
2.38545
2.38717
2.39852
2.40037
2.41212
2.41408
2.42489
2.42745
2.43626
2.44381
2.44849
2.45819
2.46115
2.47179
2.47457
2.48563
2.48815
2.50066
2.50297
2.5159
2.51831
2.5302
2.53336
2.54509
2.54828
2.55841
2.56673
2.57269
2.58326
2.5875
2.59941
2.6029
2.61562
2.61889
2.63319
2.63628
2.65109
2.65434
2.66823
2.6723
2.68611
2.69029
2.70218
2.71078
2.71952
2.7307
2.73756
2.7506
2.75622
2.77057
2.77537
2.79215
2.79651
2.81391
2.8185
2.83511
2.84059
2.85723
2.86288
2.87769
2.88779
2.89958
2.91219
2.92235
2.93655
2.94577
2.96393
2.97025
2.99047
2.9967
3.01729
3.02379
3.04409
3.05154
3.07195
3.07969
3.1009
3.10859
3.12824
3.14028
3.15722
3.1713
3.18717
3.20524
3.21841
3.23978
3.25092
3.27352
3.28445
3.30824
3.31906
3.34447
3.35497
3.38142
3.39205
3.41704
3.43198
3.4544
3.47159
3.49299
3.51249
3.53287
3.55381
3.57384
3.59602
3.61591
3.63931
3.65909
3.68347
3.70343
3.72881
3.74882
3.77365
3.79584
3.81975
3.84271
3.86676
3.89015
3.91451
3.9381
3.96289
3.98653
4.01175
4.03527
4.06102
4.08445
4.11069
4.13416
4.16055
4.18337
4.21
4.23285
4.25886
4.28241
4.3076
4.33191
4.35613
4.38146
4.40456
4.43134
4.45329
4.48202
4.50269
4.53399
4.55377
4.58912
4.60702
4.6469
4.66848
4.70481
4.73481
4.76957
4.80863
4.8448
4.89402
4.93529
4.99609
5.04697
5.12059
5.18554
5.26421
5.33079
5.3685
5.38499
1.42266
1.40226
1.40534
1.40683
1.4094
1.4094
1.41283
1.41299
1.41633
1.41641
1.41993
1.42011
1.42339
1.42315
1.42622
1.42583
1.42944
1.42973
1.43089
1.43371
1.4337
1.43735
1.43723
1.44196
1.44262
1.44766
1.44856
1.45357
1.454
1.45929
1.45966
1.46534
1.46579
1.47184
1.47254
1.48013
1.48239
1.48517
1.49096
1.49214
1.4997
1.50156
1.50936
1.5114
1.51913
1.52065
1.52865
1.53017
1.53848
1.54014
1.54935
1.55184
1.56175
1.56516
1.57009
1.57797
1.5803
1.59038
1.59345
1.60378
1.60707
1.61736
1.62014
1.6308
1.63364
1.64468
1.6477
1.65974
1.66367
1.67659
1.68154
1.68938
1.70054
1.70522
1.71842
1.72324
1.73714
1.74218
1.75661
1.76156
1.77609
1.78094
1.79623
1.80139
1.81791
1.82412
1.84186
1.84927
1.86169
1.87605
1.88514
1.90272
1.9102
1.9296
1.93712
1.95682
1.96439
1.98485
1.99258
2.01448
2.02301
2.0459
2.05554
2.07937
2.08955
2.11482
2.12565
2.14745
2.16605
2.18372
2.20711
2.22117
2.24816
2.26024
2.28964
2.30229
2.33411
2.34777
2.38077
2.39546
2.42956
2.44485
2.48173
2.49874
2.53068
2.55662
2.58474
2.6156
2.64278
2.67654
2.70336
2.74114
2.76802
2.80862
2.83634
2.87936
2.90854
2.9538
2.98514
3.03301
3.0679
3.1103
3.15476
3.19582
3.24295
3.28663
3.33547
3.38203
3.43257
3.48232
3.53466
3.58779
3.64048
3.69764
3.75154
3.81346
3.87092
3.93707
3.98892
4.06376
4.11961
4.1895
4.25619
4.32069
4.39687
4.45611
4.53964
4.59502
4.6825
4.73647
4.82379
4.87914
4.95902
5.01749
5.10041
5.15726
5.23848
5.27749
5.37074
5.40623
5.49511
5.52711
5.61142
5.64007
5.72132
5.74714
5.83515
5.8661
6.03205
6.17638
6.58976
6.84527
6.9535
2.09092
1.9862
2.00346
2.01335
2.01267
2.02082
2.01945
2.02543
2.02414
2.02996
2.02857
2.03413
2.03265
2.03929
2.03692
2.04379
2.04144
2.0491
2.05213
2.04978
2.05593
2.05351
2.06015
2.05853
2.06449
2.06332
2.06965
2.0686
2.07653
2.07473
2.08337
2.08185
2.09118
2.08986
2.09957
2.09898
2.10952
2.11475
2.1139
2.12411
2.12372
2.1334
2.13355
2.14374
2.14411
2.15568
2.15519
2.16728
2.16692
2.17964
2.18025
2.19222
2.1934
2.20693
2.21354
2.21441
2.22717
2.22797
2.24015
2.24156
2.25389
2.25547
2.26892
2.26945
2.28373
2.28445
2.29936
2.30119
2.31521
2.31763
2.33308
2.34066
2.34477
2.35737
2.35973
2.37382
2.37653
2.39116
2.39413
2.40962
2.41158
2.42784
2.43004
2.44716
2.45054
2.46696
2.47101
2.48875
2.4975
2.50453
2.51898
2.52306
2.53968
2.54415
2.56158
2.5652
2.58334
2.58729
2.60611
2.61056
2.6297
2.63488
2.65323
2.65913
2.67807
2.68438
2.70484
2.71382
2.72589
2.7411
2.74807
2.76687
2.77287
2.79242
2.79872
2.81858
2.82558
2.84481
2.85205
2.87145
2.87885
2.89896
2.90697
2.92732
2.93693
2.95107
2.96488
2.97516
2.99199
2.99974
3.01748
3.0255
3.04272
3.05074
3.06711
3.07509
3.09058
3.09858
3.1136
3.12188
3.1356
3.14223
3.15296
3.15868
3.1675
3.17188
3.17924
3.18041
3.18579
3.18449
3.18677
3.18274
3.1832
3.17192
3.17179
3.15448
3.15305
3.12627
3.11321
3.0973
3.06414
3.05496
3.00897
2.99655
2.94262
2.92725
2.86673
2.84925
2.78371
2.76442
2.69443
2.67394
2.6003
2.57921
2.5058
2.48569
2.40729
2.37094
2.33519
2.273
2.25769
2.18799
2.17399
2.10709
2.09539
2.03663
2.03011
1.99044
1.99476
1.96903
1.97429
1.84153
1.79227
2.78611
2.63749
2.64632
2.65843
2.65885
2.66664
2.66549
2.66917
2.66742
2.66999
2.66797
2.67032
2.66822
2.67108
2.66809
2.67129
2.66844
2.67171
2.67287
2.66979
2.67265
2.66981
2.67294
2.67103
2.67356
2.67211
2.67501
2.67371
2.67763
2.67575
2.68024
2.67865
2.68385
2.68253
2.6881
2.6874
2.693
2.69595
2.69524
2.70101
2.70051
2.70594
2.70583
2.71162
2.71168
2.71834
2.71785
2.72469
2.7243
2.73151
2.7318
2.73863
2.73931
2.74645
2.75005
2.75058
2.75729
2.75762
2.76397
2.76463
2.77087
2.77162
2.77821
2.77833
2.78522
2.78541
2.79248
2.79331
2.79981
2.80095
2.80745
2.81073
2.81232
2.81724
2.81798
2.82329
2.82415
2.82944
2.83038
2.83569
2.83619
2.84136
2.84182
2.84689
2.8477
2.85227
2.85328
2.85749
2.85957
2.86034
2.86317
2.86359
2.86631
2.86671
2.86917
2.86928
2.87128
2.8713
2.87294
2.87299
2.87401
2.87396
2.87441
2.8743
2.87454
2.87418
2.87392
2.87299
2.87114
2.86999
2.86758
2.86596
2.86294
2.86064
2.85697
2.85408
2.84959
2.84632
2.84079
2.83673
2.83044
2.82497
2.81871
2.81024
2.80165
2.79364
2.78128
2.77405
2.7571
2.75085
2.72976
2.72292
2.69836
2.69037
2.66206
2.65279
2.6202
2.60928
2.57296
2.56076
2.51672
2.49519
2.46368
2.42536
2.40253
2.352
2.33268
2.27509
2.25386
2.19231
2.16935
2.10403
2.0793
2.01049
1.98418
1.91331
1.88627
1.81018
1.7734
1.71513
1.66278
1.61807
1.55315
1.52089
1.44959
1.42225
1.35167
1.32587
1.2607
1.23694
1.17769
1.15649
1.10348
1.08495
1.03799
1.022
0.980064
0.96106
0.933508
0.910707
0.892675
0.866461
0.855077
0.82828
0.819842
0.801259
0.798429
0.794409
0.808849
0.825879
0.855855
0.865511
0.872751
3.28434
3.18946
3.18689
3.19313
3.19117
3.19362
3.18839
3.18831
3.17958
3.17814
3.16843
3.16641
3.15655
3.15486
3.14446
3.14302
3.13278
3.13127
3.12421
3.11681
3.11444
3.10513
3.10357
3.0949
3.09285
3.08509
3.08327
3.07611
3.0749
3.06763
3.06676
3.06015
3.05953
3.05359
3.05314
3.04777
3.04683
3.04355
3.03914
3.03853
3.03348
3.03244
3.02783
3.02683
3.02252
3.02181
3.01727
3.01662
3.01215
3.01145
3.00736
3.00631
3.00226
3.00101
2.99791
2.99404
2.99247
2.9877
2.98591
2.98093
2.97894
2.97383
2.97176
2.96624
2.96396
2.95812
2.95557
2.94965
2.9468
2.94072
2.93737
2.93167
2.92618
2.92115
2.91446
2.90958
2.90222
2.89724
2.88949
2.88423
2.876
2.87025
2.86155
2.8554
2.84648
2.83994
2.83089
2.82307
2.81347
2.80477
2.79456
2.78546
2.77403
2.76495
2.75158
2.74326
2.72729
2.71986
2.70146
2.69471
2.6742
2.6665
2.64521
2.63681
2.61416
2.60527
2.57876
2.56613
2.54559
2.52548
2.50854
2.48113
2.46897
2.43585
2.42417
2.38764
2.37416
2.33655
2.32172
2.28174
2.2659
2.22354
2.20708
2.15951
2.13627
2.10078
2.06458
2.03691
1.99065
1.96879
1.91619
1.8955
1.84023
1.81877
1.76219
1.74023
1.6826
1.66009
1.60213
1.57942
1.51937
1.49041
1.44378
1.40466
1.36765
1.32076
1.29236
1.23981
1.2184
1.16481
1.14428
1.09322
1.07377
1.02565
1.00755
0.963063
0.946585
0.904632
0.885163
0.855791
0.8326
0.81224
0.786158
0.774121
0.748599
0.739637
0.717642
0.710381
0.692139
0.686325
0.671671
0.667289
0.65597
0.652955
0.644693
0.642953
0.637112
0.634922
0.634546
0.632973
0.63384
0.633094
0.634128
0.633287
0.633955
0.632782
0.634324
0.634809
0.644148
0.64994
0.662725
0.667452
0.671242
3.7676
3.64997
3.63957
3.63735
3.62602
3.62308
3.60698
3.60084
3.58115
3.57303
3.55106
3.54168
3.51869
3.50906
3.48536
3.47569
3.45212
3.44234
3.42211
3.40683
3.39154
3.37341
3.36121
3.34233
3.33141
3.31309
3.30296
3.28538
3.27601
3.25864
3.25001
3.23321
3.22505
3.20902
3.2011
3.1859
3.17745
3.16387
3.15335
3.14168
3.13012
3.11916
3.10733
3.09671
3.08483
3.07449
3.06245
3.05223
3.04014
3.0299
3.0181
3.00763
2.9961
2.98505
2.97352
2.96203
2.95012
2.93839
2.9259
2.91425
2.90089
2.88945
2.87487
2.86409
2.84797
2.83781
2.82012
2.81026
2.79187
2.78205
2.76229
2.749
2.73325
2.71635
2.70215
2.68247
2.66935
2.64722
2.63501
2.60966
2.59973
2.57195
2.5616
2.53235
2.52095
2.49153
2.47948
2.44783
2.42997
2.40651
2.3817
2.36193
2.33217
2.31473
2.27979
2.26616
2.22769
2.21344
2.17349
2.1587
2.11702
2.10079
2.05899
2.04184
1.99902
1.98135
1.93499
1.91294
1.87575
1.84508
1.81362
1.77526
1.75056
1.70477
1.6856
1.6358
1.61609
1.56698
1.54672
1.49773
1.47752
1.42888
1.40889
1.35867
1.33479
1.29583
1.2641
1.23377
1.1957
1.17277
1.13041
1.11311
1.07011
1.05355
1.01263
0.997005
0.958252
0.943486
0.907251
0.893501
0.858622
0.842269
0.817179
0.797165
0.778654
0.755842
0.743168
0.719192
0.70985
0.68698
0.678548
0.657974
0.650434
0.632086
0.625416
0.609153
0.603285
0.588531
0.581798
0.571961
0.564338
0.55752
0.549284
0.545282
0.537421
0.534629
0.528055
0.52594
0.52105
0.519643
0.516376
0.51567
0.513984
0.513975
0.513592
0.514649
0.515067
0.517344
0.519463
0.522444
0.526207
0.52994
0.535179
0.539633
0.546348
0.551766
0.559958
0.566159
0.575663
0.58219
0.589624
0.592605
0.594524
4.1417
4.03771
4.02215
4.0072
3.99066
3.97669
3.95425
3.93751
3.90987
3.89007
3.85823
3.83571
3.801
3.77682
3.73967
3.71475
3.67622
3.65066
3.61439
3.58393
3.55206
3.519
3.4902
3.45669
3.42963
3.39716
3.3714
3.34046
3.31591
3.28636
3.26314
3.23499
3.21299
3.18633
3.16477
3.13961
3.11782
3.09328
3.07277
3.04821
3.0282
3.00385
2.98435
2.95981
2.94088
2.91557
2.89795
2.87144
2.85494
2.82734
2.81131
2.7837
2.76776
2.73938
2.71947
2.69783
2.67252
2.65373
2.62632
2.60871
2.57964
2.5628
2.53152
2.51671
2.48307
2.46936
2.43423
2.4197
2.38478
2.36976
2.33348
2.3132
2.28473
2.25822
2.2335
2.20263
2.18037
2.14615
2.12558
2.08772
2.07034
2.02911
2.01279
1.9698
1.95238
1.90976
1.89173
1.84732
1.82417
1.78884
1.75832
1.72835
1.69244
1.66647
1.6253
1.6048
1.55937
1.5414
1.49474
1.47679
1.43015
1.41152
1.36655
1.34782
1.30381
1.28547
1.2405
1.21938
1.18386
1.15726
1.12838
1.09656
1.07535
1.03881
1.02414
0.986326
0.9717
0.936822
0.922743
0.890049
0.876872
0.846327
0.834077
0.804352
0.790796
0.768689
0.752281
0.735683
0.716835
0.705293
0.68504
0.677
0.657252
0.649952
0.632051
0.6255
0.609303
0.603393
0.588858
0.583571
0.570107
0.563892
0.55473
0.547262
0.540835
0.532542
0.528465
0.520028
0.516923
0.50923
0.506515
0.499784
0.497436
0.491608
0.48961
0.484653
0.483019
0.478795
0.476906
0.474582
0.472363
0.471395
0.469394
0.468938
0.467635
0.467511
0.467032
0.467298
0.467399
0.46875
0.469169
0.471497
0.4724
0.475599
0.47696
0.480951
0.482736
0.487177
0.489912
0.494494
0.498086
0.502927
0.507436
0.512773
0.518296
0.524085
0.530662
0.536995
0.544352
0.550345
0.555849
0.558348
0.559727
4.45565
4.36333
4.34507
4.32086
4.30133
4.27965
4.25341
4.22904
4.19617
4.16767
4.12851
4.09537
4.05074
4.01361
3.96373
3.92358
3.86977
3.8269
3.77317
3.72389
3.67307
3.6199
3.57125
3.51701
3.46968
3.41653
3.37059
3.31947
3.27514
3.22655
3.18371
3.13792
3.09629
3.05345
3.01285
2.97245
2.93266
2.89253
2.85682
2.81637
2.78248
2.74275
2.71011
2.67083
2.63936
2.59989
2.57044
2.53039
2.50259
2.46198
2.43513
2.39507
2.36875
2.32836
2.29866
2.26598
2.23074
2.20217
2.16463
2.1383
2.099
2.07436
2.03287
2.01119
1.96721
1.94793
1.90241
1.88308
1.8383
1.81875
1.7732
1.74904
1.71255
1.68197
1.65087
1.61579
1.58871
1.55033
1.52641
1.48466
1.46536
1.42123
1.40351
1.35914
1.34102
1.29854
1.28052
1.23797
1.21655
1.18303
1.15677
1.12921
1.09937
1.07681
1.04359
1.02711
0.991916
0.978099
0.943657
0.930562
0.897843
0.884985
0.855028
0.842768
0.814911
0.80352
0.776481
0.764047
0.743518
0.729075
0.712961
0.696344
0.685187
0.666685
0.659387
0.640868
0.633872
0.617435
0.61093
0.596052
0.590154
0.576647
0.571305
0.558484
0.552695
0.543308
0.536737
0.52948
0.52208
0.517007
0.508908
0.505612
0.497589
0.494601
0.487344
0.484656
0.478078
0.47564
0.469692
0.467491
0.461936
0.459355
0.455572
0.452473
0.449733
0.446308
0.444506
0.440977
0.439658
0.436408
0.435268
0.43244
0.431474
0.429089
0.428311
0.426422
0.425866
0.4244
0.423776
0.42334
0.422802
0.422821
0.422691
0.42339
0.423683
0.425207
0.425796
0.428153
0.429176
0.432417
0.433996
0.438161
0.440383
0.445488
0.448376
0.454422
0.457944
0.46462
0.468968
0.475807
0.480858
0.487712
0.493403
0.500127
0.506262
0.512878
0.519264
0.52567
0.531855
0.537277
0.541598
0.54384
0.544939
4.69752
4.62159
4.6032
4.57426
4.55486
4.53036
4.50424
4.47781
4.44477
4.41378
4.37315
4.33624
4.28798
4.24493
4.18857
4.13982
4.07635
4.02186
3.95554
3.89119
3.82519
3.75382
3.68745
3.61254
3.54528
3.46957
3.40216
3.32726
3.26052
3.18739
3.12246
3.05198
2.98934
2.92213
2.86196
2.79819
2.73981
2.67874
2.62384
2.56532
2.51254
2.45662
2.4059
2.35199
2.30343
2.25071
2.20517
2.15312
2.11033
2.05883
2.01822
1.96816
1.92939
1.87991
1.83974
1.79807
1.75423
1.71762
1.67278
1.63961
1.59432
1.56408
1.518
1.4918
1.44476
1.4222
1.37483
1.35394
1.30864
1.28845
1.24403
1.22159
1.18588
1.15941
1.12977
1.10051
1.0759
1.0448
1.0244
0.991513
0.976351
0.942884
0.929439
0.89733
0.884245
0.854851
0.842453
0.814344
0.800455
0.77888
0.763077
0.745771
0.728558
0.714973
0.696311
0.686919
0.667667
0.660108
0.641855
0.634923
0.618135
0.61155
0.596581
0.590466
0.576868
0.5713
0.558402
0.552495
0.542677
0.536103
0.528294
0.520959
0.515332
0.507193
0.503471
0.495165
0.491888
0.484377
0.48133
0.47451
0.471736
0.465521
0.462993
0.457087
0.454382
0.449925
0.446885
0.443306
0.439962
0.437365
0.433709
0.431944
0.428253
0.426814
0.423393
0.422107
0.419029
0.417886
0.415148
0.414146
0.411668
0.410521
0.408919
0.407537
0.406534
0.405079
0.404544
0.403227
0.40283
0.401833
0.401579
0.400912
0.400803
0.400475
0.40052
0.400481
0.400875
0.401055
0.401639
0.402365
0.40296
0.404223
0.404999
0.406748
0.40772
0.410036
0.411295
0.414329
0.416026
0.419807
0.422038
0.426665
0.42958
0.4351
0.438831
0.445155
0.449755
0.456615
0.462053
0.469152
0.475158
0.482281
0.48862
0.495867
0.502408
0.509546
0.515993
0.522631
0.528423
0.53368
0.537449
0.539577
0.540509
4.85801
4.80021
4.78354
4.75315
4.73613
4.71246
4.68956
4.66556
4.63672
4.60875
4.57282
4.53878
4.49479
4.4538
4.40026
4.35205
4.28919
4.23301
4.16473
4.09604
4.02497
3.94617
3.87199
3.78643
3.70816
3.61864
3.53774
3.44608
3.36491
3.27194
3.19162
3.09936
3.02032
2.93043
2.853
2.7666
2.69095
2.60882
2.53533
2.45891
2.38682
2.31549
2.24567
2.17857
2.11153
2.04795
1.98406
1.92353
1.86272
1.80491
1.74717
1.69215
1.63746
1.58459
1.53202
1.48414
1.43331
1.38899
1.34087
1.29975
1.25447
1.21665
1.17397
1.14003
1.09973
1.06944
1.03152
1.00457
0.969509
0.945526
0.912804
0.890139
0.863119
0.840695
0.818002
0.796082
0.777175
0.755925
0.740278
0.719509
0.707146
0.686756
0.677203
0.657907
0.649427
0.63212
0.624421
0.60848
0.600602
0.588046
0.57975
0.569436
0.560865
0.552487
0.543541
0.537205
0.527827
0.523217
0.5139
0.510027
0.501299
0.497647
0.4898
0.486411
0.479228
0.476117
0.46929
0.466079
0.460615
0.457186
0.452544
0.44887
0.445159
0.441186
0.438291
0.43407
0.43182
0.427633
0.425776
0.421797
0.420085
0.416409
0.414831
0.411315
0.409666
0.406903
0.405151
0.402808
0.400973
0.399109
0.397138
0.39572
0.393643
0.392625
0.390605
0.389792
0.387973
0.387267
0.385685
0.385084
0.383691
0.38304
0.38221
0.381465
0.381041
0.380343
0.380131
0.379639
0.379545
0.37933
0.379363
0.379362
0.379707
0.379871
0.380532
0.380902
0.381882
0.382491
0.383742
0.384932
0.386421
0.388223
0.390014
0.392358
0.39463
0.397562
0.400389
0.403873
0.407214
0.411228
0.415134
0.419761
0.424313
0.429659
0.434933
0.441043
0.447058
0.453892
0.460474
0.4679
0.474965
0.482827
0.490164
0.498099
0.505363
0.512953
0.519647
0.526317
0.53181
0.536798
0.54015
0.542222
0.543045
4.94686
4.89703
4.88202
4.85286
4.83806
4.81737
4.7988
4.77939
4.75686
4.7349
4.70694
4.67985
4.64491
4.61123
4.56743
4.52623
4.47283
4.42298
4.36255
4.30014
4.23455
4.16089
4.09025
4.008
3.9312
3.84268
3.76082
3.6675
3.58267
3.48527
3.3998
3.30038
3.21587
3.11634
3.03425
2.93686
2.85641
2.76615
2.68299
2.60236
2.51895
2.44499
2.36408
2.29553
2.21798
2.15452
2.07964
2.02095
1.94891
1.89427
1.82552
1.77364
1.70826
1.65853
1.59806
1.5474
1.49317
1.44167
1.39262
1.34154
1.29671
1.24706
1.20597
1.15811
1.12075
1.07495
1.04108
0.998152
0.967397
0.927709
0.899862
0.863594
0.838386
0.80638
0.782882
0.755408
0.733476
0.710188
0.689938
0.670304
0.651523
0.635296
0.618045
0.604626
0.589142
0.577876
0.564093
0.554459
0.542055
0.534164
0.523107
0.51624
0.506565
0.500447
0.491958
0.486401
0.479013
0.473912
0.467459
0.46275
0.45706
0.452771
0.447712
0.443794
0.439232
0.435655
0.431436
0.428065
0.424523
0.421233
0.418091
0.414942
0.412182
0.409162
0.406747
0.403837
0.401723
0.39895
0.39711
0.394456
0.392885
0.39034
0.389017
0.386558
0.385363
0.383312
0.382118
0.380344
0.379196
0.377705
0.376608
0.375387
0.374361
0.373398
0.372467
0.371741
0.370903
0.370415
0.369697
0.369414
0.368887
0.368648
0.368493
0.368352
0.36837
0.368398
0.368675
0.368845
0.36937
0.369712
0.370483
0.371022
0.372038
0.372803
0.374076
0.375099
0.376651
0.377989
0.379797
0.381474
0.383503
0.385525
0.387834
0.390257
0.393009
0.395972
0.399278
0.402992
0.406913
0.411456
0.416073
0.421443
0.426823
0.433021
0.439208
0.446202
0.45322
0.46095
0.468552
0.476885
0.484963
0.493692
0.502024
0.510836
0.519027
0.527399
0.534801
0.541977
0.547778
0.552922
0.556269
0.558353
0.559131
4.97551
4.92891
4.91498
4.88814
4.87516
4.8578
4.84345
4.82882
4.81278
4.79733
4.77796
4.75903
4.73445
4.71023
4.67833
4.64738
4.60685
4.56759
4.51983
4.46915
4.41511
4.35356
4.2932
4.22273
4.15533
4.0779
4.00453
3.9214
3.84407
3.75577
3.67659
3.58504
3.50554
3.41278
3.33452
3.24287
3.16562
3.0803
3.00005
2.92399
2.84372
2.77472
2.6972
2.63437
2.56056
2.50427
2.43291
2.38305
2.31437
2.26994
2.20472
2.16325
2.1013
2.06229
2.00861
1.96105
1.91772
1.86526
1.82684
1.7721
1.73681
1.68043
1.64872
1.58863
1.56079
1.4988
1.47204
1.41065
1.38303
1.32274
1.29537
1.24287
1.20477
1.16199
1.1179
1.08288
1.03518
1.00626
0.957179
0.934362
0.88561
0.865252
0.819858
0.801218
0.760243
0.742654
0.706269
0.690474
0.659994
0.643119
0.618701
0.601853
0.582843
0.566117
0.552046
0.535185
0.52545
0.509152
0.50223
0.487694
0.481765
0.469518
0.464262
0.453966
0.449462
0.440663
0.436816
0.429472
0.425732
0.419627
0.416385
0.411182
0.40825
0.403858
0.401126
0.397463
0.394878
0.39182
0.389427
0.386841
0.384644
0.382445
0.380423
0.378543
0.376654
0.375106
0.373388
0.372049
0.370583
0.369388
0.368173
0.367107
0.366109
0.365176
0.364368
0.363621
0.36299
0.362423
0.361971
0.361559
0.361291
0.361074
0.360996
0.360958
0.361044
0.361234
0.361511
0.361919
0.36239
0.363038
0.363717
0.364627
0.36553
0.366727
0.367883
0.36939
0.370823
0.372682
0.374443
0.376715
0.378867
0.381626
0.38427
0.387513
0.390697
0.394368
0.398154
0.402307
0.406798
0.411608
0.416907
0.422514
0.42873
0.435198
0.442377
0.449692
0.45785
0.465997
0.474777
0.483648
0.49291
0.502269
0.511741
0.521229
0.53045
0.539463
0.547678
0.555304
0.561539
0.566826
0.570293
0.572372
0.573116
4.97081
4.92781
4.91478
4.89026
4.87864
4.8643
4.85321
4.84275
4.83196
4.82225
4.81012
4.79861
4.78315
4.76788
4.74684
4.72618
4.69794
4.67006
4.63516
4.59714
4.55589
4.50799
4.4599
4.40336
4.34804
4.28454
4.22293
4.15363
4.08745
4.01284
3.94386
3.86561
3.79536
3.71532
3.64547
3.56591
3.49663
3.42254
3.35085
3.28441
3.21399
3.15332
3.08635
3.03141
2.96874
2.92024
2.86077
2.81891
2.76291
2.72671
2.67492
2.64202
2.59432
2.56438
2.52434
2.48834
2.45707
2.41809
2.3905
2.35001
2.32416
2.2823
2.2582
2.21303
2.19062
2.1425
2.12074
2.07097
2.04712
1.99625
1.97052
1.92461
1.88613
1.84612
1.79974
1.76294
1.71089
1.67609
1.61965
1.58762
1.52524
1.49657
1.43076
1.40314
1.33719
1.30817
1.24342
1.21468
1.15828
1.11839
1.07309
1.02707
0.99103
0.941418
0.914356
0.862488
0.841142
0.791819
0.772409
0.727689
0.710284
0.670838
0.654607
0.620401
0.606254
0.576669
0.564842
0.540584
0.527521
0.509171
0.496738
0.483303
0.470463
0.461717
0.448785
0.443574
0.432061
0.427517
0.418218
0.414493
0.406888
0.403837
0.397615
0.395177
0.390327
0.387783
0.384137
0.382003
0.379214
0.377196
0.37526
0.373269
0.372077
0.370242
0.369466
0.367994
0.367409
0.366332
0.365935
0.365204
0.364974
0.36468
0.364506
0.36451
0.364509
0.364875
0.365002
0.36571
0.366006
0.367048
0.367521
0.368917
0.369573
0.371346
0.37221
0.374372
0.375464
0.378047
0.37954
0.382287
0.38435
0.387368
0.390063
0.393428
0.39684
0.400683
0.404852
0.409284
0.414239
0.419383
0.425224
0.431213
0.438082
0.445025
0.453013
0.460942
0.470101
0.479042
0.488958
0.498808
0.50932
0.519789
0.530592
0.541256
0.551847
0.562002
0.571499
0.580046
0.587203
0.59299
0.59679
0.599011
0.599761
4.97265
4.92871
4.91625
4.89385
4.88314
4.8712
4.86209
4.85468
4.84714
4.84157
4.83411
4.82801
4.81874
4.81014
4.79687
4.78411
4.76506
4.74628
4.72155
4.69388
4.66336
4.6269
4.58971
4.54541
4.5012
4.45019
4.39975
4.34306
4.28789
4.22614
4.16763
4.10229
4.0417
3.97433
3.91318
3.84573
3.7845
3.72101
3.65801
3.60015
3.53896
3.48526
3.42777
3.37883
3.32569
3.28249
3.23296
3.19594
3.15033
3.11898
3.07797
3.05045
3.0139
2.99002
2.96068
2.9337
2.91193
2.8845
2.86632
2.83905
2.82263
2.79503
2.78003
2.75031
2.73653
2.70496
2.69151
2.65896
2.64367
2.61029
2.5934
2.56384
2.53689
2.51112
2.47828
2.45382
2.41674
2.39237
2.35179
2.32797
2.2822
2.25916
2.20905
2.18591
2.13323
2.10719
2.05284
2.02446
1.97545
1.93261
1.89
1.83845
1.79889
1.74132
1.70512
1.64018
1.60779
1.53749
1.50789
1.43522
1.40542
1.3334
1.30209
1.23163
1.2009
1.1327
1.10399
1.04278
1.00461
0.956868
0.912289
0.876865
0.826058
0.802276
0.751558
0.731766
0.686258
0.66778
0.628479
0.61249
0.578731
0.565148
0.536682
0.525703
0.503151
0.490966
0.474637
0.463516
0.452093
0.440947
0.434194
0.423493
0.419604
0.41064
0.407398
0.400586
0.398123
0.392934
0.391199
0.387176
0.385972
0.383354
0.381877
0.380569
0.379359
0.378913
0.378082
0.37799
0.377722
0.377884
0.377952
0.378753
0.379003
0.380341
0.380869
0.382706
0.383512
0.385864
0.387156
0.389687
0.391661
0.394437
0.397123
0.400204
0.403708
0.407227
0.411596
0.41572
0.421003
0.425886
0.432186
0.437956
0.445429
0.452233
0.461032
0.468954
0.479195
0.48835
0.499575
0.509881
0.52192
0.533047
0.545533
0.557025
0.569383
0.580546
0.591719
0.601381
0.609707
0.616508
0.620529
0.623148
0.623935
4.99934
4.95208
4.94043
4.91972
4.90959
4.89935
4.89124
4.88569
4.87965
4.87621
4.87084
4.86731
4.86096
4.85563
4.84622
4.8375
4.82341
4.80959
4.79079
4.76926
4.74543
4.71625
4.6864
4.65042
4.61408
4.57198
4.5298
4.48244
4.43572
4.38374
4.33365
4.27827
4.22579
4.16826
4.11459
4.05647
4.00213
3.94648
3.89077
3.83891
3.78469
3.73588
3.68484
3.63979
3.59265
3.5523
3.50886
3.47367
3.43443
3.40444
3.36992
3.34409
3.3142
3.29246
3.26902
3.24715
3.23016
3.21009
3.19698
3.17899
3.16844
3.15151
3.14279
3.12523
3.11801
3.09993
3.09304
3.07474
3.06705
3.04845
3.04004
3.02406
3.00921
2.99561
2.97702
2.96417
2.94279
2.92978
2.90614
2.89317
2.86614
2.85333
2.8235
2.81019
2.77876
2.76305
2.73035
2.71291
2.68404
2.6562
2.63115
2.59771
2.57371
2.53644
2.51355
2.4709
2.4492
2.40201
2.3805
2.3292
2.30714
2.25327
2.22765
2.17161
2.14294
2.08392
2.054
1.99744
1.95094
1.90197
1.84423
1.80086
1.7318
1.69378
1.61603
1.58216
1.5007
1.46501
1.3834
1.34764
1.2669
1.23183
1.15407
1.1216
1.05245
1.0094
0.955779
0.906105
0.866917
0.811288
0.785777
0.731528
0.710793
0.663583
0.644837
0.605518
0.589937
0.557478
0.545313
0.518299
0.50888
0.489071
0.478387
0.465315
0.45602
0.44762
0.439048
0.434785
0.427362
0.425018
0.419549
0.418101
0.414538
0.413791
0.411839
0.411695
0.411089
0.411478
0.412129
0.412841
0.414731
0.415719
0.41876
0.420035
0.42416
0.425978
0.431136
0.433539
0.439793
0.442988
0.450369
0.454574
0.463242
0.468651
0.47879
0.485575
0.497393
0.505853
0.518778
0.529004
0.542875
0.554558
0.568926
0.581619
0.595767
0.60883
0.621543
0.633689
0.642932
0.652089
0.656409
0.659812
0.660759
5.03286
4.98738
4.97801
4.95897
4.94979
4.94077
4.93348
4.92886
4.92347
4.92055
4.91578
4.91255
4.90671
4.90172
4.89291
4.88467
4.87163
4.8587
4.8414
4.82179
4.8001
4.7739
4.74697
4.71496
4.6824
4.64514
4.60744
4.56558
4.5238
4.47803
4.43318
4.38449
4.33739
4.28672
4.23826
4.18675
4.13736
4.08709
4.03686
3.98892
3.93968
3.8939
3.84703
3.80407
3.7603
3.721
3.68051
3.6454
3.60882
3.5781
3.54594
3.51928
3.49165
3.4691
3.44705
3.42667
3.41016
3.39292
3.38048
3.36676
3.35778
3.34673
3.34029
3.33035
3.32584
3.31671
3.31319
3.30473
3.3013
3.29318
3.28985
3.28334
3.27725
3.27211
3.26446
3.2598
3.25082
3.24617
3.23607
3.23154
3.21962
3.21523
3.20197
3.19717
3.18312
3.17702
3.1622
3.15529
3.1427
3.13003
3.11951
3.10382
3.09395
3.0762
3.06699
3.04631
3.03766
3.01467
3.00597
2.98093
2.9718
2.94549
2.93419
2.90677
2.8938
2.86456
2.8513
2.8243
2.80005
2.77775
2.74672
2.72645
2.68837
2.66934
2.62517
2.60584
2.55747
2.53377
2.4816
2.4536
2.3964
2.36405
2.30077
2.2656
2.20297
2.14739
2.09207
2.02204
1.97166
1.88699
1.84178
1.74583
1.70522
1.60488
1.56114
1.46163
1.4182
1.32175
1.28152
1.18738
1.14993
1.06833
1.02012
0.958164
0.903611
0.859202
0.801815
0.772897
0.718998
0.697788
0.652213
0.635283
0.598807
0.585677
0.557324
0.547491
0.526185
0.519164
0.505472
0.497657
0.490313
0.484443
0.481379
0.477135
0.47643
0.474558
0.474967
0.474855
0.477715
0.478597
0.48366
0.485736
0.492843
0.495994
0.505113
0.509619
0.520855
0.527678
0.539898
0.549643
0.562893
0.575358
0.589283
0.604076
0.61801
0.634345
0.647281
0.663451
0.673304
0.685432
0.690946
0.695107
0.696301
5.01106
4.98154
4.97728
4.9625
4.95583
4.94964
4.9445
4.94134
4.93747
4.93506
4.93117
4.92779
4.92197
4.91621
4.90692
4.89737
4.88349
4.86894
4.85062
4.8303
4.80762
4.78149
4.75414
4.72292
4.69087
4.65522
4.61887
4.57938
4.53957
4.49701
4.45463
4.4098
4.3656
4.3192
4.27381
4.22667
4.18041
4.13381
4.08748
4.04215
3.99654
3.95276
3.90881
3.86709
3.82545
3.78643
3.74749
3.71167
3.67594
3.64363
3.61157
3.58287
3.55474
3.52971
3.50619
3.48462
3.46574
3.44789
3.43317
3.41925
3.40847
3.39829
3.39098
3.38349
3.37868
3.37316
3.37017
3.36625
3.36433
3.36159
3.3603
3.35873
3.3575
3.35676
3.35571
3.35533
3.35437
3.35414
3.35317
3.35308
3.35186
3.35188
3.3504
3.35042
3.34864
3.34838
3.34625
3.34584
3.34415
3.34244
3.34147
3.33889
3.33827
3.33525
3.33482
3.3312
3.33095
3.32689
3.32668
3.32224
3.32205
3.31737
3.31667
3.31164
3.31075
3.3052
3.30455
3.29967
3.29498
3.2924
3.28516
3.28369
3.27407
3.27244
3.26096
3.25878
3.24568
3.24176
3.2266
3.22159
3.20362
3.19723
3.17632
3.16957
3.14992
3.13125
3.11577
3.08916
3.07504
3.03957
3.02575
2.98195
2.96622
2.91596
2.89276
2.83616
2.80457
2.73948
2.70066
2.62172
2.57786
2.49955
2.42619
2.35519
2.26144
2.1938
2.08231
2.01836
1.89504
1.83582
1.7068
1.65168
1.52537
1.47303
1.3531
1.30341
1.1922
1.14665
1.05434
1.00134
0.934773
0.87941
0.835061
0.781773
0.756288
0.710706
0.693918
0.659574
0.6482
0.624869
0.617929
0.603785
0.600404
0.593628
0.592984
0.590552
0.591557
0.593679
0.596567
0.603315
0.60839
0.619803
0.626964
0.64256
0.652362
0.670955
0.683043
0.702696
0.714737
0.730478
0.737911
0.743219
0.744768
4.82199
4.84413
4.85031
4.84685
4.84724
4.84639
4.84802
4.84793
4.84933
4.8492
4.84908
4.84713
4.84401
4.83842
4.83105
4.8208
4.80801
4.79191
4.77279
4.75264
4.72811
4.70245
4.67331
4.64274
4.60968
4.5751
4.53843
4.50058
4.46086
4.42074
4.37884
4.33704
4.29381
4.25094
4.2069
4.16338
4.11893
4.07489
4.03207
3.98837
3.94626
3.90392
3.86292
3.8222
3.78286
3.74408
3.70698
3.67054
3.63592
3.60216
3.57029
3.53956
3.51069
3.48286
3.45704
3.43366
3.41113
3.39145
3.37284
3.35695
3.34223
3.33026
3.31911
3.31084
3.30276
3.29754
3.29198
3.28886
3.28542
3.28396
3.28218
3.2813
3.28182
3.28167
3.28299
3.28374
3.28596
3.28741
3.29025
3.29212
3.2956
3.29792
3.30171
3.3045
3.30826
3.31147
3.31514
3.3185
3.32229
3.32662
3.33067
3.33527
3.33993
3.34465
3.34998
3.35476
3.36082
3.36569
3.37247
3.37754
3.385
3.3905
3.39839
3.40428
3.41253
3.4186
3.42741
3.43451
3.44284
3.45135
3.45921
3.46924
3.47631
3.48752
3.49398
3.50596
3.51233
3.52444
3.53104
3.54324
3.5497
3.56183
3.56782
3.58051
3.58752
3.59619
3.60546
3.61146
3.62215
3.62534
3.63571
3.6377
3.64693
3.64812
3.65468
3.65464
3.65851
3.65667
3.65907
3.65299
3.65479
3.65013
3.63955
3.63701
3.61802
3.6139
3.58387
3.5758
3.53289
3.5178
3.45835
3.43183
3.35347
3.30937
3.21111
3.15275
3.03319
2.96093
2.83948
2.71846
2.60678
2.45458
2.34488
2.17695
2.07451
1.89946
1.81398
1.63616
1.55838
1.39275
1.32226
1.18173
1.12328
1.01524
0.971597
0.898371
0.869675
0.820262
0.793228
0.76608
0.74347
0.733262
0.719313
0.715968
0.713442
0.719526
0.726549
0.74158
0.755356
0.773383
0.785515
0.792182
0.794347
4.3669
4.47354
4.50028
4.50731
4.52734
4.53416
4.551
4.55797
4.57101
4.57675
4.58642
4.58998
4.5943
4.59288
4.59205
4.5849
4.57772
4.56321
4.54646
4.53038
4.50627
4.48444
4.45521
4.42786
4.39514
4.36346
4.32746
4.29261
4.25361
4.21702
4.17592
4.13798
4.09577
4.05706
4.01431
3.97494
3.93224
3.89098
3.85239
3.81025
3.77274
3.73198
3.69527
3.65589
3.62037
3.5823
3.54883
3.51234
3.48077
3.44624
3.4164
3.3845
3.35646
3.32661
3.29929
3.27518
3.2492
3.22833
3.20572
3.18789
3.16873
3.15425
3.13835
3.12785
3.11512
3.10805
3.09832
3.09369
3.0869
3.08425
3.07948
3.07688
3.07687
3.07536
3.07638
3.076
3.07833
3.07886
3.08274
3.08372
3.08923