/*--------------------------------*- C++ -*----------------------------------*\
| =========                 |                                                 |
| \\      /  F ield         | OpenFOAM: The Open Source CFD Toolbox           |
|  \\    /   O peration     | Version:  4.1                                   |
|   \\  /    A nd           | Web:      www.OpenFOAM.org                      |
|    \\/     M anipulation  |                                                 |
\*---------------------------------------------------------------------------*/
FoamFile
{
    version     2.0;
    format      ascii;
    class       volScalarField;
    location    "15.5";
    object      p;
}
// * * * * * * * * * * * * * * * * * * * * * * * * * * * * * * * * * * * * * //

dimensions      [0 2 -2 0 0 0 0];

internalField   nonuniform List<scalar> 
204246
(
14.9678
-3.70735
-3.94911
-3.0535
-3.34066
-3.26687
-3.43011
-3.4964
-3.59094
-3.66942
-3.77677
-3.82987
-3.86255
-3.75948
-3.64619
-3.42445
-4.4689
-4.82531
-4.42568
-4.77968
-4.63337
-4.64141
-4.63096
-4.68776
-4.73551
-4.85159
-4.93814
-5.04146
-5.03042
-5.03869
-4.96438
-4.9813
-4.98738
-5.08261
-5.06875
-5.9519
-6.32476
-5.91475
-6.37955
-6.32508
-6.36481
-6.4056
-6.52045
-6.61261
-6.74482
-6.79774
-6.90998
-6.94295
-7.02028
-6.98726
-6.95586
-6.87198
-7.81035
-8.20309
-7.77926
-8.25539
-8.18732
-8.21376
-8.23683
-8.33366
-8.40481
-8.51894
-8.55231
-8.64761
-8.66078
-8.71776
-8.65743
-8.59322
-8.46497
-9.38685
-9.85832
-9.54584
-9.84912
-9.76472
-9.77834
-9.75647
-9.75766
-9.66225
-10.2379
-10.1319
-10.1678
-10.1544
-10.2062
-10.1406
-10.0713
-9.92975
-10.8885
-11.3725
-11.0546
-11.37
-11.2541
-11.2024
-11.0873
-11.7139
-11.6818
-11.7779
-11.77
-11.7393
-11.462
-12.1171
-12.0547
-12.0368
-11.9573
-11.9238
-11.8586
-12.9387
-13.3172
-13.1013
-13.2946
-13.0339
-13.649
-13.596
-13.7147
-13.7667
-13.8153
-13.651
-14.1955
-13.8543
-14.4239
-14.2871
-14.2188
-14.0661
-15.2213
-15.7011
-15.4766
-15.8569
-15.5098
-16.1809
-16.2387
-16.3012
-16.1489
-16.8022
-16.5515
-17.1961
-16.9113
-17.5387
-17.1533
-17.636
-17.345
-18.6103
-19.2048
-19.0917
-19.5871
-19.2835
-19.9405
-19.6783
-20.3994
-20.0993
-20.7875
-20.4933
-21.2282
-21.2898
-21.393
-21.2955
-21.1578
-20.8142
-22.0361
-22.3219
-21.7045
-21.8398
-21.2037
-20.6498
-19.9024
-19.1057
-18.0031
-16.7423
-15.0747
-13.1683
-10.8
-8.17016
-5.12269
-1.88301
2.73251
7.37357
12.7644
18.6393
25.4604
33.3788
41.9724
51.774
62.7628
75.4062
89.7619
106.304
124.999
146.112
169.523
195.8
225.891
265.377
325.364
420.991
549.603
7.16566
3.53517
0.310972
-1.57863
-2.55482
-3.00586
-3.25345
-3.40062
-3.53715
-3.64979
-3.75794
-3.82715
-3.84589
-3.78906
-3.73848
-3.78052
-4.04532
-4.29374
-4.41615
-4.51557
-4.55641
-4.57679
-4.59746
-4.63487
-4.69533
-4.78085
-4.87606
-4.96051
-5.0026
-5.00692
-4.98959
-4.9992
-5.03819
-5.10737
-5.23406
-5.50041
-5.75357
-5.91075
-6.06034
-6.1709
-6.25819
-6.34219
-6.43608
-6.54016
-6.65079
-6.7565
-6.85351
-6.9245
-6.9656
-6.97293
-7.00475
-7.12565
-7.39457
-7.6468
-7.80034
-7.94549
-8.049
-8.12501
-8.19521
-8.27182
-8.35716
-8.447
-8.53202
-8.60925
-8.65974
-8.67784
-8.65609
-8.65683
-8.75622
-9.01969
-9.29196
-9.46427
-9.5927
-9.66367
-9.69695
-9.71405
-9.74408
-9.82079
-9.96515
-10.0708
-10.1358
-10.172
-10.1727
-10.1431
-10.1427
-10.2491
-10.5223
-10.7995
-10.9646
-11.0746
-11.1262
-11.1661
-11.2514
-11.4137
-11.5556
-11.6469
-11.694
-11.7115
-11.7553
-11.8953
-11.9853
-11.9955
-11.9826
-12.0106
-12.1579
-12.4731
-12.7617
-12.9276
-13.0574
-13.1777
-13.344
-13.4866
-13.5938
-13.6829
-13.7476
-13.8337
-13.974
-14.0774
-14.1986
-14.2358
-14.2667
-14.4219
-14.7689
-15.117
-15.3464
-15.5344
-15.6884
-15.8902
-16.0737
-16.1925
-16.3317
-16.5197
-16.7116
-16.9282
-17.1301
-17.3109
-17.4254
-17.5356
-17.7581
-18.1853
-18.6357
-18.9819
-19.2811
-19.5234
-19.7415
-19.9957
-20.2198
-20.4801
-20.6849
-20.968
-21.2269
-21.5569
-21.7112
-21.8952
-21.8191
-22.0142
-22.2176
-22.4234
-22.4975
-22.4595
-22.3739
-21.9588
-21.6344
-20.9843
-20.2921
-19.2905
-18.0657
-16.5239
-14.6971
-12.5719
-10.0614
-7.17057
-3.67193
0.286824
4.88087
9.99986
15.9836
22.8158
30.3906
38.9161
48.3477
59.0205
70.9981
84.7333
100.275
117.893
137.202
157.972
179.826
204.855
240.76
306.206
402.979
-0.966374
0.0920549
-0.398197
-1.20728
-2.02744
-2.61164
-3.01773
-3.27578
-3.46177
-3.60361
-3.72262
-3.8074
-3.84497
-3.84871
-3.86291
-3.93843
-4.04659
-4.17212
-4.30012
-4.40213
-4.47269
-4.51962
-4.55721
-4.59575
-4.65079
-4.72323
-4.81108
-4.89129
-4.95474
-4.98627
-5.01326
-5.04155
-5.09857
-5.18157
-5.31709
-5.4679
-5.62682
-5.79235
-5.9367
-6.06005
-6.16902
-6.27043
-6.37015
-6.47501
-6.58397
-6.69901
-6.80241
-6.89408
-6.95347
-7.0117
-7.0881
-7.22126
-7.36984
-7.52476
-7.68749
-7.82719
-7.94326
-8.0414
-8.13
-8.21442
-8.30259
-8.39241
-8.48848
-8.5718
-8.64427
-8.67831
-8.70706
-8.75476
-8.86916
-9.00714
-9.15796
-9.31623
-9.45031
-9.55355
-9.61766
-9.66821
-9.72052
-9.80305
-9.89158
-9.9945
-10.0832
-10.1544
-10.1784
-10.1985
-10.2425
-10.3644
-10.5085
-10.6611
-10.8142
-10.9323
-11.026
-11.1084
-11.2122
-11.3187
-11.4382
-11.5336
-11.6116
-11.6659
-11.7678
-11.8517
-11.9429
-11.9849
-12.0294
-12.1087
-12.2612
-12.4232
-12.5869
-12.7516
-12.9074
-13.0629
-13.1994
-13.3407
-13.4573
-13.577
-13.6537
-13.7689
-13.8847
-14.0179
-14.1249
-14.2132
-14.3078
-14.4844
-14.6781
-14.8878
-15.107
-15.3139
-15.512
-15.6903
-15.8639
-16.0138
-16.1746
-16.3316
-16.5107
-16.7079
-16.9135
-17.0954
-17.2638
-17.4395
-17.6768
-17.9723
-18.2905
-18.5944
-18.8805
-19.112
-19.359
-19.59
-19.8365
-20.0622
-20.3037
-20.5316
-20.7889
-20.9923
-21.1942
-21.2859
-21.4206
-21.5504
-21.7777
-21.9014
-21.8921
-21.8036
-21.574
-21.2569
-20.7978
-20.217
-19.4444
-18.4481
-17.1935
-15.6238
-13.807
-11.6211
-9.1332
-6.18798
-2.87664
0.969179
5.3607
10.4472
16.2628
22.7992
30.2238
38.5459
47.8813
58.275
69.962
83.1327
98.1435
115.084
133.89
153.926
174.876
197.326
226.01
269.169
326.375
-4.0473
-1.87914
-1.55238
-1.73752
-2.11039
-2.518
-2.88449
-3.16805
-3.37938
-3.54274
-3.66739
-3.76144
-3.81838
-3.86149
-3.90455
-3.97915
-4.04509
-4.13016
-4.22489
-4.31975
-4.40151
-4.45384
-4.5065
-4.54887
-4.60431
-4.66434
-4.73868
-4.80975
-4.87975
-4.92605
-4.97589
-5.02039
-5.08948
-5.17099
-5.28918
-5.41256
-5.54774
-5.69094
-5.83324
-5.96625
-6.078
-6.19201
-6.29499
-6.40535
-6.50935
-6.62547
-6.72516
-6.82646
-6.90077
-6.98879
-7.08272
-7.20632
-7.32852
-7.46125
-7.6007
-7.73583
-7.86384
-7.96265
-8.06502
-8.15186
-8.24788
-8.33345
-8.4308
-8.50145
-8.60149
-8.63453
-8.70522
-8.77045
-8.87446
-8.98055
-9.102
-9.22983
-9.35091
-9.46333
-9.53973
-9.61986
-9.6752
-9.76744
-9.83072
-9.93705
-10.0034
-10.1036
-10.1311
-10.1996
-10.2528
-10.3749
-10.4774
-10.6058
-10.7355
-10.8437
-10.9623
-11.0407
-11.1617
-11.245
-11.3721
-11.4412
-11.5525
-11.6024
-11.7234
-11.7878
-11.9036
-11.9488
-12.0338
-12.1181
-12.2737
-12.3877
-12.5392
-12.6855
-12.819
-12.9871
-13.1013
-13.2619
-13.3608
-13.5142
-13.586
-13.729
-13.8239
-13.9692
-14.0656
-14.1941
-14.3017
-14.4994
-14.644
-14.8297
-15.0263
-15.2007
-15.4252
-15.5909
-15.7994
-15.94
-16.1421
-16.282
-16.494
-16.6547
-16.8828
-17.0422
-17.2568
-17.427
-17.7144
-17.9429
-18.2202
-18.5158
-18.789
-19.1075
-19.3369
-19.6369
-19.8538
-20.1513
-20.3646
-20.6982
-20.9176
-21.2388
-21.4173
-21.6723
-21.8215
-22.0942
-22.2424
-22.4305
-22.5808
-22.6318
-22.6108
-22.4716
-22.2723
-21.9505
-21.5232
-20.953
-20.1405
-19.0933
-17.6671
-15.9144
-13.7604
-11.2342
-8.27254
-4.87278
-0.947768
3.54261
8.74081
14.6579
21.3427
28.8881
37.3218
46.7585
57.2673
69.0237
82.1149
96.6485
112.598
129.999
149.041
170.845
198.132
232.893
271.296
-5.0451
-2.94057
-2.46086
-2.36235
-2.46507
-2.68543
-2.92343
-3.16179
-3.35379
-3.521
-3.64344
-3.74685
-3.81266
-3.87894
-3.92711
-4.00905
-4.04514
-4.12009
-4.19174
-4.26997
-4.36111
-4.39889
-4.47449
-4.51567
-4.57468
-4.62683
-4.69632
-4.75485
-4.84027
-4.88091
-4.95787
-4.99917
-5.08799
-5.15352
-5.27566
-5.37181
-5.49303
-5.62257
-5.75436
-5.89448
-6.005
-6.12785
-6.2329
-6.34974
-6.44913
-6.58404
-6.66801
-6.79352
-6.85947
-6.97424
-7.06623
-7.19141
-7.29189
-7.42013
-7.54773
-7.66619
-7.81168
-7.90157
-8.0211
-8.10161
-8.21204
-8.28731
-8.40088
-8.4622
-8.57303
-8.61079
-8.70413
-8.76596
-8.87561
-8.95501
-9.07268
-9.1894
-9.28236
-9.40482
-9.4772
-9.58013
-9.63906
-9.73803
-9.79941
-9.90839
-9.96667
-10.0728
-10.1065
-10.1943
-10.2472
-10.3614
-10.449
-10.5672
-10.6854
-10.7795
-10.9061
-10.985
-11.1094
-11.1911
-11.3224
-11.3867
-11.51
-11.563
-11.6873
-11.7458
-11.8667
-11.9209
-12.0241
-12.1005
-12.2406
-12.3478
-12.4921
-12.6273
-12.7502
-12.9092
-13.027
-13.1889
-13.2831
-13.4433
-13.5217
-13.6729
-13.7692
-13.9152
-14.0149
-14.1547
-14.2634
-14.4426
-14.5862
-14.7644
-14.9379
-15.1107
-15.3204
-15.4758
-15.6873
-15.835
-16.042
-16.1894
-16.4038
-16.5639
-16.7903
-16.9507
-17.1655
-17.3537
-17.6182
-17.8346
-18.1021
-18.3655
-18.6373
-18.9243
-19.1669
-19.4421
-19.6895
-19.9515
-20.2062
-20.4719
-20.7329
-20.9713
-21.2002
-21.3812
-21.5831
-21.7647
-21.9781
-22.1524
-22.2467
-22.2715
-22.1996
-22.0242
-21.7202
-21.2601
-20.6785
-19.9321
-19.0945
-18.0525
-16.8306
-15.315
-13.5014
-11.3117
-8.73105
-5.69342
-2.17213
1.90281
6.59247
11.9142
17.9858
24.8835
32.6976
41.4927
51.3132
62.1462
73.9331
86.5593
99.9988
114.353
130.23
148.987
172.358
200.381
228.349
-5.44542
-3.47803
-3.0547
-2.88252
-2.85009
-2.94443
-3.0677
-3.23987
-3.38586
-3.53813
-3.64866
-3.7562
-3.82318
-3.90254
-3.94091
-4.03074
-4.04965
-4.12133
-4.18316
-4.23795
-4.3286
-4.35878
-4.44441
-4.48003
-4.54913
-4.59026
-4.66308
-4.71152
-4.80193
-4.84188
-4.93232
-4.97386
-5.07145
-5.13242
-5.25482
-5.33668
-5.45442
-5.57433
-5.68501
-5.83588
-5.93872
-6.07288
-6.17192
-6.29938
-6.39464
-6.53435
-6.61943
-6.7535
-6.82478
-6.9508
-7.04077
-7.17016
-7.26258
-7.38639
-7.51158
-7.61222
-7.75734
-7.85148
-7.97509
-8.05876
-8.17339
-8.25033
-8.36824
-8.43229
-8.54317
-8.59146
-8.69281
-8.75375
-8.86242
-8.93807
-9.0451
-9.15251
-9.23945
-9.35651
-9.4301
-9.53653
-9.60209
-9.70142
-9.76761
-9.87728
-9.93383
-10.0425
-10.0853
-10.1816
-10.2374
-10.3465
-10.4281
-10.5391
-10.6438
-10.7344
-10.8548
-10.9378
-11.0563
-11.1425
-11.2688
-11.3374
-11.4613
-11.5246
-11.6477
-11.71
-11.8302
-11.8982
-12.0015
-12.0908
-12.2085
-12.3211
-12.4538
-12.5775
-12.7015
-12.8341
-12.9637
-13.1145
-13.2153
-13.371
-13.4614
-13.6028
-13.7205
-13.8533
-13.9701
-14.1019
-14.2261
-14.3789
-14.529
-14.698
-14.861
-15.0308
-15.2162
-15.3741
-15.5765
-15.7316
-15.9331
-16.0895
-16.2985
-16.464
-16.6837
-16.851
-17.0751
-17.2604
-17.5174
-17.7234
-17.9826
-18.2411
-18.5049
-18.7998
-19.0478
-19.3482
-19.5929
-19.8982
-20.146
-20.4672
-20.7227
-21.0518
-21.2838
-21.6222
-21.8479
-22.181
-22.3286
-22.5687
-22.891
-23.0274
-23.1949
-23.2432
-23.2785
-23.3068
-23.1628
-22.8611
-22.2934
-21.4979
-20.425
-19.0829
-17.4265
-15.4475
-13.0969
-10.3549
-7.16793
-3.50507
0.725753
5.54124
11.0274
17.2979
24.4361
32.5325
41.5978
51.6118
62.4547
74.0003
86.1952
99.1032
113.207
129.694
149.361
172.064
193.597
-5.54926
-3.79801
-3.43862
-3.26593
-3.18323
-3.20223
-3.25333
-3.36695
-3.46483
-3.59248
-3.68242
-3.78695
-3.84831
-3.93242
-3.96795
-4.04938
-4.06773
-4.13544
-4.19141
-4.22848
-4.31295
-4.33774
-4.42271
-4.45581
-4.52942
-4.56486
-4.64034
-4.68266
-4.77219
-4.81352
-4.90655
-4.95057
-5.05152
-5.11138
-5.23024
-5.30566
-5.42255
-5.53994
-5.6334
-5.7826
-5.88435
-6.02246
-6.12209
-6.25336
-6.35113
-6.48908
-6.58003
-6.71544
-6.79415
-6.92346
-7.0142
-7.14335
-7.2383
-7.35899
-7.48098
-7.57674
-7.71515
-7.8095
-7.93394
-8.02045
-8.13665
-8.21761
-8.3375
-8.40506
-8.51804
-8.57293
-8.67635
-8.74013
-8.84768
-8.92425
-9.02566
-9.12074
-9.21256
-9.3193
-9.39628
-9.49659
-9.5751
-9.6657
-9.74378
-9.84556
-9.90698
-10.014
-10.0672
-10.1585
-10.2311
-10.3271
-10.4151
-10.5167
-10.6137
-10.709
-10.8124
-10.9052
-11.0113
-11.1076
-11.2257
-11.2994
-11.4234
-11.4934
-11.6175
-11.6855
-11.797
-11.8831
-11.9843
-12.0767
-12.1897
-12.297
-12.4227
-12.5443
-12.6628
-12.7881
-12.9119
-13.0639
-13.1671
-13.3204
-13.418
-13.5706
-13.6741
-13.8104
-13.9279
-14.0655
-14.1883
-14.3521
-14.4762
-14.6366
-14.7957
-14.9604
-15.1458
-15.298
-15.4907
-15.6485
-15.8422
-16.0042
-16.2016
-16.3733
-16.5729
-16.754
-16.9588
-17.1588
-17.382
-17.6031
-17.8471
-18.0905
-18.3428
-18.6027
-18.8564
-19.12
-19.3821
-19.6455
-19.9169
-20.1834
-20.4608
-20.7215
-20.9904
-21.2263
-21.4736
-21.6754
-21.9383
-22.1726
-22.348
-22.4684
-22.5068
-22.459
-22.3107
-22.0708
-21.8089
-21.4664
-21.1019
-20.5956
-19.9247
-19.0078
-17.8149
-16.2933
-14.4167
-12.1456
-9.45496
-6.30857
-2.65363
1.51762
6.30019
11.7832
18.0535
25.1808
33.1795
42.0274
51.6479
61.9535
72.8912
84.5385
97.2799
111.9
128.728
147.504
164.737
-5.52673
-3.96542
-3.67662
-3.52794
-3.43755
-3.42218
-3.43568
-3.50604
-3.56844
-3.66951
-3.73876
-3.83245
-3.88673
-3.96939
-4.0066
-4.08075
-4.10126
-4.16029
-4.21069
-4.23985
-4.3156
-4.33686
-4.41682
-4.44765
-4.52023
-4.55339
-4.62753
-4.66574
-4.75366
-4.79426
-4.88779
-4.9335
-5.03468
-5.09473
-5.20995
-5.28356
-5.39585
-5.50868
-5.59921
-5.74046
-5.84156
-5.97829
-6.0786
-6.21081
-6.31058
-6.44971
-6.54192
-6.67917
-6.76383
-6.89571
-6.98688
-7.11692
-7.21343
-7.33445
-7.45179
-7.54782
-7.68287
-7.77578
-7.89949
-7.98755
-8.10392
-8.18794
-8.3078
-8.37925
-8.49343
-8.55448
-8.65276
-8.73023
-8.82659
-8.91192
-9.0076
-9.0981
-9.18874
-9.28492
-9.36984
-9.46425
-9.5462
-9.63692
-9.7176
-9.81069
-9.88485
-9.97693
-10.0467
-10.1346
-10.2113
-10.305
-10.3932
-10.49
-10.5832
-10.6768
-10.775
-10.8663
-10.9689
-11.0652
-11.1792
-11.2547
-11.3744
-11.4494
-11.5684
-11.6409
-11.7559
-11.8374
-11.942
-12.0387
-12.1517
-12.2502
-12.3734
-12.4891
-12.606
-12.731
-12.8432
-12.9883
-13.0936
-13.2393
-13.3427
-13.4856
-13.5962
-13.736
-13.8532
-13.9949
-14.1162
-14.2669
-14.395
-14.5541
-14.7098
-14.8688
-15.0457
-15.2007
-15.3875
-15.5468
-15.7418
-15.9038
-16.1056
-16.2761
-16.487
-16.6627
-16.8848
-17.0786
-17.3131
-17.512
-17.7444
-17.9961
-18.2544
-18.53
-18.7895
-19.0751
-19.3423
-19.6391
-19.9162
-20.2256
-20.5137
-20.8349
-21.1329
-21.4631
-21.7614
-22.0845
-22.3526
-22.6559
-22.9736
-23.2768
-23.5699
-23.8166
-24.025
-24.1601
-24.1606
-24.0295
-23.7143
-23.2418
-22.5799
-21.727
-20.6367
-19.2858
-17.6208
-15.6137
-13.2198
-10.414
-7.13516
-3.37355
0.950328
5.90699
11.5462
17.9097
25.0069
32.8332
41.3422
50.487
60.2612
70.7613
82.2984
95.3288
109.978
125.906
140.161
-5.41851
-4.01752
-3.79699
-3.68501
-3.60849
-3.58813
-3.58737
-3.63098
-3.67414
-3.75211
-3.80607
-3.88645
-3.93342
-4.01289
-4.04888
-4.12309
-4.14288
-4.19634
-4.24364
-4.27084
-4.33609
-4.35683
-4.42877
-4.45857
-4.52802
-4.56074
-4.63185
-4.66785
-4.75256
-4.79051
-4.88408
-4.92832
-5.02956
-5.08607
-5.20067
-5.2694
-5.3797
-5.49064
-5.57531
-5.7128
-5.8107
-5.94525
-6.04624
-6.17807
-6.2776
-6.41706
-6.50947
-6.64868
-6.73605
-6.87087
-6.96257
-7.0934
-7.18905
-7.31101
-7.4268
-7.52244
-7.6563
-7.74785
-7.87088
-7.95942
-8.07535
-8.16137
-8.28074
-8.35511
-8.46897
-8.53422
-8.63486
-8.71235
-8.80783
-8.8935
-8.98653
-9.07622
-9.16411
-9.25723
-9.34212
-9.43529
-9.51678
-9.60709
-9.68892
-9.78656
-9.85293
-9.95322
-10.0158
-10.1148
-10.1827
-10.2835
-10.363
-10.4577
-10.5486
-10.64
-10.7435
-10.8253
-10.9336
-11.0204
-11.1354
-11.2139
-11.3287
-11.4079
-11.5222
-11.6
-11.7133
-11.7961
-11.9056
-11.9959
-12.1111
-12.2038
-12.3229
-12.4391
-12.5489
-12.6754
-12.7857
-12.9213
-13.0302
-13.1681
-13.2769
-13.4143
-13.5289
-13.6623
-13.7824
-13.9197
-14.0442
-14.1839
-14.3124
-14.4671
-14.6203
-14.7741
-14.9386
-15.0894
-15.2616
-15.4181
-15.5896
-15.7622
-15.9457
-16.1242
-16.3127
-16.4975
-16.6956
-16.8925
-17.1004
-17.3188
-17.5508
-17.7824
-18.0245
-18.2685
-18.5228
-18.7778
-19.0441
-19.3105
-19.5879
-19.8637
-20.1498
-20.4303
-20.7212
-21.0033
-21.3011
-21.5932
-21.9066
-22.1863
-22.4143
-22.6165
-22.7786
-22.9421
-23.0566
-23.1297
-23.1841
-23.1807
-23.1839
-23.0891
-22.8695
-22.4614
-21.8369
-20.9514
-19.7698
-18.2517
-16.361
-14.0613
-11.2932
-8.04124
-4.24889
0.13398
5.1349
10.776
17.0538
23.9598
31.4703
39.5765
48.2979
57.7534
68.1791
79.8433
92.7801
106.597
118.742
-5.22426
-3.98065
-3.82319
-3.75321
-3.70112
-3.69278
-3.69211
-3.72655
-3.76117
-3.82299
-3.87044
-3.93788
-3.98285
-4.05489
-4.08843
-4.16447
-4.18188
-4.23637
-4.28128
-4.31075
-4.36932
-4.39106
-4.45484
-4.48749
-4.55006
-4.58675
-4.65162
-4.69072
-4.76818
-4.80768
-4.89604
-4.94037
-5.03935
-5.09473
-5.20558
-5.27377
-5.38044
-5.48406
-5.56852
-5.70172
-5.79635
-5.92781
-6.02598
-6.15717
-6.25471
-6.39358
-6.48539
-6.62586
-6.71552
-6.85221
-6.94714
-7.07664
-7.16974
-7.29027
-7.40469
-7.50336
-7.63514
-7.72678
-7.84609
-7.93653
-8.04941
-8.137
-8.25652
-8.33107
-8.44506
-8.51173
-8.61782
-8.68971
-8.78811
-8.86637
-8.9588
-9.05233
-9.13336
-9.23248
-9.31021
-9.40645
-9.48256
-9.57584
-9.65285
-9.75299
-9.81858
-9.91821
-9.9815
-10.0795
-10.1484
-10.2469
-10.3223
-10.4165
-10.5094
-10.5946
-10.6983
-10.7804
-10.8846
-10.9706
-11.0804
-11.1634
-11.2739
-11.3568
-11.467
-11.5494
-11.6602
-11.746
-11.8563
-11.9466
-12.0595
-12.15
-12.267
-12.3809
-12.4902
-12.6172
-12.7249
-12.8576
-12.9647
-13.1003
-13.2085
-13.349
-13.4628
-13.6001
-13.7177
-13.86
-13.9824
-14.1277
-14.2474
-14.397
-14.5494
-14.7014
-14.8648
-15.019
-15.2064
-15.3567
-15.5561
-15.7099
-15.9012
-16.0686
-16.2662
-16.4476
-16.6569
-16.8519
-17.0674
-17.264
-17.4858
-17.7256
-17.9736
-18.2338
-18.4915
-18.7675
-19.036
-19.327
-19.61
-19.9168
-20.2145
-20.5361
-20.8474
-21.1832
-21.5067
-21.8521
-22.1774
-22.5297
-22.8955
-23.256
-23.6141
-23.9432
-24.2392
-24.4629
-24.6065
-24.6606
-24.609
-24.4669
-24.2263
-23.8812
-23.4031
-22.7507
-21.8804
-20.744
-19.2898
-17.4615
-15.1949
-12.4662
-9.22661
-5.43708
-1.08215
3.84969
9.34865
15.4052
22.0081
29.1709
36.9372
45.4308
54.8348
65.3169
76.8756
89.0819
99.6851
-4.95585
-3.876
-3.77709
-3.74985
-3.72635
-3.73761
-3.74578
-3.78289
-3.81569
-3.87198
-3.91667
-3.97838
-4.02273
-4.08635
-4.12256
-4.18797
-4.21657
-4.27093
-4.31385
-4.34703
-4.39876
-4.42584
-4.48379
-4.51966
-4.57734
-4.61712
-4.67765
-4.72035
-4.79211
-4.83623
-4.91755
-4.96757
-5.05756
-5.11701
-5.21906
-5.2924
-5.39048
-5.48699
-5.57432
-5.70046
-5.79488
-5.92062
-6.01897
-6.14584
-6.24441
-6.37852
-6.4726
-6.60905
-6.70148
-6.83802
-6.93726
-7.06292
-7.15641
-7.27189
-7.38544
-7.49003
-7.61661
-7.71249
-7.82372
-7.92049
-8.02716
-8.11774
-8.23187
-8.31016
-8.42033
-8.4916
-8.59535
-8.67276
-8.76304
-8.84231
-8.9308
-9.01926
-9.10777
-9.19887
-9.28079
-9.37061
-9.45083
-9.53926
-9.6163
-9.71372
-9.78235
-9.87871
-9.94564
-10.0412
-10.1134
-10.207
-10.2798
-10.3707
-10.4623
-10.5504
-10.6509
-10.7339
-10.8345
-10.9199
-11.0263
-11.11
-11.2184
-11.3027
-11.4109
-11.4928
-11.6014
-11.6913
-11.7985
-11.8915
-11.9991
-12.0888
-12.2021
-12.3128
-12.4257
-12.546
-12.6518
-12.7791
-12.8863
-13.0154
-13.1241
-13.2563
-13.3738
-13.5047
-13.625
-13.7599
-13.884
-14.0189
-14.1403
-14.2864
-14.4364
-14.5922
-14.7448
-14.8894
-15.0427
-15.1955
-15.3569
-15.5247
-15.7019
-15.885
-16.0683
-16.2558
-16.4462
-16.642
-16.8415
-17.0505
-17.2697
-17.4925
-17.7245
-17.9603
-18.2075
-18.4585
-18.7216
-18.9885
-19.2676
-19.5502
-19.8448
-20.1418
-20.4505
-20.7613
-21.086
-21.4157
-21.7619
-22.1078
-22.4419
-22.772
-23.0881
-23.4026
-23.7065
-24.0397
-24.3678
-24.671
-24.926
-25.0855
-25.1302
-25.045
-24.8174
-24.4351
-23.8681
-23.0791
-22.0184
-20.6306
-18.8471
-16.6358
-13.9484
-10.7532
-7.03999
-2.80376
1.94468
7.19798
12.9535
19.2357
26.1094
33.7023
42.1669
51.6204
62.0431
72.9892
82.4264
-4.63345
-3.72035
-3.67557
-3.68987
-3.69625
-3.73007
-3.75261
-3.799
-3.83565
-3.89314
-3.93784
-3.99876
-4.04284
-4.10411
-4.14191
-4.20299
-4.23673
-4.29128
-4.33519
-4.37146
-4.42069
-4.45124
-4.5069
-4.54458
-4.6004
-4.64214
-4.70047
-4.74549
-4.81254
-4.86071
-4.93647
-4.99071
-5.07419
-5.13671
-5.23107
-5.3067
-5.4001
-5.4915
-5.58232
-5.69579
-5.79339
-5.91036
-6.01202
-6.13144
-6.23414
-6.36066
-6.45833
-6.58925
-6.68447
-6.81646
-6.92184
-7.04014
-7.14086
-7.25154
-7.36425
-7.47377
-7.59271
-7.69309
-7.80306
-7.90148
-8.008
-8.10255
-8.20772
-8.29637
-8.39673
-8.47949
-8.575
-8.65777
-8.74718
-8.82502
-8.91076
-8.99727
-9.0857
-9.17448
-9.25753
-9.34526
-9.42518
-9.51189
-9.59127
-9.67915
-9.75615
-9.84304
-9.91855
-10.0054
-10.0834
-10.1688
-10.2461
-10.3316
-10.4199
-10.5108
-10.6041
-10.6938
-10.7893
-10.8791
-10.9785
-11.0678
-11.1694
-11.2597
-11.3613
-11.4462
-11.5581
-11.6476
-11.7508
-11.8483
-11.9525
-12.0424
-12.1507
-12.2613
-12.3735
-12.4889
-12.5984
-12.7325
-12.8358
-12.9727
-13.0749
-13.2093
-13.3227
-13.4532
-13.5737
-13.7095
-13.8351
-13.9706
-14.0903
-14.2323
-14.3784
-14.528
-14.6841
-14.8368
-15.0088
-15.1583
-15.3449
-15.4924
-15.6775
-15.8403
-16.0225
-16.2035
-16.4006
-16.5917
-16.7975
-16.9912
-17.2045
-17.4316
-17.6674
-17.9141
-18.1621
-18.4253
-18.6867
-18.9667
-19.2455
-19.544
-19.8413
-20.1581
-20.4736
-20.8093
-21.1451
-21.5016
-21.8571
-22.2349
-22.6207
-23.0044
-23.3853
-23.7536
-24.1121
-24.4486
-24.7769
-25.089
-25.3855
-25.6515
-25.8647
-25.994
-26.0167
-25.9114
-25.6528
-25.2065
-24.5274
-23.5622
-22.2462
-20.5397
-18.396
-15.7851
-12.6998
-9.13849
-5.11306
-0.628177
4.31817
9.75883
15.7699
22.4948
30.0791
38.6194
48.0833
58.0208
66.5613
-4.27861
-3.52456
-3.52991
-3.58418
-3.62107
-3.67855
-3.71865
-3.77809
-3.8232
-3.88601
-3.93405
-3.99703
-4.04294
-4.10463
-4.14436
-4.20487
-4.24133
-4.29641
-4.34204
-4.38077
-4.43111
-4.46521
-4.51986
-4.55786
-4.61399
-4.6565
-4.71499
-4.76117
-4.82605
-4.87619
-4.94814
-5.00451
-5.0834
-5.1477
-5.23607
-5.31133
-5.40304
-5.49165
-5.58211
-5.6867
-5.78408
-5.89574
-5.99664
-6.11178
-6.21494
-6.33605
-6.43718
-6.55971
-6.6599
-6.78345
-6.89141
-7.00965
-7.11142
-7.2225
-7.33335
-7.44394
-7.56085
-7.66206
-7.77319
-7.87204
-7.97986
-8.07547
-8.18124
-8.2706
-8.37261
-8.45651
-8.55391
-8.63709
-8.72906
-8.80692
-8.89282
-8.97868
-9.06584
-9.15512
-9.23775
-9.32592
-9.40494
-9.4919
-9.57091
-9.65868
-9.73466
-9.82131
-9.89594
-9.98177
-10.0584
-10.1424
-10.2185
-10.3025
-10.3873
-10.4758
-10.5654
-10.6553
-10.7485
-10.8369
-10.9314
-11.0206
-11.1173
-11.2071
-11.3025
-11.3922
-11.4923
-11.5873
-11.6886
-11.7863
-11.8865
-11.9816
-12.0855
-12.1915
-12.3027
-12.4145
-12.5271
-12.642
-12.7537
-12.8714
-12.9864
-13.1091
-13.2276
-13.352
-13.4761
-13.6056
-13.733
-13.8598
-13.9792
-14.1177
-14.2571
-14.4042
-14.5525
-14.7034
-14.8524
-15.0005
-15.1618
-15.3183
-15.493
-15.666
-15.8431
-16.024
-16.2094
-16.3985
-16.5908
-16.7899
-17.0002
-17.2156
-17.4403
-17.6704
-17.9101
-18.1567
-18.4132
-18.678
-18.9535
-19.2385
-19.5348
-19.8406
-20.1576
-20.4845
-20.8237
-21.1758
-21.5454
-21.934
-22.3339
-22.7495
-23.1759
-23.611
-24.047
-24.4807
-24.906
-25.3229
-25.7265
-26.1094
-26.4616
-26.7668
-27.006
-27.1556
-27.1908
-27.0776
-26.7732
-26.224
-25.3683
-24.1588
-22.5494
-20.5095
-18.0326
-15.1199
-11.7862
-8.03818
-3.87282
0.746879
5.90688
11.7661
18.4924
26.1879
34.8146
43.929
51.7842
-3.90258
-3.29651
-3.35015
-3.4415
-3.50887
-3.59032
-3.65044
-3.72469
-3.78173
-3.85246
-3.90687
-3.97396
-4.02381
-4.08767
-4.13083
-4.19225
-4.23126
-4.2874
-4.33497
-4.37623
-4.42887
-4.46551
-4.52088
-4.5603
-4.61682
-4.66042
-4.71949
-4.7667
-4.83119
-4.88175
-4.95229
-5.00834
-5.08532
-5.1488
-5.23401
-5.30714
-5.3972
-5.48478
-5.57299
-5.67386
-5.76804
-5.87616
-5.97538
-6.08715
-6.18951
-6.30585
-6.40878
-6.52702
-6.62817
-6.74735
-6.85364
-6.97149
-7.07414
-7.18621
-7.29577
-7.40488
-7.52083
-7.62285
-7.73479
-7.83415
-7.94307
-8.03905
-8.14641
-8.23526
-8.33957
-8.42319
-8.52296
-8.60698
-8.70146
-8.78067
-8.86797
-8.95432
-9.04092
-9.13157
-9.21375
-9.30342
-9.38265
-9.471
-9.54989
-9.63951
-9.71482
-9.80363
-9.87725
-9.96498
-10.0411
-10.1269
-10.2018
-10.2858
-10.3705
-10.4569
-10.5472
-10.6345
-10.7288
-10.8157
-10.9126
-10.999
-11.0978
-11.1847
-11.283
-11.3696
-11.4684
-11.5594
-11.6609
-11.7562
-11.8576
-11.9501
-12.0517
-12.1552
-12.2623
-12.3733
-12.4873
-12.6055
-12.7143
-12.8342
-12.9437
-13.065
-13.1793
-13.3042
-13.4255
-13.5564
-13.6813
-13.8124
-13.9342
-14.0667
-14.2044
-14.3469
-14.4961
-14.6474
-14.8066
-14.9572
-15.1206
-15.2727
-15.4401
-15.6022
-15.7786
-15.9536
-16.1411
-16.3258
-16.5222
-16.7085
-16.911
-17.1248
-17.3474
-17.5803
-17.8164
-18.0652
-18.3153
-18.581
-18.8496
-19.1356
-19.4259
-19.7344
-20.0478
-20.379
-20.7149
-21.0678
-21.427
-21.8091
-22.2087
-22.6263
-23.0623
-23.5144
-23.9815
-24.4594
-24.9481
-25.441
-25.9362
-26.4262
-26.9053
-27.363
-27.787
-28.1598
-28.4603
-28.6581
-28.7124
-28.57
-28.1701
-27.4554
-26.3758
-24.8962
-23.0083
-20.7148
-18.0357
-14.9883
-11.5757
-7.76508
-3.46316
1.51183
7.36419
14.2311
22.0844
30.5084
37.8687
-3.51029
-3.04888
-3.14685
-3.26981
-3.36741
-3.47219
-3.55395
-3.64419
-3.71546
-3.79607
-3.8592
-3.93194
-3.98733
-4.0547
-4.10225
-4.16592
-4.20797
-4.26579
-4.31585
-4.35959
-4.41459
-4.45407
-4.51066
-4.55213
-4.60941
-4.65455
-4.71428
-4.76276
-4.82742
-4.87854
-4.94829
-5.00399
-5.07943
-5.14186
-5.22463
-5.296
-5.38382
-5.47053
-5.55662
-5.65542
-5.74702
-5.85241
-5.94963
-6.05923
-6.15995
-6.27362
-6.37552
-6.49134
-6.59272
-6.70903
-6.81343
-6.92957
-7.03309
-7.14609
-7.25517
-7.36235
-7.47649
-7.57984
-7.69188
-7.79234
-7.90173
-7.9985
-8.10651
-8.19628
-8.30106
-8.3853
-8.48581
-8.57076
-8.66667
-8.74737
-8.8366
-8.92374
-9.00979
-9.10121
-9.1832
-9.27403
-9.35345
-9.44293
-9.52104
-9.61256
-9.68609
-9.77736
-9.84884
-9.93846
-10.0141
-10.1013
-10.1762
-10.2607
-10.3455
-10.4309
-10.5222
-10.6069
-10.7014
-10.7872
-10.885
-10.9699
-11.0697
-11.1555
-11.2558
-11.3413
-11.4408
-11.53
-11.6303
-11.7242
-11.826
-11.9174
-12.0185
-12.1192
-12.2233
-12.3315
-12.4419
-12.5577
-12.6645
-12.7819
-12.8896
-13.0074
-13.1183
-13.238
-13.355
-13.4792
-13.5999
-13.7257
-13.8476
-13.9767
-14.1064
-14.2427
-14.3833
-14.5301
-14.6796
-14.828
-14.984
-15.1376
-15.2994
-15.4599
-15.6298
-15.8025
-15.984
-16.1664
-16.3548
-16.5421
-16.7417
-16.9478
-17.1644
-17.3893
-17.622
-17.863
-18.1095
-18.3681
-18.6337
-18.9134
-19.202
-19.5069
-19.8218
-20.1542
-20.4967
-20.8564
-21.2258
-21.6182
-22.0274
-22.4562
-22.9052
-23.3752
-23.8666
-24.377
-24.9098
-25.4591
-26.0255
-26.6025
-27.1882
-27.7745
-28.355
-28.9188
-29.451
-29.927
-30.3121
-30.556
-30.6004
-30.377
-29.8266
-28.903
-27.5907
-25.8907
-23.8274
-21.4332
-18.7305
-15.7042
-12.2702
-8.2258
-3.30526
2.69701
9.78137
17.5813
24.573
-3.09719
-2.78903
-2.92835
-3.07612
-3.20363
-3.33093
-3.43508
-3.54208
-3.62909
-3.72105
-3.79473
-3.87449
-3.93671
-4.00819
-4.06077
-4.12801
-4.17361
-4.23342
-4.28645
-4.33313
-4.39035
-4.43301
-4.49104
-4.53501
-4.59322
-4.64025
-4.70071
-4.75079
-4.81579
-4.86798
-4.93717
-4.99286
-5.06665
-5.12819
-5.20864
-5.27872
-5.36429
-5.44989
-5.53427
-5.63133
-5.72124
-5.8244
-5.92004
-6.02774
-6.12718
-6.23907
-6.33975
-6.45374
-6.55443
-6.66874
-6.77152
-6.88581
-6.98929
-7.10234
-7.21174
-7.31782
-7.43121
-7.53463
-7.64633
-7.74748
-7.85698
-7.95527
-8.06268
-8.1554
-8.2591
-8.34604
-8.44523
-8.53111
-8.6269
-8.70993
-8.80127
-8.88902
-8.97502
-9.06617
-9.14917
-9.24063
-9.32081
-9.41116
-9.48962
-9.58171
-9.65578
-9.74717
-9.8183
-9.9082
-9.98321
-10.0713
-10.1462
-10.2316
-10.3165
-10.4001
-10.4928
-10.5752
-10.6704
-10.7535
-10.8541
-10.9339
-11.0391
-11.1196
-11.2262
-11.3061
-11.4118
-11.4984
-11.5983
-11.6907
-11.7941
-11.885
-11.9875
-12.0892
-12.1925
-12.3024
-12.4087
-12.527
-12.6321
-12.7529
-12.8592
-12.981
-13.0912
-13.2131
-13.3278
-13.4534
-13.5718
-13.6995
-13.8175
-13.9472
-14.0777
-14.2107
-14.3503
-14.4913
-14.6418
-14.7831
-14.9389
-15.0842
-15.2441
-15.3973
-15.5633
-15.7276
-15.9042
-16.0786
-16.2632
-16.4407
-16.6337
-16.8332
-17.0412
-17.2581
-17.4832
-17.7176
-17.9545
-18.2062
-18.4614
-18.7338
-19.0122
-19.3096
-19.6158
-19.9426
-20.2792
-20.6363
-21.0036
-21.3971
-21.81
-22.2448
-22.7033
-23.1862
-23.6952
-24.2275
-24.7916
-25.3805
-25.9991
-26.6409
-27.3089
-27.9983
-28.7084
-29.4323
-30.1619
-30.8769
-31.5529
-32.1469
-32.609
-32.8622
-32.8381
-32.4728
-31.7358
-30.6192
-29.1438
-27.3493
-25.2878
-22.9816
-20.3902
-17.3254
-13.4505
-8.42775
-2.20464
4.95017
11.5887
-2.68357
-2.51629
-2.69461
-2.86639
-3.02372
-3.17339
-3.3002
-3.42432
-3.52791
-3.63208
-3.71767
-3.80568
-3.87599
-3.95211
-4.00962
-4.07763
-4.12979
-4.19269
-4.24917
-4.29939
-4.35879
-4.40491
-4.46429
-4.51115
-4.57025
-4.61938
-4.68056
-4.73246
-4.79788
-4.85168
-4.92047
-4.97655
-5.0485
-5.10908
-5.18699
-5.25595
-5.33931
-5.42365
-5.50679
-5.60211
-5.69085
-5.792
-5.88651
-5.99239
-6.09095
-6.20131
-6.30141
-6.41386
-6.51396
-6.62622
-6.72765
-6.83988
-6.94283
-7.05514
-7.16477
-7.2706
-7.38372
-7.4873
-7.59867
-7.70033
-7.80971
-7.90898
-8.01665
-8.11135
-8.21532
-8.30405
-8.40266
-8.48861
-8.58395
-8.66838
-8.76109
-8.84997
-8.93638
-9.0277
-9.11165
-9.20293
-9.28487
-9.37509
-9.45575
-9.54631
-9.62348
-9.71316
-9.78688
-9.87438
-9.94979
-10.0363
-10.1129
-10.1988
-10.2832
-10.3668
-10.4574
-10.5407
-10.6346
-10.7187
-10.8174
-10.8994
-11.0014
-11.0846
-11.1884
-11.2713
-11.3749
-11.4615
-11.5615
-11.6509
-11.754
-11.8436
-11.948
-12.0497
-12.1503
-12.2614
-12.3621
-12.4814
-12.5812
-12.7051
-12.8058
-12.9332
-13.0402
-13.1649
-13.2743
-13.4026
-13.5183
-13.6474
-13.7604
-13.894
-14.0257
-14.1578
-14.2982
-14.4353
-14.5865
-14.7251
-14.8821
-15.0244
-15.1852
-15.3356
-15.5004
-15.6602
-15.834
-16.0035
-16.1865
-16.3582
-16.5484
-16.7425
-16.9426
-17.1526
-17.3684
-17.5974
-17.8253
-18.0708
-18.3171
-18.5815
-18.8491
-19.1368
-19.4308
-19.7477
-20.0734
-20.4225
-20.7815
-21.1695
-21.5773
-22.0093
-22.468
-22.9553
-23.4743
-24.0193
-24.605
-25.2197
-25.8764
-26.5632
-27.2927
-28.0577
-28.8687
-29.7162
-30.6003
-31.505
-32.4163
-33.3049
-34.1354
-34.8302
-35.3217
-35.5252
-35.3845
-34.8662
-33.9728
-32.7343
-31.2259
-29.53
-27.6835
-25.5894
-22.9077
-19.1161
-13.9985
-7.66641
-1.45228
-2.28426
-2.23809
-2.45098
-2.64515
-2.83432
-3.0069
-3.15645
-3.2977
-3.41794
-3.53475
-3.63289
-3.73009
-3.80949
-3.89073
-3.95433
-4.02544
-4.08128
-4.14699
-4.20701