/*--------------------------------*- C++ -*----------------------------------*\
| =========                 |                                                 |
| \\      /  F ield         | OpenFOAM: The Open Source CFD Toolbox           |
|  \\    /   O peration     | Version:  4.1                                   |
|   \\  /    A nd           | Web:      www.OpenFOAM.org                      |
|    \\/     M anipulation  |                                                 |
\*---------------------------------------------------------------------------*/
FoamFile
{
    version     2.0;
    format      ascii;
    class       volScalarField;
    location    "5.5";
    object      epsilon;
}
// * * * * * * * * * * * * * * * * * * * * * * * * * * * * * * * * * * * * * //

dimensions      [0 2 -3 0 0 0 0];

internalField   nonuniform List<scalar> 
204246
(
0.662809
0.767591
0.768004
0.768633
0.767796
0.76751
0.766353
0.765624
0.76425
0.762472
0.761095
0.759838
0.758863
0.759635
0.759727
0.760665
0.761599
0.760231
0.762994
0.764523
0.765628
0.76556
0.765302
0.764821
0.764164
0.763182
0.761597
0.759958
0.759483
0.759107
0.759722
0.759927
0.760917
0.761643
0.762525
0.764061
0.762955
0.7658
0.76543
0.765049
0.764453
0.763919
0.76335
0.763555
0.763108
0.764308
0.764633
0.765744
0.766448
0.767379
0.768365
0.769561
0.771483
0.770743
0.775922
0.778092
0.780036
0.783526
0.785935
0.790167
0.79313
0.797901
0.802969
0.809975
0.816234
0.826064
0.835856
0.8536
0.877204
0.918615
0.987943
1.125
1.36115
1.78182
2.41305
2.98831
3.16324
3.21828
3.22408
3.23277
3.21774
3.2087
3.17642
3.16714
3.15379
3.15169
3.14308
3.13744
3.14519
3.15347
3.16069
3.18554
3.20062
3.24661
3.27345
3.33929
3.37521
3.45831
3.50313
3.59901
3.64915
3.75655
3.81336
3.92482
3.98516
4.09656
4.1488
4.27107
4.32663
4.42882
4.49573
4.58592
4.66497
4.73576
4.82899
4.88868
4.98211
5.04348
5.13546
5.19762
5.28777
5.34974
5.43627
5.48182
5.58967
5.62387
5.72131
5.75247
5.84369
5.87209
5.95897
5.98689
6.0719
6.1017
6.18624
6.2189
6.30442
6.34112
6.43038
6.47169
6.5436
6.62324
6.67803
6.75966
6.81371
6.90141
6.95428
7.04859
7.09923
7.19883
7.24763
7.35284
7.40042
7.51003
7.55612
7.67047
7.71557
7.81039
7.89899
7.97342
8.06349
8.1365
8.2307
8.30116
8.40009
8.46708
8.57231
8.63468
8.74702
8.80551
8.92686
8.98044
9.11308
9.163
9.3113
9.35458
9.49341
9.60243
9.70298
9.84102
9.93705
10.1062
10.2072
10.4117
10.5297
10.7752
10.925
11.2174
11.414
11.7281
11.9298
12.1097
12.1325
0.0372384
0.106946
0.102439
0.0993727
0.100798
0.0977372
0.0989287
0.0964266
0.0973868
0.0949358
0.0961259
0.0946385
0.0963319
0.0946833
0.0972367
0.0956397
0.0990984
0.0980872
0.0984973
0.10106
0.0988898
0.100779
0.0982242
0.0996403
0.0975059
0.0985971
0.0962156
0.0972849
0.0947458
0.0969196
0.094993
0.0974805
0.0957244
0.098533
0.096974
0.100283
0.0998071
0.0995722
0.101358
0.0988845
0.100347
0.0985125
0.0998733
0.0983214
0.0999636
0.0981854
0.100673
0.0988996
0.101637
0.0999792
0.103023
0.102273
0.106387
0.10619
0.107286
0.111558
0.110432
0.115122
0.114734
0.120052
0.11989
0.126382
0.126266
0.13767
0.140432
0.164004
0.175659
0.221527
0.268018
0.384674
0.561364
0.906382
1.44662
2.00427
2.16129
2.13219
1.76575
1.13971
0.832903
0.709456
0.663729
0.579292
0.546389
0.509298
0.507284
0.485729
0.487594
0.477966
0.474779
0.488072
0.488277
0.511164
0.52056
0.553925
0.56843
0.609782
0.627457
0.677678
0.699396
0.756039
0.782079
0.845606
0.876767
0.945198
0.980266
1.05046
1.08717
1.15384
1.19481
1.25698
1.29982
1.34795
1.39503
1.42895
1.48089
1.50249
1.55715
1.57236
1.62835
1.64185
1.69929
1.7127
1.77356
1.78917
1.83249
1.87497
1.89063
1.94176
1.95063
2.00114
2.00829
2.05795
2.0644
2.11554
2.12248
2.17777
2.18656
2.24842
2.26067
2.33371
2.352
2.40134
2.46283
2.47894
2.55763
2.57596
2.65874
2.67873
2.76558
2.78714
2.87799
2.90106
2.99525
3.01933
3.1167
3.14191
3.24884
3.27927
3.34967
3.43872
3.46554
3.57172
3.59848
3.70624
3.7335
3.84101
3.86803
3.97423
4.00006
4.1043
4.12942
4.23099
4.25489
4.35656
4.38528
4.48204
4.51082
4.55715
4.63481
4.64497
4.72159
4.72344
4.78567
4.77998
4.82748
4.81561
4.8625
4.85374
5.00453
5.13564
5.63099
5.93047
6.08373
0.0049135
0.0092527
0.00799621
0.00733221
0.00740771
0.00687675
0.00696968
0.00656614
0.00664809
0.00643792
0.00663416
0.00651761
0.00677062
0.00664106
0.00701553
0.00689913
0.00736077
0.00723646
0.00727005
0.00741772
0.00710034
0.00726428
0.00689356
0.00700178
0.00664117
0.00671975
0.00650327
0.00669527
0.00652873
0.0068408
0.00668187
0.0070494
0.00691286
0.00731848
0.00717557
0.00746223
0.00730771
0.00718362
0.00723238
0.00690469
0.0070813
0.00691478
0.00713015
0.00700393
0.0072614
0.0071069
0.00744881
0.00728251
0.00768287
0.00753682
0.00798072
0.00793317
0.00848143
0.00846477
0.00876935
0.00934355
0.00926041
0.0100429
0.0100955
0.0113157
0.0116441
0.0138003
0.0148769
0.0192661
0.0229123
0.0330682
0.0461626
0.0753503
0.124012
0.222538
0.402605
0.735774
1.27535
1.64124
1.68239
1.42915
0.84225
0.438844
0.319904
0.278962
0.265556
0.251891
0.240853
0.227216
0.223196
0.217686
0.217079
0.216161
0.216469
0.22356
0.230977
0.248728
0.261326
0.284904
0.301055
0.334211
0.355441
0.397994
0.422932
0.474855
0.504938
0.566816
0.603918
0.674969
0.71832
0.796035
0.842545
0.920408
0.973891
1.04403
1.09808
1.15575
1.20678
1.25061
1.29639
1.3268
1.36736
1.38968
1.42919
1.4487
1.4892
1.50895
1.55076
1.57159
1.61122
1.63676
1.66941
1.69652
1.72106
1.74459
1.76154
1.78075
1.79146
1.8059
1.81068
1.8207
1.82299
1.83409
1.83815
1.85691
1.86493
1.88299
1.90046
1.90959
1.92963
1.93511
1.95395
1.958
1.97535
1.97801
1.99345
1.99434
2.00695
2.00584
2.01442
2.011
2.01624
2.00966
2.00403
2.00492
1.98722
1.98753
1.9626
1.96064
1.92904
1.92465
1.88767
1.88177
1.84117
1.83429
1.79031
1.78296
1.7354
1.72733
1.68011
1.67239
1.62081
1.59785
1.58082
1.53977
1.53489
1.48992
1.48616
1.4439
1.44213
1.40659
1.40863
1.39048
1.40148
1.39036
1.39902
1.27993
1.23398
0.00141869
0.00183542
0.00172827
0.00167671
0.00167532
0.00163374
0.0016375
0.00161162
0.001616
0.00160511
0.00161585
0.00161071
0.00162568
0.0016203
0.00164352
0.00163918
0.00166778
0.00166033
0.0016617
0.00166732
0.0016472
0.00165511
0.00163163
0.00163667
0.00161519
0.00161912
0.00160818
0.00161855
0.00161145
0.00162883
0.0016224
0.00164559
0.00164048
0.00166785
0.00165999
0.00167489
0.00166341
0.00165365
0.00165455
0.00163251
0.0016418
0.00163291
0.00164553
0.00163957
0.00165638
0.00164881
0.00167238
0.00166452
0.00169466
0.00168784
0.00172323
0.00172262
0.00176668
0.00176819
0.00179697
0.0018469
0.00184804
0.00195582
0.00199172
0.00218659
0.00232852
0.00277345
0.00330346
0.00462068
0.006735
0.0114552
0.0203197
0.0390834
0.076067
0.150502
0.292815
0.550355
0.958802
1.21145
1.23944
1.05494
0.583775
0.246462
0.149853
0.113628
0.0990331
0.088289
0.0767716
0.061135
0.0554597
0.0518821
0.0504443
0.0484317
0.0478566
0.0484619
0.0490676
0.0522659
0.0554994
0.06166
0.0665661
0.0753786
0.0827879
0.096308
0.108019
0.12767
0.145271
0.173902
0.200869
0.240808
0.278527
0.331249
0.380001
0.443378
0.507654
0.57673
0.651765
0.721211
0.799762
0.862371
0.93666
0.9874
1.05151
1.0898
1.14315
1.17142
1.21736
1.23988
1.28263
1.30214
1.34101
1.36473
1.39538
1.42053
1.44028
1.46064
1.46802
1.47834
1.47882
1.48048
1.47427
1.46784
1.44588
1.42903
1.39739
1.38076
1.34971
1.33548
1.32045
1.30528
1.29867
1.27552
1.26839
1.24053
1.23165
1.20037
1.19015
1.15601
1.14451
1.10731
1.0944
1.0548
1.04103
0.997103
0.976033
0.943779
0.911283
0.88749
0.846216
0.830267
0.785869
0.770267
0.727089
0.712288
0.672288
0.658639
0.622495
0.610431
0.578232
0.567852
0.539466
0.530664
0.505599
0.494425
0.478831
0.46515
0.455822
0.439734
0.434808
0.418687
0.414719
0.404186
0.403624
0.402869
0.416928
0.430214
0.454593
0.462672
0.468755
0.00151936
0.00151413
0.00150911
0.00150614
0.00150549
0.0015038
0.00150368
0.00150275
0.00150275
0.00150225
0.00150239
0.00150227
0.00150255
0.00150244
0.00150294
0.0015029
0.00150393
0.00150382
0.00150384
0.00150402
0.00150342
0.00150362
0.00150293
0.00150301
0.00150234
0.00150233
0.0015018
0.0015019
0.00150167
0.00150201
0.00150186
0.00150234
0.00150225
0.00150318
0.00150309
0.00150369
0.00150338
0.00150309
0.00150308
0.00150252
0.00150278
0.00150258
0.0015029
0.00150277
0.00150324
0.00150308
0.00150384
0.00150373
0.00150506
0.00150505
0.00150691
0.00150716
0.00150935
0.00150972
0.00151162
0.00151506
0.00151784
0.00152763
0.00153865
0.00156953
0.00162112
0.00174349
0.00198647
0.00254036
0.00370899
0.00631307
0.0118816
0.0239725
0.0493287
0.101633
0.204497
0.393052
0.700301
0.922785
0.957789
0.860699
0.549752
0.206006
0.0875889
0.0500955
0.0372836
0.0315064
0.0287875
0.0255434
0.0231418
0.0201839
0.0188523
0.0176835
0.0173026
0.017314
0.017423
0.0184188
0.0199075
0.0223406
0.0244842
0.027811
0.031023
0.0365804
0.0419226
0.0501695
0.0579765
0.0699951
0.0822005
0.100403
0.118944
0.144905
0.170648
0.204817
0.242485
0.284008
0.332716
0.380644
0.43895
0.489401
0.552399
0.600442
0.660474
0.700704
0.752295
0.782908
0.825976
0.848051
0.884742
0.900593
0.930881
0.948557
0.968567
0.986342
0.993935
1.00297
1.00282
1.00443
0.997971
0.992553
0.970954
0.954119
0.918598
0.894746
0.850696
0.824804
0.777815
0.751963
0.720281
0.695625
0.677624
0.650537
0.638568
0.608967
0.597752
0.568399
0.557433
0.529181
0.518735
0.492002
0.48222
0.457302
0.448351
0.424677
0.413741
0.397641
0.384282
0.373626
0.358569
0.352884
0.338641
0.334044
0.322483
0.318994
0.30972
0.307117
0.300054
0.298321
0.293318
0.292433
0.28928
0.289187
0.28763
0.287378
0.288613
0.288583
0.291259
0.291697
0.294504
0.29494
0.297074
0.297246
0.300519
0.301713
0.309412
0.314451
0.324177
0.328057
0.330844
0.00150534
0.0015054
0.00150246
0.00150164
0.00150126
0.00150101
0.00150096
0.00150096
0.00150096
0.00150095
0.00150094
0.00150085
0.00150085
0.00150082
0.00150076
0.00150078
0.00150079
0.00150079
0.00150079
0.00150073
0.00150073
0.00150073
0.00150063
0.00150063
0.00150063
0.00150056
0.00150056
0.00150056
0.0015005
0.00150053
0.00150053
0.00150048
0.00150048
0.00150047
0.0015004
0.0015004
0.00150034
0.00150026
0.00150025
0.00150017
0.00150016
0.00150013
0.00150007
0.00150007
0.00150006
0.00150004
0.00150007
0.00150005
0.00150003
0.00150007
0.00150037
0.0015009
0.00150159
0.00150214
0.00150254
0.00150307
0.00150411
0.00150661
0.0015115
0.0015225
0.00154616
0.0016003
0.00172277
0.00200886
0.00266313
0.00417492
0.00757692
0.0152088
0.0317945
0.0670162
0.138341
0.273068
0.504641
0.731536
0.783074
0.743605
0.551011
0.245512
0.0882701
0.0381495
0.0210006
0.0150895
0.0127742
0.0115432
0.0108956
0.00997361
0.0090838
0.00843104
0.00827283
0.00830053
0.00858021
0.00939115
0.0105025
0.0116162
0.012479
0.0131926
0.0139805
0.0150761
0.0167589
0.01919
0.0220824
0.0259424
0.0306542
0.0373223
0.0454738
0.0562757
0.0688764
0.084923
0.104184
0.126631
0.153416
0.181968
0.216073
0.249212
0.288925
0.324051
0.365405
0.398544
0.436172
0.462639
0.493476
0.511396
0.534863
0.544598
0.560027
0.568863
0.576147
0.582847
0.583361
0.585278
0.582143
0.580858
0.569724
0.561862
0.54149
0.529074
0.502579
0.487852
0.457443
0.442547
0.412577
0.398415
0.377326
0.36369
0.351081
0.336991
0.330222
0.315925
0.310525
0.297621
0.292831
0.281262
0.277021
0.266817
0.263128
0.25427
0.251143
0.243277
0.239734
0.234952
0.230983
0.228085
0.22393
0.22243
0.218891
0.21785
0.215384
0.214786
0.213271
0.213105
0.2126
0.212885
0.212952
0.214373
0.214791
0.217151
0.218067
0.221072
0.223082
0.226497
0.22958
0.233468
0.23761
0.242018
0.247247
0.25215
0.258397
0.2637
0.270716
0.276105
0.281747
0.284213
0.28562
0.00150744
0.00150569
0.00150343
0.00150252
0.00150175
0.00150132
0.00150111
0.00150093
0.00150087
0.00150081
0.00150075
0.00150069
0.00150069
0.00150064
0.00150058
0.00150058
0.00150057
0.00150049
0.00150049
0.00150045
0.00150037
0.00150037
0.00150029
0.00150026
0.00150025
0.00150018
0.00150017
0.00150017
0.00150012
0.00150012
0.00150009
0.00150008
0.00150005
0.00150009
0.0015004
0.00150089
0.00150101
0.00150102
0.00150098
0.00150094
0.00150091
0.00150085
0.00150084
0.00150081
0.00150074
0.00150074
0.00150072
0.00150067
0.00150068
0.00150067
0.00150063
0.00150063
0.00150064
0.00150063
0.00150062
0.00150063
0.00150086
0.00150165
0.0015036
0.00150822
0.00151874
0.00154342
0.00160118
0.00173948
0.00206578
0.00284222
0.0046442
0.00881701
0.0182005
0.0389391
0.0828852
0.170527
0.330969
0.571348
0.677594
0.675712
0.564691
0.335512
0.11999
0.0458891
0.0204765
0.0112029
0.00784078
0.00662411
0.00619942
0.00606781
0.00606054
0.0061914
0.00671403
0.00786716
0.00988149
0.0130312
0.0160013
0.0166696
0.0168875
0.015397
0.0130539
0.0117474
0.0116818
0.0122653
0.0141656
0.0168256
0.0200355
0.0240622
0.0293712
0.0363882
0.0445822
0.0545506
0.0665293
0.0801704
0.0966955
0.114269
0.13554
0.156194
0.180463
0.202277
0.227448
0.248177
0.270956
0.287209
0.304998
0.315129
0.325832
0.329582
0.333812
0.33621
0.336176
0.336941
0.335191
0.334711
0.329012
0.325596
0.315669
0.310425
0.29777
0.291667
0.277723
0.271897
0.258599
0.253185
0.241456
0.236075
0.228197
0.223363
0.218205
0.213497
0.210805
0.205923
0.204119
0.19991
0.198432
0.194885
0.193673
0.190733
0.18977
0.187435
0.186732
0.184954
0.184206
0.183558
0.182882
0.182797
0.182523
0.182689
0.182704
0.183503
0.183718
0.185104
0.185632
0.187616
0.188479
0.191069
0.192278
0.195479
0.197034
0.200789
0.202716
0.206796
0.209439
0.21363
0.21696
0.221331
0.225367
0.229958
0.234653
0.23958
0.244917
0.250194
0.255865
0.260794
0.265072
0.267131
0.268168
0.00150522
0.00150314
0.00150178
0.00150111
0.00150049
0.00150022
0.0015001
0.00150005
0.00150002
0.00149992
0.00149993
0.00149992
0.00149983
0.00149983
0.00149982
0.00149975
0.00149976
0.00149976
0.00149975
0.00149975
0.00149969
0.0014997
0.00149969
0.00149963
0.00149965
0.00149965
0.0014996
0.00149962
0.0014996
0.00149959
0.00149974
0.00150007
0.00150018
0.00150019
0.0015002
0.00150019
0.00150014
0.00150014
0.00150014
0.00150006
0.00150004
0.00150004
0.00150002
0.00150001
0.0015
0.00149997
0.00149997
0.00149994
0.00149995
0.00150022
0.00150088
0.00150194
0.00150264
0.00150279
0.00150279
0.00150279
0.00150294
0.00150345
0.00150473
0.00150747
0.00151331
0.00152595
0.00155452
0.00162154
0.00177994
0.00216067
0.00305979
0.00518393
0.0100702
0.0211722
0.0455233
0.0963796
0.19646
0.372857
0.578301
0.631648
0.598016
0.452498
0.232628
0.082291
0.0331109
0.0168718
0.0115206
0.0101314
0.00981245
0.00990257
0.010537
0.0127252
0.0175607
0.0268033
0.0431846
0.0670802
0.0896416
0.0951258
0.0960285
0.0844331
0.0607813
0.0277452
0.0158536
0.0111522
0.0101445
0.00997463
0.0106546
0.012629
0.0157843
0.0196412
0.0243086
0.0300768
0.0375405
0.0466759
0.057997
0.070708
0.0856014
0.10133
0.119286
0.136945
0.155859
0.172761
0.189643
0.202787
0.215116
0.222453
0.226527
0.227627
0.228059
0.228413
0.227804
0.227543
0.225269
0.223847
0.2195
0.216823
0.211037
0.207947
0.201623
0.198782
0.192835
0.190363
0.185067
0.182931
0.178398
0.176322
0.173273
0.171448
0.169456
0.167752
0.16666
0.164859
0.164185
0.162595
0.16205
0.160752
0.160341
0.15939
0.159141
0.158545
0.158458
0.158197
0.158153
0.158445
0.158643
0.159408
0.159768
0.161007
0.161639
0.163374
0.164351
0.166477
0.16785
0.170453
0.172325
0.175493
0.177903
0.181678
0.184665
0.189023
0.192579
0.197386
0.201499
0.206498
0.210991
0.216043
0.220733
0.225941
0.230938
0.236261
0.241506
0.246812
0.251933
0.256551
0.260176
0.262118
0.262994
0.00150808
0.00150477
0.00150344
0.0015023
0.00150152
0.00150109
0.00150085
0.00150067
0.00150062
0.00150059
0.00150051
0.00150044
0.00150043
0.00150039
0.00150032
0.00150031
0.00150024
0.00150019
0.00150017
0.0015001
0.00150009
0.00150004
0.00149998
0.00149998
0.00149995
0.00149988
0.00149988
0.00149983
0.00149978
0.00149977
0.00149974
0.00149973
0.00149971
0.00149969
0.00149981
0.00150005
0.00150013
0.00150015
0.00150015
0.00150012
0.00150012
0.00150008
0.00150007
0.00150023
0.00150056
0.00150083
0.00150097
0.00150109
0.0015013
0.00150162
0.00150203
0.00150256
0.00150292
0.00150302
0.00150302
0.00150299
0.001503
0.00150318
0.00150378
0.00150511
0.00150789
0.00151374
0.0015264
0.00155527
0.00162244
0.00178434
0.00217021
0.00309934
0.00528279
0.0103834
0.0219463
0.0471801
0.0999487
0.201123
0.375815
0.551546
0.590732
0.551524
0.418349
0.223985
0.086347
0.0416465
0.0281703
0.0262484
0.0273623
0.0335373
0.0460776
0.0691838
0.106389
0.162156
0.241924
0.333634
0.393015
0.408455
0.41264
0.396022
0.341226
0.227495
0.111565
0.0462671
0.0236135
0.0142878
0.0120933
0.0116889
0.012411
0.0149759
0.0194773
0.024939
0.0312953
0.0383147
0.0471044
0.0574967
0.070056
0.0834286
0.0981666
0.112679
0.127984
0.14218
0.156206
0.167867
0.177124
0.180646
0.182074
0.182268
0.18227
0.18222
0.181453
0.180675
0.178668
0.177143
0.174079
0.172001
0.168382
0.166216
0.162685
0.160867
0.157659
0.156263
0.153691
0.152639
0.150674
0.149802
0.148663
0.147995
0.147371
0.146866
0.146619
0.146151
0.146033
0.145725
0.145699
0.145601
0.145702
0.145785
0.146228
0.146409
0.14715
0.147548
0.148504
0.149271
0.150339
0.151465
0.152648
0.154093
0.1555
0.157278
0.158969
0.161175
0.16323
0.165906
0.168406
0.17159
0.174593
0.178358
0.181948
0.18633
0.19052
0.195453
0.200145
0.205501
0.210616
0.216328
0.221699
0.227564
0.232982
0.238792
0.243966
0.249387
0.25383
0.25828
0.261071
0.263018
0.263739
0.00150579
0.00150348
0.00150193
0.00150104
0.0015004
0.00150015
0.00150004
0.0014999
0.00149991
0.00150021
0.00150071
0.00150084
0.00150089
0.00150089
0.00150089
0.00150088
0.00150082
0.00150082
0.00150075
0.0015007
0.0015007
0.00150064
0.00150059
0.00150059
0.00150055
0.00150048
0.00150048
0.00150044
0.00150038
0.00150038
0.00150036
0.00150028
0.00150028
0.00150024
0.00150018
0.00150018
0.00150014
0.00150007
0.00150008
0.00150004
0.00149997
0.00149997
0.00149995
0.00149993
0.00149993
0.0014999
0.0014999
0.00149988
0.00149987
0.00149998
0.00150034
0.00150079
0.00150115
0.00150131
0.00150142
0.00150165
0.00150191
0.00150233
0.00150288
0.00150399
0.00150594
0.00150959
0.00151632
0.00153016
0.00155984
0.00162812
0.00178765
0.00217086
0.00307794
0.00522621
0.0101894
0.0213308
0.0456466
0.0953118
0.190362
0.349205
0.518214
0.556829
0.53606
0.443321
0.290413
0.143925
0.0812138
0.0665362
0.065698
0.0754096
0.0993485
0.146492
0.221964
0.328811
0.464392
0.6073
0.699695
0.728712
0.736676
0.732432
0.708683
0.64955
0.557171
0.396658
0.20137
0.0781002
0.036409
0.0192832
0.0141477
0.0126546
0.0126808
0.013884
0.0174152
0.0232433
0.0306643
0.0392306
0.0490683
0.0599867
0.0726938
0.086329
0.101261
0.115906
0.130249
0.142651
0.152856
0.157062
0.158611
0.158942
0.158981
0.158909
0.158284
0.157474
0.155978
0.154652
0.152601
0.150934
0.148565
0.146858
0.144638
0.143331
0.14149
0.140593
0.139152
0.138535
0.137444
0.136963
0.136381
0.136037
0.135755
0.135528
0.13548
0.135415
0.135483
0.135593
0.13591
0.13607
0.136591
0.13688
0.137627
0.138193
0.139171
0.139914
0.141112
0.142195
0.14358
0.145069
0.146733
0.148636
0.150652
0.152997
0.155443
0.158237
0.161134
0.164329
0.167734
0.171431
0.175411
0.179697
0.184299
0.189212
0.194456
0.199965
0.205668
0.211707
0.217771
0.224258
0.230548
0.237264
0.243521
0.250146
0.255973
0.26196
0.266725
0.271372
0.274241
0.276262
0.276979
0.00150916
0.00150568
0.001504
0.00150249
0.00150173
0.00150119
0.00150074
0.00150052
0.00150041
0.00150034
0.00150024
0.00150011
0.00150007
0.00150007
0.00150004
0.00150002
0.0015
0.00149997
0.00150005
0.00150044
0.00150088
0.00150097
0.00150099
0.00150098
0.00150092
0.00150092
0.00150089
0.00150082
0.00150081
0.00150075
0.00150071
0.00150072
0.00150073
0.00150073
0.00150073
0.00150066
0.00150068
0.00150067
0.00150059
0.0015006
0.00150059
0.00150051
0.00150051
0.0015005
0.0015004
0.0015004
0.00150038
0.00150035
0.00150035
0.00150032
0.00150032
0.0015003
0.00150029
0.00150029
0.00150029
0.00150045
0.00150092
0.00150171
0.00150277
0.0015041
0.00150577
0.00150819
0.00151202
0.00151881
0.0015318
0.00155915
0.00161937
0.00176034
0.00209193
0.00288477
0.00474496
0.00901526
0.0186472
0.0392435
0.0815512
0.160393
0.293289
0.462959
0.528804
0.530923
0.495438
0.41256
0.301378
0.21033
0.178913
0.179562
0.199069
0.245308
0.313318
0.399248
0.501463
0.606189
0.718621
0.803735
0.833079
0.837363
0.83116
0.793459
0.724097
0.633892
0.555075
0.466082
0.358988
0.195463
0.0847521
0.0422551
0.0261265
0.0201408
0.0189647
0.0197587
0.0234774
0.03074
0.0404277
0.0514429
0.0632726
0.0756657
0.0890927
0.103109
0.117672
0.131441
0.142561
0.14679
0.148136
0.148391
0.148381
0.148202
0.147636
0.146774
0.145377
0.143947
0.142145
0.140498
0.138551
0.13694
0.13524
0.133996
0.132692
0.131815
0.130827
0.130257
0.129603
0.129307
0.12908
0.12896
0.128952
0.12899
0.129313
0.129667
0.130053
0.130481
0.131113
0.131721
0.132555
0.133382
0.134362
0.135356
0.136633
0.137949
0.139438
0.140977
0.142663
0.144471
0.14643
0.148524
0.15079
0.153297
0.156023
0.159048
0.162383
0.16605
0.16995
0.174227
0.17878
0.183704
0.188947
0.194491
0.20049
0.206699
0.213168
0.220009
0.226873
0.234197
0.241312
0.248892
0.255885
0.263285
0.269662
0.276204
0.281173
0.286105
0.288875
0.290998
0.291687
0.00150938
0.00150603
0.00150437
0.00150309
0.00150225
0.00150187
0.00150155
0.00150141
0.00150131
0.00150116
0.00150113
0.00150111
0.00150102
0.001501
0.00150097
0.00150092
0.00150089
0.00150089
0.00150087
0.00150083
0.00150083
0.00150081
0.00150079
0.00150079
0.00150074
0.00150075
0.0015009
0.00150101
0.00150106
0.00150109
0.0015011
0.0015011
0.0015011
0.00150102
0.00150103
0.00150104
0.00150097
0.00150098
0.00150097
0.00150088
0.00150088
0.00150086
0.00150077
0.00150077
0.00150072
0.00150066
0.00150066
0.00150061
0.00150057
0.00150057
0.00150054
0.00150053
0.00150054
0.00150048
0.00150048
0.00150046
0.00150045
0.00150065
0.00150124
0.00150225
0.00150362
0.0015054
0.00150788
0.00151196
0.00151899
0.00153207
0.00155746
0.00161133
0.00173049
0.00200744
0.00265176
0.00413819
0.00754149
0.0150002
0.0309639
0.0626696
0.122122
0.220061
0.362035
0.47895
0.518149
0.523963
0.514118
0.489615
0.468673
0.467218
0.479456
0.519232
0.581943
0.659768
0.754485
0.850137
0.952125
0.990049
0.995232
0.977473
0.928395
0.84908
0.757735
0.669582
0.594316
0.558015
0.550159
0.549618
0.529183
0.429249
0.231615
0.0824652
0.0397345
0.027923
0.0248559
0.0248845
0.0271522
0.0336652
0.0438896
0.0568176
0.0712884
0.0863047
0.101197
0.115145
0.128131
0.137916
0.141721
0.142915
0.143186
0.14319
0.142859
0.142048
0.140806
0.139316
0.137771
0.136194
0.13459
0.132906
0.131381
0.130051
0.129055
0.128275
0.127701
0.127181
0.126765
0.126525
0.126426
0.126383
0.126397
0.12654
0.126765
0.127042
0.127519
0.128218
0.128904
0.129753
0.13067
0.131796
0.132926
0.13427
0.135601
0.137145
0.138671
0.140494
0.142334
0.144461
0.146621
0.14915
0.151884
0.154867
0.158179
0.161651
0.165583
0.169595
0.174238
0.178878
0.184214
0.189567
0.195752
0.20184
0.208946
0.215894
0.223589
0.231396
0.239595
0.248017
0.256495
0.265286
0.273599
0.282155
0.289625
0.297134
0.302778
0.30829
0.311295
0.313616
0.31433
0.00151022
0.00150628
0.0015045
0.00150325
0.00150231
0.00150191
0.00150156
0.00150144
0.00150138
0.00150135
0.00150132
0.00150128
0.0015013
0.00150134
0.00150146
0.0015016
0.00150164
0.00150163
0.00150161
0.0015016
0.00150157
0.00150152
0.00150152
0.00150149
0.00150143
0.00150142
0.00150138
0.00150137
0.00150136
0.00150131
0.00150131
0.00150129
0.00150128
0.00150127
0.00150122
0.00150122
0.0015012
0.00150119
0.00150119
0.00150112
0.00150112
0.00150112
0.00150104
0.00150104
0.00150104
0.001501
0.001501
0.00150098
0.00150093
0.00150092
0.00150089
0.00150093
0.00150124
0.00150195
0.00150284
0.00150318
0.00150322
0.00150321
0.00150329
0.00150355
0.00150417
0.00150525
0.0015071
0.00150992
0.00151424
0.00152112
0.0015327
0.0015542
0.00159687
0.00168881
0.00189365
0.00235781
0.00342186
0.00577905
0.0109477
0.0215903
0.0427473
0.0808032
0.144943
0.239355
0.358234
0.448757
0.500097
0.523745
0.547612
0.569963
0.602862
0.641086
0.695638
0.755953
0.829984
0.906445
0.985119
1.01469
1.012
0.979025
0.904072
0.800288
0.672134
0.548773
0.429709
0.339816
0.283238
0.268528
0.266051
0.270745
0.270025
0.263217
0.229891
0.168672
0.0981728
0.0634507
0.0497321
0.045796
0.0448474
0.0472159
0.0546416
0.0679432
0.084383
0.101988
0.118517
0.133245
0.141485
0.144206
0.144922
0.145009
0.144927
0.144407
0.143379
0.141738
0.140087
0.138149
0.136559
0.134589
0.133057
0.131301
0.130232
0.129156
0.128657
0.127924
0.127579
0.127094
0.126877
0.126768
0.126731
0.126785
0.127061
0.127501
0.127995
0.128873
0.129708
0.130833
0.131897
0.133355
0.134543
0.136102
0.137451
0.139264
0.140829
0.142794
0.144787
0.147072
0.149626
0.152421
0.155635
0.158859
0.162638
0.166451
0.170894
0.175206
0.180324
0.185335
0.191321
0.197242
0.204218
0.211095
0.219263
0.227235
0.236127
0.245167
0.254707
0.264512
0.274347
0.284587
0.29431
0.304311
0.313046
0.321815
0.328357
0.334631
0.337966
0.34051
0.341257
0.0015105
0.00150584
0.00150385
0.00150252
0.00150129
0.00150079
0.00150027
0.00150007
0.00149991
0.00149988
0.00149983
0.00149982
0.0015001
0.00150065
0.00150085
0.00150086
0.00150086
0.00150081
0.00150081
0.00150079
0.00150074
0.00150073
0.0015007
0.00150077
0.00150099
0.00150111
0.00150114
0.00150115
0.00150114
0.00150107
0.00150107
0.00150107
0.00150098
0.00150097
0.00150092
0.00150086
0.00150085
0.00150082
0.0015008
0.00150078
0.00150078
0.00150076
0.00150074
0.00150089
0.00150132
0.00150157
0.0015016
0.00150161
0.00150159
0.00150154
0.00150153
0.00150152
0.00150151
0.00150149
0.00150148
0.00150163
0.00150194
0.00150202
0.00150201
0.00150204
0.00150225
0.00150284
0.00150394
0.00150585
0.00150882
0.00151351
0.00152066
0.00153218
0.00155131
0.00158649
0.00165524
0.00179856
0.0021117
0.00279225
0.00428397
0.00739417
0.0137577
0.0257193
0.0472593
0.0814467
0.133177
0.199339
0.285282
0.361623
0.431149
0.47708
0.523571
0.55917
0.603651
0.64543
0.689947
0.724021
0.728708
0.718178
0.676004
0.6195
0.531464
0.449573
0.348648
0.277407
0.197863
0.156461
0.121902
0.113315
0.1115
0.116833
0.129283
0.15317
0.181461
0.208789
0.223525
0.223229
0.205149
0.166688
0.113578
0.0814076
0.0714604
0.0700455
0.0716757
0.080332
0.0958515
0.115621
0.135043
0.147453
0.151682
0.152885
0.153122
0.152798
0.151965
0.150142
0.148539
0.146378
0.144946
0.142442
0.140438
0.137569
0.135993
0.134431
0.133791
0.132767
0.132337
0.131495
0.131065
0.130729
0.130557
0.130542
0.130571
0.13106
0.131564
0.132626
0.13354
0.134992
0.135966
0.137677
0.138798
0.140559
0.141677
0.143585
0.145012
0.147194
0.149326
0.151908
0.154701
0.157669
0.161107
0.164515
0.168604
0.172447
0.177174
0.181698
0.187411
0.192766
0.199457
0.205945
0.213946
0.221582
0.230955
0.239977
0.250264
0.260552
0.271689
0.283026
0.294645
0.306565
0.318196
0.3301
0.340722
0.351335
0.359411
0.367057
0.371011
0.37403
0.374869
0.00151056
0.00150573
0.0015035
0.00150161
0.00150039
0.0014998
0.00149917
0.00149894
0.00149872
0.00149861
0.0014985
0.00149847
0.00149844
0.00149844
0.00149842
0.0014984
0.00149848
0.00149896
0.0014999
0.00150064
0.00150081
0.00150084
0.00150083
0.00150075
0.00150075
0.00150074
0.00150065
0.00150065
0.00150058
0.00150053
0.00150052
0.00150052
0.00150051
0.00150049
0.00150048
0.00150045
0.00150047
0.00150074
0.00150122
0.00150137
0.0015014
0.00150139
0.00150137
0.00150137
0.00150137
0.00150131
0.00150127
0.00150128
0.00150127
0.00150124
0.00150124
0.0015012
0.00150121
0.00150122
0.00150123
0.00150142
0.00150179
0.00150219
0.00150246
0.00150266
0.00150302
0.00150369
0.00150476
0.00150639
0.00150883
0.00151236
0.00151753
0.00152512
0.00153642
0.00155397
0.00158281
0.00163327
0.00172981
0.00192074
0.00231944
0.00313259
0.00480141
0.00799204
0.0139462
0.0238532
0.0398983
0.0618864
0.092195
0.125191
0.163353
0.198959
0.237325
0.262471
0.286237
0.300077
0.301686
0.299207
0.283604
0.26665
0.235342
0.20753
0.165166
0.136141
0.0975723
0.0775448
0.0527512
0.0424548
0.0323038
0.0302435
0.0298526
0.0318938
0.0353959
0.0428433
0.0546596
0.0737313
0.0991085
0.125797
0.158583
0.189447
0.219701
0.227442
0.225653
0.210567
0.178569
0.146844
0.135016
0.133793
0.136112
0.146238
0.159937
0.169648
0.17263
0.173191
0.173413
0.172718
0.172115
0.169944
0.168465
0.164824
0.161954
0.157043
0.153914
0.150353
0.149011
0.146996
0.146257
0.144605
0.143616
0.142364
0.141629
0.141451
0.14127
0.141505
0.1418
0.143007
0.143687
0.145199
0.145899
0.147532
0.148183
0.149936
0.15069
0.152812
0.154113
0.156388
0.158483
0.161132
0.164101
0.166998
0.170633
0.173851
0.178187
0.181976
0.187295
0.19189
0.1983
0.203937
0.211537
0.218338
0.227316
0.23535
0.245869
0.255564
0.267254
0.2787
0.291556
0.30452
0.318277
0.33227
0.346183
0.360623
0.373644
0.386982
0.397069
0.407068
0.41193
0.415773
0.416816
0.00151547
0.00150869
0.00150621
0.00150383
0.00150263
0.00150157
0.00150094
0.00150062
0.00150031
0.00150021
0.00150013
0.00150008
0.00150006
0.00150034
0.00150081
0.00150096
0.00150097
0.00150097
0.0015009
0.0015009
0.00150088
0.00150081
0.00150081
0.00150081
0.00150072
0.00150072
0.00150071
0.00150062
0.00150062
0.0015006
0.00150052
0.00150052
0.00150045
0.0015004
0.00150038
0.0015003
0.00150028
0.00150025
0.00150018
0.00150018
0.00150017
0.00150013
0.00150013
0.00150013
0.00150011
0.00150011
0.00150034
0.00150075
0.00150089
0.00150092
0.00150092
0.00150092
0.00150091
0.00150083
0.00150083
0.00150077
0.00150072
0.00150072
0.00150071
0.00150071
0.0015007
0.00150083
0.00150125
0.00150218
0.00150369
0.00150623
0.00150985
0.00151535
0.00152308
0.00153452
0.00155106
0.00157611
0.00161541
0.00168053
0.00179674
0.00201011
0.00242225
0.00318916
0.00462249
0.00704728
0.0111233
0.0169472
0.0253709
0.0350905
0.0470447
0.0580326
0.0700148
0.0781831
0.0854612
0.0884434
0.0874863
0.0849792
0.077875
0.0706949
0.0588595
0.0504625
0.0382532
0.0316479
0.0224784
0.0187388
0.0135445
0.0114929
0.00913907
0.00859836
0.00845184
0.0088633
0.00960218
0.0112047
0.0136409
0.0171259
0.0225965
0.0299665
0.0423341
0.0618605
0.0924956
0.129642
0.183127
0.243128
0.31355
0.344181
0.348817
0.341416
0.312034
0.27435
0.248653
0.239257
0.236508
0.233562
0.232527
0.228085
0.227324
0.224646
0.224399
0.220988
0.219309
0.212969
0.208459
0.199879
0.195382
0.189305
0.187441
0.18452
0.182772
0.181208
0.179499
0.179442
0.178992
0.179658
0.179542
0.180696
0.180515
0.181224
0.180635
0.180927
0.18016
0.180447
0.17998