/*--------------------------------*- C++ -*----------------------------------*\
| =========                 |                                                 |
| \\      /  F ield         | OpenFOAM: The Open Source CFD Toolbox           |
|  \\    /   O peration     | Version:  4.1                                   |
|   \\  /    A nd           | Web:      www.OpenFOAM.org                      |
|    \\/     M anipulation  |                                                 |
\*---------------------------------------------------------------------------*/
FoamFile
{
    version     2.0;
    format      ascii;
    class       volScalarField;
    location    "5.5";
    object      k;
}
// * * * * * * * * * * * * * * * * * * * * * * * * * * * * * * * * * * * * * //

dimensions      [0 2 -2 0 0 0 0];

internalField   nonuniform List<scalar> 
204246
(
0.801667
0.88205
0.884333
0.882817
0.884142
0.882224
0.882726
0.880746
0.881076
0.878305
0.878643
0.876341
0.877292
0.875932
0.877984
0.876741
0.879459
0.878413
0.878586
0.881709
0.880535
0.882433
0.880535
0.881553
0.879631
0.880258
0.877629
0.878052
0.875769
0.877481
0.876002
0.878142
0.876936
0.87949
0.878497
0.881078
0.880509
0.880681
0.882324
0.880327
0.881256
0.879475
0.880452
0.879232
0.880581
0.879539
0.881776
0.880653
0.883192
0.882224
0.884396
0.883923
0.886822
0.886559
0.88857
0.892222
0.892015
0.896118
0.896552
0.901222
0.902071
0.907462
0.909316
0.916706
0.919454
0.929018
0.934813
0.949924
0.966609
0.999851
1.05263
1.15028
1.31469
1.57706
1.93381
2.19902
2.2772
2.2969
2.30343
2.30217
2.29986
2.28991
2.28024
2.27187
2.2695
2.26508
2.26464
2.26292
2.26244
2.27044
2.27036
2.28646
2.29033
2.3171
2.32485
2.36159
2.37335
2.4178
2.43327
2.48309
2.50135
2.5541
2.57565
2.62944
2.65198
2.70592
2.72778
2.77625
2.8045
2.84361
2.87746
2.90901
2.94863
2.97216
3.01619
3.03536
3.07955
3.09875
3.14209
3.16122
3.20352
3.22219
3.26279
3.28074
3.31706
3.3368
3.36847
3.38701
3.41596
3.43344
3.4605
3.47785
3.50398
3.52208
3.54766
3.56705
3.59283
3.61372
3.64061
3.6632
3.69028
3.71298
3.74062
3.76377
3.79103
3.81625
3.84316
3.87032
3.89636
3.92511
3.95048
3.98092
4.0058
4.03743
4.06176
4.09459
4.11869
4.15231
4.17569
4.20988
4.23344
4.26708
4.29173
4.32444
4.35039
4.38186
4.40948
4.43947
4.46931
4.49781
4.53034
4.55716
4.5931
4.61869
4.65944
4.68282
4.72886
4.75603
4.79833
4.83446
4.87516
4.92089
4.9631
5.01953
5.06706
5.13563
5.19305
5.27501
5.34684
5.43408
5.50671
5.55126
5.56889
0.149902
0.234486
0.227127
0.222977
0.224331
0.220043
0.221143
0.217512
0.218442
0.215014
0.216163
0.214271
0.216292
0.214411
0.217736
0.215972
0.220645
0.219522
0.220349
0.22385
0.221428
0.223688
0.220535
0.22208
0.219044
0.220157
0.216783
0.21792
0.214904
0.217614
0.215468
0.21868
0.216749
0.220671
0.219012
0.223498
0.223007
0.222919
0.225216
0.222342
0.224017
0.221593
0.223153
0.22146
0.223572
0.221655
0.22484
0.2229
0.226796
0.225131
0.229556
0.229002
0.23496
0.235136
0.237966
0.243811
0.243059
0.249879
0.250009
0.257688
0.258254
0.26809
0.269696
0.288726
0.295399
0.329449
0.348148
0.409417
0.469607
0.606252
0.79361
1.13126
1.59283
1.88593
1.93583
1.877
1.57863
1.12499
0.90646
0.81969
0.787316
0.735161
0.715694
0.695859
0.696313
0.687619
0.69209
0.690763
0.692669
0.715697
0.725678
0.763337
0.782938
0.832568
0.859666
0.920228
0.954913
1.02995
1.07238
1.15803
1.20914
1.30608
1.36726
1.47143
1.53945
1.64555
1.71505
1.8148
1.8812
1.97197
2.02997
2.1057
2.15464
2.21653
2.2576
2.30979
2.34708
2.39306
2.42967
2.4719
2.51105
2.54914
2.58977
2.6256
2.65915
2.69284
2.72056
2.746
2.76909
2.78612
2.80938
2.82331
2.84765
2.86315
2.89018
2.90901
2.94016
2.96464
3.00481
3.0398
3.08887
3.12056
3.17681
3.20716
3.26273
3.2984
3.35412
3.39759
3.45304
3.50229
3.5566
3.61229
3.66617
3.72808
3.78067
3.85002
3.90378
3.98017
4.0273
4.11241
4.16481
4.24371
4.30939
4.38143
4.45895
4.52464
4.61179
4.67221
4.76596
4.82385
4.92002
4.97839
5.06904
5.13078
5.2254
5.28665
5.38043
5.42564
5.53054
5.57249
5.673
5.7117
5.808
5.84353
5.93698
5.96975
6.06966
6.10723
6.28359
6.43884
6.86476
7.1361
7.25106
0.0148262
0.0319982
0.0290509
0.0275094
0.0276148
0.0262713
0.026419
0.0253756
0.02552
0.0250056
0.025459
0.0252068
0.0258606
0.0255949
0.0266189
0.0263898
0.0275362
0.027275
0.0273603
0.0276616
0.026927
0.0272803
0.0263536
0.0265563
0.0256284
0.025772
0.0252411
0.025685
0.0253458
0.0261116
0.0257889
0.0267581
0.0264879
0.0275186
0.027228
0.027902
0.0275388
0.0272334
0.0273353
0.026528
0.0269206
0.0265774
0.0270891
0.0268283
0.0274703
0.0271495
0.0280219
0.0276965
0.0287591
0.0284968
0.0296803
0.029643
0.0310861
0.0311422
0.0320967
0.0334297
0.0333392
0.0353921
0.035722
0.0390332
0.0401826
0.0458576
0.0490956
0.0600195
0.068985
0.0916205
0.117722
0.171607
0.249705
0.39408
0.623915
1.00201
1.51203
1.73398
1.74443
1.48792
0.942853
0.596151
0.489895
0.451226
0.437952
0.422647
0.407529
0.390229
0.38553
0.38118
0.381401
0.38117
0.383878
0.398329
0.413796
0.444638
0.468581
0.51008
0.542266
0.600865
0.644268
0.720795
0.774519
0.869653
0.936333
1.05143
1.13432
1.26817
1.36598
1.51401
1.62124
1.7721
1.88832
2.02814
2.14162
2.26021
2.36188
2.45578
2.54095
2.61156
2.68022
2.73378
2.7916
2.83802
2.89174
2.93697
2.98655
3.03164
3.08166
3.11594
3.16095
3.18091
3.20906
3.21938
3.23283
3.2362
3.2397
3.23812
3.23699
3.22373
3.21235
3.19943
3.19748
3.19776
3.20425
3.21282
3.22425
3.23676
3.24663
3.25411
3.26086
3.26605
3.2736
3.27538
3.28171
3.28086
3.28397
3.28028
3.28148
3.27199
3.27292
3.25355
3.24334
3.23366
3.2053
3.19885
3.15948
3.14998
3.10211
3.08928
3.03398
3.01858
2.95791
2.94045
2.87445
2.85534
2.7844
2.76407
2.69183
2.67186
2.59328
2.5565
2.52086
2.45827
2.44304
2.37202
2.35783
2.28901
2.27701
2.21613
2.20939
2.16788
2.17224
2.14573
2.15107
2.01103
1.95757
0.00800829
0.00888223
0.00852931
0.00835348
0.0083453
0.00819774
0.00820858
0.0081125
0.00812534
0.00808446
0.00812268
0.00810573
0.00816255
0.00814539
0.0082364
0.00822321
0.00832661
0.0083015
0.00830638
0.00832434
0.00825393
0.00827983
0.00819377
0.00820963
0.00812917
0.00814056
0.00809917
0.00813621
0.00811325
0.00817767
0.00815691
0.00824778
0.00823141
0.00833161
0.00830584
0.00835832
0.00831872
0.00828386
0.00828674
0.00820427
0.00823379
0.00820194
0.00824667
0.00822683
0.0082898
0.00826505
0.00835471
0.00832945
0.00844225
0.00842196
0.008553
0.00855455
0.00871602
0.00872614
0.00883248
0.0090031
0.0090165
0.00939474
0.00952477
0.0101885
0.0106537
0.012068
0.0136012
0.0173023
0.0226115
0.0339278
0.0529846
0.0906663
0.157617
0.280958
0.492398
0.8352
1.29251
1.47256
1.47771
1.25861
0.759175
0.386477
0.268462
0.218325
0.196411
0.17822
0.157389
0.131285
0.12209
0.116298
0.113984
0.110933
0.110122
0.111396
0.113086
0.119982
0.127082
0.139994
0.150912
0.169929
0.186827
0.216357
0.243305
0.286862
0.327887
0.39179
0.454552
0.544338
0.632385
0.75155
0.865862
1.0102
1.15772
1.31546
1.48323
1.64119
1.81223
1.95355
2.11067
2.22409
2.35534
2.43905
2.54283
2.60261
2.68679
2.73265
2.80637
2.84452
2.909
2.94763
2.99626
3.02977
3.0561
3.07021
3.07259
3.07462
3.06886
3.0587
3.02943
2.99627
2.94183
2.89369
2.82722
2.78164
2.71685
2.67826
2.64427
2.60934
2.59181
2.54522
2.52753
2.47309
2.45275
2.39344
2.37119
2.30809
2.28407
2.21688
2.19084
2.12039
2.09308
2.01645
1.97905
1.91829
1.86405
1.81465
1.74776
1.70997
1.63476
1.60453
1.52751
1.49854
1.42594
1.39883
1.33227
1.30775
1.24762
1.22594
1.17219
1.15323
1.10472
1.08253
1.05002
1.02346
1.00179
0.97125
0.957204
0.925777
0.915372
0.892668
0.888291
0.883174
0.896193
0.914475
0.945485
0.955318
0.962877
0.00763995
0.00767807
0.00765039
0.00763889
0.00763643
0.00762951
0.00762914
0.00762514
0.00762514
0.00762273
0.00762332
0.00762271
0.00762403
0.00762362
0.00762614
0.00762608
0.00763034
0.00762957
0.00762953
0.00763005
0.0076273
0.00762809
0.00762491
0.00762526
0.00762224
0.00762223
0.0076197
0.00762008
0.00761903
0.00762064
0.00762012
0.00762265
0.00762248
0.00762652
0.00762571
0.00762763
0.00762621
0.00762525
0.00762632
0.00762469
0.0076262
0.00762544
0.00762713
0.00762668
0.00762946
0.00762909
0.00763403
0.00763389
0.00763995
0.00763964
0.00764639
0.00764691
0.0076552
0.00765628
0.00766345
0.00767755
0.00768762
0.00772496
0.00776195
0.00786662
0.00802373
0.00838752
0.00905056
0.0105079
0.0133814
0.0195066
0.0318003
0.0569893
0.106134
0.20016
0.36971
0.651775
1.05395
1.25501
1.27611
1.14209
0.772104
0.339653
0.168885
0.110497
0.0885227
0.0780216
0.0728557
0.0663264
0.0612809
0.055169
0.0522975
0.0500047
0.049251
0.0493028
0.0496051
0.0520056
0.0555993
0.0615134
0.0669679
0.0754384
0.0839451
0.0982974
0.112552
0.134338
0.155684
0.187816
0.221051
0.269508
0.319807
0.388707
0.458624
0.549156
0.648465
0.75826
0.883832
1.00898
1.15465
1.28398
1.43571
1.55567
1.69499
1.79276
1.90761
1.97924
2.0701
2.11895
2.19317
2.22622
2.28397
2.3196
2.35569
2.38591
2.39469
2.40351
2.39922
2.39848
2.37542
2.35494
2.29991
2.25687
2.17576
2.11849
2.02208
1.96076
1.86165
1.80175
1.73045
1.67544
1.63289
1.58008
1.54955
1.48735
1.46145
1.39838
1.37289
1.31183
1.28738
1.22915
1.20598
1.151
1.1294
1.07687
1.05212
1.01347
0.984739
0.95602
0.923831
0.90507
0.872953
0.860419
0.831493
0.821231
0.796881
0.788495
0.768659
0.762105
0.74642
0.741601
0.729659
0.726416
0.717471
0.713839
0.711497
0.708245
0.708383
0.705921
0.706449
0.70392
0.70419
0.70165
0.702262
0.70209
0.711517
0.716977
0.730467
0.735295
0.739269
0.00763503
0.00762945
0.00762149
0.00761831
0.00761681
0.00761563
0.0076152
0.00761458
0.00761447
0.00761446
0.00761438
0.00761411
0.00761412
0.007614
0.00761384
0.00761385
0.00761378
0.0076136
0.00761359
0.00761345
0.00761329
0.00761345
0.00761345
0.00761334
0.00761334
0.00761334
0.00761324
0.00761336
0.00761335
0.00761322
0.00761324
0.00761323
0.00761314
0.0076133
0.0076133
0.00761316
0.0076132
0.00761318
0.00761306
0.00761307
0.00761309
0.00761298
0.00761309
0.00761308
0.00761303
0.00761311
0.00761313
0.00761305
0.00761313
0.00761309
0.0076131
0.00761303
0.00761334
0.00761413
0.00761556
0.00761837
0.00762293
0.00763225
0.00764852
0.00768341
0.00775269
0.00790312
0.00822374
0.00894313
0.0105211
0.0140447
0.021665
0.0380445
0.0718099
0.139346
0.266984
0.490384
0.839999
1.09803
1.14428
1.07943
0.818474
0.41207
0.168288
0.0848359
0.0540356
0.0426866
0.0380093
0.0354231
0.0339589
0.031741
0.0295983
0.0280977
0.0277399
0.0278235
0.0285555
0.0306057
0.0333723
0.0361575
0.0383894
0.0404289
0.0428408
0.0464232
0.0517214
0.0592961
0.0683375
0.0803882
0.0953679
0.116423
0.142324
0.176301
0.21629
0.266765
0.326983
0.396793
0.47884
0.566426
0.668226
0.76754
0.881548
0.982917
1.09597
1.18702
1.28438
1.35328
1.42778
1.47136
1.5237
1.54573
1.57813
1.59655
1.61082
1.62122
1.62044
1.62237
1.61201
1.60381
1.57226
1.54801
1.49698
1.46233
1.39771
1.35643
1.28306
1.24152
1.16835
1.12917
1.0758
1.0384
1.00464
0.969454
0.948531
0.911545
0.896087
0.861324
0.847313
0.81566
0.803013
0.774617
0.763339
0.738031
0.72807
0.705074
0.694415
0.678377
0.667214
0.655678
0.643744
0.635793
0.624177
0.619401
0.609124
0.605349
0.597195
0.594365
0.588382
0.5865
0.582552
0.581574
0.579574
0.579489
0.579016
0.579612
0.581645
0.583077
0.587034
0.589386
0.59504
0.598331
0.605564
0.609925
0.618857
0.624161
0.634563
0.640568
0.648438
0.651429
0.653436
0.00763582
0.00763207
0.00762277
0.0076195
0.00761678
0.00761527
0.00761456
0.00761385
0.00761359
0.00761333
0.00761328
0.00761305
0.00761297
0.00761285
0.00761284
0.00761259
0.00761267
0.00761264
0.00761233
0.00761234
0.00761214
0.00761209
0.00761202
0.00761192
0.00761183
0.00761176
0.00761161
0.00761169
0.00761168
0.00761159
0.0076116
0.00761241
0.00761365
0.00761399
0.00761402
0.007614
0.00761383
0.00761383
0.00761371
0.00761351
0.00761348
0.00761328
0.00761326
0.00761318
0.00761304
0.00761305
0.00761306
0.00761287
0.00761293
0.00761288
0.00761275
0.00761273
0.00761273
0.00761267
0.00761264
0.00761284
0.0076139
0.00761684
0.00762339
0.00763767
0.00766807
0.00773527
0.00788488
0.00822917
0.00901366
0.0108273
0.0149133
0.0240758
0.0438664
0.0855493
0.168945
0.324839
0.591493
0.940736
1.06327
1.05466
0.891754
0.568606
0.22996
0.0993685
0.0517825
0.033132
0.026014
0.0233222
0.0223539
0.0220498
0.0220372
0.022372
0.0236751
0.0265144
0.0313929
0.0388104
0.0450974
0.0464012
0.0468181
0.0434877
0.039197
0.0374843
0.0379312
0.0412615
0.0482962
0.0571421
0.0678604
0.0819825
0.100545
0.124475
0.152471
0.186812
0.228134
0.275318
0.331576
0.391915
0.463222
0.533382
0.61328
0.686057
0.766362
0.833081
0.902536
0.952466
1.00284
1.03106
1.05686
1.06581
1.07335
1.07772
1.0768
1.07779
1.0712
1.06664
1.04759
1.03458
1.0054
0.987406
0.951069
0.930213
0.889729
0.869055
0.828928
0.811505
0.775991
0.759211
0.733107
0.717232
0.69937
0.683806
0.67279
0.656238
0.649112
0.633725
0.627514
0.613927
0.608467
0.596526
0.591762
0.581421
0.577353
0.568429
0.564316
0.558275
0.554187
0.550029
0.54615
0.543553
0.540006
0.538688
0.535851
0.535056
0.533492
0.53327
0.532882
0.533316
0.533793
0.535539
0.53642
0.539403
0.540683
0.544315
0.546718
0.550446
0.553854
0.557765
0.562233
0.566756
0.572501
0.577541
0.584549
0.590355
0.598181
0.604
0.609739
0.612226
0.613656
0.00762028
0.00761297
0.0076078
0.00760532
0.00760306
0.00760203
0.00760155
0.00760105
0.00760085
0.00760058
0.00760058
0.00760041
0.00760028
0.00760027
0.00760008
0.00759996
0.00759995
0.00759983
0.00759981
0.00759979
0.00759958
0.00759959
0.00759953
0.00759944
0.00759963
0.00760083
0.00760327
0.00760545
0.007606
0.00760616
0.00760621
0.00760631
0.00760632
0.00760638
0.00760635
0.00760635
0.00760631
0.00760621
0.00760622
0.00760618
0.00760604
0.00760606
0.00760606
0.00760605
0.00760591
0.00760591
0.00760586
0.00760589
0.00760644
0.00760798
0.00761028
0.0076129
0.00761546
0.00761778
0.00761972
0.00762116
0.0076226
0.0076246
0.00762913
0.00763809
0.00765612
0.0076922
0.00776927
0.00794038
0.0083285
0.00923107
0.011304
0.0160707
0.026696
0.0499227
0.0984913
0.194431
0.371811
0.663913
0.954719
1.02123
0.977089
0.773227
0.445308
0.173992
0.0779011
0.0454128
0.0346231
0.0319696
0.0314303
0.0318293
0.0337665
0.0396936
0.0521169
0.0748899
0.113601
0.166437
0.207342
0.215854
0.216222
0.18698
0.131621
0.0658211
0.0442889
0.0360224
0.0346433
0.0348083
0.0385324
0.0464257
0.0578664
0.0719818
0.0894679
0.111425
0.139646
0.174091
0.216401
0.264127
0.319659
0.378401
0.444091
0.508534
0.57583
0.635814
0.693752
0.738565
0.777453
0.794784
0.803038
0.804936
0.805548
0.80607
0.803274
0.800603
0.79125
0.783822
0.767866
0.756419
0.736383
0.723702
0.702276
0.690104
0.668468
0.657568
0.637921
0.629392
0.612332
0.604237
0.591189
0.583499
0.573825
0.566089
0.559574
0.551181
0.546909
0.538386
0.534732
0.526995
0.523737
0.516971
0.514165
0.508362
0.505993
0.500996
0.498686
0.495333
0.493267
0.491258
0.489435
0.48851
0.487422
0.48722
0.48696
0.487358
0.487892
0.489437
0.490737
0.493469
0.495529
0.499546
0.502339
0.507663
0.5111
0.517232
0.521748
0.527916
0.5333
0.539428
0.545305
0.551419
0.557716
0.563821
0.570391
0.576485
0.582819
0.588131
0.592644
0.594838
0.595965
0.00763691
0.00762383
0.007619
0.00761486
0.00761219
0.0076103
0.00760936
0.00760842
0.00760801
0.00760766
0.00760748
0.00760719
0.00760701
0.007607
0.00760682
0.00760682
0.00760653
0.00760647
0.00760648
0.00760629
0.00760626
0.00760625
0.00760622
0.007606
0.007606
0.0076059
0.00760581
0.00760574
0.00760562
0.00760542
0.00760542
0.00760535
0.00760532
0.00760523
0.00760538
0.00760636
0.00760899
0.00761361
0.00761744
0.0076183
0.00761834
0.00761833
0.0076183
0.00761822
0.00761807
0.00761807
0.00761797
0.00761797
0.00761788
0.00761782
0.00761812
0.00761929
0.00762066
0.0076219
0.00762284
0.00762403
0.00762529
0.00762639
0.0076287
0.00763341
0.00764245
0.00765995
0.00769576
0.00777295
0.00794364
0.00833879
0.00925048
0.0113869
0.0162753
0.0273563
0.0515485
0.101998
0.202105
0.383275
0.677786
0.933903
0.985388
0.936301
0.748574
0.454894
0.194506
0.100427
0.0719899
0.0680173
0.0705794
0.0843007
0.112143
0.163274
0.244631
0.364672
0.532236
0.71683
0.818291
0.842697
0.847421
0.80332
0.681853
0.451446
0.225037
0.104267
0.0618034
0.0449908
0.0416505
0.0415435
0.0461837
0.0573486
0.0744061
0.0947816
0.118941
0.14649
0.180927
0.221268
0.269419
0.320841
0.377431
0.433486
0.492058
0.546334
0.599149
0.642622
0.667789
0.676001
0.679107
0.679304
0.678991
0.67811
0.674358
0.669969
0.661308
0.65358
0.641035
0.631189
0.616807
0.606682
0.592628
0.583572
0.57045
0.562685
0.550875
0.544928
0.535146
0.53045
0.522984
0.518435
0.512921
0.508384
0.504375
0.499591
0.496526
0.491557
0.489314
0.484764
0.482827
0.478982
0.477383
0.474336
0.473114
0.470842
0.469811
0.468575
0.467805
0.46729
0.466851
0.466805
0.466754
0.46733
0.467854
0.469266
0.470413
0.472679
0.474676
0.478046
0.480857
0.485514
0.489171
0.49495
0.499501
0.505958
0.51154
0.518284
0.52457
0.531615
0.538263
0.545427
0.552223
0.559253
0.565838
0.572282
0.578114
0.583237
0.586979
0.58907
0.590004
0.00763086
0.00762125
0.00761649
0.00761333
0.0076114
0.00761074
0.00761082
0.00761241
0.00761365
0.00761375
0.00761366
0.00761366
0.00761363
0.00761341
0.00761342
0.00761339
0.00761315
0.00761317
0.00761315
0.00761294
0.00761297
0.00761286
0.0076127
0.00761268
0.00761252
0.0076124
0.00761238
0.00761216
0.00761217
0.00761213
0.007612
0.00761201
0.00761201
0.00761174
0.00761174
0.00761167
0.00761145
0.00761146
0.00761143
0.00761121
0.00761126
0.00761122
0.00761104
0.00761105
0.00761099
0.00761082
0.00761092
0.00761091
0.00761079
0.00761079
0.00761073
0.00761058
0.00761056
0.00761049
0.00761068
0.00761183
0.00761362
0.00761657
0.00762009
0.00762555
0.00763355
0.00764693
0.00766878
0.00770944
0.00779008
0.00796592
0.00835818
0.00926878
0.0113636
0.0161976
0.0270425
0.050538
0.0996676
0.195214
0.368902
0.64488
0.901477
0.956372
0.932689
0.804888
0.578935
0.3305
0.192891
0.159893
0.157338
0.176374
0.223604
0.315938
0.462799
0.668832
0.927486
1.19742
1.3783
1.43672
1.45275
1.44501
1.39905
1.28168
1.08998
0.766659
0.385101
0.159983
0.0848691
0.0552038
0.0472212
0.0454527
0.0471026
0.0546162
0.0704334
0.093683
0.122756
0.156711
0.196508
0.241094
0.292676
0.347626
0.4071
0.465061
0.521626
0.570462
0.599864
0.60957
0.612882
0.613351
0.613204
0.612219
0.608802
0.604201
0.596883
0.589588
0.579771
0.570971
0.560052
0.551206
0.540855
0.533221
0.523971
0.517584
0.509475
0.504347
0.497317
0.493209
0.487853
0.483933
0.479736
0.476014
0.472841
0.469068
0.466537
0.462898
0.461075
0.457724
0.456255
0.453565
0.452429
0.450473
0.449683
0.448386
0.447813
0.447487
0.447292
0.447437
0.447972
0.448948
0.449999
0.451921
0.453576
0.456385
0.4588
0.462179
0.465462
0.469492
0.473601
0.47845
0.483392
0.489205
0.494897
0.501507
0.50785
0.515009
0.521822
0.529423
0.536537
0.544288
0.551454
0.558998
0.565811
0.572552
0.578163
0.583269
0.586731
0.588804
0.589647
0.00764399
0.00763077
0.00762482
0.00761946
0.00761676
0.00761481
0.00761332
0.00761259
0.00761214
0.00761181
0.00761146
0.00761112
0.00761105
0.00761102
0.00761088
0.00761088
0.00761082
0.00761081
0.00761136
0.00761261
0.00761303
0.007613
0.00761301
0.00761294
0.00761284
0.00761284
0.00761271
0.00761253
0.00761252
0.00761235
0.00761221
0.00761222
0.00761213
0.00761192
0.00761194
0.0076119
0.00761167
0.00761167
0.00761158
0.0076114
0.00761139
0.00761123
0.00761108
0.00761107
0.00761088
0.00761079
0.00761075
0.00761076
0.00761077
0.00761069
0.00761069
0.00761063
0.00761064
0.00761122
0.00761272
0.00761529
0.00761884
0.00762273
0.00762678
0.00763074
0.00763561
0.00764268
0.00765493
0.00767646
0.00771619
0.00779382
0.00795341
0.00830636
0.00910354
0.0109513
0.0151723
0.0245964
0.0451637
0.0874358
0.170476
0.317988
0.555756
0.829825
0.93077
0.939399
0.895078
0.780395
0.61634
0.46766
0.413235
0.414965
0.453344
0.545002
0.675954
0.836388
1.02545
1.21873
1.42646
1.58601
1.64152
1.65018
1.64013
1.5755
1.45206
1.28242
1.10812
0.89634
0.64728
0.331699
0.166981
0.102157
0.0781026
0.0703206
0.0695993
0.0762878
0.0950496
0.125661
0.164202
0.207363
0.254806
0.305325
0.360608
0.417743
0.476656
0.53174
0.566989
0.578335
0.581654
0.582139
0.581861
0.580605
0.577518
0.572858
0.565908
0.558282
0.549106
0.540158
0.530269
0.521493
0.51256
0.505099
0.497447
0.491115
0.484477
0.479335
0.473935
0.470104
0.466192
0.462727
0.459353
0.456225
0.454028
0.451429
0.449434
0.446856
0.445521
0.443496
0.442575
0.441095
0.440486
0.439752
0.439536
0.439424
0.439479
0.440116
0.440619
0.441406
0.442411
0.443821
0.445147
0.447341
0.449512
0.452501
0.455736
0.45987
0.463935
0.469041
0.47403
0.480108
0.486026
0.49291
0.499792
0.507422
0.514981
0.523226
0.531293
0.539951
0.548324
0.557126
0.565292
0.573717
0.581198
0.588479
0.594309
0.599603
0.602913
0.605119
0.605918
0.00764492
0.00763313
0.00762734
0.00762293
0.00762
0.00761865
0.00761739
0.00761679
0.00761629
0.00761613
0.00761613
0.00761593
0.00761577
0.00761578
0.00761571
0.0076155
0.0076155
0.0076154
0.00761521
0.00761521
0.00761514
0.00761493
0.00761494
0.00761494
0.0076147
0.00761471
0.00761471
0.00761449
0.00761449
0.00761448
0.00761419
0.00761419
0.00761416
0.00761392
0.00761394
0.00761394
0.00761368
0.00761369
0.00761365
0.00761346
0.00761346
0.00761345
0.00761316
0.00761316
0.00761312
0.00761298
0.00761298
0.00761297
0.00761268
0.00761267
0.0076126
0.00761255
0.00761251
0.00761246
0.00761245
0.00761241
0.00761267
0.00761384
0.00761619
0.00762001
0.00762527
0.00763252
0.0076422
0.007657
0.00768029
0.00772108
0.00779526
0.0079431
0.00825023
0.00893009
0.0104545
0.0138725
0.0214881
0.0376799
0.0711261
0.134903
0.249441
0.430187
0.675956
0.863487
0.932603
0.948184
0.940007
0.911374
0.894012
0.898181
0.926204
0.997426
1.10258
1.23044
1.38419
1.53745
1.7088
1.80433
1.82463
1.81408
1.76115
1.65861
1.52611
1.3868
1.25723
1.1465
1.06518
0.997194
0.896168
0.684225
0.36082
0.161995
0.10667
0.0923703
0.089537
0.0929416
0.108301
0.139033
0.182603
0.234781
0.2928
0.352845
0.413907
0.471747
0.525424
0.554473
0.564175
0.566946
0.567427
0.567104
0.565047
0.560764
0.55441
0.546572
0.537969
0.528863
0.519541
0.510068
0.501267
0.493268
0.48641
0.480331
0.474966
0.469918
0.465217
0.460985
0.457616
0.454406
0.451325
0.447863
0.44516
0.442456
0.440295
0.438208
0.43673
0.435437
0.434504
0.43375
0.433399
0.433177
0.433112
0.433228
0.433666
0.434111
0.434823
0.436042
0.437134
0.438881
0.44115
0.443762
0.446796
0.450336
0.45433
0.458611
0.46367
0.468816
0.474627
0.480749
0.487592
0.494541
0.502538
0.510477
0.519161
0.52807
0.537374
0.546773
0.556384
0.566094
0.575416
0.584642
0.592958
0.600878
0.60708
0.612687
0.615964
0.618245
0.619011
0.00764798
0.00763453
0.00762825
0.0076236
0.00761981
0.00761811
0.00761623
0.00761545
0.00761472
0.00761425
0.00761384
0.0076135
0.00761342
0.00761337
0.00761315
0.00761299
0.00761299
0.00761282
0.00761266
0.00761263
0.00761244
0.00761236
0.00761226
0.00761209
0.00761209
0.00761196
0.00761183
0.00761186
0.00761185
0.00761171
0.00761171
0.00761165
0.00761162
0.00761199
0.00761358
0.00761627
0.00761735
0.00761744
0.00761744
0.00761743
0.00761728
0.00761729
0.00761715
0.007617
0.00761699
0.00761693
0.00761682
0.00761682
0.00761674
0.00761673
0.00761667
0.0076167
0.00761736
0.00761913
0.00762025
0.00762032
0.00762029
0.00762044
0.00762128
0.00762293
0.00762598
0.00763078
0.00763823
0.00764891
0.00766433
0.0076877
0.00772503
0.00779042
0.00791183
0.00815715
0.00867434
0.00979752
0.012289
0.017657
0.0291061
0.0519536
0.0958162
0.171758
0.294824
0.469251
0.677925
0.830144
0.918135
0.960531
1.00489
1.04536
1.10187
1.16634
1.25543
1.35271
1.46991
1.59009
1.71987
1.7917
1.79812
1.76726
1.67599
1.53926
1.35788
1.1744
0.988039
0.846522
0.727188
0.658405
0.60054
0.57401
0.521392
0.477008
0.380177
0.276274
0.194883
0.171077
0.161159
0.159598
0.162565
0.182314
0.222469
0.281201
0.348609
0.417343
0.481986
0.537575
0.562933
0.570985
0.572904
0.573016
0.572206
0.569243
0.56391
0.555862
0.547105
0.536829
0.527329
0.516552
0.507334
0.497712
0.490488
0.4832
0.478073
0.472363
0.46807
0.462724
0.458947
0.454862
0.45174
0.447798
0.44491
0.442193
0.440215
0.438593
0.437311
0.436664
0.435905
0.435608
0.435365
0.435311
0.435294
0.435511
0.435616
0.436086
0.437085
0.438083
0.439878
0.442066
0.445204
0.44812
0.452069
0.455959
0.460758
0.465121
0.470712
0.475951
0.48251
0.489061
0.496863
0.504575
0.513911
0.523002
0.533084
0.543319
0.554157
0.565002
0.575961
0.587066
0.59775
0.608316
0.617741
0.626808
0.633748
0.639989
0.643519
0.645956
0.64673
0.0076466
0.00763053
0.00762337
0.00761897
0.00761463
0.00761282
0.00761094
0.00761029
0.00760986
0.00760959
0.00760955
0.00761022
0.0076124
0.00761435
0.00761494
0.00761506
0.00761512
0.00761505
0.00761505
0.00761503
0.00761493
0.00761489
0.00761477
0.00761488
0.00761554
0.00761586
0.00761596
0.007616
0.00761605
0.00761603
0.00761586
0.00761587
0.00761584
0.0076156
0.0076156
0.00761547
0.0076153
0.0076153
0.00761528
0.00761514
0.00761515
0.0076151
0.00761504
0.00761521
0.00761624
0.00761741
0.0076177
0.00761775
0.00761778
0.00761778
0.00761771
0.0076175
0.00761749
0.00761735
0.00761723
0.00761722
0.00761715
0.00761712
0.00761708
0.00761737
0.00761853
0.00762112
0.00762543
0.00763267
0.00764354
0.00766036
0.00768529
0.00772412
0.00778543
0.00789138
0.00808446
0.00846222
0.00924466
0.010879
0.0143527
0.021406
0.0354598
0.0611292
0.105974
0.174986
0.276401
0.4038
0.562798
0.699914
0.822416
0.901364
0.981063
1.04255
1.11813
1.18874
1.26248
1.33193
1.3509
1.3461
1.29656
1.22115
1.09457
0.967113
0.802017
0.673325
0.527441
0.441476
0.356691
0.326686
0.315595
0.318795
0.329225
0.349151
0.362252
0.368586
0.375521
0.374248
0.354354
0.312802
0.261581
0.24382
0.239823
0.244249
0.267562
0.319078
0.390645
0.469062
0.540873
0.580337
0.593877
0.597589
0.598201
0.596777
0.593016
0.585267
0.577139
0.56621
0.556736
0.543597
0.532116
0.518356
0.508918
0.49891
0.493521
0.486512
0.48276
0.475794
0.471088
0.465137
0.461493
0.457059
0.453666
0.450835
0.448446
0.447366
0.445897
0.445402
0.444612
0.444365
0.443717
0.443467
0.442731
0.442507
0.442432
0.442512
0.443584
0.444794
0.446998
0.449144
0.45235
0.454941
0.458973
0.462126
0.466675
0.47058
0.476571
0.481582
0.488668
0.495401
0.504246
0.512337
0.522749
0.532486
0.543745
0.554577
0.566592
0.57832
0.59056
0.602565
0.614624
0.626385
0.63717
0.647478
0.655558
0.662747
0.666622
0.669378
0.670188
0.00764432
0.00762763
0.00761976
0.00761311
0.00760865
0.00760652
0.00760418
0.00760329
0.00760247
0.00760219
0.00760198
0.00760186
0.00760166
0.00760167
0.00760163
0.00760153
0.00760157
0.00760257
0.00760488
0.00760897
0.00761325
0.00761442
0.00761457
0.00761455
0.00761443
0.00761444
0.00761432
0.00761419
0.00761419
0.00761408
0.0076139
0.00761389
0.00761365
0.00761355
0.00761355
0.00761344
0.00761326
0.00761326
0.00761319
0.00761294
0.00761294
0.00761281
0.00761265
0.00761264
0.00761256
0.00761247
0.00761246
0.00761228
0.00761227
0.00761221
0.00761221
0.00761214
0.00761227
0.00761293
0.00761425
0.00761583
0.00761696
0.00761787
0.00761877
0.00762065
0.0076234
0.00762704
0.00763156
0.00763746
0.0076457
0.0076575
0.00767514
0.00770121
0.00773991
0.00779875
0.00789153
0.00804397
0.00831599
0.00881976
0.00981761
0.0117731
0.0156699
0.0229415
0.0362127
0.0578211
0.0920978
0.138273
0.20086
0.268341
0.347454
0.421439
0.499185
0.551232
0.600052
0.633387
0.641621
0.641103
0.617646
0.5879
0.533798
0.485865
0.406151
0.34735
0.26803
0.222706
0.163205
0.137564
0.111009
0.105456
0.104199
0.108872
0.115875
0.130592
0.152543
0.180883
0.214344
0.247198
0.288227
0.320897
0.359588
0.395431
0.429796
0.438165
0.437894
0.436999
0.436683
0.452374
0.488714
0.54979
0.611791
0.643669
0.654141
0.656816
0.65758
0.655191
0.651421
0.641769
0.632669
0.61647
0.601719
0.580923
0.56553
0.547732
0.538862
0.528365
0.523695
0.514542
0.508188
0.499041
0.49262
0.486993
0.482624
0.479826
0.476029
0.474723
0.471975
0.471116
0.468682
0.467862
0.465379
0.464497
0.462435
0.461849
0.461333
0.461028
0.461535
0.462553
0.464908
0.466164
0.46909
0.470758
0.474342
0.476811
0.481674
0.485238
0.491821
0.49694
0.504973
0.511594
0.521252
0.529163
0.540315
0.549976
0.562259
0.57363
0.586884
0.599717
0.613739
0.627375
0.641262
0.655234
0.667871
0.680603
0.690182
0.699551
0.704041
0.707544
0.708531
0.007666
0.007641
0.00763211
0.00762361
0.00761934
0.00761564
0.00761329
0.00761215
0.00761101
0.00761067
0.00761031
0.00761015
0.00761003
0.00761062
0.00761163
0.00761282
0.00761319
0.00761328
0.00761327
0.00761322
0.00761306
0.00761298
0.0076129
0.00761275
0.00761275
0.0076127
0.00761248
0.00761248
0.00761227
0.00761219
0.00761219
0.00761203
0.007612
0.007612
0.00761178
0.00761178
0.00761176
0.00761155
0.00761155
0.00761144
0.00761127
0.00761127
0.00761118
0.00761098
0.00761098
0.00761084
0.00761067
0.00761067
0.00761056
0.00761036
0.00761039
0.00761038
0.00761018
0.00761021
0.0076102
0.00761
0.00761
0.00760997
0.0076099
0.00760995
0.00761011
0.00761116
0.00761317
0.0076171
0.0076229
0.00763249
0.00764557
0.00766554
0.00769297
0.0077337
0.00779123
0.00787626
0.00800318
0.00820169
0.00853226
0.00910187
0.0101449
0.0120114
0.0154047
0.0210347
0.0303581
0.043546
0.0624609
0.0842801
0.111153
0.136373
0.163999
0.183542
0.201999
0.21235
0.212461
0.209332
0.196531
0.182591
0.158368
0.140137
0.112544
0.0963882
0.0729324
0.062747
0.0481326
0.0422529
0.0356041
0.0343126
0.0340143
0.0355377
0.0378691
0.0425317
0.0487776
0.0564395
0.0671673
0.0797128
0.100274
0.129534
0.176038
0.231727
0.314615
0.402806
0.497296
0.575306
0.652478
0.70067
0.721047
0.730442
0.73531
0.74566
0.765705
0.786658
0.798064
0.798341
0.798946
0.793946
0.791907
0.780908
0.771172
0.748409
0.72827
0.697661
0.676876
0.651336
0.641804
0.628179
0.620253
0.610053
0.599125
0.593411
0.585893
0.583709
0.576757
0.575172
0.567467
0.565159
0.55529
0.552006
0.541779
0.538409
0.529551
0.526878
0.521295
0.517907
0.515821
0.513346
0.512954
0.511071
0.511157
0.510631
0.511773
0.512407
0.516207
0.517945
0.523785
0.526781
0.534188
0.538403
0.547158
0.552784
0.563467
0.570976
0.583169
0.59394
0.607436
0.620746
0.635318
0.650606
0.665172
0.681628
0.695498
0.711375
0.722373
0.734399
0.740065
0.744352
0.745577
0.0076904
0.00765205
0.00764032
0.00763014
0.00762481
0.00762029
0.00761726
0.0076159
0.00761435
0.00761387
0.00761324
0.00761308
0.00761271
0.00761271
0.0076124
0.00761234
0.00761201
0.007612
0.00761179
0.00761168
0.00761168
0.00761142