/*--------------------------------*- C++ -*----------------------------------*\
| =========                 |                                                 |
| \\      /  F ield         | OpenFOAM: The Open Source CFD Toolbox           |
|  \\    /   O peration     | Version:  4.1                                   |
|   \\  /    A nd           | Web:      www.OpenFOAM.org                      |
|    \\/     M anipulation  |                                                 |
\*---------------------------------------------------------------------------*/
FoamFile
{
    version     2.0;
    format      ascii;
    class       volScalarField;
    location    "5.5";
    object      p;
}
// * * * * * * * * * * * * * * * * * * * * * * * * * * * * * * * * * * * * * //

dimensions      [0 2 -2 0 0 0 0];

internalField   nonuniform List<scalar> 
204246
(
-17.6639
-28.6978
-29.466
-29.7894
-30.088
-30.245
-30.4
-30.4762
-30.5381
-30.552
-30.5467
-30.4821
-30.3975
-30.2757
-30.2495
-30.3211
-30.6307
-30.7604
-30.467
-30.4533
-30.4077
-30.3882
-30.3367
-30.3023
-30.2602
-30.247
-30.2246
-30.2142
-30.1594
-30.1129
-30.0103
-29.9153
-29.7929
-29.7694
-29.8386
-30.0946
-30.1849
-29.8908
-29.8947
-29.8508
-29.8105
-29.762
-29.7398
-29.7057
-29.6906
-29.6304
-29.5894
-29.5016
-29.4242
-29.3008
-29.2456
-29.2581
-29.4239
-29.4802
-29.3435
-29.2593
-29.1627
-29.0843
-28.9404
-28.9686
-28.7871
-28.8469
-28.588
-28.6688
-28.4667
-28.4961
-28.4049
-28.3459
-28.3061
-28.2994
-28.1885
-27.9118
-27.7039
-27.7944
-28.8928
-32.2736
-40.2019
-50.8276
-59.2505
-62.5648
-66.8525
-69.8511
-72.1893
-72.8763
-73.7526
-74.2388
-75.3081
-75.4043
-74.6336
-74.0332
-72.6975
-71.8423
-70.5383
-69.781
-68.2335
-67.6706
-66.6077
-65.9421
-65.3382
-64.9098
-64.4754
-64.1345
-63.6627
-63.7035
-63.981
-64.4008
-64.5939
-64.3765
-64.6791
-64.8722
-65.103
-65.1233
-65.3689
-65.5957
-65.9666
-66.3531
-66.7066
-66.8667
-67.0877
-67.3553
-67.7179
-67.8801
-69.1913
-69.9237
-69.9662
-70.6078
-70.5415
-71.3094
-71.3063
-72.0976
-72.1046
-72.9182
-72.905
-73.7071
-73.5653
-74.3215
-74.3965
-74.6379
-74.7177
-76.1109
-76.8348
-76.8597
-77.4724
-77.3025
-78.0797
-77.9628
-78.7968
-78.6526
-79.4688
-79.3392
-80.0648
-80.1812
-80.5963
-80.6429
-80.6368
-80.4377
-81.7559
-82.1752
-81.7209
-81.9925
-81.4892
-81.0664
-80.4542
-79.7951
-78.824
-77.6883
-76.1319
-74.3252
-72.0495
-69.5061
-66.5406
-63.3803
-58.8164
-54.228
-48.8792
-43.0407
-36.2468
-28.3463
-19.763
-9.96919
1.01236
13.6498
27.9989
44.5376
63.2349
84.3569
107.783
134.082
164.2
203.72
263.745
359.433
488.127
-24.8554
-26.3113
-27.9246
-29.0622
-29.7854
-30.1467
-30.3682
-30.4634
-30.5514
-30.5688
-30.5976
-30.5463
-30.4785
-30.3804
-30.3347
-30.3511
-30.5169
-30.6028
-30.5603
-30.4998
-30.4481
-30.4212
-30.3776
-30.3419
-30.2998
-30.2776
-30.2507
-30.2327
-30.1928
-30.1634
-30.0926
-30.0234
-29.9005
-29.8426
-29.8716
-29.978
-30.0472
-29.9939
-29.9398
-29.8902
-29.8517
-29.8068
-29.7741
-29.7414
-29.7185
-29.6695
-29.6413
-29.5702
-29.511
-29.4088
-29.349
-29.357
-29.3879
-29.3993
-29.3715
-29.3093
-29.2452
-29.172
-29.0921
-29.0237
-28.9425
-28.8654
-28.7719
-28.683
-28.6056
-28.5412
-28.53
-28.5332
-28.5366
-28.5331
-28.4753
-28.3121
-28.0704
-28.0763
-28.7625
-30.739
-37.1905
-48.1438
-56.8101
-61.7599
-65.8163
-68.9824
-71.3544
-72.8357
-73.8757
-74.7823
-75.3248
-75.4368
-75.292
-74.7434
-73.82
-72.7243
-71.5688
-70.3855
-69.2146
-68.1346
-67.2
-66.3661
-65.6804
-65.1311
-64.6544
-64.2688
-64.0326
-63.949
-63.9855
-64.0445
-64.1687
-64.3093
-64.4637
-64.705
-64.8433
-65.0042
-65.1696
-65.4114
-65.7024
-66.1051
-66.4577
-66.7414
-66.9886
-67.2727
-67.5845
-67.9768
-68.545
-69.1485
-69.6569
-70.0886
-70.43
-70.837
-71.2121
-71.6151
-72.0127
-72.4468
-72.8728
-73.2864
-73.6338
-73.9797
-74.3113
-74.5838
-74.9721
-75.5533
-76.1526
-76.6326
-77.0522
-77.4169
-77.771
-78.1394
-78.5066
-78.8894
-79.2441
-79.6287
-79.9914
-80.4208
-80.7198
-81.0127
-81.1311
-81.4457
-81.7843
-82.1392
-82.3741
-82.4958
-82.5682
-82.2807
-82.0949
-81.5502
-81.0192
-80.1444
-79.0661
-77.6452
-75.9277
-73.8941
-71.4698
-68.6565
-65.2259
-61.3297
-56.7861
-51.7104
-45.7574
-38.943
-31.379
-22.8576
-13.4297
-2.75923
9.21562
22.9481
38.4885
56.1092
75.4207
96.1942
118.048
143.078
179.007
244.45
341.186
-31.6482
-29.973
-29.4884
-29.6189
-29.8928
-30.1423
-30.326
-30.4486
-30.5301
-30.5767
-30.5855
-30.5598
-30.5134
-30.4603
-30.4224
-30.4229
-30.4613
-30.4956
-30.5025
-30.4842
-30.4498
-30.4148
-30.376
-30.3398
-30.3029
-30.2699
-30.2446
-30.2197
-30.1833
-30.1449
-30.1014
-30.0507
-29.9722
-29.9188
-29.919
-29.9416
-29.9511
-29.9493
-29.9289
-29.8854
-29.8464
-29.8034
-29.7675
-29.731
-29.7023
-29.6689
-29.6308
-29.5788
-29.513
-29.4459
-29.4125
-29.3992
-29.3844
-29.3615
-29.33
-29.2831
-29.2202
-29.1577
-29.0876
-29.0193
-28.9423
-28.848
-28.7359
-28.6288
-28.5337
-28.4754
-28.4424
-28.4504
-28.4752
-28.5213
-28.6114
-28.7318
-28.9267
-29.7331
-32.4305
-35.4469
-41.2567
-50.6491
-57.7181
-62.9096
-66.6378
-70.0155
-72.0709
-73.2189
-74.2139
-75.0794
-75.5648
-75.7521
-75.614
-75.1021
-74.3211
-73.3327
-72.1249
-70.8544
-69.6498
-68.5172
-67.4923
-66.61
-65.8672
-65.2887
-64.7795
-64.4091
-64.202
-64.1389
-64.1097
-64.1778
-64.2103
-64.2858
-64.4283
-64.5715
-64.735
-64.9508
-65.1013
-65.3329
-65.5891
-65.9264
-66.2281
-66.552
-66.8409
-67.1721
-67.5217
-67.9443
-68.3697
-68.8331
-69.3224
-69.7678
-70.1947
-70.596
-70.9934
-71.382
-71.7818
-72.1969
-72.6241
-73.0173
-73.39
-73.7449
-74.0931
-74.4534
-74.847
-75.2787
-75.7272
-76.1649
-76.5935
-76.9849
-77.3635
-77.7253
-78.0947
-78.4503
-78.8176
-79.1768
-79.5547
-79.902
-80.2331
-80.49
-80.745
-81.0063
-81.3422
-81.5927
-81.712
-81.7675
-81.6605
-81.5019
-81.1735
-80.738
-80.0991
-79.2405
-78.0997
-76.6395
-74.9203
-72.8271
-70.4273
-67.5634
-64.3286
-60.551
-56.2243
-51.192
-45.4221
-38.9223
-31.5227
-23.2161
-13.8895
-3.50373
8.17477
21.3335
36.3323
53.2696
72.0823
92.1312
113.088
135.531
164.191
207.327
264.512
-34.6852
-32.7405
-31.4938
-30.8662
-30.5977
-30.5296
-30.5438
-30.5897
-30.6262
-30.648
-30.6416
-30.6164
-30.5833
-30.5457
-30.5201
-30.5086
-30.5124
-30.5074
-30.4999
-30.4892
-30.4711
-30.4432
-30.4136
-30.3826
-30.3491
-30.3188
-30.2865
-30.2542
-30.2119
-30.1683
-30.1301
-30.0874
-30.0396
-30.0037
-29.9951
-29.9845
-29.9672
-29.9557
-29.9412
-29.9207
-29.8943
-29.8608
-29.8257
-29.7863
-29.7462
-29.705
-29.663
-29.6159
-29.5621
-29.5168
-29.4897
-29.4724
-29.434
-29.4033
-29.3937
-29.3385
-29.28
-29.2232
-29.1617
-29.1038
-29.035
-28.9398
-28.8231
-28.7116
-28.6123
-28.5253
-28.4444
-28.3806
-28.341
-28.3461
-28.4155
-28.559
-28.8336
-29.8569
-33.4515
-38.052
-44.531
-53.3591
-60.4448
-64.7244
-67.8211
-70.0593
-71.7146
-73.2247
-74.4051
-75.2256
-75.8164
-76.0396
-76.0112
-75.6312
-74.9257
-73.9461
-72.7235
-71.3924
-70.0462
-68.7518
-67.5958
-66.5543
-65.7312
-65.0389
-64.5167
-64.0404
-63.8331
-63.7276
-63.6873
-63.5888
-63.6047
-63.7425
-63.8979
-64.0625
-64.2609
-64.4677
-64.7274
-64.9958
-65.2915
-65.5987
-65.9365
-66.2774
-66.6183
-66.9932
-67.3862
-67.8032
-68.2057
-68.6419
-69.0886
-69.5286
-69.9751
-70.3971
-70.82
-71.2185
-71.6324
-72.0384
-72.4771
-72.8709
-73.2952
-73.647
-74.0401
-74.389
-74.8386
-75.2059
-75.6234
-76.0385
-76.4341
-76.8797
-77.2472
-77.6712
-78.0222
-78.4399
-78.7835
-79.2142
-79.5635
-79.9949
-80.3074
-80.7024
-80.9665
-81.411
-81.6549
-81.9954
-82.3225
-82.5301
-82.6782
-82.6609
-82.5938
-82.3727
-82.0726
-81.628
-80.991
-80.1241
-78.8436
-77.2098
-75.1468
-72.6952
-69.7955
-66.4498
-62.5727
-58.1256
-52.962
-47.0693
-40.4016
-32.8642
-24.4332
-14.9974
-4.49065
7.26328
20.355
34.8954
50.8584
68.2723
87.3173
109.096
136.338
171.065
209.45
-36.3631
-34.4442
-33.0194
-32.045
-31.4171
-31.0567
-30.8585
-30.764
-30.7123
-30.6872
-30.6555
-30.625
-30.5871
-30.5453
-30.5153
-30.5046
-30.5016
-30.4962
-30.4811
-30.4626
-30.4412
-30.4153
-30.3848
-30.3498
-30.3183
-30.2892
-30.2675
-30.2389
-30.2021
-30.1627
-30.1237
-30.0801
-30.0353
-30.0023
-29.9791
-29.9663
-29.9492
-29.928
-29.9047
-29.8777
-29.8445
-29.8144
-29.7899
-29.7642
-29.7298
-29.693
-29.655
-29.6091
-29.5574
-29.5053
-29.4725
-29.4347
-29.4207
-29.387
-29.3334
-29.299
-29.2567
-29.2063
-29.1576
-29.1029
-29.0303
-28.9322
-28.824
-28.7147
-28.6123
-28.5128
-28.4235
-28.3425
-28.2722
-28.2344
-28.2747
-28.4741
-28.8719
-29.7729
-32.7562
-38.0307
-44.3752
-52.8993
-60.819
-65.6075
-68.9621
-70.6059
-71.9561
-73.2463
-74.3144
-75.2881
-75.9853
-76.4119
-76.4945
-76.2086
-75.6216
-74.7101
-73.4712
-72.0607
-70.6169
-69.247
-67.9954
-66.8662
-65.9741
-65.2928
-64.7158
-64.2984
-64.045
-63.9351
-63.8756
-63.8951
-63.9325
-63.9951
-64.1823
-64.334
-64.4432
-64.6115
-64.767
-65.0134
-65.2425
-65.5343
-65.8183
-66.124
-66.4567
-66.8287
-67.2219
-67.634
-68.0362
-68.4645
-68.8913
-69.3252
-69.7734
-70.1996
-70.6334
-71.0372
-71.4552
-71.8429
-72.2827
-72.6815
-73.1022
-73.4757
-73.8672
-74.2379
-74.6556
-75.0354
-75.4449
-75.8399
-76.2321
-76.6542
-77.0268
-77.4409
-77.8119
-78.2133
-78.5849
-78.9844
-79.3633
-79.7502
-80.1058
-80.4485
-80.7834
-81.1092
-81.4436
-81.7328
-81.9429
-82.1109
-82.1964
-82.2018
-82.0743
-81.7841
-81.3192
-80.6626
-79.9
-78.9448
-77.8377
-76.4432
-74.7472
-72.6648
-70.1795
-67.225
-63.7739
-59.7589
-55.1161
-49.8304
-43.7852
-36.9061
-29.1037
-20.3151
-10.4943
0.343025
12.1425
24.7808
38.2351
52.6033
68.4811
87.2193
110.568
138.567
166.521
-37.4837
-35.6504
-34.1829
-33.0643
-32.259
-31.7155
-31.3538
-31.1363
-30.987
-30.8927
-30.8162
-30.7607
-30.7089
-30.6607
-30.6191
-30.5881
-30.5657
-30.5453
-30.527
-30.5077
-30.4876
-30.4653
-30.4414
-30.415
-30.3829
-30.3552
-30.3236
-30.2912
-30.2514
-30.2139
-30.1783
-30.1393
-30.1039
-30.0746
-30.0525
-30.0205
-29.9972
-29.9813
-29.9609
-29.9378
-29.9145
-29.886
-29.858
-29.8254
-29.7875
-29.7478
-29.7109
-29.6741
-29.6311
-29.6003
-29.5628
-29.5285
-29.4838
-29.4505
-29.4184
-29.3836
-29.3322
-29.2818
-29.234
-29.1878
-29.1186
-29.0254
-28.923
-28.8205
-28.7088
-28.5999
-28.4966
-28.3935
-28.2945
-28.2216
-28.2244
-28.4122
-28.8881
-29.8325
-32.2303
-37.6222
-43.6591
-51.7606
-59.9453
-66.2388
-69.2428
-71.2749
-72.4643
-73.634
-74.6569
-75.5253
-76.2121
-76.7332
-76.9811
-76.8636
-76.2997
-75.5078
-74.3228
-72.8763
-71.304
-69.7679
-68.3254
-67.0078
-65.949
-65.0716
-64.4444
-64.038
-63.7687
-63.5955
-63.4923
-63.3403
-63.3124
-63.3784
-63.4598
-63.5865
-63.8451
-64.0716
-64.3467
-64.5678
-64.8868
-65.2227
-65.5355
-65.8908
-66.2493
-66.6478
-67.0435
-67.4609
-67.8709
-68.2993
-68.7205
-69.1489
-69.594
-70.0201
-70.4505
-70.8398
-71.2819
-71.675
-72.1017
-72.4966
-72.9298
-73.3055
-73.7219
-74.087
-74.5062
-74.869
-75.2708
-75.6643
-76.0488
-76.4658
-76.8468
-77.2625
-77.6448
-78.0607
-78.4428
-78.8673
-79.2537
-79.6795
-80.051
-80.4799
-80.8496
-81.3021
-81.6163
-81.973
-82.3663
-82.6964
-83.065
-83.223
-83.3939
-83.4815
-83.5089
-83.455
-83.0771
-82.4442
-81.507
-80.2829
-78.7286
-76.8386
-74.5649
-71.8895
-68.7595
-65.1468
-60.9589
-56.1785
-50.7216
-44.4741
-37.3526
-29.2627
-20.1948
-10.1725
0.684084
12.2418
24.4431
37.3508
51.4466
67.9147
87.5697
110.262
131.786
-38.1402
-36.4017
-34.9476
-33.7729
-32.8804
-32.2158
-31.7343
-31.3938
-31.1504
-30.9875
-30.8658
-30.7811
-30.7094
-30.661
-30.6198
-30.5808
-30.5514
-30.5219
-30.4912
-30.4695
-30.4497
-30.4248
-30.3961
-30.362
-30.3328
-30.3022
-30.2807
-30.2525
-30.2229
-30.189
-30.1534
-30.1164
-30.0778
-30.0464
-30.0146
-29.9936
-29.9685
-29.9435
-29.9197
-29.8912
-29.8593
-29.8306
-29.8019
-29.7764
-29.7488
-29.7176
-29.685
-29.6459
-29.6061
-29.5594
-29.5296
-29.5007
-29.4709
-29.4374
-29.3991
-29.3607
-29.3245
-29.2803
-29.2418
-29.1967
-29.1372
-29.0611
-28.9812
-28.8967
-28.8075
-28.7109
-28.6106
-28.5024
-28.3977
-28.3091
-28.2804
-28.4105
-28.8343
-29.7429
-31.5878
-36.0819
-42.0247
-49.5701
-57.5687
-64.3578
-68.6582
-70.9618
-71.9053
-73.0603
-74.1471
-75.0996
-75.9771
-76.7255
-77.2464
-77.3821
-76.8844
-76.2695
-75.1013
-73.5903
-71.9073
-70.2368
-68.6689
-67.2941
-66.1545
-65.1969
-64.535
-64.0504
-63.7104
-63.6166
-63.5776
-63.5955
-63.6344
-63.7014
-63.8164
-64.0322
-64.161
-64.3547
-64.5194
-64.7775
-65.0111
-65.26
-65.5325
-65.8308
-66.1669
-66.5397
-66.9207
-67.3261
-67.7355
-68.1613
-68.5817
-69.0085
-69.4479
-69.87
-70.2976
-70.6908
-71.1162
-71.5076
-71.9252
-72.3161
-72.7321
-73.1163
-73.5234
-73.9003
-74.2979
-74.6716
-75.0616
-75.4489
-75.8441
-76.2388
-76.6299
-77.0272
-77.4153
-77.8115
-78.2012
-78.5997
-78.991
-79.3829
-79.7643
-80.1445
-80.526
-80.9102
-81.3025
-81.6683
-81.9732
-82.2318
-82.4194
-82.5577
-82.5822
-82.4997
-82.3134
-82.0405
-81.7698
-81.3771
-80.8434
-80.0679
-79.0132
-77.6162
-75.8494
-73.6688
-71.054
-67.9709
-64.3681
-60.2367
-55.4853
-50.0233
-43.7656
-36.638
-28.6295
-19.7641
-10.1246
0.196929
11.1392
22.783
35.5119
50.1152
66.935
85.7092
102.939
-38.4289
-36.8042
-35.4498
-34.3297
-33.4157
-32.7204
-32.1886
-31.7885
-31.4827
-31.2597
-31.0915
-30.9659
-30.8658
-30.7895
-30.73
-30.6826
-30.6391
-30.6058
-30.576
-30.5438
-30.517
-30.4936
-30.4696
-30.4463
-30.4168
-30.3916
-30.3563
-30.3242
-30.2887
-30.2548
-30.2198
-30.1821
-30.1516
-30.1244
-30.0982
-30.0628
-30.0348
-30.0133
-29.9892
-29.9665
-29.9447
-29.919
-29.8949
-29.8608
-29.8233
-29.7888
-29.7537
-29.7189
-29.682
-29.6588
-29.6193
-29.5807
-29.5424
-29.5085
-29.479
-29.4458
-29.3992
-29.3583
-29.3185
-29.2766
-29.2169
-29.1481
-29.0752
-28.9985
-28.9106
-28.8248
-28.7383
-28.6508
-28.5644
-28.4909
-28.4687
-28.5714
-28.9132
-29.6817
-31.1922
-34.3549
-39.7445
-46.6011
-54.4248
-61.78
-67.4617
-70.2384
-72.3346
-73.7977
-74.5369
-75.2939
-76.1499
-77.0178
-77.7237
-78.191
-78.3512
-77.5941
-76.4071
-74.8266
-73.0541
-71.2038
-69.3727
-67.7496
-66.3637
-65.2653
-64.4887
-63.8898
-63.6073
-63.4508
-63.3034
-63.2151
-63.1833
-63.2763
-63.3696
-63.4461
-63.6961
-63.8657
-64.1444
-64.4403
-64.7258
-65.0358
-65.3434
-65.6752
-66.0277
-66.4152
-66.7955
-67.195
-67.599
-68.0182
-68.4385
-68.8589
-69.2918
-69.7078
-70.1263
-70.5175
-70.9319
-71.317
-71.7294
-72.1158
-72.5247
-72.9153
-73.3201
-73.7025
-74.0933
-74.4734
-74.862
-75.2591
-75.6535
-76.0572
-76.4608
-76.8732
-77.2727
-77.6867
-78.0902
-78.5105
-78.92
-79.3464
-79.7606
-80.1922
-80.6098
-81.0453
-81.4593
-81.8971
-82.3389
-82.7631
-83.1819
-83.5717
-83.9406
-84.2254
-84.4204
-84.488
-84.3529
-84.0436
-83.5318
-82.8174
-81.8514
-80.6098
-79.0423
-77.1211
-74.8041
-72.067
-68.8479
-65.1339
-60.8453
-55.913
-50.2864
-43.9228
-36.8135
-28.9667
-20.437
-11.2761
-1.49542
9.00148
20.526
33.5432
48.1859
64.115
78.3735
-38.2798
-36.8576
-35.6175
-34.5557
-33.6689
-32.9516
-32.3884
-31.9485
-31.6024
-31.3417
-31.1368
-30.9885
-30.873
-30.7914
-30.7246
-30.6651
-30.6195
-30.5736
-30.5308
-30.5008
-30.4749
-30.4449
-30.414
-30.3803
-30.3533
-30.3214
-30.2957
-30.2681
-30.2449
-30.2137
-30.1805
-30.1472
-30.1109
-30.081
-30.0453
-30.0139
-29.9898
-29.9661
-29.9392
-29.9102
-29.879
-29.853
-29.8207
-29.7952
-29.7722
-29.7466
-29.7156
-29.6803
-29.6469
-29.6035
-29.5753
-29.536
-29.5205
-29.4935
-29.4611
-29.4262
-29.3964
-29.3623
-29.3336
-29.2963
-29.2504
-29.1988
-29.1464
-29.0832
-29.0179
-28.9502
-28.8833
-28.8159
-28.7526
-28.7034
-28.7046
-28.8129
-29.113
-29.7574
-30.9552
-33.1917
-37.5921
-43.3631
-50.1949
-57.4186
-63.8276
-68.3408
-71.1612
-72.844
-74.176
-75.1949
-75.9956
-76.8423
-77.6332
-78.249
-78.4246
-77.5788
-77.0782
-75.6095
-73.7048
-71.723
-69.837
-68.0498
-66.5398
-65.3042
-64.3843
-63.8235
-63.4827
-63.1468
-63.1041
-63.2402
-63.2927
-63.3781
-63.5286
-63.7319
-63.9057
-64.1175
-64.305
-64.544
-64.809
-65.0745
-65.3462
-65.6309
-65.9562
-66.328
-66.6953
-67.0857
-67.4746
-67.879
-68.2933
-68.7167
-69.1413
-69.5539
-69.9603
-70.3483
-70.7459
-71.1261
-71.5147
-71.8965
-72.2856
-72.671
-73.0547
-73.4407
-73.8255
-74.2102
-74.6008
-74.9886
-75.3815
-75.7783
-76.1816
-76.5809
-76.9787
-77.3746
-77.7718
-78.1678
-78.5683
-78.9694
-79.3776
-79.783
-80.1931
-80.6037
-81.033
-81.4657
-81.879
-82.2704
-82.6156
-82.9152
-83.1414
-83.3572
-83.5187
-83.6335
-83.7385
-83.7628
-83.6866
-83.4316
-82.9601
-82.2138
-81.156
-79.7458
-77.949
-75.7281
-73.0258
-69.824
-66.0682
-61.7082
-56.7165
-51.071
-44.7786
-37.8512
-30.3197
-22.1965
-13.4666
-4.01226
6.40335
18.0589
30.9912
44.8105
56.9613
-37.8332
-36.6189
-35.5524
-34.6088
-33.8174
-33.1524
-32.6177
-32.1838
-31.8418
-31.5662
-31.3475
-31.1711
-31.0311
-30.9252
-30.8419
-30.776
-30.7141
-30.6686
-30.6323
-30.5915
-30.5548
-30.5275
-30.501
-30.4784
-30.4496
-30.4248
-30.3881
-30.3539
-30.3155
-30.287
-30.2538
-30.2175
-30.188
-30.1606
-30.1426
-30.1071
-30.0736
-30.0472
-30.0212
-29.9975
-29.9764
-29.9518
-29.9303
-29.8978
-29.8613
-29.8241
-29.7902
-29.758
-29.7259
-29.7074
-29.6743
-29.6453
-29.5978
-29.5642
-29.5381
-29.5093
-29.4693
-29.4374
-29.4045
-29.3702
-29.3272
-29.283
-29.2346
-29.1826
-29.1249
-29.0721
-29.0236
-28.9828
-28.9488
-28.9332
-28.967
-29.0904
-29.3684
-29.9208
-30.925
-32.6774
-35.7314
-40.2695
-46.0901
-52.6301
-58.9985
-64.4431
-68.633
-71.4969
-73.3722
-74.6729
-75.7457
-76.7412
-77.6149
-78.3839
-78.9823
-79.3745
-78.1054
-76.6189
-74.6918
-72.686
-70.8837
-69.0094
-67.1679
-65.6617
-64.6087
-63.9589
-63.5815
-63.3645
-63.225
-63.0778
-63.0811
-63.2109
-63.3299
-63.4906
-63.6965
-63.8942
-64.1042
-64.3273
-64.6233
-64.938
-65.2369
-65.5327
-65.8625
-66.2319
-66.6057
-66.9934
-67.3755
-67.762
-68.1649
-68.5761
-68.9893
-69.3996
-69.8042
-70.1949
-70.5894
-70.9636
-71.3442
-71.7115
-72.0959
-72.474
-72.8575
-73.2366
-73.6255
-74.0101
-74.4061
-74.8045
-75.2048
-75.6135
-76.0278
-76.4462
-76.8568
-77.2722
-77.6802
-78.0963
-78.507
-78.9319
-79.3552
-79.7955
-80.232
-80.6863
-81.1367
-81.6112
-82.0979
-82.5868
-83.0798
-83.5581
-84.0163
-84.4108
-84.7436
-84.9791
-85.103
-85.1226
-85.0392
-84.8403
-84.5002
-83.9791
-83.2352
-82.2182
-80.8745
-79.1402
-76.9506
-74.2804
-71.0798
-67.3108
-62.9607
-58.0199
-52.502
-46.4216
-39.7966
-32.6147
-24.8371
-16.3418
-6.94307
3.53519
15.0919
27.3004
37.9089
-37.053
-36.057
-35.161
-34.3658
-33.6847
-33.0959
-32.6002
-32.1851
-31.8404
-31.5638
-31.3341
-31.1573
-31.0164
-30.9084
-30.8198
-30.7422
-30.6844
-30.6293
-30.5775
-30.5416
-30.5097
-30.4746
-30.4408
-30.4063
-30.3791
-30.3463
-30.3206
-30.2943
-30.2707
-30.2394
-30.2078
-30.1757
-30.1397
-30.1091
-30.0722
-30.0469
-30.0209
-29.9919
-29.9646
-29.9354
-29.905
-29.8794
-29.8463
-29.8251
-29.8028
-29.7783
-29.7464
-29.7128
-29.6833
-29.6468
-29.6272
-29.5982
-29.5789
-29.5506
-29.5179
-29.4852
-29.4638
-29.4391
-29.4168
-29.3864
-29.354
-29.3222
-29.2935
-29.2593
-29.2267
-29.1921
-29.1637
-29.1427
-29.1331
-29.1477
-29.2125
-29.3565
-29.6253
-30.1122
-30.9511
-32.358
-34.6427
-38.0299
-42.5463
-48.0211
-53.9032
-59.4698
-64.197
-67.9374
-70.7356
-72.7492
-74.2257
-75.3831
-76.297
-77.0221
-77.5164
-77.6713
-77.4439
-76.3247
-74.7771
-72.9211
-71.0465
-69.3505
-67.6988
-66.1039
-64.7455
-63.7649
-63.2459
-63.0195
-62.9754
-62.8908
-62.9298
-63.1276
-63.3002
-63.4542
-63.6732
-63.9063
-64.1221
-64.3729
-64.6262
-64.9155
-65.1989
-65.4834
-65.8034
-66.1658
-66.5201
-66.8962
-67.2546
-67.6322
-68.0271
-68.4307
-68.8359
-69.2363
-69.6369
-70.016
-70.3962
-70.7598
-71.1247
-71.4859
-71.8544
-72.2229
-72.594
-72.9649
-73.3404
-73.7231
-74.1147
-74.5074
-74.9081
-75.3134
-75.7257
-76.1367
-76.5474
-76.9544
-77.3575
-77.7575
-78.1602
-78.5633
-78.9741
-79.3914
-79.8237
-80.2695
-80.7314
-81.202
-81.6736
-82.1563
-82.6411
-83.1279
-83.6038
-84.0718
-84.5205
-84.9548
-85.3386
-85.643
-85.8469
-85.9216
-85.846
-85.6105
-85.1846
-84.5296
-83.594
-82.318
-80.6276
-78.4867
-75.8448
-72.6706
-68.9582
-64.7082
-59.9355
-54.6533
-48.8709
-42.5663
-35.6771
-28.0771
-19.6123
-10.1584
0.264629
11.2132
20.6556
-36.012
-35.2422
-34.5478
-33.9358
-33.406
-32.9369
-32.5335
-32.1813
-31.8903
-31.6431
-31.4419
-31.2708
-31.1309
-31.0171
-30.921
-30.847
-30.7747
-30.7195
-30.6757
-30.6319
-30.5919
-30.5587
-30.5318
-30.5098
-30.4819
-30.4573
-30.42
-30.3912
-30.3507
-30.3179
-30.2844
-30.2487
-30.2188
-30.1907
-30.1708
-30.1379
-30.1069
-30.0803
-30.051
-30.0269
-30.0063
-29.9797
-29.9561
-29.9268
-29.8907
-29.8531
-29.8219
-29.7903
-29.7589
-29.7407
-29.7156
-29.7161
-29.6512
-29.6133
-29.5917
-29.5664
-29.5337
-29.5106
-29.4846
-29.4591
-29.431
-29.4052
-29.3769
-29.3511
-29.3221
-29.2974
-29.2792
-29.277
-29.2936
-29.3402
-29.4345
-29.5965
-29.8665
-30.3109
-31.0273
-32.1638
-33.9285
-36.5196
-40.0097
-44.3589
-49.3281
-54.4549
-59.2823
-63.4727
-66.8923
-69.5741
-71.6419
-73.2553
-74.4954
-75.4422
-76.11
-76.4915
-76.5617
-75.7229
-74.5533
-73.0801
-71.4366
-69.7778
-68.2356
-66.8132
-65.5647
-64.5952
-63.9033
-63.5294
-63.3121
-63.0321
-62.9118
-63.093
-63.35
-63.456
-63.6322
-63.828
-64.0459
-64.2883
-64.5502
-64.8532
-65.1385
-65.4131
-65.7115
-66.0512
-66.4261
-66.813
-67.174
-67.5399
-67.9167
-68.3037
-68.6912
-69.0845
-69.486
-69.8716
-70.2509
-70.6095
-70.969
-71.3134
-71.6671
-72.0248
-72.3912
-72.7571
-73.1313
-73.5084
-73.9004
-74.2989
-74.7068
-75.1236
-75.546
-75.9721
-76.3937
-76.8159
-77.2277
-77.6417
-78.0492
-78.4616
-78.8727
-79.2983
-79.7343
-80.1937
-80.6625
-81.1572
-81.6712
-82.1979
-82.7289
-83.2546
-83.7745
-84.2806
-84.7783
-85.2599
-85.7222
-86.1484
-86.5169
-86.8016
-86.9781
-87.0244
-86.9173
-86.6203
-86.0845
-85.2518
-84.0499
-82.4307
-80.3447
-77.7599
-74.673
-71.092
-67.0364
-62.5151
-57.5335
-52.0641
-46.0313
-39.2922
-31.7008
-23.1558
-13.6887
-3.74825
4.79698
-34.6871
-34.1647
-33.6917
-33.2677
-32.8985
-32.5621
-32.2567
-31.9857
-31.7478
-31.5384
-31.3548
-31.2002
-31.071
-30.9593
-30.8697
-30.7877
-30.7292
-30.6742
-30.6189
-30.5765
-30.5413
-30.506
-30.47
-30.4354
-30.4083
-30.3774
-30.3517
-30.3233
-30.3006
-30.2711
-30.2397
-30.2068
-30.17
-30.1376
-30.0997
-30.0774
-30.0494
-30.0196
-29.994
-29.9642
-29.9346
-29.9104
-29.8814
-29.8608
-29.8377
-29.8118
-29.7797
-29.746
-29.716
-29.68
-29.6534
-29.608
-29.6145
-29.5918
-29.5612
-29.5318
-29.5184
-29.5018
-29.486
-29.4636
-29.4404
-29.4189
-29.4048
-29.3907
-29.387
-29.3904
-29.4017
-29.4137
-29.4412
-29.5033
-29.6161
-29.794
-30.0644
-30.4825
-31.1163
-32.067
-33.4706
-35.4847
-38.2063
-41.6563
-45.7201
-50.1497
-54.619
-58.8128
-62.5192
-65.6293
-68.1603
-70.1908
-71.7713
-72.9738
-73.8273
-74.3003
-74.2855
-74.2809
-73.6178
-72.5769
-71.2997
-69.9067
-68.4978
-67.1276
-65.9302
-64.9012
-64.074
-63.4238
-63.1387
-63.0253
-62.9097
-62.9002
-63.0422
-63.3846
-63.719
-63.8669
-63.997
-64.2255
-64.5021
-64.7753
-65.0655
-65.3708
-65.6728
-66.0179
-66.3644
-66.7382
-67.0724
-67.4201
-67.7835
-68.1635
-68.5486
-68.9323
-69.3209
-69.6999
-70.0714
-70.4235
-70.774
-71.1113
-71.4501
-71.7938
-72.1453
-72.5013
-72.865
-73.2351
-73.6183
-74.0097
-74.4163
-74.8328
-75.2577
-75.6858
-76.1137
-76.5368
-76.9497
-77.3572
-77.7621
-78.1653
-78.5707
-78.9824
-79.4099
-79.8586
-80.3316
-80.8349
-81.362
-81.9159
-82.4882
-83.0725
-83.6626
-84.2525
-84.8366
-85.4134
-85.9807
-86.5278
-87.0413
-87.5049
-87.901
-88.2062
-88.3979
-88.4439
-88.299
-87.9041
-87.1874
-86.0893
-84.5567
-82.5548
-80.0795
-77.1417
-73.7692
-69.9756
-65.7634
-61.1036
-55.9131
-50.0311
-43.2889
-35.5817
-26.9456
-17.8277
-9.97353
-33.1645
-32.8812
-32.6542
-32.4383
-32.2521
-32.0704
-31.8937
-31.7334
-31.5792
-31.4345
-31.3088
-31.1962
-31.097
-31.0115
-30.93
-30.8653
-30.7993
-30.7415
-30.697
-30.6524
-30.6126
-30.5796
-30.5554
-30.5332
-30.5065
-30.4819
-30.4485
-30.4181
-30.3785
-30.3458
-30.3128
-30.2775
-30.246
-30.2155
-30.1913
-30.1606
-30.1317
-30.1027
-30.0708
-30.05
-30.0305
-30.0066
-29.9851
-29.9545
-29.9264
-29.8899
-29.8542
-29.8211
-29.7883
-29.7662
-29.7378
-29.7167
-29.6677
-29.6351
-29.6137
-29.6056
-29.583
-29.568
-29.5503
-29.5338
-29.5167
-29.5035
-29.4888
-29.4805
-29.4749
-29.4812
-29.4916
-29.5095
-29.5495
-29.6295
-29.7597
-29.9482
-30.2212
-30.619
-31.1922
-32.0129
-33.1742
-34.7864
-36.9395
-39.6886
-42.9947
-46.7231
-50.6639
-54.5809
-58.2702
-61.5704
-64.4177
-66.8112
-68.7562
-70.3023
-71.4796
-72.2818
-72.6846
-72.8134
-72.5061
-71.8734
-70.9836
-69.9217
-68.7814
-67.6309
-66.5422
-65.5863
-64.8039
-64.221
-63.6617
-63.3912
-63.2642
-63.2605
-63.3371
-63.4591
-63.6183
-63.8135
-64.0245
-64.3378
-64.6113
-64.7857
-64.9895
-65.2538
-65.5539
-65.8804
-66.2368
-66.625
-66.9866
-67.3465
-67.6857
-68.041
-68.403
-68.7767
-69.1607
-69.5402
-69.9264
-70.2818
-70.6236
-70.947
-71.2721
-71.6004
-71.938
-72.2824
-72.6388
-72.999
-73.3752
-73.7643
-74.1724
-74.5933
-75.0249
-75.4647
-75.9019
-76.3361
-76.7557
-77.169
-77.5717
-77.9716
-78.3686
-78.7731
-79.1886
-79.6261
-80.083
-80.5742
-81.0968
-81.6533
-82.2399
-82.8524
-83.4852
-84.1313
-84.7843
-85.4419
-86.1052
-86.765
-87.4116
-88.0323
-88.6163
-89.148
-89.6046
-89.9629
-90.1889
-90.2228
-89.9896
-89.4171
-88.4427
-87.022
-85.1485
-82.8305
-80.1033
-76.9967
-73.5215
-69.6534
-65.3066
-60.2979
-54.4193
-47.529
-39.6552
-31.2308
-23.8855
-31.4071
-31.4005
-31.4141
-31.422
-31.428
-31.4104
-31.3729
-31.3329
-31.2704
-31.1996
-31.1271
-31.0485
-30.972
-30.9036
-30.8396
-30.7771
-30.7278
-30.6813
-30.6349
-30.6002
-30.5674
-30.5292
-30.4941
-30.4633
-30.4373
-30.4089
-30.39
-30.3595
-30.3359
-30.3067
-30.2754
-30.2419
-30.2048
-30.168
-30.1298
-30.1094
-30.0818
-30.0527
-30.0256
-29.9946
-29.9663
-29.9431
-29.9187
-29.9
-29.874
-29.8507
-29.8209
-29.7871
-29.7549
-29.7202
-29.6942
-29.6603
-29.6487
-29.6243
-29.5889
-29.567
-29.5575
-29.5469
-29.5379
-29.5253
-29.5117
-29.4948
-29.4851
-29.4796
-29.49
-29.5099
-29.5434
-29.5895
-29.6514
-29.7397
-29.8731
-30.0632
-30.3316
-30.7122
-31.2389
-31.9663
-32.9591
-34.2986
-36.0554
-38.2884
-40.9938
-44.115
-47.5209
-51.0484
-54.5288
-57.8029
-60.7721
-63.3851
-65.6015
-67.4304
-68.8903
-69.9739
-70.691
-71.0736
-71.1572
-70.8715
-70.3529
-69.6108
-68.7394
-67.8105
-66.8729
-65.987
-65.2075
-64.5307
-64.063
-63.6924
-63.445
-63.3247
-63.314
-63.4136
-63.5813
-63.7643
-63.9455
-64.1649
-64.4164
-64.7155
-65.0387
-65.3588
-65.5935
-65.8337
-66.1388
-66.4819
-66.8425
-67.2134
-67.5728
-67.9276
-68.2758
-68.6403
-69.0212
-69.3874
-69.7611
-70.114
-70.4554
-70.7775
-71.0935
-71.4093
-71.7311
-72.0604
-72.4034
-72.7532
-73.1213
-73.5008
-73.9018
-74.3216
-74.7551
-75.2003
-75.6498
-76.0967
-76.5267
-76.9449
-77.3498
-77.7482
-78.1413
-78.5373
-78.9412
-79.3673
-79.8158
-80.3001
-80.8154
-81.3683
-81.9606
-82.5885
-83.2466
-83.931
-84.6367
-85.3586
-86.1007
-86.8575
-87.6206
-88.3766
-89.1169
-89.835
-90.5223
-91.1609
-91.7229
-92.1596
-92.3988
-92.3519
-91.9442
-91.1134
-89.8414
-88.1314
-86.0168
-83.5462
-80.7589
-77.6494
-74.1461
-70.0512
-65.0897
-59.0507
-51.935
-44.1333
-37.1703
-29.4515
-29.7293
-30.0098
-30.2535
-30.4791
-30.6492
-30.7713
-30.8681
-30.9176
-30.9441
-30.9489
-30.9301
-30.909
-30.8759
-30.8385
-30.8084
-30.7637
-30.7211
-30.6884
-30.65
-30.6181
-30.5941
-30.5721
-30.5473
-30.5235
-30.505
-30.4719
-30.4426
-30.4108
-30.3799
-30.3427
-30.3081
-30.2737
-30.2393
-30.2103
-30.1727
-30.1416
-30.1138
-30.087
-30.0656
-30.0453
-30.0238
-30.0039
-29.9753
-29.9554
-29.9257
-29.8915
-29.8554
-29.821
-29.7921
-29.7611
-29.7372
-29.6972
-29.6676
-29.6534
-29.6255
-29.6089
-29.6028
-29.5951
-29.5878
-29.5784
-29.5742
-29.5685
-29.5697
-29.5768
-29.5965
-29.6235
-29.6624
-29.7184
-29.8076
-29.9416
-30.1297
-30.3946
-30.7591
-31.25
-31.9044
-32.7733
-33.9189
-35.3987
-37.2617
-39.5211
-42.1563
-45.0924
-48.2259
-51.4258
-54.5569
-57.5114
-60.2202
-62.6089
-64.6626
-66.3733
-67.7345
-68.7485
-69.4324
-69.779
-69.7196
-69.5707
-69.1506
-68.5596
-67.8616
-67.1173
-66.3729
-65.6757
-65.0569
-64.5112
-64.1082
-63.8167
-63.6344
-63.5562
-63.5589
-63.626
-63.7555
-63.9327
-64.1462
-64.38
-64.6052
-64.8309
-65.1134
-65.4177
-65.7523
-66.106
-66.4602
-66.7626
-67.07
-67.41
-67.7565
-68.0993
-68.4493
-68.821
-69.2046
-69.5917
-69.9513
-70.3039
-70.6179
-70.9295
-71.2326
-71.5374
-71.8494
-72.1759
-72.5134
-72.8722
-73.2423
-73.6365
-74.0534
-74.4878
-74.9387
-75.3959
-75.8551
-76.2948
-76.7218
-77.1268
-77.5207
-77.9028
-78.2887
-78.6801
-79.0923
-79.5272
-79.9985
-80.5024
-81.0498
-81.6426
-82.2775
-82.9495
-83.6551
-84.3956
-85.1668
-85.9732
-86.8072
-87.6618
-88.5246
-89.3904
-90.2623
-91.1509
-92.0382
-92.8956
-93.6877
-94.3629
-94.8232
-94.9856
-94.7627
-94.1089
-93.0147
-91.5006
-89.6183
-87.4427
-85.0142
-82.3145
-79.169
-75.2326
-70.1591
-63.8951
-56.7272
-50.1539
-27.2973
-27.8525
-28.4199
-28.935
-29.3787
-29.7569
-30.0528
-30.2914
-30.4643
-30.5867
-30.67
-30.7099
-30.7288
-30.7287
-30.7122
-30.6916
-30.6741
-30.6514
-30.6186
-30.5917
-30.5621
-30.5323
-30.5087
-30.4842
-30.461
-30.4409
-30.4291
-30.4108
-30.3889
-30.3579
-30.3255
-30.2853
-30.2463
-30.2071
-30.1644
-30.1395
-30.1096
-30.0777
-30.0519
-30.0224
-29.9962
-29.9754
-29.9547
-29.9371
-29.9148
-29.8938
-29.8701
-29.8398
-29.8031
-29.7646
-29.7321
-29.6977
-29.6771
-29.6533
-29.6252
-29.6064
-29.582
-29.5729
-29.5701
-29.5659
-29.5653
-29.5589
-29.5538
-29.5471
-29.5544
-29.5761
-29.6156
-29.667
-29.7404
-29.8413
-29.9822
-30.1745
-30.4304
-30.7742
-31.2271
-31.8244
-32.6006
-33.6063
-34.8833
-36.4766
-38.4059
-40.6688
-43.2247
-46.0107
-48.9284
-51.8691
-54.7325
-57.4491
-59.9283
-62.1301
-64.0304
-65.6109
-66.8761
-67.8334
-68.538
-68.9951
-68.9195
-68.7166
-68.3283
-67.82
-67.2351
-66.6178
-66.006
-65.442
-64.9389
-64.4886
-64.1454
-63.9045
-63.7461
-63.6759
-63.679
-63.7397
-63.8554
-64.0231
-64.2323
-64.4677
-64.7212
-64.9917
-65.2653
-65.5469
-65.8539
-66.1992
-66.5617
-66.9452
-67.3313
-67.7116
-68.0625
-68.3841
-68.715
-69.0618
-69.43
-69.7832
-70.1411
-70.4539
-70.779
-71.0779
-71.3871
-71.6834
-71.9978
-72.3139
-72.6496
-73.0013
-73.3785
-73.7836
-74.2148
-74.6651
-75.1232
-75.6014
-76.0543
-76.493
-76.9013
-77.3008
-77.6754
-78.0536
-78.422
-78.8085
-79.2246
-79.6831
-80.1747
-80.7099
-81.2968
-81.9324
-82.6091
-83.3228
-84.0848
-84.8877
-85.7387
-86.6247
-87.5463
-88.4901
-89.4658
-90.4774
-91.5305
-92.6087
-93.6991
-94.7797
-95.8199
-96.7361
-97.4524
-97.8645
-97.8776
-97.4392
-96.5458
-95.2264
-93.5712
-91.6937
-89.6767
-87.4543
-84.6832
-80.8254
-75.6597
-69.3082
-63.1728
-24.9354
-25.8128
-26.6872
-27.4918
-28.1864
-28.7826
-29.2704