/*--------------------------------*- C++ -*----------------------------------*\
| =========                 |                                                 |
| \\      /  F ield         | OpenFOAM: The Open Source CFD Toolbox           |
|  \\    /   O peration     | Version:  4.1                                   |
|   \\  /    A nd           | Web:      www.OpenFOAM.org                      |
|    \\/     M anipulation  |                                                 |
\*---------------------------------------------------------------------------*/
FoamFile
{
    version     2.0;
    format      ascii;
    class       volScalarField;
    location    "88";
    object      p;
}
// * * * * * * * * * * * * * * * * * * * * * * * * * * * * * * * * * * * * * //

dimensions      [0 2 -2 0 0 0 0];

internalField   nonuniform List<scalar> 
204246
(
126.447
0.479872
44.5375
28.1712
24.4107
31.6597
20.0849
31.8727
18.8629
31.7644
18.2338
32.3559
16.6581
32.5892
17.7721
29.9187
24.0211
18.5313
30.5797
15.8916
31.7049
16.1196
30.2673
16.7923
30.0886
16.5638
30.9544
14.8303
31.9012
14.6023
31.9742
15.1274
31.181
17.7155
27.4703
24.0714
17.459
29.8793
16.2337
29.7047
16.7212
29.9291
16.5437
30.9295
14.8819
31.8502
14.7915
31.5978
15.9862
29.3719
18.2507
26.7832
23.8747
16.7913
29.2485
15.3764
28.767
15.6289
28.7392
15.2214
29.5323
13.3574
30.2956
13.1225
29.9443
14.2416
27.6961
16.4521
25.2149
21.8301
16.1961
25.9542
14.8787
26.9938
14.5071
27.4368
14.089
28.4682
12.3427
29.4081
12.2443
29.203
13.4669
27.0879
15.7412
24.6747
21.2638
15.6621
25.47
14.2814
26.6698
13.5892
27.8534
11.6637
28.8145
11.1966
28.8305
11.1443
28.2742
11.9151
26.1182
12.7524
24.9664
13.4413
22.9024
16.7926
13.1594
21.3539
9.76009
22.2839
6.35696
21.4736
5.44266
18.6131
3.83687
15.6405
1.49876
12.2114
-1.4014
8.09031
-4.27501
2.45945
-3.77308
-11.0577
-5.62348
-16.3272
-9.1926
-21.8777
-13.4118
-26.8076
-17.2961
-30.7954
-20.1932
-33.9816
-21.8855
-35.5714
-22.8175
-34.7104
-24.3601
-28.0366
-32.6473
-19.9686
-32.7182
-16.8021
-30.4543
-14.2357
-28.191
-11.2789
-26.4213
-9.21458
-24.5107
-7.56288
-22.2958
-6.58986
-18.7734
-7.11699
-11.2068
-15.0772
-2.89477
-15.1768
0.899827
-12.7409
3.50903
-8.7025
6.41669
-3.90962
10.57
1.90278
15.8442
8.92359
22.1421
17.8735
30.1352
29.352
39.5909
46.0727
48.3201
62.1215
66.6514
79.9295
89.694
103.029
117.359
132.27
152.219
169.962
198.322
220.972
264.849
293.784
381.542
397.442
604.496
52.7607
27.3373
27.4546
31.2391
24.5892
29.0651
23.3448
27.9837
22.8241
27.5057
22.4136
27.499
22.2725
26.5066
23.583
24.1987
26.7535
21.0629
26.5632
21.0745
26.1055
21.491
25.5936
21.2623
25.6902
20.8408
26.1485
20.3929
26.0143
20.535
25.7173
21.1261
24.7746
22.7976
22.8165
25.8503
20.3894
25.5655
20.975
25.2739
20.9999
25.56
20.7676
26.1239
20.4586
25.9639
20.7632
25.4262
21.6232
24.3051
22.6756
22.4639
25.5355
19.9199
24.9932
20.2755
24.4307
20.0403
24.4568
19.5555
24.7877
19.0239
24.4346
19.151
23.7657
19.8832
22.6155
20.8511
20.8963
23.4225
18.7666
22.9174
18.6832
22.9565
18.6141
23.1537
18.3089
23.6575
17.9528
23.4762
18.2438
22.966
19.1216
21.9365
20.2303
20.2594
22.882
18.218
22.47
18.088
22.673
17.7775
23.193
17.3218
23.0654
17.2941
22.8172
17.3778
22.2504
17.759
21.4009
17.6461
20.5472
18.0563
18.6764
19.9331
15.3386
19.1775
14.0651
18.5154
12.6411
16.6914
11.3885
14.861
9.41544
12.7251
6.96528
9.78518
4.31264
5.72517
1.83386
-0.190072
0.814592
-5.85195
-6.30669
-11.5335
-10.6431
-16.4924
-15.2844
-21.3526
-19.6086
-26.0051
-22.6773
-29.4815
-25.0616
-31.274
-27.0057
-30.8064
-29.5086
-26.3726
-31.1217
-24.4821
-28.3139
-22.984
-25.9922
-20.3644
-24.2672
-17.9816
-21.8713
-15.9892
-19.8113
-14.3914
-17.6237
-13.2374
-14.8861
-13.293
-10.2468
-13.9651
-8.15979
-11.7727
-5.97035
-9.04119
-3.38667
-6.0143
-0.0791187
-2.38766
3.85286
2.29513
8.69307
8.2214
14.2043
15.9214
21.1893
25.665
29.3213
38.0319
41.7122
50.7715
57.3125
66.8027
76.4869
86.9191
99.953
111.543
128.758
141.433
164.691
178.176
213.412
219.994
294.748
260.185
394.865
18.4739
35.3353
26.795
30.5259
25.6028
28.8611
23.9485
27.8386
23.3047
27.3855
22.9185
27.1035
22.8478
26.3347
23.6297
24.6896
25.2372
22.6582
25.7337
21.8294
25.8122
21.6338
25.6054
21.4383
25.5663
21.1656
25.7059
20.8876
25.6992
20.9324
25.5043
21.421
24.8085
22.6079
23.3147
24.3023
21.7683
24.8834
21.3784
25.1538
21.2368
25.3963
21.0923
25.67
20.9323
25.6601
21.0863
25.3099
21.6351
24.4641
22.5507
22.9707
24.0148
21.28
24.3328
20.6652
24.3263
20.2766
24.3119
19.8844
24.356
19.5024
24.1554
19.4767
23.6734
19.894
22.7731
20.7103
21.3575
22.0623
19.8507
22.4247
19.1919
22.729
18.9038
22.9545
18.635
23.2018
18.4013
23.1802
18.5269
22.8495
19.0767
22.0741
20.0087
20.7604
21.4603
19.2639
21.9283
18.5529
22.3511
18.1098
22.6772
17.7259
22.7171
17.5588
22.5636
17.5416
22.1324
17.658
21.442
17.7145
20.4617
18.0121
18.7901
18.7577
16.444
18.5951
14.7428
18.0638
13.1605
16.7683
11.7382
14.8417
10.0176
12.4485
7.90698
9.28719
5.47184
5.25808
2.98287
0.129212
-0.665307
-4.88275
-5.30963
-9.93766
-10.9689
-15.2219
-15.8296
-20.3899
-20.1675
-24.8243
-24.3478
-28.1615
-26.7609
-29.9961
-28.4572
-30.1856
-29.6466
-27.9905
-30.3737
-25.8655
-28.6415
-23.4445
-26.2334
-20.7221
-23.8575
-18.1771
-21.6665
-15.9414
-19.6019
-14.2187
-17.4141
-13.0662
-14.6204
-12.8052
-11.1157
-12.4793
-8.44928
-11.1168
-5.75508
-8.851
-3.22737
-5.70469
-0.409176
-1.52104
3.28763
3.41258
8.13237
9.29345
14.2175
16.721
21.6622
26.2115
31.2384
37.7513
42.7343
51.7083
58.3054
68.5022
78.1658
89.4039
102.94
115.436
134.078
147.882
173.54
188.224
227.924
235.863
312.016
290.736
379.521
10.9437
25.4836
21.5746
27.3842
23.2664
27.1785
23.8344
26.3067
24.0356
25.7952
24.0647
25.4443
24.3022
24.67
24.9877
23.6023
25.7298
23.021
25.038
23.0658
24.4586
23.1062
24.1533
22.8585
24.0885
22.5973
24.0916
22.4979
23.8652
22.6338
23.5599
23.0539
23.0259
23.8572
22.3431
24.5932
22.1444
24.0957
22.4641
23.9074
22.5171
23.9857
22.4946
24.1029
22.5662
23.906
22.8228
23.5426
23.249
22.999
23.7523
22.2186
24.3502
21.8271
23.639
21.9038
23.1696
21.6743
22.9764
21.3748
22.8367
21.1945
22.4193
21.2345
21.8894
21.5021
21.2646
21.9041
20.5074
22.4047
20.1824
21.851
20.1528
21.6213
20.1209
21.5965
20.0311
21.6379
20.0538
21.4052
20.2856
21.0513
20.7144
20.5678
21.245
19.9145
21.8838
19.6641
21.4351
19.6368
21.3062
19.5519
21.311
19.4997
21.1059
19.5173
20.8597
19.5625
20.5039
19.6157
20.0757
19.4993
19.4182
19.5331
18.328
19.7518
17.3652
18.5555
16.4943
17.4668
15.5248
15.9853
14.2709
14.3692
12.5212
12.456
10.3636
9.81052
7.88585
6.24056
5.0811
1.99461
1.50656
-2.70273
-3.86309
-7.70409
-9.28228
-12.8651
-14.9518
-18.0172
-20.0479
-23.0397
-24.4153
-27.1487
-27.9138
-29.2386
-30.0433
-29.7851
-31.1262
-28.6403
-30.3555
-27.595
-28.0392
-25.7644
-25.5708
-23.3496
-23.3029
-20.9557
-21.0286
-18.9457
-18.8632
-17.3463
-16.6578
-16.0016
-14.4492
-14.9483
-12.5732
-13.4982
-11.0552
-11.496
-9.38529
-9.21133
-7.01231
-6.7286
-4.25514
-3.6168
-0.888856
0.262141
3.33789
5.03712
8.38017
11.248
14.6885
18.9431
22.5107
28.6776
32.8092
39.721
45.8362
53.1217
61.7752
69.5846
81.1813
89.4452
104.7
113.411
133.995
141.102
174.146
168.987
226.496
213.358
284.456
9.25868
26.3651
20.2827
26.2349
23.6014
26.2157
24.3765
26.0244
24.4949
25.7298
24.4588
25.369
24.6055
24.7586
24.9192
24.0742
25.0583
23.8593
24.599
23.6271
24.2977
23.3818
24.1547
23.0783
24.0513
22.8652
23.9458
22.8213
23.7646
22.9027
23.5403
23.1816
23.1606
23.6119
22.7835
23.9007
22.8361
23.6985
22.8554
23.7821
22.7738
23.8883
22.7507
23.9262
22.8529
23.7964
23.0163
23.5522
23.2686
23.1806
23.5607
22.6389
23.6824
22.5233
23.2558
22.3099
23.062
21.9631
22.9057
21.6679
22.692
21.521
22.3362
21.4721
21.9176
21.5559
21.4331
21.7337
20.8857
21.8063
20.7801
21.5348
20.5865
21.4687
20.4206
21.4686
20.3034
21.4402
20.3296
21.2731
20.4537
21.0254
20.6857
20.6917
20.9814
20.2535
21.2011
20.1796
21.0194
19.9881
21.024
19.808
21.0101
19.738
20.8691
19.6822
20.6828
19.6336
20.4086
19.5391
20.1008
19.5126
19.3709
19.4768
18.5427
19.0682
17.8085
18.404
16.934
17.3698
15.965
16.1038
14.7081
14.5694
13.0427
12.6986
11.0136
10.1285
8.63762
6.79513
5.6012
2.91219
1.79921
-1.40608
-2.90344
-6.51653
-8.51984
-11.6791
-14.4828
-16.9067
-20.0036
-22.0574
-24.4809
-26.4233
-28.0649
-29.1106
-30.4904
-30.1468
-31.4291
-30.1011
-30.8303
-28.8304
-28.7401
-26.6147
-25.9613
-23.9616
-23.2069
-21.2855
-20.6342
-18.9135
-18.4987
-17.1328
-16.3947
-15.6187
-14.2509
-14.1659
-12.3322
-12.6249
-10.7587
-10.7048
-8.86549
-8.62558
-6.52144
-6.07854
-3.74318
-2.88332
-0.254946
1.01736
4.0797
5.87207
9.34543
12.0762
15.9303
19.9217
24.2021
29.6135
34.7789
41.4821
48.3373
56.0517
65.3121
73.9214
86.3802
95.7008
112.199
121.788
144.286
152.053
186.395
183.344
232.622
221.258
266.358
9.14894
21.5853
18.2378
23.1263
21.8772
24.3903
23.3848
24.824
24.148
24.8343
24.544
24.672
24.8406
24.261
25.0934
23.9164
25.0311
23.8931
24.4644
23.9287
23.9177
23.7473
23.6582
23.4951
23.4735
23.3136
23.2896
23.2749
23.0597
23.3467
22.8528
23.5437
22.6768
23.7747
22.5405
23.8294
22.8064
23.4757
23.0355
23.3764
23.1193
23.375
23.1974
23.3555
23.3417
23.2156
23.5269
23.0183
23.6997
22.8136
23.8151
22.5981
23.7127
22.6422
23.1804
22.6509
22.7357
22.3962
22.4646
22.174
22.1563
22.0417
21.7707
21.9557
21.4005
21.9077
21.0877
21.9148
20.735
21.7955
20.7407
21.3539
20.7751
21.1061
20.7572
20.9811
20.7439
20.8764
20.8252
20.6886
20.9671
20.4976
21.131
20.3178
21.2793
20.1576
21.3022
20.2959
20.9532
20.3636
20.7728
20.3674
20.6315
20.4023
20.4432
20.4171
20.2583
20.4114
20.0607
20.3358
19.8631
20.1606
19.476
20.0085
18.9396
19.6465
18.3322
18.8636
17.7473
17.8353
16.9638
16.6092
15.8546
15.2269
14.3216
13.6041
12.4724
11.3059
10.199
8.33866
7.28993
4.66767
3.53997
0.325526
-1.2539
-4.5678
-6.88691
-10.0228
-12.8762
-15.8181
-18.7274
-21.437
-24.0178
-26.2329
-28.351
-29.6154
-31.2175
-31.3233
-32.3426
-31.4046
-31.4971
-30.1702
-29.4431
-28.0089
-26.7214
-25.3789
-23.9467
-22.6914
-21.5063
-20.3115
-19.3507
-18.3808
-17.2377
-16.9855
-15.4652
-15.6741
-14.0306
-14.1411
-12.6979
-12.5987
-11.152
-10.7977
-9.27123
-8.65923
-7.00581
-6.09519
-4.1645
-2.94128
-0.687944
0.971948
3.49261
5.91451
8.6881
12.0892
15.2974
19.726
23.8406
28.9195
34.6106
40.1478
47.9906
53.8893
64.3879
70.5797
84.3995
90.3716
109.154
112.411
142.814
136.363
177.545
175.035
215.632
11.6714
22.7953
18.7728
23.3193
22.1474
24.2286
23.6483
24.7506
24.3747
24.8763
24.735
24.774
24.978
24.4679
25.0416
24.2522
24.8817
24.3065
24.4372
24.2356
24.0028
23.9856
23.7228
23.7328
23.525
23.5519
23.3267
23.491
23.1489
23.4911
22.9982
23.5824
22.837
23.7122
22.8032
23.6259
23.1201
23.365
23.2811
23.3656
23.3136
23.3785
23.3678
23.3549
23.4992
23.2612
23.6051
23.146
23.7095
23.0052
23.7255
22.8963
23.5425
22.9787
23.1309
22.9072
22.7774
22.6565
22.5048
22.4236
22.2074
22.2649
21.8651
22.134
21.5284
22.0076
21.2414
21.8872
20.9668
21.6475
21.0825
21.2718
21.0769
21.0825
20.9953
20.9718
20.9377
20.8582
20.9656
20.7128
21.0255
20.5696
21.1052
20.4195
21.1474
20.3031
21.0271
20.4823
20.7699
20.5127
20.6432
20.484
20.5152
20.4824
20.3516
20.4658
20.1816
20.3998
20.0109
20.2671
19.8536
20.1123
19.4389
19.89
18.9928
19.5073
18.5554
18.8262
18.0074
17.9453
17.2455
16.9093
16.1996
15.6398
14.8133
14.0526
13.1487
11.9365
11.0004
9.26139
8.22321
5.92207
4.61838
1.88614
0.0207475
-2.99616
-5.45529
-8.5426
-11.5201
-14.5031
-17.7097
-20.4478
-23.4263
-25.7388
-28.2215
-29.6839
-31.5822
-31.9002
-33.14
-32.48
-32.8259
-31.3744
-30.7343
-28.8462
-27.6741
-25.6706
-24.3585
-22.5738
-21.3866
-19.935
-18.954
-17.8954
-16.7825
-16.2289
-14.8979
-14.7507
-13.2477
-13.3396
-11.8326
-11.7219
-10.2476
-9.93742
-8.3341
-7.82381
-5.99215
-5.28028
-3.16697
-2.06512
0.348994
1.94555
4.65674
6.96921
10.0679
13.2564
16.9493
21.0888
25.7918
30.7523
37.0718
42.6938
51.1251
57.2912
68.3985
74.8636
89.3157
95.4416
115.047
117.258
145.196
141.848
173.057
169.21
198.014
11.269
20.8635
17.6135
21.5314
20.9367
22.8306
22.7226
23.7689
23.7797
24.2151
24.4233
24.3393
24.8364
24.2623
24.9433
24.1902
24.7727
24.265
24.3673
24.2041
23.9928
23.9743
23.611
23.7101
23.3211
23.5252
23.055
23.4462
22.8583
23.4072
22.7325
23.4695
22.5985
23.5581
22.6657
23.4635
23.0065
23.2179
23.2055
23.1567
23.36
23.1446
23.4727
23.1214
23.5907
23.0601
23.6973
22.998
23.7755
22.9356
23.798
22.9064
23.5327
23.0291
23.1181
22.955
22.7788
22.7367
22.4085
22.5076
22.0631
22.316
21.7072
22.1321
21.3833
21.9753
21.1106
21.8255
20.8808
21.5214
20.9573
21.1373
21.0335
20.8888
21.0298
20.7436
21.025
20.6309
21.0711
20.5173
21.121
20.4214
21.161
20.3286
21.2251
20.3417
21.0647
20.5666
20.7778
20.6809
20.6134
20.7223
20.4669
20.767
20.3091
20.7733
20.1755
20.7426
20.0769
20.5998
20.0034
20.5134
19.7499
20.3113
19.3893
19.9289
19.0309
19.2696
18.6032
18.4877
17.9146
17.5794
16.9978
16.4504
15.8033
15.0042
14.2804
13.1232
12.2998
10.6493
9.6658
7.48765
6.1883
3.5495
1.71638
-1.25321
-3.74419
-6.90229
-9.94896
-13.2104
-16.5224
-19.7445
-22.9455
-25.751
-28.5539
-30.4721
-32.5977
-33.3591
-34.5273
-34.168
-34.2169
-33.0987
-32.1032
-30.4951
-28.9547
-27.1922
-25.4678
-23.9116
-22.3494
-21.1459
-19.7927
-19.0559
-17.7357
-17.5206
-16.144
-16.3014
-14.8993
-14.983
-13.9411
-13.7599
-12.6362
-12.3309
-11.0773
-10.5974
-9.19715
-8.47995
-6.93506
-5.91448
-4.15937
-2.77931
-0.801696
1.09416
3.38574
5.90759
8.74304
11.887
15.6792
19.3144
24.5008
28.5237
35.613
39.9064
49.3768
53.8477
66.3031
70.1607
87.798
88.5138
113.082
111.172
139.625
139.527
166.555
13.9763
22.5941
18.8713
22.6872
21.5733
23.3271
23.1078
23.9707
24.0091
24.3482
24.5688
24.4768
24.9507
24.4388
25.0228
24.449
24.8311
24.5608
24.4405
24.4626
24.1287
24.2302
23.7924
23.9671
23.4954
23.7615
23.2223
23.6359
23.0091
23.5794
22.8618
23.6087
22.7576
23.6055
22.8318
23.4668
23.1664
23.2595
23.3476
23.2359
23.4445
23.2403
23.5468
23.2253
23.654
23.1832
23.755
23.1283
23.8305
23.0746
23.8159
23.1136
23.559
23.2568
23.1839
23.179
22.9069
22.9871
22.5669
22.7665
22.213
22.5597
21.8685
22.3602
21.5296
22.147
21.2687
21.9431
21.0767
21.5818
21.2017
21.2188
21.2283
20.9858
21.1912
20.8175
21.1667
20.6917
21.1657
20.5835
21.1773
20.4852
21.194
20.3846
21.1275
20.4183
20.9428
20.6376
20.6768
20.731
20.544
20.7634
20.4107
20.7751
20.2772
20.7788
20.1486
20.7029
20.0733
20.5709
19.9078
20.3975
19.7328
20.2272
19.4436
19.8637
19.235
19.2287
18.8133
18.6126
18.1886
17.8433
17.3824
16.8492
16.3441
15.5805
15.0129
13.944
13.2753
11.8027
10.915
9.00568
7.71052
5.39018
3.47224
0.761847
-1.8333
-4.87838
-8.07324
-11.3638
-14.9475
-18.2716
-21.8991
-24.8764
-28.1544
-30.345
-32.8939
-33.9847
-35.5316
-35.4986
-35.8968
-34.7948
-34.0343
-32.023
-30.4384
-28.1057
-26.2204
-24.1185
-22.4117
-20.8735
-19.4166
-18.4512
-17.1081
-16.6628
-15.2707
-15.1841
-13.8805
-13.8801
-12.7286
-12.6843
-11.5759
-11.3086
-10.086
-9.65662
-8.27074
-7.64196
-6.05933
-5.1417
-3.31806
-2.01756
0.0531121
1.83005
4.27091
6.60471
9.6631
12.5909
16.6193
20.0551
25.5548
29.3765
36.7387
40.8471
50.4658
54.6611
67.206
70.4802
87.3395
87.7109
109.351
106.996
129.776
128.618
150.043
13.4827
21.7184
17.9915
21.8756
20.7903
22.4898
22.4597
23.278
23.5491
23.8314
24.2645
24.1441
24.7352
24.2869
24.853
24.362
24.7371
24.4854
24.4139
24.3861
24.1118
24.145
23.7331
23.8496
23.3636
23.6059
23.0171
23.4407
22.7556
23.3487
22.6229
23.3712
22.5497
23.3804
22.6946
23.2842
23.0443
23.1029
23.2319
23.1032
23.3925
23.1156
23.5136
23.1112
23.649
23.085
23.7668
23.0435
23.8607
23.0515
23.8198
23.1297
23.5544
23.2695
23.1908
23.1731
22.9125
22.9675
22.5632
22.7231
22.1866
22.4811
21.8073
22.2546
21.4488
22.0174
21.1546
21.7765
20.9628
21.423
21.0193
21.0719
21.085
20.8601
21.0772
20.7196
21.0705
20.6134
21.0945
20.5206
21.1467
20.4233
21.1924
20.3797
21.1556
20.4661
20.9742
20.6925
20.7252
20.8153
20.6068
20.8759
20.4874
20.921
20.3679
20.9447
20.2449
20.944
20.1457
20.8888
20.1456
20.7051
20.0306
20.5259
19.8374
20.1843
19.6281
19.6638
19.2698
19.1169
18.7265
18.4138
18.0255
17.5192
17.1097
16.3798
15.9158
14.905
14.3213
12.9557
12.1305
10.3656
9.13274
6.94805
5.14365
2.50609
0.0107269
-3.07552
-6.25765
-9.75358
-13.4676
-17.2002
-21.128
-24.7063
-28.3897
-31.2471
-34.1546
-35.7976
-37.485
-37.6958
-37.9829
-36.8954
-35.8823
-33.924
-32.0378
-29.693
-27.4738
-25.3476
-23.2877
-21.82
-20.0928
-19.3235
-17.8423
-17.6962
-16.4073
-16.6116
-15.3981
-15.5864
-14.7341
-14.6833
-13.7963
-13.6078
-12.5657
-12.1648
-11.0006
-10.4188
-9.14616
-8.36063
-6.94829
-5.91101
-4.3204
-2.97851
-1.08505
0.621779
3.05257
5.12279
8.43839
10.8346
15.3987
18.0731
24.3215
27.1762
35.5635
38.4577
49.6147
51.8345
67.3004
67.1687
86.6001
87.0393
107.438
107.949
127.983
15.9694
23.7082
19.5254
23.1645
21.7362
23.3522
22.9702
23.7135
23.835
24.0464
24.4137
24.3054
24.8024
24.4617
24.956
24.579
24.8475
24.7166
24.5252
24.6292
24.2654
24.4155
23.9344
24.1411
23.5691
23.88
23.2239
23.6838
22.945
23.5754
22.7626
23.5564
22.6748
23.5039
22.7838
23.3565
23.1137
23.19
23.3225
23.1831
23.4349
23.1931
23.5744
23.1781
23.7065
23.1525
23.8291
23.1186
23.9048
23.1551
23.8677
23.2744
23.6418
23.4548
23.2964
23.3973
23.0517
23.2193
22.7294
22.9883
22.3645
22.7455
21.9995
22.5047
21.6418
22.2528
21.3496
21.9828
21.1512
21.5666
21.2423
21.1993
21.2645
20.9583
21.2182
20.7929
21.1731
20.6565
21.1694
20.5434
21.1976
20.4456
21.2141
20.3948
21.1091
20.4818
20.9151
20.7016
20.6605
20.8211
20.538
20.8669
20.4329
20.8887
20.3195
20.9188
20.1885
20.8711
20.1454
20.7148
20.0681
20.6436
19.9343
20.5162
19.7959
20.2398
19.7551
19.6585
19.4395
19.2377
19.0022
18.6654
18.4213
17.93
17.6653
17.0052
16.6888
15.8115
15.3833
14.2191
13.5435
12.0307
10.9126
8.98765
7.23083
4.82094
2.31066
-0.636788
-3.91871
-7.40173
-11.3633
-15.2231
-19.5599
-23.4007
-27.6206
-30.8571
-34.3485
-36.4686
-38.7424
-39.5171
-40.3329
-39.7025
-38.9645
-36.8603
-34.7239
-31.8784
-29.0947
-26.449
-23.848
-22.0797
-20.0003
-19.0356
-17.2171
-16.8546
-15.2961
-15.3003
-14.0931
-14.1562
-13.4279
-13.3527
-12.8412
-12.5861
-11.8403
-11.4367
-10.485
-9.93769
-8.82116
-8.06745
-6.7655
-5.76088
-4.26084
-2.99782
-1.18016
0.351623
2.74376
4.55853
7.84863
9.91704
14.5068
16.8011
23.0133
25.4323
33.5981
35.9727
46.8648
48.0116
62.3539
62.3848
78.5823
78.5852
95.7158
95.8975
112.883
15.6687
23.2424
19.1491
22.7088
21.1507
23.047
22.5523
23.4005
23.5776
23.7543
24.2457
24.0948
24.6916
24.3341
24.8837
24.489
24.8479
24.6594
24.5312
24.6021
24.2618
24.3589
23.8863
24.043
23.4481
23.7206
23.012
23.4622
22.6569
23.2732
22.5331
23.2467
22.5114
23.2519
22.675
23.1804
23.0066
23.0606
23.2126
23.0849
23.4078
23.0875
23.5701
23.0945
23.7161
23.0866
23.854
23.0756
23.931
23.1332
23.8867
23.2929
23.6613
23.4697
23.3056
23.4215
23.0719
23.228
22.731
22.9682
22.3331
22.6892
21.9164
22.4254
21.5158
22.1369
21.1969
21.8266
20.9943
21.4148
21.0449
21.038
21.1155
20.8217
21.1125
20.6835
21.1062
20.5866
21.1285
20.5038
21.1787
20.4283
21.2144
20.4294
21.1395
20.5342
20.9647
20.761
20.7261
20.9032
20.6135
20.9921
20.5257
21.048
20.415
21.0959
20.3312
21.1053
20.2677
21.0557
20.2808
20.932
20.2476
20.793
20.131
20.5299
20.0854
20.0473
19.8043
19.6433
19.4307
19.1172
18.9286
18.4522
18.258
17.6166
17.3826
16.553
16.2059
15.1412
14.5515
13.1964
12.1996
10.4719
8.88471
6.64549
4.30128
1.45079
-1.73581
-5.25369
-9.25905
-13.4052
-18.0472
-22.4938
-27.2568
-31.3069
-35.3833
-38.2138
-40.8878
-41.9426
-42.9155
-42.0703
-41.1731
-38.8432
-36.5027
-33.3053
-30.2414
-27.1587
-24.2691
-22.2027
-20.0553
-19.125
-17.4797
-17.3997
-16.2144
-16.4423
-15.456
-15.8404
-15.1412
-15.3155
-14.7379
-14.707
-13.7899
-13.4854
-12.4462
-11.9781
-10.9083
-10.3242
-9.18558
-8.46996
-7.19038
-6.35214
-4.81641
-3.83063
-1.83476
-0.696579
2.03685
3.35323
7.16471
8.65037
13.9412
15.4854
22.6617
24.048
33.7801
34.6854
46.8533
48.1513
62.2221
63.8342
78.9127
80.096
95.9413
18.3358
25.2068
20.7994
24.1487
22.0698
23.8864
23.1567
23.8183
23.8872
23.9826
24.4005
24.2289
24.7385
24.4663
24.9534
24.6831
24.9027
24.8273
24.632
24.8011
24.4273
24.6195
24.1046
24.3515
23.6984
24.0369
23.2709
23.7459
22.9106
23.5482
22.6759
23.4604
22.5806
23.4085
22.6674
23.277
22.9914
23.1402
23.2402
23.1048
23.4237
23.1031
23.6046
23.1053
23.7583
23.0851
23.8862
23.1025
23.9408
23.2048
23.8827
23.3765
23.7417
23.6169
23.4061
23.6125
23.207
23.463
22.9081
23.2253
22.5304
22.9531
22.1431
22.6626
21.7743
22.3741
21.4431
22.0476
21.2148
21.5766
21.2567
21.1922
21.2638
20.922
21.2133
20.7398
21.1667
20.6046
21.164
20.5029
21.1902
20.4179
21.2135
20.4085
21.109
20.5102
20.9177
20.7323
20.6746
20.8675
20.5365
20.9454
20.4281
21.0051
20.3301
21.0358
20.2435
21.0199
20.2192
20.8945
20.2115
20.8144
20.1506
20.7271
20.0745
20.503
20.1317
20.0731
19.942
19.7454
19.6575
19.326
19.2625
18.8106
18.7415
18.184
18.0646
17.3879
17.1712
16.3185
15.8873
14.7859
13.9531
12.4884
11.0493
9.08182
6.85595
4.21391
1.03677
-2.44415
-6.64954
-10.9405
-15.9873
-20.7971
-26.2125
-30.8617
-35.7555
-39.2973
-42.8202
-44.6847
-46.4221
-46.4795
-46.1599
-44.1292
-41.3833
-37.878
-33.6296
-30.0244
-25.8122
-23.4897
-20.5066
-19.4439
-16.9235
-16.4515
-14.7235
-14.6499
-13.5702
-13.5494
-13.7021
-13.6332
-13.816
-13.7317
-13.5089
-13.1364
-12.5484
-12.0358
-11.2558
-10.6041
-9.6535
-8.89021
-7.79767
-6.97219
-5.66808
-4.83817
-3.0256
-2.19345
0.386116
1.25766
4.89743
5.94061
10.9278
12.0248
18.5571
19.6338
28.0311
29.2487
39.3526
40.7821
52.3317
53.8609
66.9258
67.9667
82.1119
18.3987
25.2105
20.6991
24.2799
22.0014
23.9121
23.0733
23.8483
23.8643
23.9275
24.4071
24.1686
24.7761
24.4035
25.0105
24.567
25.0932
24.8616
24.6959
24.8109
24.4481
24.627
24.0793
24.3023
23.6021
23.9031
23.0721
23.5142
22.6001
23.216
22.4082
23.1155
22.4084
23.1753
22.5956
23.1351
22.9244
23.0572
23.1992
23.0544
23.4343
23.0522
23.6091
23.0787
23.7737
23.0883
23.9108
23.1089
23.9743
23.2061
23.9379
23.3778
23.7874
23.6552
23.466
23.6604
23.255
23.509
22.9241
23.2462
22.5083
22.9262
22.0561
22.6166
21.615
22.2902
21.2762
21.9179
21.0629
21.4434
21.0796
21.0255
21.1458
20.7821
21.1342
20.6443
21.1253
20.5565
21.1552
20.4735
21.2187
20.3989
21.2573
20.443
21.1688
20.562
20.9942
20.7957
20.7475
20.9695
20.6096
21.0908
20.5235
21.1716
20.4466
21.2403
20.3698
21.2583
20.3423
21.2103
20.3727
21.1271
20.3695
21.0156
20.3544
20.7641
20.4254
20.4
20.2826
20.0739
20.0566
19.6921
19.7144
19.2357
19.241
18.6826
18.6519
17.9863
17.8724
17.0843
16.7686
15.8158
15.1602
13.9207
12.7031
10.9698
8.97125
6.56133
3.60659
0.326685
-3.71476
-8.0516
-13.2326
-18.5051
-24.4205
-29.9232
-35.6174
-40.092
-44.288
-46.6561
-48.9801
-49.1131
-48.7767
-46.4013
-43.6369
-39.4617
-35.0946
-30.4271
-25.8599
-22.5091
-19.6794
-18.6969
-16.845
-16.8379
-15.8038
-16.1888
-15.0358
-15.1305
-14.9674
-15.4247
-15.3437
-15.7133
-14.9204
-14.6283
-13.6886
-13.2853
-12.3974
-11.9814
-11.0888
-10.604
-9.61061
-9.20373
-7.93628
-7.69387
-6.04494
-5.87915
-3.74881
-3.52061
-0.635637
-0.253038
3.93483
4.39611
10.1342
10.5956
18.1128
18.9018
28.0101
29.2722
39.8756
41.2947
53.3921
54.4828
68.052
20.5195
27.1363
22.2461
25.5288
22.9617
24.6369
23.5888
24.1946
24.1615
24.041
24.4985
24.2476
24.8101
24.4776
25.0163
24.7212
24.9967
24.932
24.8004
24.9789
24.609
24.8553
24.3013
24.6043
23.8902
24.253
23.3849
23.8507
22.8833
23.5328
22.5308
23.3901
22.3634
23.3172
22.4604
23.2507
22.8101
23.0953
23.1397
23.023
23.4141
23.015
23.6364
23.0171
23.8084
23.0159
23.9341
23.0546
23.9882
23.1863
23.9509
23.4167
23.7837
23.7171
23.5556
23.8367
23.3793
23.7391
23.1014
23.485
22.7159
23.1717
22.2848
22.8472
21.8705
22.5073
21.5294
22.1245
21.2833
21.6172
21.2507
21.1711
21.2386
20.8561
21.1834
20.6542
21.1461
20.5265
21.161
20.4242
21.214
20.3455
21.2475
20.3835
21.1461
20.5052
20.9488
20.7464
20.6853
20.9168
20.5266
21.0238
20.4238
21.1012
20.329
21.1637
20.2672
21.1679
20.2577
21.1008
20.2936
21.0389
20.2598
20.9421
20.2599
20.7052
20.4026
20.3802
20.3328
20.105
20.1625
19.8043
19.917
19.4637
19.5687
19.0943
19.116
18.6158
18.5665
17.9894
17.8084
17.0871
16.6007
15.6604
14.6676
13.3083
11.5407
9.48429
6.6882
3.60348
-0.462651
-4.82471
-10.3346
-16.0466
-22.865
-29.2669
-36.1664
-41.7111
-47.151
-50.3487
-53.6527
-55.0127
-55.7767
-54.3268
-51.2897
-46.9958
-40.6854
-35.5362
-28.5611
-24.7923
-20.2934
-19.3617
-15.8705
-14.921
-13.4243
-13.4195
-12.4872
-12.4195
-12.5559
-13.2882
-14.1708
-14.3731
-15.1902
-14.7975
-14.4276
-13.8268
-13.2402
-12.5631
-11.8504
-11.2452
-10.3944
-9.86921
-9.04266
-8.66396
-7.4235
-7.34575
-5.49359
-5.5735
-3.00146
-2.94445
0.849174
0.986589
5.85949
5.95023
12.3423
12.5679
20.4914
20.9471
30.1916
30.8504
41.7487
42.2523
54.9898
20.7104
27.3955
22.5086
25.9784
23.252
25.0467
23.8772
24.4629
24.4034
24.2608
24.695
24.3341
24.9672
24.5186
25.153
24.6899
25.2863
25.0248
24.8954
25.0284
24.671
24.8865
24.3214
24.6082
23.8382
24.1758
23.2326
23.6576
22.607
23.2072
22.2646
23.0159
22.2621
23.0757
22.4688
23.119
22.8619
23.0196
23.2187
22.9712
23.4817
22.9923
23.6582
23.057
23.8353
23.0635
23.9807
23.095
24.0236
23.2043
23.9839
23.4413
23.8254
23.7498
23.6208
23.9234
23.4427
23.8315
23.1644
23.5653
22.719
23.2047
22.2149
22.8466
21.7367
22.4641
21.3914
22.0515
21.1561
21.5394
21.1219
21.0462
21.1824
20.7509
21.1518
20.5862
21.1369
20.4819
21.1989
20.3925
21.2816
20.3292
21.3292
20.4103
21.2254
20.5624
21.0304
20.8214
20.7605
21.0277
20.5959
21.1747
20.4851
21.3046
20.3986
21.3814
20.3518
21.4041
20.3537
21.3688
20.3918
21.2992
20.4488
21.1851
20.5054
20.9619
20.6615
20.6319
20.6879
20.3695
20.58
20.095
20.4082
19.7537
20.134
19.3787
19.7134
19.0251
19.1732
18.5872
18.4999
17.9122
17.5807
16.8386
16.0395
14.9363
13.4543
11.7366
9.32158
6.62135
2.91542
-1.20605
-6.56531
-12.3782
-19.3597
-26.4292
-34.1752
-40.8942
-47.3805
-51.3779
-55.313
-57.2888
-58.9156
-57.6645
-55.1442
-50.618
-44.4063
-37.2622
-29.2008
-22.3505
-18.0799
-17.6446
-16.0002
-16.2095
-15.3516
-15.8699
-14.8578
-13.9824
-13.2263
-14.2194
-15.2938
-16.4742
-16.3158
-15.8818
-14.9887
-14.3622
-13.9017
-13.3688
-12.9336
-12.254
-11.7114
-11.2534
-10.5898
-10.3025
-9.46434
-9.57425
-8.27256
-8.86104
-7.17328
-7.72394
-4.7223
-4.94154
-1.09141
-1.24549
4.10853
4.23562
10.9014
11.7536
19.4046
20.2687
29.7883
30.3709
42.3904
23.1054
28.9227
24.0423
26.9409
24.189
25.5223
24.3449
24.6882
24.6354
24.363
24.7773
24.3512
24.9554
24.5268
25.1007
24.7702
25.0554
25.0539
24.9206
25.1336
24.7705
25.0871
24.5076
24.9032
24.1425
24.5653
23.6117
24.0643
22.9507
23.5164
22.392
23.2319
22.0629
23.1996
22.2274
23.1628
22.6827
22.9517
23.1257
22.8391
23.4453
22.8783
23.6662
22.9177
23.8608
22.9157
24.0064
22.9722
24.0558
23.1081
23.9995
23.3814
23.8476
23.8229
23.595
24.0255
23.5366
24.0445
23.3094
23.8024
22.9345
23.4292
22.4346
23.0627
21.9669
22.6644
21.6268
22.2344
21.3574
21.7035
21.2637
21.1318
21.2282
20.7788
21.1384
20.5447
21.1356
20.3879
21.207
20.2783
21.305
20.2151
21.3443
20.3092
21.2193
20.4809
20.998
20.7641
20.6832
20.9884
20.4885
21.1396
20.3605
21.2605
20.2639
21.3437
20.2237
21.368
20.2362
21.3177
20.3027
21.2503
20.3209
21.1595
20.3624
20.9307
20.564
20.5283
20.6696
20.297
20.594
20.0647
20.4913
19.8332
20.2999
19.6034
20.0196
19.3708
19.684
19.1462
19.2593
18.8218
18.6601
18.2009
17.6358
16.9202
15.6988
14.4058
12.2772
9.9926
6.60602
2.87395
-2.30425
-8.12653
-15.7946
-23.9539
-33.5983
-42.0877
-50.4166
-54.8556
-59.7487
-62.9715
-66.3046
-67.0188
-64.8417
-60.7598
-52.5931
-46.2767
-35.1394
-27.4807
-17.5028
-18.9736
-14.0391
-11.2892
-10.9861
-11.8289
-12.0785
-11.8885
-10.3778
-11.1142
-12.9225
-14.3937
-17.1363
-17.0892
-16.4958
-15.327
-14.7332
-13.9134
-13.6272
-12.7018
-12.3064
-11.5737
-11.4655
-11.2042
-10.5401
-10.761
-9.61278
-10.4155
-9.08327
-10.0087
-7.35135
-7.72012
-4.622
-5.53505
-1.0848
-1.83812
3.95035
3.55351
10.6062
9.75751
18.6747
17.6641
29.5912
23.6153
28.8495
24.8659
27.2223
25.0962
26.0418
25.0355
25.0196
25.1157
24.6251
25.1861
24.5112
25.2457
24.6214
25.3323
24.7819
25.3563
25.1129
24.9726
25.2533
24.7901
25.2062
24.4916
24.9648
24.0679
24.5253
23.5031
23.9538
22.7633
23.3508
22.1707
23.005
22.0403
23.0441
22.3143
23.0777
22.8863
22.8947
23.323
22.826
23.5343
22.9053
23.7242
22.9622
23.9468
22.9649
24.0611
23.0256
24.0893
23.1068
24.0362
23.3832
23.8501
23.8761
23.6199
24.1835
23.5856
24.1761
23.4203
23.9217
22.9888
23.5561
22.3729
23.131
21.8636
22.6956
21.5275
22.2518
21.2903
21.7104
21.273
21.0735
21.25
20.7223
21.1913
20.4737
21.2103
20.2923
21.3031
20.1886
21.427
20.1757
21.4502
20.3356
21.2939
20.5429
21.0635
20.8674
20.7155
21.1244
20.5059
21.2958
20.3753
21.4385
20.2887
21.5349
20.2669
21.5694
20.2937
21.5381
20.3625
21.4709
20.4379
21.3734
20.5472
21.1493
20.7885
20.7241
20.9948
20.4589
21.0208
20.2016
20.9309
20.0087
20.7148
19.8582
20.4093
19.708
20.0628
19.5698
19.6781
19.3576
19.2601
18.9755
18.5521
18.1305
17.1987
16.2967
14.5975
12.7648
9.83543
6.54177
1.83251
-3.59448
-10.9022
-19.2258
-29.3467
-39.381
-49.4607
-54.6698
-59.1507
-62.3569
-66.5971
-68.7851
-68.8136
-66.5442
-59.3683
-50.0637
-38.2472
-24.0353
-10.8093
-16.2634
-17.3373
-16.3593
-13.3921
-15.9264
-15.5157
-13.5088
-10.2403
-10.7077
-14.4544
-16.5505
-17.505
-17.4409
-16.1003
-15.2368
-15.0423
-14.5314
-14.3833
-13.5081
-12.8767
-12.4483
-12.0299
-11.7617
-11.3943
-11.57
-10.7582
-11.9578
-11.6672
-13.5096
-11.5858
-11.8526
-9.38078
-10.8435
-7.07669
-8.39168
-3.51905
-2.99967
1.29517
2.09037
7.19726
7.57153
16.7731
26.5943
29.7417
26.3633
27.7002
25.8675
26.2399
25.5474
25.2319
25.3231
24.651
25.2001
24.5555
25.1001
24.6423
25.1824
24.8327
25.0567
25.1647
24.8511
25.298
24.7563
25.2924
24.639
25.1713
24.4082
24.8992
23.9137
24.4263
23.1546
23.6652
22.3393
23.0787
21.8685
22.9408
22.1034
22.8619
22.7157
22.7046
23.1998
22.6949
23.4709
22.7732
23.6848
22.8132
23.9287
22.8035
24.0975
22.8608
24.1708
22.9509
24.0546
23.3298
23.8373
23.8738
23.5724
24.219
23.6163
24.3096
23.4983
24.204
23.0881
23.819
22.4733
23.3847
21.9822
22.9998
21.593
22.5285
21.358
21.9168
21.3345
21.1518
21.2677
20.6768
21.2263
20.3554
21.2499
20.1697
21.3099
20.0774
21.4372
20.0808
21.4444
20.2375
21.3006
20.4648
21.0397
20.8358
20.6407
21.1181
20.411
21.2987
20.2596
21.455
20.1541
21.5484
20.1476
21.5658
20.1903
21.5324
20.2606
21.4742