/*--------------------------------*- C++ -*----------------------------------*\
| =========                 |                                                 |
| \\      /  F ield         | OpenFOAM: The Open Source CFD Toolbox           |
|  \\    /   O peration     | Version:  4.1                                   |
|   \\  /    A nd           | Web:      www.OpenFOAM.org                      |
|    \\/     M anipulation  |                                                 |
\*---------------------------------------------------------------------------*/
FoamFile
{
    version     2.0;
    format      ascii;
    class       volScalarField;
    location    "7.5";
    object      p;
}
// * * * * * * * * * * * * * * * * * * * * * * * * * * * * * * * * * * * * * //

dimensions      [0 2 -2 0 0 0 0];

internalField   nonuniform List<scalar> 
204246
(
-10.6813
-21.5036
-22.1101
-22.2998
-22.6249
-22.6719
-22.8018
-22.7713
-22.7318
-22.6262
-22.4804
-22.2933
-22.0504
-21.6466
-21.246
-20.9223
-20.6477
-20.1988
-19.5953
-19.1663
-18.7419
-18.5159
-18.5865
-19.1786
-20.5311
-23.3317
-29.1248
-40.9411
-53.88
-62.1865
-65.1456
-68.5978
-70.2471
-72.1821
-72.9622
-75.2323
-76.3514
-76.6491
-77.8885
-78.4181
-78.9656
-79.3326
-79.5099
-79.1869
-78.6298
-77.0968
-75.3118
-72.6688
-70.0801
-67.3855
-64.9511
-62.8969
-61.1537
-59.5669
-57.699
-56.7249
-56.0021
-55.5743
-55.3285
-55.3344
-55.4512
-55.8135
-56.1558
-56.4303
-56.6993
-57.0775
-57.516
-58.0298
-58.3524
-59.9594
-61.0352
-61.0331
-61.7594
-61.703
-62.4555
-62.4447
-63.4419
-63.824
-63.9921
-63.8634
-64.8725
-64.9897
-65.1703
-65.2716
-65.319
-65.2764
-66.6363
-67.5876
-67.5916
-67.5172
-67.3132
-67.9003
-67.7868
-68.5783
-68.1193
-68.8153
-68.3299
-69.1969
-69.2523
-69.3523
-69.389
-69.4045
-69.3857
-69.3914
-69.4116
-70.8326
-71.3841
-70.575
-71.1104
-70.8715
-71.5459
-70.954
-71.5719
-71.1903
-71.8042
-71.3999
-71.9985
-71.562
-72.2128
-71.9551
-71.7191
-71.473
-72.9596
-73.7383
-72.9801
-73.2418
-72.9883
-73.5422
-73.1407
-73.982
-74.1069
-74.1452
-74.0054
-74.7915
-74.5147
-75.4233
-75.4832
-75.587
-75.6844
-77.4179
-78.4595
-78.6006
-79.6403
-79.7704
-80.9581
-81.2202
-82.8145
-83.8605
-84.9882
-86.0886
-87.1626
-88.113
-90.0884
-91.1535
-92.1508
-93.0228
-95.5845
-97.0042
-97.2733
-98.3035
-98.1725
-97.9379
-97.5644
-97.124
-95.3819
-94.1451
-91.5767
-89.3767
-85.9914
-82.8172
-78.4631
-74.0526
-69.0813
-63.5893
-57.4891
-50.8364
-43.3962
-35.0978
-26.0709
-15.7936
-4.25398
8.88543
23.6618
40.4073
59.115
80.0137
103.094
128.958
158.392
197.377
256.364
349.624
474.63
-16.888
-18.5119
-20.2558
-21.3959
-22.1551
-22.5807
-22.7975
-22.8819
-22.8734
-22.8233
-22.7243
-22.557
-22.3161
-22.049
-21.7683
-21.459
-21.0699
-20.5896
-20.0659
-19.519
-18.9416
-18.4198
-18.076
-18.0552
-18.8273
-20.7177
-24.2229
-36.5526
-52.4094
-62.6908
-66.6703
-68.2495
-70.0534
-71.9675
-73.3996
-74.3169
-75.2339
-76.2354
-77.3035
-78.2415
-78.9417
-79.6539
-80.1058
-80.2702
-80.0353
-78.912
-77.4613
-75.3597
-72.6525
-69.789
-66.9541
-64.4119
-62.1814
-60.2297
-58.5489
-57.2092
-56.2683
-55.5821
-55.2731
-55.1273
-55.2201
-55.4595
-55.8475
-56.1826
-56.6035
-56.9599
-57.3872
-57.8339
-58.3286
-59.1246
-59.9227
-60.5835
-61.1286
-61.5586
-61.9595
-62.3817
-62.9235
-63.4534
-63.7142
-64.0018
-64.4001
-64.8684
-65.0656
-65.3204
-65.36
-65.561
-66.1487
-66.7595
-67.1658
-67.322
-67.4428
-67.6242
-67.8756
-68.1323
-68.323
-68.4669
-68.6059
-68.8446
-69.1854
-69.2978
-69.5224
-69.5368
-69.5886
-69.5394
-69.7077
-70.193
-70.6918
-70.7842
-70.8789
-71.0402
-71.1905
-71.2718
-71.3497
-71.4848
-71.5835
-71.7236
-71.8216
-71.9822
-72.1223
-72.2048
-71.991
-72.0607
-72.4636
-72.9604
-73.131
-73.1675
-73.2732
-73.3528
-73.5198
-73.7546
-74.0525
-74.1187
-74.3469
-74.5662
-74.9015
-75.2322
-75.6122
-75.7186
-76.1392
-76.8154
-77.5658
-78.2633
-78.9759
-79.7006
-80.3672
-81.1893
-82.1343
-83.274
-84.3379
-85.554
-86.6106
-87.9698
-89.3491
-90.7922
-91.966
-93.4426
-94.921
-96.3303
-97.5169
-98.4839
-99.3652
-99.4942
-99.6134
-99.3593
-98.6572
-97.8753
-96.3116
-94.3682
-91.8627
-88.9101
-85.4177
-81.4699
-77.0186
-72.1139
-66.6856
-60.7229
-54.0599
-46.7147
-38.6372
-29.6617
-19.7165
-8.52056
4.03914
18.2452
34.1213
51.7389
70.8901
91.5383
113.612
139.11
174.96
241.132
339.141
-22.6714
-21.6513
-21.5191
-21.7676
-22.1354
-22.4782
-22.7269
-22.856
-22.9027
-22.8776
-22.8003
-22.6485
-22.4498
-22.2318
-21.9923
-21.7086
-21.3563
-20.9484
-20.5261
-20.0483
-19.5261
-19.0342
-18.6979
-18.7284
-20.0249
-24.7039
-30.3764
-39.0247
-52.4817
-61.6421
-65.982
-67.7611
-69.6363
-71.3903
-72.8767
-73.954
-74.5953
-75.4823
-76.488
-77.4889
-78.4868
-79.3972
-80.0184
-80.2245
-79.9565
-79.2587
-77.9412
-75.9843
-73.6582
-70.9992
-68.1478
-65.3674
-62.8675
-60.6988
-58.8363
-57.365
-56.3272
-55.5583
-55.1362
-54.9337
-54.9823
-55.1255
-55.4605
-55.815
-56.2773
-56.7334
-57.2586
-57.7916
-58.3974
-58.9895
-59.6127
-60.2354
-60.8025
-61.3276
-61.8069
-62.2685
-62.7244
-63.1652
-63.5278
-63.9121
-64.2342
-64.653
-64.9236
-65.2255
-65.4242
-65.7016
-66.0436
-66.4172
-66.7635
-67.0463
-67.2952
-67.4639
-67.7069
-67.8985
-68.1502
-68.279
-68.4934
-68.6511
-68.9146
-69.0591
-69.2796
-69.3849
-69.5155
-69.5986
-69.7753
-69.976
-70.2582
-70.4823
-70.6321
-70.7978
-70.8979
-71.0529
-71.1164
-71.2693
-71.3256
-71.4576
-71.5305
-71.6789
-71.7801
-71.8958
-71.9135
-72.0293
-72.1872
-72.4411
-72.6572
-72.76
-72.8845
-72.9524
-73.1082
-73.2573
-73.4534
-73.5762
-73.763
-73.9621
-74.2307
-74.5205
-74.8114
-75.1246
-75.5358
-76.089
-76.6931
-77.3255
-77.9882
-78.6637
-79.3933
-80.1633
-81.0376
-81.9613
-82.9876
-84.0673
-85.2466
-86.5052
-87.842
-89.2299
-90.6865
-92.1895
-93.6883
-95.0508
-96.1622
-97.0682
-97.6687
-97.9361
-97.7417
-97.1075
-96.0881
-94.6846
-92.9688
-90.8717
-88.4265
-85.5566
-82.2647
-78.5047
-74.2717
-69.5112
-64.1977
-58.2706
-51.6659
-44.4206
-36.3747
-27.4828
-17.6015
-6.6542
5.60494
19.294
34.6703
51.6955
70.3394
89.9426
110.472
132.365
161.428
204.859
262.427
-24.9776
-23.8746
-23.1974
-22.8837
-22.8137
-22.8757
-22.9632
-23.0402
-23.0695
-23.0544
-23.0012
-22.9046
-22.7672
-22.5908
-22.3725
-22.1139
-21.8195
-21.4894
-21.1181
-20.6857
-20.2315
-19.8175
-19.5433
-19.5187
-20.2139
-23.8797
-31.9698
-40.714
-52.4052
-61.5304
-66.1334
-68.7006
-70.2121
-71.8589
-73.4043
-74.1621
-74.6887
-75.3923
-76.318
-77.2879
-78.3638
-79.4552
-80.473
-81.2324
-81.3584
-80.8186
-79.8208
-78.1758
-75.7392
-72.8808
-69.8076
-66.768
-63.9309
-61.5152
-59.478
-57.838
-56.6267
-55.7455
-55.1911
-54.9168
-54.8921
-55.0663
-55.4019
-55.7206
-56.1741
-56.5899
-57.1359
-57.6926
-58.2548
-58.823
-59.3981
-59.9503
-60.5092
-61.0709
-61.6071
-62.1131
-62.5764
-63.0357
-63.4398
-63.8452
-64.2027
-64.5593
-64.8654
-65.1837
-65.4677
-65.7865
-66.0809
-66.3818
-66.6885
-66.994
-67.2833
-67.5174
-67.7793
-67.9647
-68.2232
-68.3716
-68.6088
-68.7612
-69.0005
-69.1458
-69.3955
-69.5175
-69.701
-69.8143
-70.0203
-70.1693
-70.3853
-70.5775
-70.7675
-70.9725
-71.0771
-71.2451
-71.3232
-71.4823
-71.5609
-71.741
-71.8402
-72.007
-72.0974
-72.2378
-72.2861
-72.4476
-72.58
-72.7775
-72.9425
-73.0855
-73.2742
-73.3718
-73.5644
-73.7041
-73.9328
-74.072
-74.3345
-74.5212
-74.8542
-75.1115
-75.4857
-75.8243
-76.2649
-76.6908
-77.2001
-77.7758
-78.4161
-79.1274
-79.9054
-80.755
-81.635
-82.6059
-83.6009
-84.6856
-85.8168
-87.05
-88.3614
-89.7971
-91.3132
-92.9065
-94.4628
-95.9739
-97.3605
-98.5978
-99.6817
-100.601
-101.35
-101.782
-101.823
-101.495
-100.308
-98.5986
-96.3367
-93.6435
-90.4939
-86.9622
-82.9978
-78.6276
-73.7603
-68.3845
-62.3412
-55.6747
-48.2921
-40.1287
-31.1044
-21.115
-10.0601
2.18434
15.6636
30.4006
46.3228
63.4862
82.2714
104.4
132.563
167.905
206.638
-26.2691
-25.177
-24.3725
-23.8386
-23.5268
-23.3725
-23.3183
-23.2974
-23.272
-23.2302
-23.1729
-23.0998
-22.9978
-22.8658
-22.697
-22.4995
-22.2751
-22.02
-21.7212
-21.3881
-21.0608
-20.7707
-20.6193
-20.7271
-21.3017
-23.4297
-29.7479
-38.1271
-48.4127
-58.1888
-64.5794
-67.9382
-69.5215
-71.0326
-72.2572
-73.359
-74.0116
-74.5839
-75.4142
-76.4149
-77.5847
-78.8374
-80.0511
-81.0517
-81.6987
-81.7126
-80.7704
-79.57
-77.4811
-74.6927
-71.5208
-68.2067
-65.0746
-62.3098
-59.9864
-58.1366
-56.7059
-55.6506
-54.9203
-54.5251
-54.4751
-54.5343
-54.8482
-55.2047
-55.465
-56.0032
-56.5482
-57.171
-57.8447
-58.4716
-59.068
-59.6106
-60.1419
-60.7041
-61.249
-61.758
-62.2363
-62.6914
-63.1174
-63.5023
-63.8856
-64.2405
-64.5725
-64.8705
-65.1636
-65.4456
-65.7648
-66.0813
-66.3761
-66.6486
-66.9059
-67.1442
-67.3808
-67.6111
-67.8359
-68.0311
-68.2407
-68.426
-68.6373
-68.8053
-68.9822
-69.1478
-69.2978
-69.4435
-69.6051
-69.7909
-70.0018
-70.1795
-70.3494
-70.5086
-70.6464
-70.8053
-70.9122
-71.057
-71.1431
-71.2535
-71.3458
-71.4614
-71.5555
-71.6549
-71.7328
-71.8376
-71.9671
-72.1513
-72.3033
-72.4225
-72.5428
-72.6275
-72.7444
-72.8531
-72.9826
-73.1099
-73.2471
-73.4384
-73.6283
-73.8859
-74.0822
-74.3986
-74.6279
-75.1261
-75.6212
-76.119
-76.6598
-77.2544
-77.9134
-78.6309
-79.4317
-80.3032
-81.2655
-82.3007
-83.4251
-84.6324
-85.9461
-87.3639
-88.8865
-90.4941
-92.1629
-93.8331
-95.3916
-96.7614
-97.7834
-98.3829
-98.5109
-98.2671
-97.7672
-97.0159
-96.0069
-94.6493
-92.9083
-90.7259
-88.1208
-85.0618
-81.5799
-77.6382
-73.246
-68.3475
-62.8997
-56.882
-50.1873
-42.7136
-34.3682
-25.0775
-14.8212
-3.63589
8.39305
21.1207
34.5279
48.7047
64.4258
83.2489
106.823
135.186
163.323
-27.32
-26.2323
-25.3567
-24.706
-24.2514
-23.9669
-23.8015
-23.685
-23.5909
-23.5117
-23.4442
-23.3714
-23.2837
-23.1709
-23.0323
-22.8752
-22.7166
-22.535
-22.315
-22.084
-21.8786
-21.7305
-21.7252
-22.0091
-22.7878
-24.5771
-28.7725
-35.9709
-44.808
-54.3582
-62.1414
-67.0744
-70.8894
-72.1394
-72.4518
-73.5554
-74.1085
-74.746
-75.4305
-76.2867
-77.4586
-78.8785
-80.3951
-81.7863
-82.8339
-83.4483
-83.4436
-82.0411
-80.0006
-77.1249
-73.6606
-69.9888
-66.495
-63.4144
-60.8643
-58.8099
-57.2386
-56.0591
-55.2273
-54.7976
-54.6002
-54.8321
-55.0995
-55.4083
-55.9472
-56.2413
-56.6662
-57.2095
-57.8191
-58.4306
-59.0205
-59.555
-60.0883
-60.6449
-61.1909
-61.7107
-62.2151
-62.7079
-63.1528
-63.5902
-63.9747
-64.362
-64.7004
-65.0448
-65.3452
-65.6508
-65.9096
-66.1939
-66.4963
-66.7946
-67.0749
-67.3331
-67.5925
-67.8196
-68.0583
-68.2668
-68.4823
-68.6525
-68.8849
-69.0403
-69.311
-69.4742
-69.6796
-69.8406
-70.024
-70.1148
-70.2763
-70.4819
-70.6692
-70.8357
-70.9669
-71.1458
-71.2437
-71.4046
-71.5063
-71.6965
-71.8035
-71.9714
-72.0687
-72.2318
-72.3332
-72.4961
-72.563
-72.7003
-72.8587
-73.0101
-73.1995
-73.3054
-73.4828
-73.5926
-73.7937
-73.9223
-74.16
-74.3571
-74.645
-74.9328
-75.3076
-75.6339
-76.0539
-76.3475
-76.7504
-77.2577
-77.8153
-78.4288
-79.0893
-79.8215
-80.5715
-81.4221
-82.3071
-83.2895
-84.3341
-85.502
-86.7762
-88.1898
-89.713
-91.3611
-93.0761
-94.8498
-96.5731
-98.2004
-99.7215
-101.144
-102.451
-103.498
-104.119
-104.074
-103.237
-101.807
-99.8703
-97.5191
-94.7487
-91.6128
-88.094
-84.2115
-79.9347
-75.259
-70.0882
-64.4263
-58.1514
-51.1427
-43.321
-34.6343
-25.0878
-14.7076
-3.62045
8.08851
20.4027
33.4195
47.6524
64.3256
84.0922
106.887
128.383
-28.1108
-27.0444
-26.1458
-25.4222
-24.8633
-24.4793
-24.2155
-24.0319
-23.9025
-23.8001
-23.7142
-23.6387
-23.5636
-23.4732
-23.3631
-23.2505
-23.1419
-23.0198
-22.8771
-22.7428
-22.6449
-22.6076
-22.7048
-23.0623
-23.8798
-25.5049
-28.6591
-33.9852
-41.2644
-49.7544
-57.9088
-64.3375
-67.9603
-69.995
-72.0942
-73.0981
-73.2036
-73.7338
-74.5379
-75.4438
-76.572
-77.9619
-79.5066
-81.1096
-82.6082
-83.7727
-84.3144
-83.8547
-82.1763
-79.477
-76.0036
-72.1113
-68.2174
-64.7869
-61.9525
-59.499
-57.5556
-56.1297
-55.1003
-54.3855
-54.1168
-54.3213
-54.5034
-54.6985
-54.9018
-55.5208
-56.0728
-56.5987
-57.2304
-57.8825
-58.5374
-59.1347
-59.662
-60.1817
-60.7216
-61.2401
-61.7324
-62.211
-62.6601
-63.0712
-63.4706
-63.8557
-64.2217
-64.557
-64.8729
-65.1679
-65.474
-65.7652
-66.0386
-66.3162
-66.5896
-66.8593
-67.1148
-67.3587
-67.5709
-67.7865
-67.9855
-68.1898
-68.3796
-68.5697
-68.7167
-68.9126
-69.0813
-69.2652
-69.4501
-69.6471
-69.8331
-69.999
-70.1552
-70.3099
-70.4679
-70.6149
-70.749
-70.8852
-70.9922
-71.0817
-71.1912
-71.285
-71.3943
-71.4809
-71.5847
-71.6782
-71.8376
-71.9893
-72.1002
-72.2192
-72.3132
-72.4123
-72.4971
-72.592
-72.6749
-72.7889
-72.865
-73.0239
-73.0828
-73.288
-73.417
-73.6697
-73.9676
-74.3647
-74.7985
-75.2612
-75.7573
-76.3032
-76.9075
-77.5628
-78.2945
-79.0914
-79.9712
-80.9203
-81.9568
-83.0929
-84.3601
-85.7624
-87.3026
-88.967
-90.74
-92.5775
-94.4023
-96.1727
-97.8152
-99.2351
-100.242
-100.752
-100.766
-100.58
-100.253
-99.5699
-98.4481
-96.8343
-94.7484
-92.2203
-89.2709
-85.9161
-82.1573
-77.98
-73.3408
-68.2377
-62.5915
-56.3145
-49.3683
-41.7065
-33.3282
-24.223
-14.4467
-4.02053
7.06597
18.9129
31.8905
46.7476
63.6653
82.4132
99.5231
-28.7165
-27.6823
-26.7921
-26.0537
-25.4509
-25.003
-24.667
-24.4397
-24.2544
-24.113
-24.0071
-23.9237
-23.8478
-23.7658
-23.6805
-23.6075
-23.5448
-23.4733
-23.3947
-23.3432
-23.337
-23.3948
-23.5744
-23.9774
-24.7542
-26.1404
-28.5758
-32.5215
-38.1237
-45.1005
-52.6211
-59.6323
-65.0829
-68.7114
-71.1323
-72.381
-73.4023
-74.1803
-74.8234
-75.5578
-76.5533
-77.8757
-79.4604
-81.1485
-82.7843
-84.1532
-85.0052
-84.91
-83.8372
-81.486
-78.0871
-74.0978
-70.0497
-66.3538
-63.0347
-60.3596
-58.4749
-56.94
-55.6873
-54.8576
-54.5539
-54.6028
-54.8912
-55.1923
-55.6686
-55.8553
-56.171
-56.685
-57.2969
-57.8792
-58.5559
-59.1729
-59.7069
-60.2428
-60.7912
-61.3332
-61.8498
-62.352
-62.8235
-63.2765
-63.6797
-64.0609
-64.4275
-64.7974
-65.1331
-65.4514
-65.7307
-66.0089
-66.2987
-66.5805
-66.8579
-67.119
-67.3804
-67.6241
-67.8908
-68.106
-68.3406
-68.5401
-68.7736
-68.9461
-69.1751
-69.333
-69.5429
-69.7129
-69.9174
-70.0215
-70.1627
-70.3378
-70.5176
-70.7027
-70.842
-71.0144
-71.1198
-71.2851
-71.3984
-71.617
-71.7114
-71.885
-71.9702
-72.1404
-72.2351
-72.4037
-72.4348
-72.5528
-72.7425
-72.9148
-73.0924
-73.1859
-73.3386
-73.4097
-73.5716
-73.6733
-73.9164
-74.0907
-74.3737
-74.5773
-74.9125
-75.1506
-75.5106
-75.7202
-76.0342
-76.4339
-76.884
-77.385
-77.9285
-78.5368
-79.1751
-79.8973
-80.6771
-81.5386
-82.4701
-83.5106
-84.6795
-86.0073
-87.4916
-89.1398
-90.9371
-92.8878
-94.9277
-97.0124
-99.0671
-100.995
-102.76
-104.345
-105.621
-106.19
-105.874
-104.931
-103.506
-101.647
-99.4071
-96.8053
-93.8564
-90.5721
-86.9321
-82.9266
-78.4923
-73.6492
-68.3238
-62.4761
-56.0733
-49.1061
-41.5669
-33.4398
-24.7217
-15.4187
-5.47062
5.25813
17.0819
30.3366
45.0649
60.9216
74.9852
-29.0539
-28.0824
-27.2359
-26.5118
-25.9017
-25.4148
-25.0408
-24.7764
-24.5663
-24.4015
-24.2808
-24.192
-24.1139
-24.0457
-23.981
-23.9383
-23.9083
-23.879
-23.8586
-23.8747
-23.9415
-24.0732
-24.3184
-24.76
-25.5068
-26.7111
-28.6466
-31.6264
-35.8597
-41.3041
-47.5769
-54.0025
-59.8157
-64.5423
-68.1442
-70.5519
-72.0343
-72.99
-73.8163
-74.7124
-75.799
-77.1267
-78.7129
-80.3674
-82.0703
-83.5685
-84.5715
-84.9371
-84.1187
-82.1585
-79.2005
-75.5822
-71.7207
-67.985
-64.6855
-61.9732
-59.6643
-57.6911
-56.1852
-55.0554
-54.3668
-54.0812
-54.3927
-54.7826
-54.9512
-55.3362
-55.6972
-56.1967
-56.8237
-57.3615
-58.0009
-58.682
-59.2663
-59.7714
-60.2862
-60.7901
-61.2957
-61.8076
-62.2885
-62.7197
-63.1408
-63.5545
-63.9399
-64.2967
-64.6185
-64.9171
-65.2244
-65.5146
-65.7914
-66.0681
-66.3434
-66.6119
-66.8757
-67.1289
-67.3401
-67.5704
-67.7557
-67.9679
-68.1364
-68.3477
-68.5322
-68.7384
-68.9378
-69.1463
-69.333
-69.5442
-69.7337
-69.8863
-70.0408
-70.1698
-70.3382
-70.4742
-70.6289
-70.7561
-70.8775
-70.9368
-71.0807
-71.1684
-71.3021
-71.3681
-71.4901
-71.5673
-71.7451
-71.8887
-71.9833
-72.0874
-72.1763
-72.3171
-72.3951
-72.4778
-72.516
-72.5735
-72.5984
-72.6788
-72.7227
-72.8531
-72.9917
-73.2389
-73.5415
-73.902
-74.2911
-74.7111
-75.1641
-75.6559
-76.1858
-76.7606
-77.3956
-78.0881
-78.8588
-79.7011
-80.6245
-81.6398
-82.7804
-84.0642
-85.5118
-87.1303
-88.9225
-90.8833
-92.9664
-95.1432
-97.3579
-99.5356
-101.541
-103.195
-104.307
-104.988
-105.335
-105.13
-104.338
-103.051
-101.3
-99.1487
-96.637
-93.7744
-90.5549
-86.9678
-82.9701
-78.584
-73.75
-68.4482
-62.6602
-56.3863
-49.623
-42.3509
-34.5579
-26.2199
-17.2785
-7.56218
3.14845
14.9979
27.9866
41.7339
53.6491
-29.2264
-28.3216
-27.5321
-26.8471
-26.2605
-25.7761
-25.3958
-25.1033
-24.8673
-24.6837
-24.5498
-24.4519
-24.3753
-24.3116
-24.2658
-24.2434
-24.2402
-24.2451
-24.2685
-24.3382
-24.4593
-24.6454
-24.9353
-25.3991
-26.1159
-27.1892
-28.7906
-31.1315
-34.391
-38.6173
-43.6656
-49.1616
-54.6057
-59.5584
-63.7636
-67.1018
-69.6206
-71.4674
-72.8691
-74.0475
-75.2158
-76.6077
-78.0758
-79.622
-81.3295
-82.9182
-84.1544
-84.397
-83.8948
-82.3273
-79.7721
-76.5291
-72.9528
-69.3672
-66.0701
-63.2913
-61.0098
-59.1059
-57.6395
-56.539
-55.7466
-55.3722
-55.3055
-55.3527
-55.525
-55.6084
-55.7589
-56.1172
-56.8864
-57.6389
-58.0934
-58.6478
-59.2375
-59.8232
-60.397
-60.9406
-61.4476
-61.9343
-62.4286
-62.8972
-63.2742
-63.6741
-64.0752
-64.4849
-64.8397
-65.1998
-65.486
-65.7614
-66.0381
-66.3145
-66.5905
-66.8661
-67.1382
-67.4095
-67.676
-67.9058
-68.1439
-68.3491
-68.5837
-68.7461
-68.9436
-69.1193
-69.3357
-69.5213
-69.7122
-69.8512
-70.0149
-70.1923
-70.3631
-70.5409
-70.6836
-70.8551
-70.995
-71.1826
-71.3041
-71.5104
-71.5888
-71.7432
-71.84
-71.9871
-72.091
-72.2165
-72.2723
-72.4077
-72.5814
-72.7486
-72.9198
-73.035
-73.1587
-73.224
-73.3535
-73.4129
-73.6058
-73.7064
-73.9395
-74.0703
-74.3278
-74.4761
-74.7244
-74.895
-75.1487
-75.4707
-75.8474
-76.2627
-76.7184
-77.2243
-77.7645
-78.3641
-79.0286
-79.7717
-80.6001
-81.5217
-82.5611
-83.7393
-85.0862
-86.6329
-88.3976
-90.3919
-92.5848
-94.948
-97.4408
-99.9937
-102.509
-104.805
-106.73
-108.122
-108.809
-108.701
-107.884
-106.498
-104.658
-102.468
-99.9788
-97.228
-94.2119
-90.9131
-87.2709
-83.2988
-78.9528
-74.2042
-69.0333
-63.4288
-57.3936
-50.9174
-43.9679
-36.5022
-28.4639
-19.6842
-10.0127
0.627181
12.2178
24.328
34.7456
-29.1093
-28.2978
-27.5909
-26.9789
-26.4494
-25.9999
-25.6348
-25.3448
-25.107
-24.9208
-24.781
-24.6804
-24.6041
-24.5492
-24.5164
-24.5139
-24.5298
-24.5623
-24.6226
-24.7315
-24.8949
-25.1199
-25.4421
-25.9169
-26.6022
-27.5685
-28.9352
-30.8426
-33.4277
-36.7608
-40.8037
-45.3659
-50.1504
-54.8278
-59.1179
-62.8414
-65.9335
-68.4058
-70.3921
-72.064
-73.5758
-75.0663
-76.5129
-78.0247
-79.5086
-80.8276
-81.8191
-82.4144
-82.1743
-81.0517
-79.1053
-76.5108
-73.5309
-70.4279
-67.4374
-64.7148
-62.3365
-60.299
-58.6373
-57.3133
-56.2523
-55.7147
-55.4775
-55.504
-55.4689
-55.5437
-55.7016
-55.9514
-56.4163
-57.1602
-57.9348
-58.4716
-58.8714
-59.3438
-59.8237
-60.3308
-60.8803
-61.4182
-61.9468
-62.4503
-62.8695
-63.2579
-63.6386
-63.9996
-64.3464
-64.671
-64.9995
-65.3057
-65.5768
-65.8438
-66.1181
-66.3968
-66.673
-66.9423
-67.1733
-67.397
-67.5897
-67.8059
-67.9952
-68.1968
-68.3794
-68.5924
-68.8156
-69.0371
-69.2493
-69.457
-69.6288
-69.7868
-69.9531
-70.1071
-70.2601
-70.3509
-70.4961
-70.5544
-70.7219
-70.8442
-71.0103
-71.1243
-71.2709
-71.3124
-71.4342
-71.4732
-71.6464
-71.7956
-71.9148
-72.0488
-72.1675
-72.3337
-72.3962
-72.4645
-72.4841
-72.5002
-72.4953
-72.5242
-72.5427
-72.6346
-72.7658
-72.9798
-73.2456
-73.5636
-73.9096
-74.2782
-74.6677
-75.0871
-75.5415
-76.0309
-76.5547
-77.1212
-77.7427
-78.4338
-79.2097
-80.0816
-81.0612
-82.1663
-83.4261
-84.8776
-86.5583
-88.5056
-90.7078
-93.1582
-95.8168
-98.6218
-101.49
-104.296
-106.858
-108.951
-110.324
-110.9
-110.662
-109.619
-107.962
-105.852
-103.406
-100.724
-97.8437
-94.7632
-91.4241
-87.8247
-83.926
-79.7012
-75.1201
-70.1572
-64.8135
-59.091
-52.9401
-46.3048
-39.1036
-31.2016
-22.4777
-12.8823
-2.44644
8.38557
17.6392
-28.8398
-28.1483
-27.5544
-27.0359
-26.5664
-26.1559
-25.8225
-25.5422
-25.3111
-25.1299
-24.9916
-24.8902
-24.8173
-24.7664
-24.744
-24.7499
-24.7818
-24.8345
-24.9224
-25.0622
-25.2539
-25.5067
-25.8499
-26.3277
-26.9819
-27.8655
-29.0586
-30.6593
-32.7699
-35.4536
-38.7191
-42.4766
-46.5611
-50.7495
-54.8187
-58.5889
-61.9475
-64.8196
-67.2512
-69.3351
-71.1735
-72.867
-74.4688
-76.0173
-77.4905
-78.7857
-79.7801
-80.2658
-80.3109
-79.597
-78.1642
-76.1296
-73.6834
-71.0334
-68.394
-65.9159
-63.7004
-61.7679
-60.1328
-58.8067
-57.7724
-57.0574
-56.5986
-56.3782
-56.181
-56.1547
-56.1967
-56.3743
-56.6884
-57.1229
-57.6683
-58.2421
-58.8075
-59.4304
-60.1142
-60.6645
-61.0448
-61.4721
-61.9345
-62.3968
-62.8509
-63.283
-63.7465
-64.2165
-64.5865
-64.9053
-65.2083
-65.501
-65.7727
-66.0115
-66.2704
-66.5465
-66.8343
-67.1233
-67.4435
-67.6951
-67.9146
-68.1151
-68.3351
-68.4969
-68.6868
-68.8551
-69.0648
-69.276
-69.4987
-69.6754
-69.852
-70.0413
-70.2097
-70.3819
-70.5399
-70.7364
-70.8568
-71.0688
-71.144
-71.318
-71.4191
-71.5606
-71.6716
-71.8174
-71.9084
-72.0278
-72.0627
-72.1695
-72.3328
-72.5417
-72.7415
-72.8775
-73.019
-73.0976
-73.1506
-73.1758
-73.2625
-73.2882
-73.4495
-73.5059
-73.6491
-73.7416
-73.8983
-74.0629
-74.2913
-74.573
-74.892
-75.2448
-75.632
-76.0513
-76.5098
-77.0004
-77.5318
-78.1326
-78.8037
-79.5648
-80.439
-81.4358
-82.5741
-83.8951
-85.4457
-87.286
-89.4287
-91.8995
-94.6804
-97.7139
-100.925
-104.191
-107.346
-110.141
-112.29
-113.539
-113.761
-113.026
-111.513
-109.424
-106.948
-104.254
-101.439
-98.5079
-95.4119
-92.1455
-88.6553
-84.9072
-80.8853
-76.5405
-71.8549
-66.8392
-61.4603
-55.6271
-49.2374
-42.1685
-34.32
-25.6554
-16.2034
-6.39478
1.9623
-28.3453
-27.7857
-27.2982
-26.8652
-26.486
-26.1548
-25.8721
-25.6344
-25.4287
-25.2681
-25.141
-25.0493
-24.9863
-24.9497
-24.9407
-24.9606
-25.0033
-25.0702
-25.1776
-25.3334
-25.5445
-25.8151
-26.1717
-26.6455
-27.2719
-28.086
-29.1497
-30.5316
-32.3064
-34.5271
-37.2172
-40.3378
-43.8001
-47.4639
-51.1718
-54.7674
-58.1395
-61.178
-63.8696
-66.244
-68.3409
-70.2247
-71.9427
-73.5259
-74.9658
-76.2062
-77.1577
-77.6179
-77.9427
-77.5926
-76.6367
-75.1507
-73.2643
-71.1256
-68.9022
-66.7136
-64.6673
-62.8278
-61.2238
-59.864
-58.7338
-57.8458
-57.1783
-56.6417
-56.5287
-56.4948
-56.4914
-56.5873
-56.8062
-57.1486
-57.5996
-58.0798
-58.5413
-58.9998
-59.5095
-60.0707
-60.6571
-61.2062
-61.7056
-62.1348
-62.4928
-62.833
-63.2058
-63.5891
-63.9886
-64.3696
-64.7365
-65.088
-65.3776
-65.6523
-65.9124
-66.1822
-66.4673
-66.736
-66.9567
-67.2126
-67.4459
-67.6518
-67.8296
-68.0359
-68.2377
-68.441
-68.6608
-68.8987
-69.128
-69.3399
-69.5285
-69.6976
-69.8524
-69.9934
-70.1293
-70.2404
-70.3789
-70.4868
-70.6484
-70.799
-70.9665
-71.1182
-71.2614
-71.3209
-71.4065
-71.4591
-71.5486
-71.6353
-71.7689
-71.9512
-72.1586
-72.3657
-72.4963
-72.5943
-72.6019
-72.5851
-72.5389
-72.4906
-72.482
-72.5353
-72.6338
-72.7792
-72.9868
-73.228
-73.5231
-73.8584
-74.2051
-74.5663
-74.9474
-75.3577
-75.8028
-76.2861
-76.7865
-77.3216
-77.9223
-78.6079
-79.4031
-80.3206
-81.3764
-82.5985
-84.0346
-85.7558
-87.8002
-90.2233
-93.0539
-96.2526
-99.7555
-103.471
-107.267
-110.893
-113.99
-116.148
-117.083
-116.801
-115.464
-113.336
-110.703
-107.864
-104.987
-102.109
-99.1884
-96.2198
-93.1004
-89.7965
-86.2925
-82.5341
-78.4836
-74.1334
-69.4953
-64.45
-58.8688
-52.6167
-45.608
-37.8044
-29.2422
-20.2847
-12.558
-27.669
-27.2768
-26.9302
-26.625
-26.3471
-26.111
-25.889
-25.696
-25.5211
-25.3765
-25.2687
-25.1885
-25.1356
-25.1039
-25.1037
-25.129
-25.181
-25.2574
-25.376
-25.5464
-25.7702
-26.0536
-26.417
-26.8861
-27.4832
-28.2409
-29.2048
-30.4229
-31.9529
-33.8383
-36.104
-38.7362
-41.6913
-44.8839
-48.206
-51.5362
-54.7798
-57.8164
-60.6087
-63.1472
-65.4308
-67.4865
-69.3466
-71.0331
-72.5479
-73.8672
-74.9761
-75.9114
-75.9953
-75.8228
-75.217
-74.1732
-72.7612
-71.0822
-69.2578
-67.3932
-65.5803
-63.8896
-62.3612
-61.0334
-59.9178
-59.0214
-58.3333
-57.8272
-57.4835
-57.1528
-57.0288
-57.0202
-57.1216
-57.3329
-57.6536
-58.057
-58.5051
-58.983
-59.4846
-59.9903
-60.4612
-60.9195
-61.4221
-61.9258
-62.4229
-62.9287
-63.4242
-63.8732
-64.2351
-64.5812
-64.8887
-65.153
-65.395
-65.6695
-65.9331
-66.2126
-66.5707
-66.9104
-67.1927
-67.4698
-67.7554
-67.9252
-68.0831
-68.2352
-68.428
-68.5761
-68.7844
-69.013
-69.252
-69.4719
-69.7049
-69.9166
-70.0936
-70.2649
-70.4018
-70.572
-70.6808
-70.85
-70.929
-71.0898
-71.2396
-71.4083
-71.5376
-71.6568
-71.7474
-71.8538
-71.8358
-71.9161
-72.057
-72.2544
-72.4915
-72.7174
-72.8735
-72.9881
-73.0928
-73.0823
-73.02
-72.9617
-72.9749
-72.9408
-72.9793
-73.0321
-73.1201
-73.2531
-73.4481
-73.7035
-74.0113
-74.3422
-74.6765
-75.0148
-75.3811
-75.7764
-76.2016
-76.66
-77.1682
-77.7406
-78.4003
-79.1778
-80.0945
-81.1768
-82.4558
-83.9995
-85.8613
-88.1339
-90.8955
-94.178
-97.9376
-102.104
-106.564
-111.07
-115.234
-118.567
-120.575
-121.041
-120.016
-117.787
-114.86
-111.681
-108.52
-105.539
-102.714
-99.9867
-97.2171
-94.3468
-91.3043
-88.0904
-84.6504
-80.9377
-76.9905
-72.7224
-67.9781
-62.5603
-56.3835
-49.4028
-41.6797
-33.4551
-26.1315
-26.8008
-26.5844
-26.3919
-26.2134
-26.039
-25.8748
-25.7351
-25.6126
-25.4918
-25.3934
-25.3142
-25.2548
-25.2153
-25.2038
-25.215
-25.2533
-25.317
-25.4088
-25.5419
-25.7182
-25.9483
-26.2338
-26.5968
-27.0531
-27.6225
-28.3316
-29.2142
-30.3072
-31.6548
-33.2914
-35.2419
-37.5036
-40.0586
-42.854
-45.8224
-48.8708
-51.9248
-54.8715
-57.6622
-60.2651
-62.6522
-64.8283
-66.8016
-68.5809
-70.163
-71.5305
-72.6644
-73.5514
-74.0163
-74.0897
-73.7604
-73.0601
-72.0302
-70.7327
-69.2603
-67.694
-66.1154
-64.5948
-63.1789
-61.905
-60.789
-59.8432
-59.0727
-58.4568
-58.0227
-57.7522
-57.5283
-57.4235
-57.429
-57.5352
-57.7378
-58.0182
-58.3591
-58.7476
-59.1736
-59.6359
-60.1195
-60.614
-61.1056
-61.575
-62.0063
-62.4078
-62.8236
-63.2541
-63.6877
-64.1246
-64.5235
-64.8692
-65.1518
-65.4223
-65.6585
-65.8887
-66.1336
-66.387
-66.6494
-66.9411
-67.2247
-67.4665
-67.6769
-67.8539
-68.0488
-68.2668
-68.4849
-68.7048
-68.9489
-69.1795
-69.3765
-69.5638
-69.7378
-69.8865
-70.0276
-70.1663
-70.2944
-70.407
-70.5559
-70.7062
-70.8839
-71.0902
-71.2797
-71.4054
-71.4531
-71.4624
-71.4703
-71.4947
-71.5743
-71.7501
-72.0189
-72.3317
-72.6335
-72.8256
-72.8222
-72.786
-72.7427
-72.6289
-72.532
-72.5095
-72.5376
-72.6154
-72.7399
-72.901
-73.1195
-73.3998
-73.7325
-74.0684
-74.3997
-74.7394
-75.0896
-75.4566
-75.8442
-76.2497
-76.6896
-77.1723
-77.7178
-78.362
-79.1467
-80.1019
-81.2393
-82.6036
-84.2609
-86.3139
-88.8713
-92.0364
-95.8646
-100.314
-105.294
-110.606
-115.928
-120.743
-124.306
-125.886
-125.212
-122.96
-119.708
-115.926
-112.159
-108.799
-105.926
-103.365
-100.922
-98.4729
-95.8731
-93.1611
-90.2914
-87.1936
-83.8695
-80.3516
-76.4593
-71.9604
-66.6601
-60.5143
-53.5546
-46.0037
-39.0886
-25.7827
-25.7488
-25.7247
-25.7149
-25.6967
-25.6391
-25.5845
-25.5342
-25.4748
-25.4081
-25.3547
-25.3173
-25.3021
-25.2998
-25.3217
-25.363
-25.4312
-25.5256
-25.6568
-25.8352
-26.0628
-26.3517
-26.711
-27.1568
-27.7018
-28.3679
-29.1853
-30.1804
-31.3855
-32.8319
-34.5429
-36.5196
-38.7561
-41.2257
-43.8863
-46.6677
-49.516
-52.33
-55.0607
-57.6623
-60.0982
-62.3511
-64.4144
-66.2835
-67.9511
-69.3983
-70.6137
-71.5673
-72.2019
-72.4987
-72.3942
-71.9964
-71.3004
-70.3474
-69.1976
-67.9179
-66.5746
-65.2337
-63.9426
-62.7434
-61.6627
-60.7175
-59.9195
-59.2654
-58.7418
-58.349
-58.0523
-57.8689
-57.7938
-57.816
-57.9288
-58.1216
-58.3787
-58.6897
-59.0474
-59.4425
-59.8703
-60.32
-60.788
-61.2626
-61.7379
-62.21
-62.6813
-63.1403
-63.5689
-63.9633
-64.3248
-64.6731
-64.9953
-65.3056
-65.6001
-65.9217
-66.2744
-66.6176
-66.9467
-67.2253
-67.5131
-67.7145
-67.8405
-67.9622
-68.0898
-68.2742
-68.493
-68.7479
-69.0321
-69.28
-69.5323
-69.7826
-69.9881
-70.1695
-70.293
-70.3979
-70.4888
-70.6095
-70.6918
-70.8292
-70.9874
-71.1758
-71.3823
-71.5642
-71.6813
-71.7349
-71.674
-71.6606
-71.7196
-71.8732
-72.1024
-72.4161
-72.7441
-73.0134
-73.1633
-73.1134
-72.9767
-72.8111
-72.6592
-72.5355
-72.4525
-72.4196
-72.4503
-72.5568
-72.7452
-73.0145
-73.3397
-73.6842
-74.0156
-74.3305
-74.6445
-74.9664
-75.2994
-75.6496
-76.0175
-76.4075
-76.8403
-77.3453
-77.9678
-78.7528
-79.7219
-80.8907
-82.3155
-84.1037
-86.3658
-89.2296
-92.8558
-97.3451
-102.677
-108.717
-115.269
-121.842
-127.392
-130.547
-130.895
-129.209
-125.712
-120.949
-116.161
-111.981
-108.71
-106.187
-104.032
-102.011
-99.9206
-97.6957
-95.3513
-92.8274
-90.0773
-87.2411
-84.1811
-80.6827
-76.3906
-71.1721
-64.9958
-58.1601
-51.7884
-24.5969
-24.7585
-24.9151
-25.0751
-25.1695
-25.2391
-25.2949
-25.2947
-25.3192
-25.3111
-25.2977
-25.302
-25.2983
-25.316
-25.3526
-25.4074
-25.4819
-25.5807
-25.7204
-25.9022
-26.1348
-26.4218
-26.7794
-27.2137
-27.7338
-28.3579
-29.1167
-30.0296
-31.1227
-32.4211
-33.9487
-35.7063
-37.6959
-39.9041
-42.305
-44.8489
-47.4997
-50.1692
-52.8116
-55.3797
-57.8262
-60.125
-62.2568
-64.2095
-65.9641
-67.5113
-68.8277
-69.9058
-70.709
-71.2785
-71.3192
-71.124
-70.6616
-69.9482
-69.034
-67.9763
-66.8299
-65.652
-64.4866
-63.374
-62.3409
-61.4097
-60.5976
-59.9044
-59.3281
-58.8471
-58.531
-58.2967
-58.1518
-58.0942
-58.1229
-58.2304
-58.4078
-58.646
-58.9361
-59.2711
-59.6449
-60.0499
-60.4746
-60.908
-61.3466
-61.786
-62.2288
-62.667
-63.1014
-63.5223
-63.9278
-64.3177
-64.6732
-65.0004
-65.2937
-65.5657
-65.8233
-66.1024
-66.3932
-66.7019
-67.0135
-67.2988
-67.5451
-67.7327
-67.9319
-68.0849
-68.2651
-68.4461
-68.6782
-68.9138
-69.1265
-69.3254
-69.5399
-69.771
-69.9876
-70.1124
-70.2099
-70.3113
-70.4519
-70.6004
-70.7673
-70.9779
-71.2152
-71.4287
-71.5399
-71.5244
-71.423
-71.3271
-71.3222
-71.456
-71.727
-72.1034
-72.5491
-72.9675
-73.2252
-73.2664
-73.1206
-72.9084
-72.7068
-72.5673
-72.4545
-72.3727
-72.3458
-72.3894
-72.5178
-72.7584
-73.0964
-73.4645
-73.8034
-74.1166
-74.4086
-74.7087
-75.0183
-75.3281
-75.6495
-75.974
-76.3066
-76.6722
-77.1214
-77.7151
-78.4963
-79.4826
-80.6942
-82.2318
-84.2218
-86.7864
-90.1122
-94.3929
-99.8135
-106.373
-113.914
-122.065
-129.98
-136.111
-138.998
-137.774
-133.22
-127.028
-120.823
-115.142
-110.902
-108.261
-106.266
-104.758
-103.35
-101.628
-99.7924
-97.8156
-95.6525
-93.3883
-91.0569
-88.5127
-85.3901
-81.3668
-76.2138
-70.2438
-64.4209
-23.2456
-23.6588
-24.0044
-24.3359
-24.5932