/*--------------------------------*- C++ -*----------------------------------*\
| =========                 |                                                 |
| \\      /  F ield         | OpenFOAM: The Open Source CFD Toolbox           |
|  \\    /   O peration     | Version:  4.1                                   |
|   \\  /    A nd           | Web:      www.OpenFOAM.org                      |
|    \\/     M anipulation  |                                                 |
\*---------------------------------------------------------------------------*/
FoamFile
{
    version     2.0;
    format      ascii;
    class       volScalarField;
    location    "248";
    object      p;
}
// * * * * * * * * * * * * * * * * * * * * * * * * * * * * * * * * * * * * * //

dimensions      [0 2 -2 0 0 0 0];

internalField   nonuniform List<scalar> 
204246
(
117.646
-11.8559
33.8826
16.5349
13.279
20.1948
8.84598
20.4657
7.5602
20.3862
6.89822
20.9823
5.30429
21.2045
6.40943
18.504
12.6221
7.13013
19.1403
4.43807
20.1987
4.58329
18.6611
5.13726
18.3443
4.75343
19.0343
2.82974
19.7549
2.37236
19.5082
2.67012
18.2876
5.14482
14.5062
10.7084
4.46472
15.5112
4.81539
14.435
4.6073
14.4248
3.50807
15.3236
1.05006
16.2283
0.86301
16.3698
2.53978
14.8112
4.75415
13.0241
10.8372
3.51115
16.6367
2.70571
16.4258
3.52122
16.7925
3.57288
18.0413
2.02376
19.1717
2.17158
19.0067
3.72196
16.6079
6.26564
14.6869
11.6104
5.93763
15.7404
4.69904
16.7353
4.30326
17.1052
3.78521
18.0054
1.86272
18.7303
1.61149
18.1766
2.81826
15.6139
4.59227
13.033
9.56008
3.5933
13.2923
1.82716
13.962
0.58158
14.5411
-2.06202
14.7579
-3.33076
13.7812
-4.23631
11.693
-3.87468
7.87984
-4.96644
4.93996
-6.15007
1.05208
-5.47724
-10.9323
-5.32483
-15.6073
-8.48529
-22.0874
-13.1605
-27.037
-19.1976
-32.9568
-25.3466
-39.2572
-31.3809
-45.2291
-37.0688
-49.6581
-43.0573
-48.1017
-56.6632
-44.4334
-58.9236
-42.8949
-57.3566
-41.0445
-52.7714
-37.8201
-47.4533
-32.4473
-41.5847
-26.7475
-35.616
-21.9392
-29.7941
-19.6313
-21.2673
-25.733
-13.0612
-26.336
-10.7904
-25.9857
-10.0574
-26.0916
-10.0601
-26.422
-10.3734
-26.7518
-10.7897
-26.681
-11.4142
-25.1325
-13.6942
-18.6335
-23.1923
-11.3519
-24.2187
-8.2493
-22.5628
-5.91342
-19.2172
-3.58637
-14.5919
0.144951
-8.87708
5.17679
-1.92579
11.4429
7.03387
19.3953
18.5914
28.8674
35.3843
37.6175
51.4938
56.0087
69.3428
79.069
92.4641
106.784
121.708
141.627
159.477
187.746
210.421
254.308
283.263
370.989
386.915
593.954
41.3353
15.7448
16.2251
19.7679
13.267
17.6414
12.0778
16.5845
11.5062
16.1253
11.0721
16.1204
10.9237
15.1234
12.2258
12.8165
15.3595
9.68354
15.1509
9.66183
14.6494
10.0138
14.0579
9.68605
14.0334
9.13058
14.329
8.52088
13.9821
8.46323
13.3699
8.79021
12.0849
10.0057
10.0379
12.8128
7.80251
11.2394
7.62728
11.8784
7.12556
12.0722
6.30447
12.356
5.5354
11.9146
5.90665
11.0453
7.20429
10.151
9.07975
8.73762
12.3479
6.93571
11.8411
7.87888
11.6559
8.06946
12.1102
7.98853
12.908
7.83865
12.9169
8.34533
12.5589
9.38808
11.8033
10.2361
10.3381
12.9891
8.6054
12.5647
8.63522
12.6466
8.55496
12.8186
8.17339
13.2111
7.70744
12.8178
7.80777
12.0446
8.31459
10.9677
9.02967
9.03172
11.3171
6.56284
10.3988
6.00254
10.1245
5.18989
10.083
4.15773
9.2456
3.4216
8.08605
2.65139
6.31099
1.68547
4.7252
0.207238
2.1551
-0.97147
-1.84015
-1.18249
-6.47107
-6.34011
-10.8905
-9.6109
-15.7366
-14.6456
-20.5617
-20.4479
-26.2513
-26.6572
-32.4805
-33.1375
-38.4707
-39.6871
-43.0743
-46.6237
-44.0569
-52.7363
-49.1061
-54.1098
-49.5549
-53.1317
-47.6359
-50.2748
-43.6622
-45.7575
-38.8374
-39.8033
-33.6328
-33.5488
-28.9584
-27.4752
-26.3268
-21.261
-24.7485
-17.743
-22.1586
-16.5456
-20.9839
-15.8757
-20.7361
-15.8363
-20.9493
-16.1872
-21.2521
-16.7765
-21.2163
-17.709
-20.0475
-19.4962
-16.9532
-21.5831
-16.1219
-20.466
-14.7365
-18.5301
-12.7685
-15.9126
-10.011
-12.6892
-6.45027
-8.2568
-1.78332
-2.51628
3.55615
5.20062
10.4511
14.9643
18.5949
27.3564
31.0206
40.1197
46.6581
56.2029
65.8668
76.3468
89.3678
100.97
118.128
130.966
154.153
167.595
202.84
209.485
284.207
249.647
384.327
8.49662
23.0321
15.8908
19.025
14.4399
17.3097
12.7397
16.4676
11.9915
16.0499
11.5745
15.7648
11.4848
14.9856
12.2514
13.3265
13.8535
11.254
14.3483
10.3799
14.3848
10.1211
14.0927
9.83141
13.9332
9.42192
13.9271
8.97966
13.7431
8.85247
13.2339
9.1231
12.1737
10.0324
10.2896
11.0654
8.68941
11.4718
8.35254
10.8204
7.98615
10.6372
7.29851
10.6914
6.93351
10.2558
7.52298
10.0785
8.1083
9.35792
9.18223
8.57175
10.8392
8.27983
11.12
8.06666
11.4238
8.24257
11.8755
8.25421
12.507
8.13191
12.7275
8.47681
12.542
9.18186
11.9023
10.2279
10.7658
11.628
9.40446
12.13
8.93716
12.4545
8.6345
12.6939
8.29508
12.8589
7.93468
12.6912
7.89935
12.1489
8.21597
11.0599
8.85453
9.40809
9.95816
7.53125
10.0324
6.36478
9.98253
5.40199
9.76529
4.39774
9.16657
3.53484
8.18567
2.70596
6.66145
1.79646
4.53341
0.678553
1.86147
-0.382834
-1.81004
-2.31504
-5.64994
-5.54844
-9.71752
-10.0334
-14.1738
-15.1272
-19.0274
-20.8425
-24.7777
-27.0228
-31.0188
-33.5051
-37.2256
-39.9577
-42.395
-46.1276
-46.6376
-51.5532
-49.7276
-53.7747
-50.26
-53.6482
-48.6363
-50.9421
-45.5376
-45.6796
-40.6718
-39.1943
-34.9421
-32.6659
-29.4585
-26.7598
-25.6423
-21.789
-22.5934
-18.2542
-20.9126
-16.3251
-20.2406
-15.3847
-20.0962
-15.2639
-20.3699
-15.6362
-20.7471
-16.292
-20.8075
-17.2382
-20.0183
-18.7227
-18.0248
-20.1683
-16.5061
-19.9469
-14.7249
-18.5145
-12.715
-16.0047
-10.4247
-12.2015
-7.111
-7.48644
-2.56211
-1.5615
3.40841
5.88482
10.8772
15.4003
20.4743
27.0149
32.0141
41.0433
47.6339
57.8942
67.5448
78.8239
92.354
104.902
123.46
137.357
163.001
177.685
217.387
225.313
301.471
280.2
368.98
-0.355005
13.6008
10.16
15.8779
11.908
15.7156
12.5297
14.9514
12.6743
14.4325
12.708
14.0803
12.9489
13.3099
13.6313
12.2364
14.3772
11.6487
13.6809
11.6799
13.0731
11.6856
12.7001
11.3567
12.5277
10.9701
12.3717
10.7346
11.9388
10.7765
11.2532
10.9383
10.3806
11.2427
9.69941
11.4096
9.16424
10.5094
9.19984
10.236
8.76981
10.0874
8.37748
9.75415
8.30299
9.33211
8.18603
8.86361
8.84026
8.6522
9.80429
8.21799
10.69
8.56913
10.7288
9.13751
10.5259
9.427
10.7193
9.66597
10.9336
9.81513
10.8155
10.2421
10.6804
10.7484
10.3902
11.2526
9.97309
12.03
9.99103
11.5033
10.0039
11.4022
9.98206
11.4009
9.86172
11.3718
9.79285
10.9939
9.84827
10.45
10.0092
9.79311
10.2082
8.88144
10.5191
8.22381
9.67205
7.77467
9.11453
7.2277
8.61843
6.64666
7.80322
6.06131
6.81755
5.37891
5.51973
4.33839
4.16284
2.90076
2.19866
1.56903
-0.603044
-0.464981
-3.68645
-4.10058
-7.25883
-8.17685
-11.4197
-13.1569
-16.3304
-18.6709
-22.0891
-24.8149
-28.4321
-31.5224
-34.8471
-38.576
-40.7595
-45.1559
-45.8021
-50.3124
-50.9669
-53.6316
-53.1065
-53.7377
-51.9764
-51.7798
-48.7991
-47.3952
-43.9487
-41.2528
-37.997
-34.7215
-32.1821
-28.4916
-27.4189
-23.3886
-23.5792
-20.3051
-20.3282
-18.4512
-19.0849
-17.6345
-18.8396
-17.5086
-19.0635
-17.9463
-19.4136
-18.7378
-19.5906
-19.7001
-19.2645
-20.6266
-18.5965
-20.7707
-18.5163
-19.9926
-17.6952
-18.5294
-16.0731
-16.5186
-13.9763
-13.8111
-11.0378
-10.2437
-7.11476
-5.63089
-2.26234
0.512127
3.95231
8.21253
11.7588
17.9836
22.0953
29.052
35.1479
42.5026
51.1495
58.9952
70.5673
78.8979
94.0869
102.889
123.441
130.542
163.586
158.468
215.958
202.823
273.92
-1.59509
14.013
8.93906
14.6761
12.2435
14.8056
13.0551
14.6963
13.1723
14.4038
13.1332
14.0305
13.2684
13.4098
13.5729
12.7156
13.715
12.4689
13.2524
12.2188
12.9191
11.9336
12.711
11.5566
12.5061
11.2177
12.2759
11.0214
11.9615
11.1033
11.3786
11.1424
10.6339
11.0384
10.0068
10.8506
9.62599
10.3654
9.35374
9.75755
9.01255
9.39284
8.6035
9.10629
8.34523
9.09712
8.45471
8.82647
8.60478
8.44563
9.35032
8.45392
9.94901
8.62347
9.95955
9.18181
10.1883
9.39216
10.4863
9.57824
10.845
9.95285
10.7445
10.2347
10.6133
10.6262
10.3503
10.9443
10.1037
11.199
10.2823
11.1827
10.1534
11.2092
10.0487
11.233
9.93389
11.1593
9.90386
10.8864
9.9111
10.4761
9.92864
9.89741
10.0095
9.14401
9.87288
8.70097
9.38318
8.10094
8.93497
7.44695
8.44931
6.81785
7.78341
6.1413
6.9442
5.44414
5.78447
4.49468
4.26959
3.27624
2.21951
1.70755
-0.144232
-0.494356
-2.87674
-3.47618
-6.38277
-7.41644
-10.435
-12.0882
-15.316
-17.4664
-20.9644
-23.6169
-27.2201
-30.4274
-33.7867
-37.5475
-40.244
-44.3467
-46.1711
-49.8894
-51.0299
-53.6672
-53.8471
-54.895
-53.5795
-53.2805
-50.6826
-48.9578
-45.4223
-42.5976
-38.7438
-35.3392
-32.113
-28.5116
-26.5711
-23.1282
-22.1838
-19.5256
-19.2943
-17.5129
-17.9222
-16.6187
-17.6404
-16.5054
-17.926
-17.0501
-18.4547
-17.9171
-18.846
-18.9074
-18.9515
-19.6862
-18.8651
-19.811
-18.5394
-19.422
-17.6726
-18.2601
-16.1573
-16.2766
-13.8848
-13.5064
-10.7859
-9.8426
-6.72549
-5.00207
-1.5546
1.18824
5.04312
9.08004
13.3714
18.8342
24.035
30.7908
37.6493
45.4159
54.687
63.3375
75.7736
85.1683
101.584
111.253
133.757
141.497
175.86
172.79
222.082
210.719
255.818
-2.20059
9.49316
6.60527
11.5036
10.3887
12.9488
11.9779
13.463
12.7828
13.4733
13.1939
13.2984
13.5043
12.9167
13.744
12.5497
13.7229
12.5387
13.1463
12.5847
12.5931
12.4102
12.2708
12.09
12.0175
11.7518
11.7667
11.4623
11.4575
11.3138
11.058
11.3196
10.4901
11.3193
9.96149
11.1738
9.65763
10.4081
9.74465
9.83574
9.26552
9.41641
8.88857
9.2692
8.57754
8.80333
8.76404
8.57478
9.16031
8.38624
9.54815
8.37447
9.95008
9.03619
9.87995
9.65994
9.93463
9.8971
10.1475
10.0311
10.3873
10.3238
10.4523
10.6532
10.4317
11.0104
10.3353
11.2977
10.2125
11.3503
10.4004
11.0846
10.5968
10.9069
10.6366
10.8201
10.6277
10.6832
10.6437
10.4121
10.6185
10.102
10.5134
9.75347
10.4078
9.33463
10.1213
9.02706
9.55466
8.75833
8.87788
8.35289
8.31153
7.87314
7.66784
7.32574
6.92813
6.60342
6.04909
5.6666
4.9395
4.5321
3.31475
3.05581
1.24182
1.0144
-1.32354
-1.86341
-4.40269
-5.55428
-8.27694
-10.0125
-12.9861
-15.3152
-18.5668
-21.4917
-24.9316
-28.4608
-31.8298
-35.9544
-38.8766
-43.3475
-45.6524
-49.8735
-51.6761
-54.6295
-55.4858
-56.7632
-56.2196
-55.8519
-53.8041
-51.9249
-48.7196
-45.4903
-41.8981
-37.8754
-34.7491
-30.5498
-28.4491
-24.6797
-23.458
-20.7104
-19.9601
-18.4106
-18.1478
-17.4301
-17.6223
-17.4074
-17.9069
-18.0277
-18.5398
-19.0319
-19.2443
-20.0436
-19.7637
-20.763
-20.0686
-20.9015
-20.1146
-20.5533
-19.5604
-19.6632
-18.4242
-18.1943
-16.712
-16.1614
-14.3409
-13.407
-11.2356
-9.70315
-7.23402
-4.8731
-2.11425
1.29334
4.49171
8.96301
13.0741
18.2203
23.8985
29.501
37.3316
43.2987
53.7513
60.0573
73.8084
79.7879
98.6373
101.845
132.283
125.83
167.011
164.503
205.096
0.141772
10.6739
7.13758
11.6444
10.6693
12.7913
12.292
13.4032
13.0876
13.5408
13.4564
13.4242
13.6497
13.1319
13.7608
12.8547
13.5813
12.915
13.1343
12.8534
12.7007
12.5791
12.388
12.2723
12.1038
11.9892
11.7771
11.7655
11.4029
11.579
10.9917
11.4114
10.5123
11.1739
10.0911
10.7779
9.93809
10.004
9.68461
9.58255
9.20278
9.2433
8.92927
8.92351
8.8066
8.62093
8.82116
8.41882
8.94385
8.32062
9.18397
8.34139
9.33019
8.86998
9.44705
9.45004
9.77264
9.71487
9.99728
9.94103
10.1708
10.2765
10.2126
10.517
10.2467
10.7694
10.2032
10.9742
10.2401
11.0241
10.5072
10.825
10.5894
10.7648
10.5708
10.7094
10.5833
10.5871
10.6329
10.3712
10.6467
10.1456
10.4978
9.81938
10.2999
9.44747
9.98224
9.17671
9.47019
8.88516
8.8693
8.42913
8.32431
7.96907
7.69109
7.39458
7.04503
6.70557
6.20182
5.84489
5.0792
4.75898
3.6352
3.36419
1.82586
1.46582
-0.418681
-1.12203
-3.32401
-4.45988
-6.96636
-8.63163
-11.4679
-13.7046
-16.887
-19.756
-23.1992
-26.7395
-30.2396
-34.3848
-37.7083
-42.0991
-45.096
-49.1258
-51.6391
-54.8145
-56.307
-58.1209
-58.0265
-58.2216
-56.3853
-54.6885
-51.2589
-47.7859
-43.4956
-39.0766
-35.0483
-30.6534
-27.6859
-24.0085
-22.1639
-19.5161
-18.6036
-16.842
-16.701
-15.7275
-16.0571
-15.8157
-16.3132
-16.6824
-17.0959
-17.8623
-18.0791
-19.0019
-18.9467
-19.8655
-19.64
-20.1642
-19.7603
-20.1451
-19.3329
-19.4283
-18.2585
-17.9491
-16.4004
-15.8357
-13.8581
-12.9365
-10.5949
-9.04055
-6.37603
-4.01838
-0.938978
2.34053
6.03731
10.2666
14.9979
20.0334
26.3713
32.0415
40.4891
46.6998
57.7709
64.3152
78.7669
84.8401
104.505
106.706
134.653
131.305
162.516
158.673
187.476
-0.266673
8.81182
5.8882
9.83433
9.35117
11.3491
11.2792
12.3805
12.4291
12.8487
13.1091
12.9644
13.532
12.8581
13.6991
12.803
13.5093
12.9207
13.0722
12.8937
12.7189
12.6817
12.3432
12.4069
12.0072
12.1208
11.6523
11.8629
11.2689
11.6492
10.8784
11.4742
10.501
11.3144
10.1483
10.8743
10.1359
10.1643
9.84527
9.74348
9.45807
9.35366
9.16306
9.0233
9.07444
8.69137
9.11117
8.53607
9.19182
8.44394
9.39014
8.56737
9.49991
9.16339
9.52211
9.59639
9.76527
9.89119
9.95624
10.2008
10.0628
10.5526
10.157
10.7933
10.2371
11.0198
10.2889
11.1811
10.3023
11.124
10.6055
10.8512
10.8031
10.723
10.8675
10.6661
10.8921
10.5625
10.9027
10.4319
10.8255
10.2401
10.77
9.9712
10.6118
9.63663
10.2238
9.42257
9.68296
9.225
9.14505
8.86104
8.59624
8.49574
8.00013
8.00513
7.44559
7.41364
6.7733
6.67978
5.8858
5.73495
4.62896
4.47362
3.01264
2.74173
0.94585
0.374719
-1.68545
-2.75728
-5.07597
-6.7166
-9.36121
-11.6426
-14.6441
-17.6259
-20.9508
-24.6672
-28.2202
-32.603
-36.2196
-40.9702
-44.446
-49.0867
-52.109
-55.9206
-58.0155
-60.4133
-60.9749
-61.3677
-60.0488
-58.2682
-55.2777
-51.5416
-47.4314
-42.4595
-38.2851
-33.1778
-29.8625
-25.5572
-23.3894
-20.3522
-19.2363
-17.3921
-17.0371
-16.178
-16.3263
-16.1947
-16.6577
-17.0442
-17.6319
-18.3887
-18.8434
-19.8203
-19.9742
-20.953
-20.8506
-21.5673
-21.2293
-21.6094
-21.0674
-21.1016
-20.3275
-20.1083
-19.0186
-18.5711
-17.2069
-16.4308
-14.8258
-13.5711
-11.6824
-9.82908
-7.56197
-5.02477
-2.1696
1.01838
4.84689
8.54483
13.7534
17.8399
24.9368
29.3004
38.7573
43.2672
55.7712
59.5646
77.2636
77.9645
102.56
100.646
129.094
129
156.021
2.08152
10.5972
7.17024
10.9608
10.0585
11.8644
11.7591
12.6239
12.7494
13.0298
13.324
13.1308
13.6597
13.085
13.7322
13.0547
13.5279
13.1824
13.1363
13.0976
12.8383
12.8859
12.4962
12.6064
12.1556
12.3275
11.7773
12.0639
11.3567
11.7966
10.9281
11.5126
10.498
11.1815
10.2056
10.6295
10.0674
9.90546
9.73183
9.56188
9.38591
9.19704
9.13256
8.82519
9.03362
8.55943
8.94441
8.42965
8.97106
8.35132
9.08248
8.45636
9.13747
8.98755
9.33058
9.45189
9.5486
9.70321
9.7624
10.0046
9.87628
10.3143
9.96555
10.5725
10.0496
10.7736
10.1469
10.9509
10.3196
10.8805
10.5697
10.6534
10.6927
10.6041
10.7429
10.5631
10.799
10.4958
10.8666
10.4181
10.8593
10.2694
10.7697
10.0367
10.5615
9.78484
10.1721
9.56896
9.64199
9.31487
9.14569
8.92796
8.6297
8.53456
8.09929
8.08018
7.52265
7.54933
6.87792
6.8626
6.10219
6.03592
5.04162
4.92614
3.67546
3.40245
1.91396
1.29905
-0.411871
-1.47165
-3.49841
-5.07483
-7.47148
-9.67077
-12.4946
-15.4102
-18.6796
-22.3861
-26.0416
-30.4585
-34.3838
-39.2079
-43.2281
-47.9842
-51.7635
-55.9108
-58.8357
-61.7776
-63.2043
-64.3268
-63.7341
-62.5601
-59.5425
-55.6681
-50.7582
-45.0511
-39.6626
-33.9004
-29.5996
-25.0257
-22.2197
-19.1085
-17.6247
-15.6876
-15.1839
-14.2298
-14.3712
-14.2606
-14.707
-15.3076
-15.8243
-16.8472
-17.2945
-18.4758
-18.7787
-19.8564
-20.0311
-20.7726
-20.7276
-21.2335
-20.7913
-20.9935
-20.1567
-20.0017
-18.8299
-18.3673
-16.9255
-16.108
-14.4237
-13.1373
-11.1565
-9.30609
-6.89686
-4.44206
-1.37537
1.69017
5.73877
9.30224
14.8062
18.7164
26.0753
30.2373
39.8617
44.0662
56.6726
59.88
76.8085
77.1317
98.8185
96.4627
119.241
118.088
139.513
1.68314
9.66589
6.25548
10.0535
9.16555
10.9546
11.0086
11.8917
12.2054
12.515
12.9647
12.8246
13.4189
12.9251
13.5995
13.0171
13.4467
13.1659
13.1123
13.0969
12.8542
12.8985
12.5239
12.6356
12.1615
12.3505
11.7733
12.072
11.3542
11.8012
10.9316
11.5448
10.5231
11.2349
10.2274
10.7259
10.2078
10.0392
9.88858
9.70117
9.5874
9.33138
9.35249
8.98964
9.24984
8.75675
9.20199
8.59756
9.22726
8.52515
9.30444
8.59639
9.29486
9.07687
9.38744
9.54313
9.60574
9.82698
9.77679
10.1922
9.91958
10.5359
10.0368
10.7556
10.1545
10.9688
10.2405
11.0884
10.4056
11.0133
10.7022
10.8148
10.8466
10.7163
10.9179
10.6494
10.9695
10.5803
10.9923
10.5154
11.0015
10.4057
10.9546
10.2082
10.7808
9.9548
10.3961
9.77959
9.88527
9.57408
9.40305
9.23766
8.90597
8.89868
8.41738
8.51823
7.94049
8.06691
7.44509
7.48609
6.7745
6.78132
5.84895
5.79824
4.63849
4.43262
3.06938
2.54117
0.948694
0.00779444
-1.86971
-3.34512
-5.5788
-7.70968
-10.3792
-13.2604
-16.4088
-20.1126
-23.7665
-28.2863
-32.4209
-37.5331
-41.9447
-47.2808
-51.5805
-56.507
-60.1433
-63.9608
-66.1683
-67.9261
-67.8689
-66.6773
-64.1115
-60.049
-55.3173
-49.1904
-43.556
-36.8314
-31.8134
-26.2526
-22.9478
-19.2887
-17.7535
-15.5988
-15.1339
-14.1772
-14.3205
-14.3112
-14.8063
-15.4697
-16.212
-17.297
-18.021
-19.2824
-19.8024
-20.9944
-21.2082
-22.2172
-22.0954
-22.7248
-22.3595
-22.5952
-21.9791
-21.9028
-21.0408
-20.7113
-19.6676
-19.0767
-17.8627
-16.9378
-15.4654
-14.152
-12.2702
-10.5429
-8.04616
-5.91585
-2.49945
-0.0332189
4.62777
7.33981
13.6799
16.5432
24.9996
27.8501
39.117
41.2634
56.8075
56.601
76.0904
76.5133
96.9155
97.42
117.45
3.95902
11.8632
7.89952
11.5627
10.2299
11.8717
11.6763
12.3848
12.6101
12.7939
13.2003
13.0206
13.5532
13.0924
13.7081
13.2007
13.55
13.3718
13.2105
13.2937
12.9763
13.1105
12.669
12.8554
12.3181
12.5765
11.9118
12.2895
11.4592
11.9719
10.9999
11.6219
10.5579
11.1998
10.2407
10.581
10.1192
9.90846
9.78837
9.52787
9.50753
9.16884
9.27351
8.82818
9.12752
8.59019
9.04701
8.46222
9.05662
8.41969
9.09724
8.5083
9.08663
8.95344
9.16018
9.39878
9.36357
9.67648
9.53334
9.99891
9.67572
10.2786
9.81254
10.5252
9.92796
10.7353
10.0796
10.863
10.2814
10.7963
10.573
10.6253
10.722
10.5575
10.8171
10.5388
10.8993
10.5133
10.963
10.4766
11.0145
10.3965
10.9934
10.2707
10.8036
10.088
10.4192
9.9208
9.89854
9.68718
9.40781
9.34832
8.92601
8.97603
8.46057
8.60014
7.99917
8.22201
7.56728
7.71061
7.03422
7.13102
6.29979
6.32892
5.34538
5.18664
4.07858
3.60838
2.3107
1.42746
-0.135298
-1.52345
-3.4402
-5.45231
-7.84507
-10.6328
-13.6266
-17.3126
-20.9945
-25.5847
-29.9686
-35.3043
-40.2389
-45.9326
-50.999
-56.4644
-61.011
-65.6017
-68.9199
-71.7957
-72.9615
-73.07
-71.1637
-67.4062
-61.9738
-54.907
-47.5412
-39.4915
-33.0127
-26.7044
-22.3851
-18.3657
-16.2083
-13.9814
-13.0919
-12.1714
-12.0527
-12.1516
-12.4574
-13.3212
-13.9866
-15.3176
-16.0985
-17.6194
-18.3552
-19.7545
-20.329
-21.3877
-21.6851
-22.396
-22.336
-22.6487
-22.1732
-22.0747
-21.2656
-20.8536
-19.87
-19.1814
-18.0603
-17.0665
-15.6796
-14.3605
-12.553
-10.9122
-8.47775
-6.5023
-3.14506
-0.932901
3.71682
6.07725
12.3351
14.7894
23.0102
25.3553
36.2924
37.3903
51.897
51.7244
68.0703
68.0439
85.1968
85.3725
102.352
3.36895
11.1928
7.2112
11.0553
9.6088
11.4478
11.1848
12.0223
12.2614
12.5254
12.9721
12.8581
13.4039
13.0148
13.6075
13.1955
13.5067
13.3723
13.2185
13.3115
13.0009
13.1384
12.6979
12.8909
12.331
12.6064
11.9276
12.3046
11.4938
11.9798
11.0483
11.6477
10.6011
11.2295
10.2547
10.6496
10.1947
10.0446
9.96256
9.65665
9.67992
9.31308
9.46524
9.00572
9.32842
8.7842
9.27125
8.63906
9.2632
8.59575
9.28604
8.68628
9.23847
9.12636
9.2873
9.51993
9.46495
9.79838
9.61866
10.1193
9.79273
10.4526
9.92553
10.6961
10.0335
10.8892
10.1822
10.972
10.4135
10.9239
10.7131
10.7679
10.8582
10.6758
10.947
10.6247
11.02
10.5762
11.0729
10.5483
11.1138
10.5098
11.1035
10.4116
10.9282
10.2773
10.5755
10.1342
10.1012
9.9077
9.62808
9.57827
9.16104
9.26919
8.70225
8.97892
8.28547
8.60795
7.96431
8.17147
7.52188
7.67207
6.89892
6.96495
6.0749
5.96244
4.96976
4.58079
3.41985
2.65903
1.2518
-0.0027282
-1.75799
-3.62633
-5.84984
-8.46534
-11.2908
-14.7905
-18.3545
-22.8436
-27.2593
-32.6645
-37.8269
-43.9206
-49.4788
-55.6632
-60.9973
-66.5359
-70.883
-74.8002
-77.1325
-77.8393
-76.5555
-72.8775
-67.6365
-59.9972
-52.4268
-43.1254
-35.2734
-27.3192
-22.196
-17.469
-15.4103
-12.9649
-12.369
-11.4199
-11.4792
-11.723
-12.2172
-13.2008
-14.125
-15.5872
-16.5923
-18.2298
-19.1024
-20.6559
-21.2207
-22.5591
-22.8217
-23.6981
-23.679
-24.0713
-23.6593
-23.6376
-22.9315
-22.6189
-21.7965
-21.3436
-20.4377
-19.8328
-18.6979
-17.8965
-16.3378
-15.3314
-13.2162
-11.9712
-9.06281
-7.61652
-3.6464
-2.09597
3.31413
4.86458
12.1694
13.5003
23.4536
23.9929
36.4414
37.5702
51.7426
53.278
68.4174
69.5577
85.4185
6.02829
13.5097
8.96511
12.581
10.8052
12.4495
11.9368
12.5887
12.7021
12.8278
13.2224
13.0336
13.5362
13.1727
13.6817
13.3079
13.6391
13.5258
13.3272
13.484
13.1256
13.3333
12.8453
13.1044
12.4925
12.8189
12.0806
12.5013
11.6257
12.1498
11.14
11.7584
10.662
11.2811
10.2637
10.6091
10.0982
9.95496
9.90244
9.51889
9.59812
9.14157
9.36687
8.83303
9.20158
8.60989
9.12774
8.48055
9.13207
8.44314
9.14957
8.5801
9.08594
8.9992
9.0762
9.37268
9.23068
9.64595
9.38147
9.9351
9.52564
10.2321
9.67039
10.4926
9.79355
10.6937
9.96657
10.7892
10.1997
10.7436
10.5421
10.6061
10.7544
10.5442
10.8732
10.5125
10.9648
10.5079
11.0255
10.4902
11.1111
10.4652
11.1325
10.4628
10.9957
10.353
10.6493
10.2964
10.1199
10.0799
9.66908
9.74689
9.19148
9.39488
8.74435
9.095
8.33358
8.70171
8.13201
8.42055
7.78506
8.02225
7.34728
7.48653
6.75781
6.7003
5.9285
5.61497
4.71684
4.03943
2.94138
1.82064
0.418854
-1.27444
-3.15988
-5.62624
-8.20613
-11.6255
-15.1109
-19.6577
-24.2583
-30.0112
-35.7143
-42.3743
-48.7285
-55.7135
-62.0038
-68.6026
-74.1443
-79.5138
-83.4797
-86.1214
-86.6094
-84.3279
-79.3659
-71.0192
-61.4923
-50.2247
-39.7713
-29.8147
-22.6216
-16.6181
-13.7607
-11.2003
-10.0131
-9.22884
-8.79803
-9.21168
-9.38675
-10.442
-11.366
-13.0836
-14.3306
-16.3295
-17.6149
-19.4839
-20.524
-21.9718
-22.6486
-23.6312
-23.9423
-24.4241
-24.2627
-24.2246
-23.6395
-23.2018
-22.4673
-21.8606
-21.1448
-20.443
-19.4871
-18.6964
-17.3637
-16.4578
-14.6063
-13.5605
-10.8713
-9.76487
-5.97336
-4.8754
0.241304
1.30245
7.98175
8.89598
17.593
18.57
28.9845
30.1106
41.9445
43.3088
56.4223
57.5121
71.6174
5.48323
13.2876
8.64589
12.378
10.5265
12.4145
11.7119
12.6235
12.5678
12.853
13.1555
13.053
13.5146
13.2009
13.6792
13.3403
13.659
13.5644
13.351
13.5476
13.1619
13.4004
12.8765
13.1686
12.5202
12.8758
12.115
12.5488
11.6738
12.1991
11.2019
11.826
10.7242
11.3449
10.3505
10.683
10.2238
10.0507
10.0582
9.63643
9.77185
9.28244
9.54297
8.99554
9.39365
8.77265
9.33172
8.61848
9.33766
8.58357
9.34117
8.7358
9.27047
9.13567
9.19829
9.50343
9.33988
9.78512
9.48597
10.0741
9.63995
10.3762
9.78623
10.6467
9.90727
10.8424
10.0655
10.9211
10.3107
10.8615
10.6567
10.7223
10.8501
10.6517
10.9788
10.5811
11.0878
10.5215
11.1641
10.5274
11.1791
10.546
11.2392
10.5076
11.1339
10.4688
10.7792
10.38
10.2646
10.2168
9.8294
9.92539
9.38339
9.61057
8.92259
9.34953
8.55962
9.04207
8.34527
8.76294
8.07773
8.39761
7.77474
7.93713
7.2821
7.28719
6.61925
6.38472
5.64378
5.06966
4.1399
3.13816
1.9146
0.406915
-1.23761
-3.42571
-5.73257
-8.82208
-12.0333
-16.2637
-20.6571
-26.2063
-31.8832
-38.7712
-45.4723
-53.0721
-60.0939
-67.5062
-74.0869
-80.6058
-86.2993
-90.6392
-93.1503
-91.8675
-87.7349
-78.9741
-68.6752
-55.3872
-43.0887
-30.7995
-22
-15.1382
-11.9493
-9.57813
-8.83723
-7.99781
-8.06509
-8.56686
-9.05291
-10.2127
-11.3096
-13.1602
-14.4456
-16.491
-17.7513
-19.8083
-20.7957
-22.5591
-23.3172
-24.4636
-24.994
-25.6348
-25.5526
-25.524
-24.9295
-24.4249
-23.7476
-23.2644
-22.6517
-22.3601
-21.5472
-21.2169
-19.9398
-19.5889
-17.9017
-17.5021
-15.1513
-14.6838
-11.4654
-11.007
-6.62063
-6.17937
-0.270952
0.113968
7.72541
8.36308
17.5609
18.7367
29.303
30.8398
42.7757
43.9994
57.4954
7.80652
15.54
10.3464
13.8228
11.7117
13.275
12.4393
13.1201
12.9816
13.1097
13.3848
13.1778
13.6465
13.2824
13.7797
13.3946
13.7842
13.6742
13.457
13.6816
13.2748
13.5662
13.0229
13.3525
12.6829
13.0581
12.2682
12.723
11.8033
12.3571
11.298
11.9256
10.8001
11.4015
10.3575
10.6842
10.1402
9.97187
9.9673
9.49198
9.66434
9.10852
9.41939
8.80282
9.26641
8.5817
9.20828
8.4471
9.20507
8.43147
9.206
8.60631
9.14024
9.0119
9.05198
9.37547
9.13545
9.6406
9.26718
9.89696
9.42036
10.191
9.55211
10.4759
9.67889
10.6824
9.86348
10.7663
10.1234
10.717
10.5041
10.5854
10.7791
10.4963
10.972
10.4478
11.0947
10.4276
11.1611
10.4282
11.2279
10.4283
11.1954
10.5859
11.1917
10.5046
10.9184
10.5162
10.3457
10.3597
9.86802
10.111
9.41129
9.80768
8.98784
9.55189
8.62523
9.27157
8.44384
8.96223
8.21391
8.78793
8.07407
8.39286
7.86556
7.84199
7.39068
7.19581
6.69424
6.22848
5.60408
4.76146
3.87509
2.56317
1.26094
-0.703912
-2.67866
-5.54604
-8.49375
-12.5848
-16.9249
-22.6225
-28.6857
-36.0587
-43.6436
-52.1922
-60.2463
-68.9682
-76.7536
-84.9599
-92.5507
-99.3299
-104.225
-105.639
-103.425
-95.0474
-83.9016
-68.9295
-52.8184
-36.9541
-24.4346
-14.0573
-9.97026
-7.28642
-6.19232
-5.76799
-5.13613
-5.60827
-5.7916
-6.69816
-7.85605
-10.0324
-11.8817
-14.539
-16.4351
-18.9415
-20.5595
-22.3995
-23.4906
-24.723
-25.4735
-26.304
-26.5019
-26.5902
-26.1569
-25.5245
-24.6725
-23.9769
-23.4659
-23.014
-22.4253
-22.0379
-21.13
-20.776
-19.5233
-19.2121
-17.1617
-16.9179
-13.9209
-13.7796
-9.84085
-9.7746
-4.7066
-4.70396
1.96432
1.92701
10.2109
10.3167
19.8848
20.3459
31.3204
31.7336
44.5147
7.59578
15.5498
10.3654
13.9757
11.8309
13.5175
12.5572
13.3979
13.0751
13.3775
13.4749
13.3746
13.7405
13.4048
13.8516
13.4936
13.8222
13.7511
13.5167
13.7747
13.3305
13.6755
13.0661
13.461
12.7301
13.1599
12.3229
12.8145
11.8718
12.4452
11.3988
12.0404
10.9008
11.5143
10.4987
10.7841
10.3018
10.0726
10.1427
9.60576
9.84994
9.23302
9.5997
8.93235
9.45767
8.70675
9.39361
8.5581
9.38909
8.5121
9.39339
8.72083
9.29737
9.13489
9.16147
9.52952
9.2045
9.82163
9.30937
10.095
9.4417
10.3741
9.59925
10.633
9.76048
10.8163
9.96098
10.885
10.2259
10.8045
10.6092
10.6242
10.9125
10.5617
11.0389
10.5168
11.1248
10.4921
11.2051
10.4632
11.2673
10.4597
11.2415
10.5607
11.2142
10.6163
11.0148
10.6066
10.4907
10.4777
9.98451
10.2673
9.50469
9.99471
9.05977
9.79101
8.70938
9.58292
8.52357
9.28698
8.45066
9.03946
8.20641
8.82414
8.12648
8.30179
7.87337
7.75153
7.38019
6.97496
6.49399
5.75015
5.03934
3.91515
2.86886
1.21164
-0.43982
-2.89468
-5.4495
-9.0446
-12.9456
-18.2193
-24.0308
-31.5111
-39.207
-48.4148
-57.1005
-66.2918
-74.3844
-82.824
-91.6982
-100.442
-108.684
-113.086
-113.863
-106.991
-96.0643
-79.6202
-61.2215
-41.1506
-25.3997
-12.3274
-7.89534
-4.98249
-4.48769
-4.35387
-4.54847
-5.31599
-5.80833
-6.9185
-7.762
-10.0097
-11.3533
-13.857
-15.5567
-18.3288
-19.8958
-22.3147
-23.5837
-24.9441
-26.1316
-27.3294
-27.7662
-27.8618
-27.3879
-26.4406
-25.7639
-24.6476
-24.4319
-24.2609
-24.0677
-23.8138
-23.0224
-22.8011
-21.9143
-21.8781
-20.2924
-20.4548
-18.0957
-18.3501
-15.2083
-15.3177
-11.3941
-11.5726
-6.18257
-6.28917
0.644597
1.07279
8.89151
9.81035
19.2887
19.838
31.8462
9.8183
17.6581
12.0789
15.1404
12.9728
14.1827
13.221
13.6889
13.4687
13.4065
13.6961
13.3583
13.8406
13.4329
13.9075
13.5338
13.8967
13.8205
13.5746
13.8994
13.3872
13.8285
13.188
13.6178
12.8925
13.3135
12.4765
12.9733
11.9982
12.5915
11.4981
12.1428
10.9962
11.5808
10.537
10.8245
10.2486
9.98502
10.0511
9.47953
9.72878
9.05172
9.50744
8.71224
9.39147
8.47556
9.36218
8.32392
9.36467
8.32803
9.33085
8.58136
9.20297
9.04162
9.02043
9.46012
9.01622
9.74884
9.11171
10.0117
9.23099
10.2805
9.36336
10.5425
9.51037
10.7319
9.73716
10.7802
10.0694
10.6983
10.5103
10.4984
10.8466
10.4245
11.0519
10.3899
11.1756
10.3803
11.2519
10.3906
11.3157
10.4192
11.3004
10.5297
11.2034
10.6326
11.0603
10.7218
10.5268
10.6153
10.0466
10.4451
9.53779
10.1869
9.12842
10.0102
8.75529
9.88048
8.58843
9.53773
8.52227
9.2581
8.56484
9.10125
8.48654
8.74714
8.38262
8.31088
8.15358
7.84346
7.65745
7.06665
6.6603
5.72035
4.98775
3.59484
2.31643
0.190549
-1.95768
-5.22466
-8.74812
-13.7808
-19.4077
-26.947
-35.2945
-45.208
-54.927
-65.7943
-75.1463
-84.6099
-94.4138
-104.161
-113.719
-120.318
-123.981
-118.544
-109.92
-95.3617
-75.9077
-53.4485
-32.3473
-13.5356
-5.65758
-1.9677
-1.61695
-2.77607
-1.31039
-2.08514
-2.27285
-2.6578
-3.70085
-6.18039
-9.01905
-12.2689
-14.667
-17.974
-20.3222
-22.5377
-24.0354
-25.3696
-26.3223
-27.8511
-28.856
-29.3617
-29.5747
-28.0382
-27.2988
-25.2133
-24.5621
-24.4749
-24.4261
-24.4631
-24.0089
-23.7637
-23.3965
-23.3317
-22.1657
-22.4154
-20.0975
-20.7105
-17.9592
-18.5963
-15.1472
-16.0748
-11.207
-12.4506
-6.07684
-6.99601
0.260422
-0.591443
8.19779
7.22703
19.1876
9.5215
17.7011
12.426
15.3745
13.4227
14.4818
13.8146
14.0005
13.9863
13.7149
14.045
13.6031
14.0555
13.6109
14.079
13.6205
13.9446
13.9235
13.6195
14.0325
13.4441
13.9596
13.2428
13.7676
12.9392
13.4837
12.5134
13.1238
12.0574
12.7471
11.5777
12.3236
11.0968
11.7749
10.7053
11.0009
10.4828
10.1114
10.2448
9.57288
9.94463
9.1198
9.72685
8.76286
9.59901
8.51362
9.56883
8.36812
9.54829
8.39699
9.46711
8.66992
9.29872
9.16667
9.06591
9.62994
9.02746
9.91966
9.10097
10.178
9.20453
10.4456
9.33177
10.6856
9.50794
10.8304
9.78588
10.8538
10.1328
10.7462
10.6025
10.5137
10.9289
10.4341
11.1276
10.3638
11.2549
10.2957
11.3698
10.2541
11.4356
10.2828
11.3943
10.4302
11.2661
10.6238
11.0055
10.7852
10.5571
10.7723
10.0411
10.5717
9.6095
10.3152
9.19207
10.1458
8.82445
10.045
8.65332
9.8432
8.55991
9.55022
8.54381
9.35133
8.67748
9.05746
8.73637
8.63896
8.58837
8.2859
8.21462
7.70411
7.44802
6.67225
6.14745
5.03998
4.07797
2.40652
0.72158
-1.91082
-4.82745
-9.15979
-14.2654
-21.4792
-29.5412
-40.3694
-50.7236
-62.5281
-70.6769
-78.8086
-88.1044
-98.427
-109.874
-118.66
-126.206
-124.097
-115.361
-102.737
-83.5148
-59.9568
-37.6686
-16.4873
-6.0806
-1.83682
0.880841
-2.02547
-2.25593
-4.12429
-3.82387
-4.67274
-3.9594
-6.18643
-7.23869
-10.4956
-12.6559
-16.2851
-18.776
-22.3217
-23.9042
-25.2411
-26.645
-28.5196
-29.7766
-30.2603
-30.5046
-29.1645
-27.9967
-25.7636
-25.1886
-25.0456
-25.6116
-25.5514
-24.906
-24.6299
-24.4534
-24.7373
-24.0274
-24.5024
-22.9161
-23.6395
-21.4399
-21.948
-19.8503
-20.8393
-17.1753
-18.9084
-13.5821
-13.6832
-9.06294
-8.55216
-3.26199
-3.07843
6.20072
12.4429
18.9716
14.2239
16.0879
14.3807
14.7395
14.3366
14.0441
14.2152
13.6582
14.1315
13.5819
14.1016
13.5836
14.1092
13.6308
13.9334
13.964
13.5763
14.143
13.4388
14.1194
13.2699
13.9668
12.975
13.6871
12.5525
13.3507
12.0423
12.9881
11.5466
12.5238
11.0749
11.9512
10.6661
11.1102
10.4458
10.099
10.1968
9.41292
9.94018
8.93126
9.72677
8.55061
9.60107
8.29218
9.60059
8.18325
9.54906
8.24575
9.43351
8.55025
9.22582
9.12758
8.92778
9.63406
8.87376
9.90764