/*--------------------------------*- C++ -*----------------------------------*\
| =========                 |                                                 |
| \\      /  F ield         | OpenFOAM: The Open Source CFD Toolbox           |
|  \\    /   O peration     | Version:  4.1                                   |
|   \\  /    A nd           | Web:      www.OpenFOAM.org                      |
|    \\/     M anipulation  |                                                 |
\*---------------------------------------------------------------------------*/
FoamFile
{
    version     2.0;
    format      ascii;
    class       volScalarField;
    location    "18";
    object      p;
}
// * * * * * * * * * * * * * * * * * * * * * * * * * * * * * * * * * * * * * //

dimensions      [0 2 -2 0 0 0 0];

internalField   nonuniform List<scalar> 
6750
(
-135.196
-82.2729
-147.802
-146.229
-179.739
-195.103
-224.954
-269.025
-278.694
-261.541
-281.266
-234.313
-274.952
-172.529
-310.311
-134.676
-81.1255
-147.221
-146.171
-180.122
-195.357
-228.266
-265.678
-280.314
-264.465
-282.509
-234.592
-274.84
-171.285
-310.68
-134.23
-80.204
-146.816
-146.207
-180.43
-195.524
-232.746
-263.891
-283.921
-266.224
-283.648
-236.047
-275.295
-170.477
-311.133
-133.633
-78.9904
-146.241
-146.196
-180.383
-195.816
-233.15
-266.449
-284.843
-267.806
-285.493
-240.909
-276.007
-170.353
-311.343
-133.08
-77.8209
-145.754
-146.248
-180.247
-196.315
-231.052
-267.764
-274.409
-262.141
-282.435
-245.93
-276.435
-170.509
-311.575
-132.57
-76.6877
-145.307
-146.297
-180.376
-196.715
-232.739
-266.588
-267.099
-258.386
-279.662
-247.211
-276.388
-170.092
-311.684
-132.222
-75.8296
-144.992
-146.327
-180.708
-196.929
-235.548
-263.776
-268.473
-258.633
-279.034
-244.412
-275.839
-169.427
-311.699
-132.074
-75.5763
-144.844
-146.292
-180.742
-197.107
-235.58
-261.941
-270.093
-258.492
-278.793
-242.341
-275.464
-168.514
-311.729
-132.155
-75.9867
-144.951
-146.216
-180.702
-196.733
-235.541
-261.826
-269.319
-257.474
-279.287
-242.856
-275.465
-168.989
-311.448
-132.459
-76.9033
-145.209
-146.091
-180.397
-196.245
-234.677
-263.629
-267.241
-256.912
-280.252
-245.143
-275.765
-169.409
-311.17
-132.924
-78.0578
-145.576
-145.945
-179.977
-195.68
-231.226
-264.752
-269.391
-258.656
-282.595
-244.299
-275.714
-169.443
-310.844
-133.442
-79.2157
-145.983
-145.795
-179.804
-194.935
-231.341
-263.578
-280.622
-265.554
-285.653
-239.865
-275.204
-169.088
-310.429
-134.004
-80.3988
-146.49
-145.715
-179.733
-194.395
-232.052
-260.942
-281.244
-264.681
-283.985
-234.621
-274.382
-168.969
-310.048
-134.427
-81.2923
-146.845
-145.611
-179.298
-194.082
-227.471
-261.176
-277.145
-262.453
-282.274
-232.756
-273.777
-169.599
-309.483
-134.923
-82.3987
-147.372
-145.61
-178.745
-193.775
-223.275
-265.307
-275.109
-259.427
-280.842
-232.451
-273.791
-170.68
-309.016
-182.035
-62.7244
-146.61
-138.331
-167.653
-177.547
-190.335
-217.555
-228.161
-266.094
-312.597
-274.459
-287.877
-124.228
-444.305
-181.409
-61.4077
-145.724
-137.846
-166.893
-176.819
-188.826
-218.747
-237.418
-271.462
-312.723
-275.964
-286.945
-122.961
-445.458
-180.895
-60.5902
-145.19
-137.574
-166.019
-176.339
-185.438
-225.258
-252.772
-277.392
-311.768
-276.669
-286.209
-121.681
-447.111
-180.164
-59.3948
-144.346
-137.143
-164.62
-175.387
-178.771
-228.146
-263.364
-284.968
-310.88
-276.556
-286.542
-121.44
-446.811
-179.476
-58.3854
-143.678
-136.831
-163.429
-174.021
-172.382
-220.396
-252.556
-285.971
-309.218
-275.621
-286.77
-121.273
-447.156
-178.814
-57.4145
-143.045
-136.575
-162.889
-173.028
-172.097
-211.809
-242.497
-284.976
-307.46
-276.021
-286.935
-120.816
-447.388
-178.347
-56.7392
-142.62
-136.427
-163.067
-172.549
-175.587
-207.858
-241.143
-285.4
-307.773
-277.883
-286.687
-120.405
-447.669
-178.122
-56.5547
-142.422
-136.309
-163.153
-171.79
-177.687
-205.25
-239.898
-284.842
-308.096
-278.479
-285.906
-119.522
-448.52
-178.21
-56.8827
-142.596
-136.327
-163.215
-171.996
-177.249
-204.958
-238.301
-284.026
-308.307
-278.094
-286.587
-120.353
-447.342
-178.605
-57.6207
-142.961
-136.422
-163.09
-172.796
-174.885
-209.308
-239.454
-283.865
-308.049
-276.566
-286.972
-120.813
-446.694
-179.196
-58.6198
-143.49
-136.58
-163.192
-173.359
-172.327
-214.774
-244.293
-284.141
-309.047
-275.689
-286.731
-121.045
-446.161
-179.832
-59.6256
-144.057
-136.788
-163.934
-174.406
-175.612
-222.751
-259.093
-284.304
-310.936
-275.931
-286.423
-121.097
-445.498
-180.515
-60.7961
-144.813
-137.128
-165.13
-175.339
-182.346
-223.801
-254.794
-277.672
-311.946
-275.723
-285.971
-121.207
-445.536
-180.997
-61.5925
-145.295
-137.329
-165.936
-175.683
-186.722
-217.331
-237.7
-270.313
-312.817
-274.807
-286.58
-122.404
-443.722
-181.588
-62.8681
-146.118
-137.748
-166.589
-176.34
-188.375
-215.354
-225.34
-263.837
-312.794
-273.096
-287.462
-123.579
-442.427
-256.039
-26.2948
-147.541
-129.643
-155.351
-160.65
-166.157
-174.766
-192.454
-255.927
-289.995
-275.61
-266.798
-37.4998
-634.5
-255.12
-25.1025
-146.263
-128.537
-153.562
-159.372
-163.864
-180.62
-201.779
-257.655
-291.333
-276.323
-265.451
-38.1533
-636.264
-254.467
-24.6427
-145.592
-127.93
-152.168
-158.354
-163.393
-192.828
-213.118
-259.716
-291.252
-276.212
-263.826
-38.6498
-638.689
-253.489
-23.7067
-144.35
-126.884
-149.637
-155.342
-156.136
-198.62
-224.577
-264.975
-289.95
-276.44
-264.137
-39.4012
-638.674
-252.643
-23.0695
-143.393
-126.123
-147.567
-151.219
-146.085
-186.731
-224.537
-268.14
-288.955
-276.973
-264.255
-40.1637
-639.561
-251.819
-22.39
-142.435
-125.55
-146.698
-149.443
-145.546
-177.402
-219.963
-268.437
-288.655
-277.857
-264.347
-40.4251
-640.084
-251.277
-21.9783
-141.814
-125.491
-146.905
-151.921
-147.793
-176.272
-219.597
-268.827
-288.689
-278.672
-264.086
-40.6344
-640.389
-250.946
-21.907
-141.541
-125.387
-147.095
-151.973
-149.284
-174.504
-219.013
-267.815
-288.621
-278.412
-262.833
-40.4268
-641.446
-250.967
-22.1887
-141.864
-125.502
-147.203
-152.548
-148.526
-173.836
-217.873
-267.99
-288.5
-278.291
-263.937
-40.1455
-640.087
-251.39
-22.6883
-142.431
-125.651
-147.057
-152.215
-146.444
-176.032
-217.117
-267.896
-288.351
-277.567
-264.362
-39.766
-639.379
-252.095
-23.4045
-143.265
-126.001
-147.465
-151.497
-145.494
-180.666
-220.278
-267.624
-288.737
-276.338
-264.188
-39.2355
-638.536
-252.869
-24.0453
-144.084
-126.61
-148.814
-154.693
-150.649
-194.464
-225.312
-265.436
-290.07
-275.584
-264.123
-38.409
-637.28
-253.781
-24.9607
-145.225
-127.544
-151.243
-157.723
-161.197
-195.644
-217.137
-260.248
-291.557
-274.99
-263.716
-37.5731
-637.007
-254.395
-25.4051
-145.846
-128.08
-152.647
-158.754
-162.625
-183.137
-203.373
-257.292
-291.733
-275
-265.28
-37.073
-634.391
-255.269
-26.5565
-147.058
-129.104
-154.385
-159.82
-164.612
-174.642
-190.211
-255.364
-290.228
-274.145
-266.599
-36.3853
-632.452
-330.889
15.1573
-142.008
-127.136
-145.78
-144.948
-149.763
-146.28
-158.043
-222.607
-258.918
-278.213
-230.597
-20.7195
-777.805
-329.656
15.8945
-140.576
-125.152
-143.171
-141.729
-148.258
-149.891
-163.047
-224.389
-260.593
-279.283
-229.579
-24.7156
-781.424
-328.843
15.9228
-139.876
-123.931
-141.711
-138.183
-154.503
-161.599
-167.736
-227.32
-261.303
-279.962
-227.05
-28.2438
-785.605
-327.556
16.2648
-138.447
-121.936
-138.686
-131.546
-155.315
-171.867
-179.077
-233.268
-262.183
-280.894
-226.084
-31.0902
-786.926
-326.5
16.2172
-137.316
-120.525
-135.769
-125.313
-144.842
-162.401
-186.029
-237.375
-262.64
-281.518
-224.967
-33.6511
-788.675
-325.45
16.2195
-136.13
-119.651
-134.097
-125.741
-137.524
-149.806
-186.355
-238.885
-262.688
-281.617
-223.966
-35.7608
-790.178
-324.817
16.0655
-135.378
-119.773
-134.5
-131.392
-136.189
-145.831
-185.631
-239.151
-263.168
-282.16
-223.312
-36.705
-790.252
-324.343
15.8734
-135.026
-119.72
-134.454
-132.456
-134.295
-146.106
-184.025
-239.223
-263.468
-281.765
-222.222
-38.0803
-792.121
-324.266
15.7294
-135.51
-119.947
-134.751
-132.737
-134.679
-145.541
-184.149
-238.448
-263.243
-281.715
-223.219
-35.926
-790.467
-324.747
15.8129
-136.243
-120.047
-134.995
-129.804
-135.928
-146.216
-184.312
-237.982
-262.696
-281.101
-224.035
-34.3295
-789.877
-325.64
15.8168
-137.256
-120.596
-135.527
-127.148
-139.431
-153.484
-184.811
-236.986
-262.632
-280.519
-224.841
-32.1493
-788.473
-326.625
15.9035
-138.217
-121.704
-137.752
-130.463
-149.016
-167.96
-181.338
-234.014
-262.602
-279.831
-225.956
-29.2818
-786.321
-327.84
15.6204
-139.538
-123.514
-140.783
-136.783
-154.095
-164.654
-170.177
-228.093
-261.649
-278.449
-226.848
-26.5739
-785.059
-328.619
15.6322
-140.183
-124.654
-142.238
-140.524
-147.435
-150.287
-164.018
-224.431
-260.978
-277.546
-229.296
-22.8364
-780.675
-329.806
14.9551
-141.553
-126.55
-144.828
-143.729
-148.27
-142.677
-157.583
-222.332
-259.173
-276.198
-230.407
-18.9294
-776.978
-417.566
34.8872
-133.18
-131.723
-143.083
-143.575
-138.999
-135.769
-154.939
-200.767
-238.325
-284.111
-242.915
-64.7042
-925.287
-416.351
36.1351
-131.762
-129.143
-140.371
-140.279
-142.387
-139.782
-156.879
-202.41
-239.345
-283.64
-236.892
-70.7928
-932.17
-415.578
36.4791
-131.016
-127.533
-138.722
-137.982
-154.852
-146.339
-159.777
-204.449
-239.858
-283.429
-229.559
-73.8073
-939.431
-414.262
37.0475
-129.411
-124.691
-134.279
-132.797
-159.114
-154.766
-167.958
-208.529
-241.017
-284.157
-225.373
-78.8325
-942.202
-413.175
36.8589
-128.017
-122.424
-129.068
-125.443
-150.161
-151.715
-173.196
-210.84
-241.332
-284.232
-221.357
-82.8221
-945.148
-412.016
36.4667
-126.657
-120.957
-126.267
-122.799
-137.48
-144.027
-174.582
-211.702
-241.295
-284.111
-218.388
-85.8267
-947.501
-411.28
35.6815
-126.035
-121.224
-128.884
-123.551
-132.752
-140.294
-175.022
-212.045
-241.461
-284.393
-217.267
-88.433
-947.264
-410.625
35.1445
-125.697
-121.216
-129.293
-124.838
-130.489
-137.863
-174.036
-211.942
-241.297
-283.988
-216.043
-87.9143
-949.042
-410.477
35.2701
-126.202
-121.494
-129.861
-124.932
-130.67
-137.873
-174.01
-211.444
-241.116
-283.963
-217.085
-86.0435
-946.937
-410.997
36.0696
-126.815
-121.378
-128.661
-122.656
-134.594
-140.747
-173.98
-210.782
-240.708
-283.197
-218.198
-83.0558
-946.425
-411.948
36.6015
-127.829
-122.068
-128.428
-123.295
-142.135
-146.362
-173.294
-209.962
-240.61
-282.676
-220.678
-79.341
-944.081
-412.953
36.9229
-129.009
-123.838
-132.555
-128.161
-155.29
-153.308
-170.075
-208.121
-240.415
-281.998
-224.196
-75.3968
-940.335
-414.193
36.4773
-130.54
-126.606
-137.419
-135.355
-157.191
-148.938
-162.15
-203.992
-239.183
-280.559
-227.667
-70.5488
-937.71
-414.935
36.1993
-131.286
-128.268
-139.507
-138.364
-145.93
-140.43
-157.185
-201.348
-238.531
-280.009
-234.172
-67.3964
-930.345
-416.111
35.0264
-132.693
-130.895
-142.394
-142.181
-139.889
-133.175
-154.157
-199.109
-237.13
-279.547
-239.72
-61.4846
-923.461
-526.78
12.7927
-128.726
-150.017
-146.918
-151.012
-150.876
-152.622
-174.057
-214.016
-263.285
-306.56
-328.232
-60.4952
-1070.19
-525.655
14.8659
-127.535
-146.984
-144.415
-148.59
-153.501
-154.721
-175.777
-215.429
-262.077
-307.613
-318.389
-73.1618
-1087.83
-524.913
15.7792
-126.918
-144.977
-142.416
-147.696
-162.008
-158.17
-178.172
-216.29
-260.712
-307.348
-298.362
-79.9711
-1114.05
-523.633
17.2081
-125.379
-141.244
-136.327
-143.981
-164.335
-162.689
-183.12
-217.457
-258.618
-306.028
-281.299
-92.9559
-1116.5
-522.537
17.6631
-124.002
-137.74
-129.304
-138.782
-153.697
-161.361
-186.023
-217.782
-257.079
-306.656
-271.149
-102.74
-1120.17
-521.306
17.8257
-122.596
-134.76
-124.818
-134.348
-143.575
-155.998
-186.983
-217.944
-254.691
-302.82
-259.734
-109.681
-1128.01
-520.416
17.1487
-122.103
-134.274
-127.305
-132.401
-140.938
-152.772
-187.632
-218.127
-253.998
-304.463
-260.477
-110.499
-1122.31
-519.488
16.4624
-121.855
-134.248
-129.215
-132.799
-141.562
-150.06
-187.361
-217.803
-253.062
-300.998
-251.694
-108.745
-1138.76
-519.296
16.5003
-122.203
-134.586
-129.402
-132.373
-141.061
-150.572
-187.367
-217.579
-253.935
-304.332
-256.457
-105.546
-1127.25
-519.937
17.2572
-122.571
-134.75
-126.493
-132.677
-141.943
-153.091
-186.747
-216.65
-253.553
-302.325
-259.204
-104.097
-1127.36
-520.935
17.3447
-123.588
-136.665
-127.584
-135.336
-147.411
-157.367
-185.935
-215.937
-255.138
-303.004
-266.86
-97.753
-1122.37
-521.942
17.0935
-124.812
-139.826
-133.71
-140.09
-160.813
-161.547
-183.827
-214.95
-256.786
-302.526
-277.067
-87.7765
-1116.11
-523.144
15.8369
-126.334
-143.723
-140.644
-145.341
-164.657
-158.947
-178.814
-212.819
-257.957
-301.317
-291.671
-77.5601
-1116.05
-523.853
15.0108
-127.012
-145.976
-143.721
-147.29
-157.337
-154.771
-174.745
-211.238
-259.535
-301.651
-311.238
-70.8573
-1087.95
-524.942
13.0282
-128.228
-149.203
-146.655
-150.526
-151.886
-151.085
-171.848
-208.555
-260.004
-299.349
-320.951
-59.5595
-1069.69
-657.118
-28.2746
-136.012
-186.305
-169.414
-170.834
-173.447
-185.436
-221.232
-238.91
-328.253
-309.49
-547.182
-54.9459
-1244.96
-656.122
-26.1885
-134.888
-183.336
-166.517
-167.308
-173.393
-185.628
-219.132
-239.055
-319.694
-306.778
-471.435
-75.2909
-1278.34
-655.47
-25.2118
-134.369
-181.436
-164.648
-165.124
-179.269
-187.077
-219.535
-240.049
-312.703
-309.884
-387.16
-78.7263
-1327.71
-654.311
-23.5086
-133.063
-177.999
-159.448
-159.51
-183.339
-188.964
-221.044
-240.615
-304.685
-315.335
-359.336
-95.6512
-1333.52
-653.318
-22.6254
-132.037
-174.877
-153.212
-152.506
-177.24
-187.822
-220.793
-241.13
-298.926
-317.148
-338.908
-106.32
-1341.43
-652.156
-21.8523
-130.882
-171.816
-147.302
-147.53
-167.597
-183.047
-219.577
-241.746
-294.309
-314.958
-320.417
-109.93
-1354.69
-651.188
-22.0145
-130.504
-170.599
-147.007
-146.488
-164.829
-181.045
-218.998
-242.032
-291.051
-314.008
-320.864
-122.495
-1348.41
-650.077
-22.5859
-130.309
-170.266
-148.031
-147.948
-165.967
-179.931
-218.864
-242.035
-289.795
-314.154
-311.662
-112.218
-1359.23
-649.817
-22.9298
-130.453
-170.72
-148.32
-147.12
-165.195
-179.823
-218.936
-241.769
-290.304
-316.267
-319.651
-106.198
-1347.95
-650.45
-22.721
-130.64
-171.538
-147.478
-146.317
-165.288
-180.845
-219.162
-240.497
-292.013
-314.383
-321.891
-97.7505
-1348.2
-651.396
-23.2089
-131.509
-173.905
-150.995
-148.902
-170.923
-183.873
-220.322
-239.38
-296.295
-312.935
-337.599
-93.0091
-1338.63
-652.285
-23.8462
-132.424
-176.83
-157.236
-155.523
-180.262
-187.116
-221.225
-237.543
-301.801
-309.782
-356.843
-86.8982
-1324.18
-653.341
-25.3428
-133.685
-180.329
-163.215
-162.61
-181.394
-186.806
-220.737
-235.708
-309.675
-302.356
-376.755
-74.1124
-1323.21
-653.938
-26.2029
-134.233
-182.367
-165.864
-166.234
-175.501
-185.654
-219.509
-233.631
-316.579
-296.526
-453.254
-70.5908
-1273.42
-654.885
-28.1612
-135.344
-185.445
-169.053
-170.622
-173.969
-184.821
-221.596
-232.21
-323.993
-293.169
-524.852
-53.0105
-1240.84
-803.422
-73.2773
-154.376
-235.137
-211.917
-219.423
-228.379
-219.936
-278.407
-288.901
-464.844
-252.757
-1129.44
-21.2738
-1216.93
-802.519
-71.5293
-153.342
-232.619
-208.792
-215.174
-224.194
-217.382
-274.317
-286.027
-444.164
-267.953
-1104.9
-112.561
-1296.55
-801.945
-70.7083
-152.888
-231.06
-206.995
-212.579
-223.728
-218.039
-274.719
-284.519
-418.661
-298.484
-774.594
-48.4409
-1584.6
-800.904
-69.1808
-151.784
-228.292
-203.106
-207.004
-219.434
-219.534
-276.454
-281.934
-384.59
-305.059
-543.333
-12.4644
-1607.91
-800.058
-68.2737
-151.011
-225.985
-199.287
-200.137
-210.432
-218.545
-276.501
-279.99
-369.662
-324.753
-484.092
-66.299
-1598.78
-799.046
-67.3288
-150.093
-223.583
-195.144
-192.999
-200.906
-213.491
-273.329
-277.903
-355.239
-311.166
-408.729
-80.6119
-1647.44
-798.129
-67.1598
-149.755
-222.428
-193.795
-191.313
-199.81
-211.631
-272.808
-277.662
-347.428
-308.807
-503.798
-137.103
-1563.2
-797.074
-67.4857
-149.545
-221.979
-193.593
-192.649
-201.874
-211.158
-271.8
-276.893
-343.955
-308.019
-373.037
-67.5336
-1707.18
-796.594
-68.174
-149.636
-222.423
-194.093
-192.505
-200.817
-210.162
-272.065
-277.831
-346.195
-328.396
-413.62
-46.1911
-1627.16
-796.886
-68.4662
-149.771
-223.276
-194.808
-192.394
-199.638
-210.164
-272.238
-276.787
-349.274
-317.299
-415.146
-45.4174
-1634.11
-797.693
-69.11
-150.451
-225.214
-197.87
-196.982
-205.146
-212.761
-273.991
-277.514
-364.059
-317.972
-449.228
-29.3112
-1615.47
-798.388
-69.7397
-151.092
-227.318
-201.691
-204.036
-215.489
-215.556
-276.421
-278.131
-380.138
-303.379
-510.56
20.0041
-1610.43
-799.292
-71.0313
-152.089
-229.982
-205.815
-210.513
-223.501
-215.529
-276.194
-279.227
-412.152
-287.144
-704.914
-44.6893
-1611.35
-799.773
-71.7066
-152.521
-231.536
-207.912
-213.831
-225.099
-214.797
-275.373
-280.185
-440.542
-260.782
-1049.19
-117.586
-1293.43
-800.599
-73.283
-153.49
-234.021
-211.153
-218.473
-229.187
-217.491
-280.401
-282.209
-464.716
-247.15
-1082.7
-25.6584
-1201.14
-965.313
-123.92
-177.791
-292.198
-268.846
-285.217
-314.044
-296.458
-368.956
-296.328
-555.412
-257.261
-919.412
76.2931
-1560.49
-964.498
-122.447
-176.881
-290.16
-265.966
-281.315
-308.59
-291.194
-357.311
-296.441
-543.645
-273.143
-1029.89
-146.586
-1641.19
-963.98
-121.75
-176.501
-288.941
-264.331
-278.998
-305.391
-288.384
-349.295
-299.719
-512.09
-278.88
-797.934
-108.846
-1972.78
-963.045
-120.439
-175.572
-286.749
-261.156
-274.507
-298.71
-281.846
-336.977
-302.657
-462.968
-270.607
-592.281
14.6978
-1963.12
-962.291
-119.64
-174.97
-285.044
-258.546
-270.27
-291.142
-272.19
-325.619
-306.461
-453.817
-304.454
-568.545
-65.046
-1944.55
-961.372
-118.758
-174.214
-283.177
-255.686
-265.502
-282.814
-262.872
-316.524
-304.106
-433.593
-284.162
-479.407
-69.2755
-2016.22
-960.552
-118.467
-173.879
-282.199
-254.412
-263.642
-281.069
-261.978
-312.89
-307.546
-428.832
-251.098
-673.901
-229.893
-1822.32
-959.676
-118.548
-173.619
-281.701
-253.826
-263.251
-281.732
-263.665
-312.35
-306.82
-425.27
-277.712
-465.648
-71.2784
-2126.2
-959.078
-119.282
-173.711
-282.051
-254.271
-263.597
-281.69
-262.306
-311.48
-307
-418.231
-298.097
-497.013
22.8914
-2024.44
-958.878
-119.905
-173.838
-282.715
-255.133
-264.507
-282.177
-261.027
-312.921
-303.688
-424.739
-299.126
-487.575
13.6153
-1982.01
-959.353
-120.643
-174.334
-284.162
-257.375
-267.881
-287.836
-265.819
-319.646
-299.838
-444.25
-293.257
-510.078
23.199
-1970.53
-959.88
-121.157
-174.749
-285.598
-259.809
-271.972
-295.956
-275.717
-332.156
-296.988
-462.45
-263.293
-564.354
100.171
-1957.34
-960.617
-122.201
-175.507
-287.551
-262.885
-276.437
-303.714
-283.6
-348.525
-292.271
-508.815
-256.141
-744.478
-67.0224
-1993.39
-960.992
-122.716
-175.818
-288.66
-264.556
-278.903
-307.607
-287.515
-359.422
-288.414
-538.011
-251.047
-991.199
-118.338
-1625.47
-961.682
-123.964
-176.606
-290.538
-267.393
-282.829
-313.386
-293.064
-372.612
-288.692
-550.086
-231.69
-878.617
108.81
-1533.98
-1138.57
-185.887
-205.819
-357.137
-335.309
-358.588
-406.031
-384.923
-484.744
-364.582
-645.204
-266.927
-1026.33
219.038
-1812.02
-1137.9
-184.611
-205.01
-355.454
-332.816
-355.22
-400.819
-378.933
-473.433
-359.571
-638.704
-271.428
-1143.51
-89.2757
-1919.03
-1137.45
-183.976
-204.695
-354.494
-331.458
-353.288
-397.632
-375.158
-463.717
-352.315
-611.782
-269.304
-932.418
-98.5257
-2313.06
-1136.66
-182.828
-203.901
-352.722
-328.863
-349.626
-391.692
-367.424
-446.006
-337.887
-534.78
-261.535
-718.872
49.2416
-2363.81
-1135.98
-182.119
-203.413
-351.422
-326.95
-346.7
-386.761
-360.475
-433.002
-335.432
-535.339
-300.294
-675.937
-13.7004
-2354.06
-1135.14
-181.332
-202.759
-349.937
-324.769
-343.363
-381.149
-352.592
-417.217
-328.606
-514.496
-273.87
-614.962
-86.5654
-2456.8
-1134.42
-181.001
-202.42
-349.117
-323.688
-341.749
-379.061
-351.481
-416.866
-328.226
-510.045
-246.992
-778.209
-257.138
-2165.54
-1133.69
-180.898
-202.122
-348.597
-323.031
-340.863
-378.157
-351.682
-419.037
-329.677
-504.176
-267.051
-699.368
-158.563
-2468.44
-1133.17
-181.346
-202.163
-348.795
-323.366
-341.162
-378.707
-351.244
-417.744
-326.665
-490.416
-254.943
-615.273
-5.45207
-2554.36
-1132.74
-181.922
-202.244
-349.201
-324.01
-341.924
-379.944
-350.608
-415.606
-324.644
-496.375
-281.371
-614.786
98.6099
-2365.64
-1132.6
-182.852
-202.637
-350.225
-325.667
-344.207
-384.167
-354.86
-425.795
-326.095
-523.194
-285.641
-674.174
64.0098
-2365.63
-1132.64
-183.524
-202.923
-351.168
-327.276
-346.622
-388.994
-361.084
-440.002
-326.757
-526.031
-253.281
-694.215
150.296
-2336.24
-1133.12
-184.421
-203.49
-352.581
-329.583
-349.824
-394.947
-368.376
-459.373
-337.922
-606.322
-260.011
-915.237
-55.6812
-2290.88
-1133.39
-184.819
-203.686
-353.341
-330.814
-351.573
-398.3
-372.409
-470.215
-346.418
-628.663
-253.414
-1097.63
-62.5555
-1877.43
-1133.88
-185.8
-204.305
-354.746
-333.103
-354.673
-403.623
-378.438
-482.673
-353.691
-632.647
-241.346
-969.532
246.764
-1754.94
-1315.24
-259.548
-238.381
-430.476
-412.412
-440.706
-511.066
-488.263
-619.128
-460.69
-799.26
-267.367
-1227.14
379.82
-2226.33
-1314.7
-258.44
-237.647
-429.041
-410.217
-437.789
-506.314
-482.198
-608.075
-449.37
-788.847
-256.591
-1379.86
-6.81224
-2383.52
-1314.31
-257.839
-237.368
-428.243
-409.062
-436.184
-503.514
-478.515
-599.365
-438.936
-753.284
-254.185
-1123.11
-23.8226
-2820.01
-1313.63
-256.818
-236.666
-426.747
-406.849
-433.15
-498.388
-471.674
-583.328
-418.65
-665.659
-228.115
-902.79
155.802
-2838.95
-1313.01
-256.152
-236.236
-425.682
-405.332
-430.942
-494.8
-466.851
-576.183
-415.295
-684.897
-278.518
-852.259
58.0575
-2989.4
-1312.24
-255.428
-235.643
-424.426
-403.536
-428.333
-490.456
-460.909
-564.521
-406.626
-672.731
-289.916
-935.43
-128.433
-2944.75
-1311.58
-255.064
-235.298
-423.678
-402.592
-426.88
-488.534
-458.748
-563.591
-408.573
-672.405
-274.269
-948.325
-167.516
-2565.51
-1310.9
-254.836
-234.966
-423.083
-401.87
-425.769
-487.011
-457.01
-560.685
-409.218
-668.831
-282.386
-983.262
-247.194
-2718.62
-1310.37
-255.034
-234.91
-423.069
-402.018
-425.741
-487.458
-456.498
-560.778
-402.832
-647.846
-260.425
-821.567
-88.612
-3119.12
-1309.88
-255.364
-234.883
-423.196
-402.33
-425.974
-488.18
-455.802
-557.851
-391.072
-624.058
-251.544
-823.943
179.848
-2915.18
-1309.62
-256.018
-235.121
-423.816
-403.475
-427.341
-491.391
-458.895
-568.99
-397.893
-679.001
-265.658
-953.34
63.4353
-2757.95
-1309.35
-256.602
-235.28
-424.352
-404.478
-428.607
-494.327
-461.925
-575.591
-395.822
-650.653
-219.002
-864.92
224.432
-2829.98
-1309.32
-257.456
-235.69
-425.317
-406.186
-430.765
-498.981
-467.437
-592.78
-415.2
-752.696
-250.92
-1188.63
40.4494
-2661.81
-1309.17
-257.992
-235.838
-425.805
-407.051
-431.851
-501.492
-470.342
-601.276
-424.891
-777.982
-227.202
-1340.13
56.2465
-2253.8
-1309.3
-258.823
-236.329
-426.823
-408.853
-434.148
-505.979
-475.73
-612.852
-436.318
-787.696
-220.748
-1174.86
445.285
-2060.39
-1492.52
-347.151
-276.263
-511.513
-499.579
-528.762
-623.044
-595.887
-771.645
-571.852
-1026.05
-306.383
-1662.06
631.691
-3089.64
-1492.06
-346.157
-275.571
-510.248
-497.571
-526.16
-618.612
-590.377
-760.4
-559.604
-1002.77
-285.004
-1799.57
261.889
-3215.22
-1491.69
-345.565
-275.302
-509.548
-496.542
-524.802
-616.231
-587.35
-753.129
-551.459
-962.91
-267.044
-1412.37
307.776
-3597.6
-1491.07
-344.62
-274.651
-508.234
-494.564
-522.186
-611.754
-581.812
-740.063
-537.359
-902.042
-249.352
-1193.59
327.178
-3758.7
-1490.46
-343.946
-274.241
-507.295
-493.266
-520.392
-609.032
-578.357
-735.496
-534.436
-919.1
-298.754
-1251.09
104.523
-3840.15
-1489.73
-343.236
-273.684
-506.165
-491.686
-518.197
-605.517
-573.848
-726.82
-526.348
-909.912
-321.917
-1371.19
-85.0866
-3558.85
-1489.04
-342.811
-273.331
-505.425
-490.823
-516.874
-604.002
-571.71
-725.955
-527.945
-912.457
-321.941
-1313.09
-44.8247
-3085.69
-1488.32
-342.494
-272.969
-504.744
-490.05
-515.65
-602.416
-569.329
-721.791
-524.333
-901.215
-325.167
-1342.68
-180.802
-3182.31
-1487.7
-342.491
-272.831
-504.509
-490.051
-515.343
-602.913
-568.698
-724.588
-520.953
-903.582
-301.631
-1257.35
-100.496
-3683.66
-1487.1
-342.615
-272.713
-504.383
-490.138
-515.146
-603.268
-567.513
-722.289
-506.636
-864.053
-255.683
-1161.27
132.786
-3657.44
-1486.64
-343.033
-272.802
-504.675
-490.942
-515.882
-606.018
-569.463
-734.501
-514.807
-935.709
-279.69
-1356.32
44.6072
-3283.18
-1486.2
-343.438
-272.857
-504.918
-491.587
-516.454
-608.05
-570.669
-738.808
-512.225
-907.123
-230.959
-1185.81
357.469
-3641.02
-1485.95
-344.057
-273.118
-505.511
-492.897
-517.904
-612.089
-574.548
-754.609
-526.632
-992.844
-254.368
-1558.81
291.045
-3401.62
-1485.61
-344.549
-273.23
-505.794
-493.534
-518.544
-614.141
-576.345
-761.936
-532.366
-1023.01
-245.338
-1790.13
326.051
-2993.59
-1485.51
-345.144
-273.585
-506.471
-494.982
-520.248
-618.258
-580.81
-774.094
-543.643
-1041.36
-249.891
-1586.96
723.055
-2747.3
-1655.66
-445.597
-319.703
-598.474
-601.896
-632.236
-761.509
-725.59
-977.2
-723.361
-1367.51
-427.716
-2240.27
714.599
-4231.63
-1655.22
-444.639
-318.989
-597.255
-599.857
-629.67
-756.845
-720.347
-965.179
-713.168
-1335.91
-411.723
-2164.68
520.18
-4519.67
-1654.84
-444.012
-318.686
-596.557
-598.776
-628.336
-754.391
-717.643
-958.464
-707.794
-1310.02
-401.971
-1997.01
512.587
-4673.04
-1654.22
-443.061
-318.012
-595.273
-596.758
-625.752
-749.759
-712.493
-945.945
-698.589
-1269.64
-401.315
-1911.42
354.347
-4758.31
-1653.57
-442.313
-317.554
-594.305
-595.386
-623.932
-746.957
-709.115
-940.838
-694.581
-1266.71
-422.821
-1926.77
251.993
-4459.58
-1652.79
-441.539
-316.959
-593.131
-593.72
-621.649
-743.327
-704.528
-932.064
-685.781
-1247.73
-430.079
-1913.3
160.557
-4429.59
-1652.01
-440.989
-316.531
-592.256
-592.689
-620.074
-741.626
-701.57
-930.855
-682.038
-1252.07
-429.151
-1909.93
119.572
-3932.15
-1651.18
-440.542
-316.092
-591.392
-591.691
-618.448
-739.654
-697.935
-925.832
-672.466
-1236.01
-413.797
-1906.52
14.225
-3998.18
-1650.39
-440.346
-315.83
-590.864
-591.382
-617.604
-739.806
-696.173
-929.619
-668.113
-1252.69
-384.425
-1907.03
70.7252
-4510.16
-1649.62
-440.269
-315.598
-590.415
-591.158
-616.786
-739.618
-693.482
-927.517
-652.146
-1223.06
-297.74
-1757.01
124.965
-4734.49
-1648.94
-440.432
-315.546
-590.302
-591.592
-616.788
-741.817
-693.569
-939.458
-655.631
-1301.2
-334.669
-2153.43
246.273
-4158.63
-1648.28
-440.651
-315.498
-590.203
-591.901
-616.623
-743.095
-692.541
-941.887
-648.303
-1281.94
-288.611
-1929.26
543.996
-4480
-1647.76
-441.055
-315.59
-590.399
-592.807
-617.257
-746.497
-694.023
-955.512
-651.98
-1341.07
-287.881
-2185.4
653.821
-4288.39
-1647.17
-441.498
-315.649
-590.471
-593.218
-617.353
-748.004
-693.912
-960.401
-649.555
-1354.19
-271.658
-2288.27
775.458
-3962.84
-1646.82
-441.87
-315.851
-590.795
-594.298
-618.329
-751.68
-696.379
-972.134
-654.187
-1375.62
-263.563
-2181.39
1089.38
-3686.99
-1809.8
-563.123
-371.606
-694.152
-714.287
-739.752
-901.689
-848.861
-1166.89
-851.475
-1647.16
-535.362
-2795.79
1104.23
-5741.07
-1809.33
-562.097
-370.809
-692.885
-712.063
-737.056
-896.483
-843.401
-1153.61
-842.346
-1619.93
-539.662
-2821.27
993.609
-6027.88
-1808.9
-561.39
-370.456
-692.154
-710.864
-735.7
-893.877
-840.889
-1147.25
-838.67
-1602.64
-543.271
-2791.16
923.473
-6183.83
-1808.22
-560.342
-369.706
-690.809
-708.671
-733.017
-888.901
-835.604
-1134.32
-829.507
-1562.2
-543.602
-2698.17
769.938
-6622.12
-1807.48
-559.462
-369.167
-689.752
-707.133
-731.102
-885.981
-832.088
-1129.71
-824.471
-1563.78
-557.956
-2823.92
448.371
-6373.53
-1806.6
-558.548
-368.49
-688.463
-705.29
-728.659
-882.26
-827.189
-1121.85
-814.466
-1538.92
-549.771
-2603.04
170.002
-6957.35
-1805.67
-557.822
-367.962
-687.419
-704.055
-726.87
-880.661
-823.953
-1123.97
-809.46
-1573.85
-536.884
-2712.98
157.75
-6182.43
-1804.67
-557.199
-367.425
-686.362
-702.848
-724.96
-878.701
-819.64
-1120.89
-795.609
-1563.29
-493.74
-2669.49
41.4624
-6045.4
-1803.69
-556.797
-367.039
-685.575
-702.274
-723.774
-878.952
-817.521
-1127.78
-791.501
-1601.88
-468.189
-2872.72
99.0454
-6532.19
-1802.7
-556.533
-366.696
-684.866
-701.825
-722.58
-878.862
-814.125
-1127.46
-770.188
-1571.16
-271.567
-2597.59
57.7646
-7264.96
-1801.78
-556.487
-366.502
-684.431
-702.015
-722.213
-881.296
-814.094
-1142.91
-774.924
-1676.65
-354.584
-3523.28
204.005
-6157.83
-1800.89
-556.543
-366.363
-684.073
-702.196
-721.741
-883.051
-812.881
-1150.06
-768.882
-1677.76
-328.286
-3055.78
760.92
-6485.63
-1800.12
-556.742
-366.323
-683.935
-702.929
-722.037
-887.073
-814.528
-1168.96
-776.053
-1753.87
-359.001
-3192.23
1021.19
-5907.07
-1799.31
-557.109
-366.366
-683.83
-703.307
-721.948
-889.189
-814.269
-1178.59
-774.115
-1788.85
-341.877
-3269.96
1149.44
-5515.73
-1798.75
-557.264
-366.451
-683.854
-704.232
-722.612
-893.596
-816.867
-1195.22
-781.047
-1825.19
-336.647
-3196.95
1544.45
-5024.51
-1897.1
-708.613
-436.585
-780.776
-855.268
-871.877
-1100.3
-1005.96
-1486.06
-1018.81
-2229.36
-727.337
-3960.96
683.906
-8655.68
-1896.6
-707.476
-435.523
-779.288
-852.375
-868.606
-1092.95
-999.083
-1465.51
-1006.78
-2174.89
-745.203
-3931.98
875.74
-9064.36
-1896.1
-706.63
-434.988
-778.416
-850.657
-866.944
-1088.64
-996.195
-1453.19
-1003.97
-2141.91
-776.714
-3988.61
467.389
-9708.69
-1895.34
-705.408
-433.967
-776.82
-847.707
-863.663
-1081.19
-989.593
-1431.17
-994.772
-2088.07
-824.761
-4238.26
34.8633
-10611.7
-1894.48
-704.298
-433.167
-775.505
-845.483
-861.228
-1076.51
-985.098
-1421.5
-988.437
-2066.26
-862.761
-3979.68
374.487
-10736.5
-1893.46
-703.127
-432.214
-773.909
-842.925
-858.111
-1071.08
-978.224
-1409.01
-969.491
-2021.72
-784.672
-3343.95
467.06
-11996.9
-1892.37
-702.092
-431.405
-772.516
-841.014
-855.606
-1068.44
-972.52
-1411.91
-948.165
-2075.05
-632.528
-3827.88
376.136
-10454.5
-1891.2
-701.143
-430.598
-771.095
-839.153
-853.004
-1065.35
-966.341
-1406.66
-926.705
-2055.67
-532.718
-3661.89
601.542
-9513.33
-1890.01
-700.38
-429.936
-769.9
-837.914
-851.107
-1064.65
-962.629
-1413.67
-918.549
-2108.2
-505.959
-4031.85
429.217
-9664.11
-1888.82
-699.763
-429.347
-768.789