/*--------------------------------*- C++ -*----------------------------------*\
| =========                 |                                                 |
| \\      /  F ield         | OpenFOAM: The Open Source CFD Toolbox           |
|  \\    /   O peration     | Version:  4.1                                   |
|   \\  /    A nd           | Web:      www.OpenFOAM.org                      |
|    \\/     M anipulation  |                                                 |
\*---------------------------------------------------------------------------*/
FoamFile
{
    version     2.0;
    format      ascii;
    class       surfaceScalarField;
    location    "18";
    object      phi;
}
// * * * * * * * * * * * * * * * * * * * * * * * * * * * * * * * * * * * * * //

dimensions      [0 3 -1 0 0 0 0];

internalField   nonuniform List<scalar> 
19125
(
96.2623
-3.90999
1647.55
89.7404
-9.82965
1342.7
73.7928
-5.51513
1065.99
90.81
-1.1408
982.532
115.763
4.0681
838.404
168.841
0.36499
646.994
248.538
73.3262
673.155
433.807
-135.803
263.794
643.898
-108.316
-447.404
505.788
269.387
-849.706
88.2147
313.431
-327.412
-32.6352
33.3407
710.487
-102.658
3.18395
910.446
-174.806
-13.3832
1425.42
0.620394
1815.03
95.4156
-4.93284
1644.3
88.3773
-11.8864
1354.67
73.1888
-6.40802
1098.18
90.3683
-1.18806
1011.26
120.608
2.57141
844.937
175.024
-0.421301
642.88
278.857
92.7376
615.288
530.548
-227.416
197.992
749.664
-133.399
-408.508
587.987
377.608
-798.265
119.833
424.623
-336.323
-33.2647
76.5859
724.657
-100.847
9.21079
938.543
-176.801
-11.8072
1425.22
1.00236
1788.11
94.7152
-5.47444
1641.98
87.564
-13.0215
1367.55
73.1082
-7.0644
1121.86
90.4156
-1.41821
1026.85
126.892
-2.70643
843.352
180.121
1.76707
642.532
354.771
35.7308
576.757
670.069
-339.545
-56.6451
789.706
-128.805
-662.806
552.633
501.733
-860.358
100.17
477.52
-291.429
-37.7556
115.35
742.842
-102.762
11.6363
946.385
-182.43
-3.94393
1421.78
0.888333
1738.11
93.9745
-5.39171
1635.15
87.0755
-13.2082
1378.22
73.0833
-6.76912
1143.88
90.3932
-1.16485
1040.86
127.607
-4.74646
839.105
185.372
4.95479
635.171
373.316
-5.4103
537.493
592.916
-382.213
-509.634
566.519
-114.445
-1060.94
336.958
495.804
-891.765
11.4
353.518
-133.583
-47.6113
96.6387
741.275
-109.167
8.32064
948.601
-181.342
-1.23327
1438.76
0.638704
1752.66
93.4838
-4.64621
1624.3
86.4914
-12.0737
1392.63
72.8692
-5.80801
1167.86
90.33
-0.836851
1054.95
125.501
-1.48731
836.111
193.086
4.19395
626.956
348.312
39.252
440.867
389.379
-266.077
-819.198
281.511
-105.08
-1159.53
160.048
312.573
-710.695
-53.199
176.093
38.3066
-51.6724
17.5986
685.852
-114.751
1.58941
941.8
-181.026
-4.86207
1444.09
-0.0674156
1759.1
93.3514
-3.1966
1607.6
85.8416
-8.75607
1407.18
72.6846
-4.15415
1193.29
90.3863
-0.697562
1070.55
127.071
1.53436
836.018
200.081
2.54825
623.394
384.254
69.1107
382.13
416.93
-106.372
-739.81
294.754
-82.3955
-1039.49
217.008
90.386
-531.724
-20.6606
67.2223
69.973
-47.1344
-49.9624
641.683
-116.441
-3.77936
941.636
-180.964
-8.77484
1455.58
-0.682197
1758.8
93.8685
-1.29167
1584.3
85.32
-2.74932
1415.38
72.5316
-1.76832
1214.84
90.2502
-0.800086
1087.58
130.321
0.454425
841.686
202.183
0.534737
629.658
427.933
30.9637
362.576
609.774
-15.4686
-471.803
551.975
-38.2635
-958.362
415.074
-34.1549
-609.797
81.8183
-9.65316
-50.5024
-38.6201
-41.4766
643.727
-113.266
-4.08477
949.091
-182.059
-7.13687
1459.11
-0.812151
1743.49
94.1809
0.795703
1574.33
85.304
4.03588
1414.02
72.5113
1.06036
1218.67
90.3729
-0.890462
1092.79
130.3
-1.16714
844.474
207.952
-6.02598
634.96
426.195
-9.71449
320.936
693.934
-8.69169
-247.071
712.197
-13.3857
-852.474
506.56
-61.3796
-700.908
113.181
-50.8031
-132.214
-37.0244
0.399554
686.325
-110.417
-3.25226
959.273
-185.407
2.53477
1453.76
-1.01699
1709.61
93.6551
2.80795
1589.98
85.2854
9.38393
1413.39
72.5062
3.26988
1211.2
90.2869
-0.929151
1085.23
130.81
-3.28005
842.369
203.811
-8.97525
628.342
423.019
-51.3877
346.143
672.536
42.0325
-278.918
660.997
47.6366
-873.394
466.1
-100.77
-664.191
95.1978
-97.9925
-91.2779
-37.8827
24.0627
668.089
-111.488
-2.37098
954.552
-180.908
5.03996
1461.3
-1.01422
1748.52
93.2139
4.30324
1612.46
85.6961
12.2106
1404.09
72.5835
4.75357
1188.83
90.2851
-0.768021
1068.14
129.369
-3.12063
836.382
197.9
-9.48537
623.558
408.487
-67.0917
400.534
516.343
172.58
-569.066
400.995
106.228
-1004.66
291.441
-270.865
-571.308
14.7995
-197.923
15.6466
-43.4361
-19.0149
644.499
-114.181
-4.93868
946.523
-179.091
1.14184
1456.11
-1.29039
1766.5
93.3531
5.0914
1628.72
86.2009
13.0504
1389.6
72.482
5.72792
1163.05
89.9738
-0.335928
1052.03
125.462
-0.0235046
834.11
192.577
-10.1295
623.36
352.114
-21.9709
428.885
383.545
314.64
-787.139
280.635
111.703
-1118.35
194.128
-479.258
-677.688
-34.6136
-364.593
22.531
-49.4712
-87.5398
685.365
-112.861
-10.1587
949.891
-179.221
-1.65726
1448.21
-1.65751
1764.81
93.8328
5.21548
1638.96
86.6824
12.7065
1375.22
72.4822
6.17796
1138.63
89.7162
0.150244
1037.43
125.928
-0.0929183
835.034
183.531
-6.58762
629.845
356.643
-30.9605
515.635
529.208
332.021
-633.601
494.12
107.621
-1115.71
308.784
-542.747
-870.888
3.4837
-500.053
-113.334
-47.9276
-114.441
744.419
-108.067
-13.4938
958.128
-179.446
1.41808
1444.49
-1.69019
1758.55
94.5459
4.72599
1645.32
87.086
11.5348
1364.81
72.405
5.70383
1116.47
89.555
0.219836
1023.14
126.409
-4.8028
838.607
177.617
-2.37161
638.362
365.508
-95.2717
568.911
678.817
241.639
-178.905
769.783
120.6
-752.322
531.864
-434.547
-876.639
89.8205
-463.074
-276.397
-38.8837
-81.6155
757.171
-101.82
-11.1626
956.764
-180.307
9.50845
1427.91
-1.54491
1744.14
95.2239
3.75844
1647.25
87.8479
9.51226
1352.1
72.4059
4.99375
1092.67
89.3744
0.499049
1007.22
120.012
-6.08293
840.369
172.067
-1.28478
639.735
283.489
-85.3335
607.912
550.566
153.545
149.739
762.705
101.174
-414.741
595.066
-318.054
-795.528
120.574
-343.552
-337.848
-33.5314
-36.6489
737.423
-99.6842
-4.53272
949.088
-174.681
11.718
1431.1
-0.947996
1793.56
96.0357
1650.21
89.1467
1340.56
72.8805
1060.76
89.6776
978.395
114.133
834.193
165.825
644.61
241.665
665.613
427.415
264.056
641.235
-410.415
509.147
-842.401
89.7814
-332.735
-32.9593
720.624
-101.478
921.269
-172.589
1431.53
1820.69
268.112
-9.80701
1612.13
239.922
-31.2212
1381.89
212.435
-23.077
1101.63
232.298
-11.3694
966.756
264.455
-16.398
815.065
337.833
-32.6261
585.055
490.633
16.0898
529.187
681.631
-197.668
133.053
705.385
227.057
-562.251
313.896
409.705
-571.398
-175.623
190.477
112.97
-324.932
51.2187
832.25
-503.072
-31.8799
1096.82
-648.814
-32.5541
1581.92
13.1498
1619.26
265.465
-12.6465
1609.62
236.792
-36.7557
1388.89
209.533
-26.7036
1129.08
227.445
-12.6506
994.637
266.286
-30.0615
819.76
336.075
-37.9364
578.401
528.975
-58.7486
497.228
775.779
-338.331
91.8527
775.708
363.709
-545.088
352.207
600.925
-565.983
-159.455
248.383
117.435
-323.58
89.7989
850.203
-506.747
-21.891
1111.72
-656.61
-32.8291
1575.36
15.0029
1595.04
263.667
-14.5617
1607.65
234.64
-38.9603
1398.79
207.331
-28.3502
1150.82
224.139
-13.3834
1010.78
264.955
-44.5266
817.002
339.493
-39.916
569.974
552.56
-192.325
497.267
768.071
-486.721
-123.765
682.389
486.693
-700.107
247.147
715.398
-539.588
-188.6
200.455
192.25
-327.627
111.043
860.626
-526.234
6.19081
1116.91
-679.121
-16.3699
1558.2
3.42486
1545.77
261.506
-14.8677
1601.25
233.304
-38.158
1405.63
205.304
-26.6434
1170.18
220.958
-12.0614
1023.89
251.411
-42.8354
806.962
345.006
-44.3937
546.055
496.193
-202.768
396.751
529.021
-477.643
-551.539
373.091
468.057
-886.37
49.6949
588.419
-441.389
-248.472
56.8159
308.227
-339.04
93.1332
849.755
-523.464
14.3872
1124.83
-666.91
-10.3935
1576.23
2.42732
1561.15
260.352
-13.3288
1590.27
231.904
-33.4669
1416.4
202.882
-22.2715
1192.51
217.628
-9.75474
1037.9
235.548
-23.0634
798.42
343.571
-47.013
521.555
393.425
-10.195
198.442
218.835
-321.984
-800.266
112.211
260.528
-845.37
-31.7583
309.829
-288.134
-260.656
-17.5938
341.619
-350.662
48.2008
820.793
-526.292
4.54829
1127.27
-663.639
-14.0824
1585.13
3.52871
1568.07
260.139
-9.56199
1573.05
230.662
-23.3355
1426.54
201.118
-15.3966
1215.96
215.264
-7.15253
1053.8
235.348
-3.03428
795.907
340.155
-43.329
514.905
427.734
165.52
118.838
223.541
-116.79
-740.809
140.116
19.7236
-715.258
45.5403
83.0752
-210.39
-238.767
20.8276
315.865
-354.237
0.110391
805.246
-528.007
-13.4244
1133.38
-662.546
-18.4463
1594.48
5.30884
1568.24
261.642
-4.09747
1549.22
230.115
-7.32388
1430.9
200.264
-6.1481
1235.45
213.032
-4.26076
1071.93
246.995
1.64322
803.047
327.258
-29.8351
535.903
533.986
136.277
185.092
515.254
23.3498
-593.209
349.917
-72.859
-700.44
139.116
-46.2482
-269.669
-199.582
12.3297
296.699
-344.413
-23.7642
812.434
-531.053
-15.4384
1137.75
-668.757
-13.091
1591.46
3.93356
1552.5
262.408
2.24652
1538.92
230.422
10.1997
1428.49
200.145
4.41919
1238.38
212.21
-0.507081
1076.97
251.344
0.0592036
806.926
312.861
1.22071
542.388
591.617
-27.396
205.856
761.627
-2.41974
-391.309
560.284
-24.736
-699.253
199.119
-57.3621
-328.626
-176.994
-30.5009
286.736
-337.829
-12.9831
836.38
-540.702
6.65329
1140.06
-684.875
8.30766
1576.53
-8.98452
1519.49
260.983
8.15432
1554.52
229.972
24.8418
1429.77
200.397
13.0163
1232.18
212.552
2.86554
1069.71
251.968
-1.61994
804.635
313.855
29.2822
538.395
573.754
-155.74
214.59
690.31
54.6848
-452.576
483.789
12.3042
-703.911
163.344
-90.718
-310.386
-195.306
-54.5582
291.436
-340.25
-23.3297
823.381
-526.324
7.59766
1139.68
-665.363
14.0127
1594.63
-10.0621
1558.65
259.623
12.1077
1577.62
230.299
33.8418
1424.42
201.17
19.1904
1211.79
214.741
5.52681
1051.91
244.699
7.57603
797.23
332.725
35.7132
529.103
487.149
-106.532
196.905
370.712
248.875
-646.817
225.5
-138.853
-708.29
85.768
-277.656
-244.634
-229.563
-28.5173
304.944
-351.024
-63.9839
806.616
-522.546
-9.64439
1135.29
-657.524
7.94077
1597.17
-7.37271
1577.47
259.774
13.8333
1594.42
231.183
37.8048
1414.23
201.972
23.5379
1187.92
216.494
8.02385
1035.01
235.676
26.5303
795.976
337.103
34.4012
523.246
385.285
92.8105
181.363
203.527
424.436
-780.94
126.932
-381.311
-799.295
12.1283
-556.004
-284.533
-254.153
-65.3195
325.621
-348.214
-105.93
821.374
-520.182
-19.8279
1132.04
-658.321
4.87731
1589.41
-5.70433
1576.12
260.844
13.6986
1604.88
232.291
38.2038
1403.39
203.672
25.7334
1165.06
218.902
9.91874
1020.31
244.628
34.8773
800.963
336.569
31.6539
540.652
434.887
170.558
339.571
414.226
497.335
-685.836
305.16
-495.043
-892.912
39.027
-737.713
-423.044
-246.348
-203.412
310.138
-336.375
-122.686
851.204
-516.359
-12.38
1130.67
-660.569
11.9424
1581.64
-5.93168
1570
262.887
11.9746
1610.88
233.373
35.8863
1396.65
205.334
24.7032
1145.54
221.576
9.95741
1006.86
259.242
24.7457
811.075
333.14
31.3295
564.791
522.134
70.0243
480.454
707.419
397.639
-264.491
628.714
-409.864
-758.793
221.472
-669.68
-537.428
-193.55
-268.022
203.239
-323.676
-102.437
867.051
-518.224
15.9101
1123.02
-671.754
29.114
1564.28
-16.4349
1555.4
264.61
9.32297
1612.53
235.357
30.4168
1386.84
207.387
21.6225
1123.73
224.524
9.60619
990.441
262.287
12.5694
814.786
327.864
30.0816
575.409
522.341
-18.704
502.167
775.341
246.527
47.8552
774.044
-271.271
-552.035
354.48
-474.256
-571.385
-156.191
-210.035
114.841
-318.203
-60.6836
857.685
-498.467
28.0412
1117.22
-649.069
29.9549
1580.86
-13.9469
1604.81
267.144
1614.8
238.302
1380.12
210.034
1096.59
229.19
962.5
259.925
810.996
330.092
583.56
483.399
528.008
680.851
138.791
709.75
-536.123
322.879
-577.998
-170.065
105.045
-320.011
838.599
-494.361
1102.25
-640.797
1587.72
1629.75
448.627
-15.014
1481.58
357.736
-48.6626
1486.59
314.416
-50.6028
1159.56
311.236
-34.2495
980.421
336.381
-62.2624
815.381
363.211
-69.2511
578.538
491.637
-149.288
488.08
544.871
-11.4796
44.7257
255.224
451.905
-394.754
-277.436
240.128
-104.022
-701.625
63.4954
511.574
-940.205
-7.11672
1065.37
-1160.78
-52.8498
1331.52
-1155.75
-2.96753
1574.56
27.8384
1105.29
440.739
-19.0453
1483.77
350.423
-56.8369
1487.39
310.22
-58.8229
1177.51
303.606
-38.1448
1005.15
330.531
-91.3808
821.954
362.065
-88.4182
566.035
548.743
-346.554
507.816
624.548
-95.4902
100.06
286.278
637.224
-392.135
-267.536
324.964
-97.004
-693.912
80.4645
526.844
-944.293
19.7644
1073.7
-1169.52
-45.9732
1330.08
-1161.2
-1.97712
1566.05
31.6189
1092.38
436.245
-21.8227
1484.26
345.625
-59.7556
1492.34
305.996
-62.1976
1193.83
298.159
-39.9126
1020.39
316.452
-113.565
820.894
380.034
-127.615
545.59
601.984
-556.918
485.681
579.961
-202.148
4.91838
154.923
802.251
-440.096
-353.625
334.521
-40.5956
-716.122
69.0118
566.202
-971.67
63.5234
1072.42
-1205.12
-8.50506
1312.89
-1179.7
-1.83386
1532.64
11.9847
1060.39
430.293
-21.9245
1481
341.478
-58.5143
1493.21
301.675
-59.428
1207.22
291.296
-36.7651
1031.12
278.288
-101.162
807.568
367.33
-161.23
490.629
485.611
-520.732
242.285
261.316
-170.746
-358.645
-97.9821
744.584
-469.404
-459.021
215.97
38.203
-732.567
46.145
604.641
-968.979
77.8461
1071.85
-1184.79
5.35219
1326.78
-1165.88
-1.25609
1556.74
9.7392
1073.12
427.506
-19.4143
1471.18
338.988
-50.7844
1497.19
297.059
-50.0241
1225.05
282.811
-28.813
1044.2
242.773
-56.4472
793.745
315.831
-122.396
409.664
245.261
-189.266
-62.452
-102.064
-127.766
-495.919
-247.085
431.678
-387.442
-497.501
88.1082
90.1466
-757.81
30.5003
617.575
-981.047
53.769
1068.11
-1180.38
-2.03956
1334
-1163.33
-3.17303
1570
10.8341
1078.86
426.929
-13.9874
1453.92
338.185
-34.8917
1499.4
294.398
-34.3614
1244.09
277.161
-18.1084
1060.34
242.443
-14.1444
788.324
295.564
-49.4306
388.82
211.285
111.653
-97.7999
-122.982
-101.186
-433.12
-234.296
120.009
-292.273
-492.327
31.5806
104.171
-774.767
9.46419
619.343
-988.357
2.36655
1070.24
-1178.56
-19.0994
1340.64
-1162.06
-4.13273
1578.94
12.0734
1080.31
430.331
-6.89715
1428.84
340.224
-10.7123
1496.84
293.64
-12.4805
1260.16
276.016
-8.5432
1079.99
262.371
2.11406
800.437
312.395
-31.5922
468.042
378.312
169.846
60.985
128.333
-30.3144
-414.1
-132.901
-44.3347
-274.859
-451.926
-17.7034
98.6425
-755.056
-11.0354
620.331
-988.894
-23.1583
1071.8
-1189.13
-18.6569
1337.54
-1167.47
-4.26205
1569.94
7.99978
1068.09
431.553
1.77999
1417.85
341.522
15.3383
1492.48
293.888
11.8009
1261.74
274.969
2.4172
1084.94
276.974
2.55864
804.478
283.351
16.8684
487.553
488.874
-33.7175
203.9
409.925
-3.72427
-338.948
13.1996
-40.3185
-306.54
-404.639
-26.3976
97.9108
-739.76
-15.3929
626.216
-998.156
-1.15725
1072.78
-1213.26
12.6169
1323.89
-1180.82
-3.76863
1543.59
-13.8544
1045.88
428.265
10.6151
1434.09
338.904
37.4673
1497.01
294.388
31.5462
1256.96
276.116
12.483
1077.92
275.21
5.50354
802.599
291.014
55.8949
483.565
448.451
-161.295
184.734
307.708
58.8668
-374.421
-51.6628
-84.8769
-299.979
-429.158
-47.736
88.4507
-740.503
-30.1449
617.536
-978.622
-13.6085
1073.95
-1182.96
16.932
1339.71
-1165.11
-1.60416
1574.62
-17.5542
1073.38
425.289
16.9057
1458.63
336.812
51.6079
1498.77
294.863
45.3553
1239.94
279.122
21.5515
1058.58
256.998
31.7661
793.095
316.301
82.4551
443.243
323.647
9.56637
18.7011
12.9373
145.317
-422.555
-180.634
-314.539
-285.054
-473.062
-87.5725
87.6335
-765.524
-45.3442
612.608
-979.333
-63.9595
1070.78
-1170.89
-0.796356
1344.57
-1158.33
-2.78558
1585.79
-15.0774
1088.44
425.88
19.9999
1475.55
337.179
58.2431
1496.31
295.814
54.4318
1220.21
281.583
30.2295
1040.57
245.672
73.8973
789.759
308.347
131.395
411.632
217.145
348.746
-66.6113
-121.194
184.542
-481.824
-219.217
-657.58
-358.23
-473.649
-196.295
78.6237
-750.621
-52.6032
609.854
-971.441
-91.7293
1069.97
-1171.02
-8.72334
1339.56
-1158.72
-3.28831
1577.61
-13.3722
1087.46
428.591
20.3373
1485
339.311
58.8636
1492.05
298.89
58.1285
1201.79
288.293
34.9027
1026.24
265.213
99.0976
798.845
348.302
121.052
467.909
376.942
530.097
129.583
119.113
220.036
-463.497
-128.349
-842.675
-460.353
-449.845
-334.452
36.6135
-721.259
-70.9981
599.949
-956.904
-78.2994
1073.42
-1173.15
4.50528
1333.68
-1160.21
-0.791308
1566.2
-14.509
1082.81
434.406
17.9488
1487.98
343.125
55.717
1491.08
302.618
55.8972
1188.29
294.839
34.3709
1015.18
305.164
86.5559
813.295
376.36
83.7478
530.902
571.276
389.582
426.056
507.09
144.372
-124.636
110.317
-734.401
-470.292
-358.116
-361.69
-41.7537
-703.194
-87.4067
564.73
-956.34
-32.62
1074.52
-1191.67
42.804
1320.05
-1172.94
1.06803
1543.7
-32.7781
1071.57
438.864
14.2426
1487.21
347.725
47.5837
1486.12
306.777
48.5484
1172.03
300.012
31.6749
999.908
324.588
60.175
816.594
361.266
64.0733
558.409
560.651
177.392
514.975
627.154
33.9181
91.812
284.146
-542.712
-400.713
-258.029
-281.397
-109.498
-679.336
-72.7441
521.489
-927.919
-1.72773
1075.38
-1155.34
51.4573
1335.99
-1153.92
2.77366
1577.73
-28.4613
1105
446.623
1484.85
354.789
1485.46
310.797
1154.49
307.359
975.375
331.499
811.8
357.84
574.886
492.026
501.245
548.35
64.4134
269.089
-389.429
-259.325
-122.473
-686.39
502.944
-923.071
1066.13
-1145.23
1337.8
-1147.72
1587.85
1119.26
687.538
-21.023
1210.42
581.059
-52.4293
1605.86
425.767
-77.0244
1334.04
321.504
-72.8558
1104.66
310.89
-122.935
866.509
302.763
-160.976
643.243
366.911
-291.409
543.679
179.79
58.2901
140.155
-367.964
362.187
71.9452
-930.599
85.1089
424.822
-1327.03
16.1662
897.953
-1536.45
-14.9127
1273.82
-1594.94
-4.02362
1389.43
-1311.11
64.8355
1261.95
42.9714
677.093
674.346
-26.1405
1220.15
563.512
-60.9482
1606.75
414.48
-90.0875
1339.61
310.604
-83.034
1119.21
296.803
-162.679
875.499
311.205
-248.833
639.49
442.636
-514.265
599.241
244.804
152.13
204.053
-358.753
502.614
70.9959
-943.246
133.447
439.151
-1332.46
31.2638
900.957
-1542.62
0.988684
1267.97
-1597.15
-0.0267093
1380.61
-1313.21
76.4149
1270.53
49.6292
683.822
666.795
-29.5705
1225.01
552.072
-63.2599
1609.38
404.765
-95.9508
1347.01
300.643
-87.1425
1128.62
273.694
-189.475
874.639
311.408
-359.597
618.641
474.336
-696.596
505.084
180.868
302.106
148.413
-484.3
654.225
73.4638
-1017.8
164.45
461.902
-1374.65
53.3129
901.007
-1574.52
32.7443
1240.53
-1613.76
9.00513
1343.1
-1314.77
52.6174
1257.45
26.9916
690.829
655.329
-28.8913
1228.5
538.778
-61.425
1607.93
394.181
-94.5072
1350.38
286.269
-80.0955
1131.99
223.651
-173.363
854.075
186.529
-367.228
535.383
167.257
-613.577
178.539
-168.881
330.956
-51.3556
-660.484
587.598
88.8266
-1066.77
130.184
478.752
-1375.86
58.0893
908.955
-1561.64
44.8765
1245.5
-1594.53
12.0009
1356.68
-1310.23
40.4757
1284.58
21.7752
694.779
648.011
-24.6551
1223.82
530.042
-52.2152
1605.96
384.705
-81.833
1357.72
270.514
-59.6713
1137.97
173.813
-108.063
825.147
-37.0338
-149.414
402.699
-296.645
-374.232
-42.1839
-498.846
118.799
-81.5601
-763.588
335.66
129.239
-1111.66
76.3547
492.046
-1394.32
42.2127
916.119
-1562.42
30.0436
1251.04
-1588.12
7.55219
1364.15
-1312.43
34.1505
1300.63
19.3005
696.78
643.254
-17.2417
1211.44
525.642
-35.0036
1599.81
379.662
-57.2149
1365.46
266.632
-33.8133
1147.52
175.594
-38.3068
809.608
-19.012
76.9932
357.021
-340.904
-138.806
-11.3306
-550.736
-96.1242
-8.3624
-780.121
100.772
172.003
-1136.73
36.2785
500.853
-1408.01
11.6076
921.236
-1562.14
0.702273
1253.7
-1583.6
1.033
1368.63
-1314.08
28.9987
1314.57
13.7064
701.232
645.183
-9.87221
1189.65
529.504
-10.3475
1587.87
379.79
-19.3864
1372.06
274.962
-12.0637
1163.07
210.542
-7.01566
833.567
232.212
64.8359
458.531
19.5118
18.3786
116.505
-398.444
-88.6404
-3.62474
-745.323
-22.3876
195.181
-1123.51
4.07737
509.034
-1405.25
-7.57039
921.243
-1568.52
-11.7999
1247.58
-1588.57
-0.1199
1358.74
-1311.69
18.5759
1303.48
12.8375
692.338
645.325
-0.407325
1179.63
531.409
15.1944
1580.86
379.974
22.9898
1370.81
276.78
9.79614
1166.27
222.943
10.4108
840.891
248.479
12.6936
514.161
202.336
-14.9152
283.34
-210.644
2.38894
-16.9943
-718.715
-21.6352
200.781
-1116.84
-17.9514
518.068
-1412.6
-0.775242
915.181
-1584.61
6.32694
1226.66
-1601.68
5.4245
1335.41
-1312.78
-18.8885
1292.17
-10.9392
697.388
641.74
11.4319
1194.09
526.02
37.3897
1590.54
379.808
56.1454
1370.03
277.498
29.1747
1160.85
220.655
30.8035
839.052
254.899
-39.6771
501.694
149.216
30.6901
244.816
-262.833
61.705
-21.6838
-705.642
-69.7441
190.94
-1101.07
-40.8353
506.763
-1391.38
-12.5575
919.627
-1561.38
1.51712
1248.77
-1584.96
4.51301
1364.2
-1311.17
-31.2979
1313.23
-15.3437
699.828
641.096
21.0595
1215.52
523.001
52.6128
1601.65
379.879
76.776
1362.43
274.067
49.0294
1144.54
206.172
72.5084
819.287
146.983
41.7712
420.986
-128.017
261.685
62.7095
-461.996
-17.9642
-8.90493
-741.459
-250.56
175.226
-1117.15
-70.9686
493.463
-1395.78
-40.5123
919.189
-1553.3
-28.9766
1258.79
-1578.66
-3.27535
1377.72
-1312.81
-34.0615
1322.71
-18.7263
705.941
646.233
26.4499
1227.76
527.219
60.6791
1607.26
381.954
88.6299
1353.63
270.676
69.2677
1131.61
180.945
137.879
814.122
-13.8579
261.598
386.611
-313.562
524.424
-29.6441
-516.96
-237.446
-58.942
-738.802
-523.011
136.065
-1095.86
-117.201
481.919
-1383.01
-56.4324
912.922
-1551.05
-47.144
1256.18
-1581.82
-7.59251
1374.64
-1311.3
-39.2784
1312.31
-21.8499
704.37
653.602
27.8733
1232.23
535.67
61.9328
1608.74
389.088
91.2477
1345.76
280.774
79.6362
1124.19
206.443
173.578
837.478
121.68
333.027
481.243
5.50735
692.146
78.0345
-290.339
-312.392
-92.704
-666.506
-694.692
87.4958
-1052.41
-162.674
467.995
-1360.67
-53.7148
905.485
-1548.71
-37.4043
1251.72
-1587.41
-4.62523
1369.41
-1308.72
-49.337
1297.58
-25.4855
701.367
665.013
24.9861
1228.56
548.7
59.4539
1609.89
398.969
86.8437
1342.43
294.386
78.1449
1121.26
258.157
160.059
863.046
280.579
254.299
587.208
415.078
579.768
403.937
119.017
-217.103
76.1401
-500.081
-603.502
57.6179
-1004.92
-147.677
448.087
-1356.61
-33.6431
896.355
-1559.87
-4.84813
1245.22
-1606.34
4.6936
1357.21
-1314.08
-73.1034
1275.2
-48.5233
699.5
672.636
20.2362
1223.45
560.088
51.0725
1607.06
408.839
74.8277
1335.31
304.594
69.685
1112.62
287.553
124.128
869.568
309.045
162.954
628.265
454.502
351.442
597.848
259.391
-147.98
217.805
-345.276
-451.953
52.4076
-924.95
-99.1504
421.653
-1313.4
-18.712
895.009
-1527.12
13.0228
1271.23
-1589.45
8.70745
1394.31
-1312.93
-61.8518
1289.96
-42.2924
692.737
685.745
1213.58
577.439
1606.16
420.2
1330.22
315.549
1098.9
304.409
863.668
298.405
640.635
364.651
578.057
191.385
174.553
-346.359
52.3007
-908.263
401.182
-1306.22
889.448
-1519.06
1276.4
-1586.26
1405.26
-1311.07
1284.46
686.469
882.205
-21.5096
888.462
910.381
-52.2153
1590.73
715.078
-86.7682
1549.43
444.361
-109.077
1402.3
247.1
-161.922
1108.49
147.691
-241.064
825.557
56.5716
-223.733
683.378
-321.801
262.625
433.53
-858.966
211.795
562.283
-1293.39
54.3462
840.151
-1589.02
23.044
1183.53
-1662.82
5.86827
1345.27
-1593.66
28.8286
1321.28
-1241.77
126.417
866.357
65.2657
563.244
872.62
-26.8015
899.901
888.068
-59.2193
1598.31
690.537
-101.931
1552.31
421.616
-127.439
1406.49
234.525
-211.762
1112.43
182.798
-381.894
832.046
139.067
-305.04
724.28
-285.554
439.533
451.766
-885.66
308.272
574.627
-1318.31
77.8214
848.328
-1601.45
40.0386
1167.1
-1665.28
16.9207
1320.75
-1588.2
29.7967
1302.55
-1249.88
137.745
920.888
73.4619
589.399
867.624
-31.3316
906.039
873.68
-58.7856
1602.9
671.328
-108.516
1555.95
399.713
-136.679
1409.48
210.709
-257.222
1109.1
157.81
-524.025
813.67
70.6369
-302.18
589.398
-375.41
624.982
409.012
-976.554
410.243
572.636
-1376.54
98.1962
841.516
-1628.24
55.8383
1136.9
-1670.26
31.6461
1267.83
-1574.61
29.597
1247.65
-1252.41
113.716
959.285
44.8221
630.674
857.064
-31.5238
913.549
852.868
-52.7131
1606.06
646.388
-107.701
1556.05
365.697
-130.401
1406.4
132.799
-254.589
1084.34
-57.5281
-509.428
711.113
-281.371
-214.332
314.535
-613.471
565.834
339.893
-1055.77
381.949
559.423
-1401.83
87.5089
835.494
-1627.82
52.915
1137.87
-1665.38
35.5812
1279.12
-1565.99
30.2099
1256.68
-1253.34
95.4446
990.204
36.3806
624.85
848.223
-28.0452
914.78
836.473
-39.8008
1604.8
622.406
-92.4394
1556.53
325.427
-99.7149
1404.26
12.136
-160.164
1044.01
-370.039
-283.231
558.677
-655.935
-217.625
247.006
-808.178
290.846
345.672
-1107.18
247.336
562.854
-1427.97
66.595
833.75
-1638.27
40.6552
1138.68
-1667.42
29.7401
1286.02
-1563.06
30.8587
1259.15
-1258.47
79.1497
1012.33
26.7272
627.445
839.059
-20.7812
911.145
823.788
-22.7897
1598.07
605.108
-62.8526
1554.56
306.69
-56.4154
1402.64
-17.1158
-36.7841
1010.04
-410.94
-22.7034
490.319
-707.259
-240.488
307.853
-855.122
15.6358
414.711
-1126.01
106.486
583.746
-1444.13
50.6619
834.9
-1645.07
26.8318
1136
-1667.36
20.6879
1285.05
-1559.62
30.6886
1261.06
-1261.2
57.4017
1037.89
8.82483
641.027
834.603
-13.2931
899.731
822.674
-6.40141
1583.42
602.159
-20.195
1549.92
320.105
-16.95
1405.66
91.8725
1.65229
1023.37
-123.602
88.9338
562.369
-475.967
-126.195
354.579
-820.9
-86.7187
443.665
-1143.01
13.2757
610.5
-1454.91
24.9521
846.649
-1651.9
14.4133
1130.65
-1671.48
10.9296
1276.91
-1554.83
13.0771
1259.71
-1250.68
13.0483
1043.68
6.07647
637.565
831.102
-1.74194
893.625
822.427
6.86462
1576.28
601.139
26.1961
1545.71
325.454
20.2292
1404.78
121.296
15.577
1031.13
79.7716
8.34581
636.275
-228.176
23.7901
441.304
-768.279
5.65347
430.739
-1165.21
-12.8353
623.827
-1465.43
-7.84933
851.084
-1651.73
3.13462
1112.77
-1664.34
2.84586
1247.35
-1542.9
-9.13673
1236.19
-1246.14
-34.4454
1042.9
-10.1657
657.244
831.524
12.8637
901.358
819.211
21.9597
1587.77
601.569
63.2523
1550.62
326.15
52.1317
1404.37
119.123
30.582
1031.08
47.8703
-33.7891
615.083
-271.111
177.215
410.374
-758.609
37.1436
434.326
-1128.74
-70.7056
618.941
-1438.41
-45.2878
853.877
-1635.05
-16.3661
1135.77
-1658.59
-8.82394
1283.97
-1546.16
-20.053
1262.69
-1248.37
-58.9293
1039.93
-9.95456
641.06
837.785
23.7208
912.685
821.85
37.9406
1601.61
605.48
87.7659
1554.3
317.61
84.9992
1399.55
54.0505
98.7347
1014.7
-237.389
149.592
529.046
-574.717
241.596
335.659
-816.73
-159.681
429.935
-1108.98
-194.905
591.673
-1431.17
-65.0733
835.446
-1636.38
-32.9288
1140.96
-1663.83
-21.2017
1298.62
-1558.59
-20.9229
1273.35
-1257.45
-75.7005
1038.33
-24.7182
644.654
847.433
28.9642
916.53
834.264
50.5533
1607.83
617.587
102.649
1555.43
318.766
117.108
1398.33
-3.00829
208.975
1025.66
-397.735
403.719
527.211
-689.329
230.235
273.312
-817.97
-460.379
370.399
-1090.3
-350.802
564.295
-1415.86
-83.3048
825.709
-1630.51
-46.9313
1141.58
-1663.25
-32.7458
1300.47
-1562.36
-21.7932
1274.61
-1255.92
-88.9859
1019.16
-37.2877
636.511
856.346
29.8036
915.322
850.384
56.7826
1608.48
639.137
105.078
1554.58
350.257
130.289
1399.89
82.4841
249.454
1064.77
-194.526
517.025
644.95
-451.728
300.328
265.149
-685.439
-645.874
326.504
-1052.11
-448.019
551.388
-1390.66
-100.044
823.288
-1618.64
-53.2275
1139.76
-1659.9
-34.6647
1294.9
-1563.58
-23.3766
1274.68
-1249.23
-103.58
997.826
-41.2588
628.413
866.897
25.9061
907.777
871.183
57.5258
1604.86
664.318
99.925
1554.46
387.03
125.039
1403.8
181.948
220.096
1097.49
89.2295
421.167
775.786
-36.9909
348.615
481.873
-429.713
-552.864
375.856
-977.512
-396.093
553.494
-1365.98
-86.9417
823.451
-1617.66
-40.7073
1135.52
-1663.78
-22.414
1279.09
-1571.07
-25.0421
1266.16
-1248.78
-127.341
976.675
-69.1645
639.146
871.985
20.945
901.472
885.82
50.8798
1599.88
684.678
85.4701
1550.91
412.615
107.956
1401.77
224.748
169.889
1107.64
180.011
269.195
824.977
145.6
272.453
708.425
-268.803
-373.194
452.541
-877.297
-285.041
549.853
-1307.01
-64.6958
829.127
-1592.21
-24.3801
1163.88
-1659.95
-9.71039
1326.27
-1586.39
-23.6499
1319.36
-1248.45
-118.105
942.784
-62.6756
597.326
881.503
889.954
908.153
1592.11
709.884
1548.27
437.138
1398.45
242.132
1106.6
152.386
828.404
71.721
720.958
-300.074
453.078
-847.159
531.661
-1279.8
812.119
-1578.35
1175.92
-1655.85
1348.05
-1591.43
1341.47
-1241.29
893.313
570.076
962.154
-15.7449
684.146
1138.63
-51.8434
1428.4
1097.01
-78.8728
1608.55
843.02
-120.646
1685.02
461.007
-164.456
1528.85
106.554
-239.859
1254.15
-229.744
-121.369
1020.02
-632.2
269.63
766.419
-974.315
190.554
874.489
-1249.9
58.151
1113.51
-1473.37
9.68057
1414.29
-1497.99
23.1733
1378.52
-1554.42
72.2913
1385.03
-1233.08
302.952
429.572
183.628
502.984
958.389
-19.779
690.665
1123.19
-57.7941
1439.47
1071.57
-91.8146
1616.88
809.304
-142.62
1690.74
439.662
-211.836
1529.45
147.42
-371.984
1256.41
-169.368
-111.62
1031.32
-628.439
419.905
760.562
-1008.28
249.657
895.369
-1273.82
44.1085
1127.91
-1472
-3.94534
1378.91
-1481.69
-1.318
1354.93
-1535.7
46.6204
1382.23
-1262.63
359.985
590.786
231.091
549.499
957.892
-25.0136
694.307
1114.45
-56.4483
1445
1052.59
-95.9454
1621.95
779.182
-154.428
1694.7
412.512
-263.746
1527.68
104.345
-496.283
1246.14
-238.448
-102.186
922.757
-673.864
542.436
721.896
-1058.57
331.055
875.949
-1323.36
53.4284
1096.99
-1502.31
-1.94228
1313.84
-1501.54
-1.71645
1267.47
-1523.18
29.6806
1286.23
-1297.35
289.679
803.757
81.6509
738.611
952.322
-27.0939
700.039
1097.08
-47.6102
1452.47
1022.76
-92.6286
1627.07
730.129
-151.989
1696.6
313.457
-278.305
1515.57
-161.355
-481.369
1171.01
-531.674
-122.399
705.066
-775.746
497.213
629.189
-1083.66
355.167
843.228
-1352.87
77.5512
1080.58
-1517.43
9.73236
1290.75
-1495.78
17.473
1238.3
-1464.97
41.5456
1214
-1233.9
216.475
832.332
38.3047
751.543
946.769
-27.1959
703.285
1081.66
-32.4997
1454.81
991.885
-75.5744
1629.25
669.279
-122.629
1697.51
139.2
-196.778
1492.57
-513.064
-310.486
1040.06
-841.196
-141.053
593.793
-895.954
287.865
609.779
-1105.69
266.171
861.583
-1364.4
83.7864
1086.22
-1515.82
21.3762
1278.46
-1477.93
21.6832
1243.93
-1420.57
34.7894
1208.55
-1213.96
149.613
872.581
44.509
742.793
938.294
-23.6197
705.342
1065.43
-15.3462
1453.79
963.591
-47.3256
1628.16
621.115
-73.3066
1695.79
33.87
-63.4387
1463.94
-639.473
-93.9459
947.122
-929.053
-154.85
611.23
-957.256
27.6315
703.149
-1133.99
108.211
918.443
-1377.16
67.5871
1094.26
-1515.37
37.7078
1257.89
-1465.19
29.6448
1226.9
-1399.44
35.121
1194.98
-1224.6
85.1365
927.533
22.4217
771.182
929.956
-16.9906
703.799
1056.33
-4.27411
1445.98
951.9
-14.2567
1621.29
614.234
-21.519
1691.55
115.48
2.49766
1456.18
-425.251
43.0605
966.095
-776.191
-85.7419
636.411
-948.123
-83.6735
726.902
-1168.98
0.31408
939.259
-1386.96
25.1276
1107.09
-1490.05
16.4771
1254.97
-1420.81
-7.04972
1244.37
-1354.78
-7.10558
1235.9
-1205.68
63.3361
916.385
94.7603
698.174