/*--------------------------------*- C++ -*----------------------------------*\
| =========                 |                                                 |
| \\      /  F ield         | OpenFOAM: The Open Source CFD Toolbox           |
|  \\    /   O peration     | Version:  4.1                                   |
|   \\  /    A nd           | Web:      www.OpenFOAM.org                      |
|    \\/     M anipulation  |                                                 |
\*---------------------------------------------------------------------------*/
FoamFile
{
    version     2.0;
    format      ascii;
    class       volVectorField;
    location    "18";
    object      U;
}
// * * * * * * * * * * * * * * * * * * * * * * * * * * * * * * * * * * * * * //

dimensions      [0 1 -1 0 0 0 0];

internalField   nonuniform List<vector> 
6750
(
(2.78138 -0.0145808 18.6758)
(0.260072 -0.0371716 14.9401)
(1.29114 -0.0211893 11.7831)
(0.670756 -0.00503836 11.2173)
(1.20134 0.0154133 9.69088)
(1.5266 0.00294014 7.80491)
(2.26206 0.236976 8.74621)
(3.09515 -0.487432 4.14387)
(6.67443 -0.499758 -3.1783)
(8.12506 1.22123 -10.47)
(2.80703 1.42419 -7.51982)
(-0.0742169 0.0929876 7.01791)
(-1.58779 0.00496552 9.52544)
(0.316804 -0.0536835 15.0629)
(-6.05278 0.00167916 20.5368)
(2.76572 -0.0272041 18.6392)
(0.25688 -0.0671016 15.0928)
(1.26957 -0.0365068 12.1695)
(0.669745 -0.00699306 11.5447)
(1.19413 0.0269244 9.78324)
(1.65762 -0.00207921 7.75816)
(2.22397 0.573407 8.16387)
(3.91662 -0.988893 3.78163)
(7.95422 -0.71494 -2.67217)
(9.23061 1.78352 -9.55665)
(3.53261 2.08814 -7.63354)
(-0.0793347 0.290689 7.10506)
(-1.56718 0.0355909 9.90802)
(0.325306 -0.0895976 15.09)
(-6.13316 0.00431377 20.2273)
(2.75194 -0.0291358 18.6124)
(0.254424 -0.0689627 15.2473)
(1.258 -0.0375616 12.4463)
(0.673636 -0.00732376 11.7188)
(1.19193 -0.000213574 9.78895)
(1.82072 -0.00116572 7.77195)
(2.11739 0.42963 7.63165)
(5.82254 -1.53144 1.40801)
(9.15276 -0.832556 -6.1989)
(8.90886 2.47433 -10.9133)
(3.07457 2.69696 -7.62171)
(-0.100514 0.590767 7.41645)
(-1.61525 0.0658499 9.98006)
(0.331604 -0.0422183 15.0789)
(-6.30993 0.00581125 19.6719)
(2.73988 -0.0317375 18.5347)
(0.25181 -0.0760152 15.3812)
(1.2525 -0.0405406 12.7094)
(0.672011 -0.0081491 11.8809)
(1.19732 -0.0288299 9.78125)
(1.82939 0.0213534 7.74611)
(2.23378 -0.0187706 7.48254)
(6.10987 -2.355 -3.94025)
(7.17482 -0.675773 -12.1516)
(5.83179 3.12534 -12.6235)
(1.19312 2.59499 -6.37527)
(-0.141554 0.679571 7.61984)
(-1.75497 0.0613268 9.97779)
(0.3101 -0.00394084 15.2972)
(-6.25112 0.00505931 19.8343)
(2.73528 -0.0289242 18.4127)
(0.248529 -0.0726043 15.5582)
(1.24593 -0.0359351 12.9906)
(0.667117 -0.00549444 12.0414)
(1.20683 -0.0224851 9.78062)
(1.75645 0.0313138 7.71187)
(2.51751 0.00854704 6.95671)
(5.178 -1.95704 -7.66433)
(3.64631 -0.500813 -14.2411)
(2.92125 2.52196 -11.3175)
(-0.131173 1.46306 -3.64047)
(-0.0687718 0.368921 6.98597)
(-1.88372 0.0310975 9.8456)
(0.302153 -0.0136833 15.3523)
(-6.23116 0.00160775 19.9032)
(2.74134 -0.0228983 18.2251)
(0.24511 -0.0621731 15.7412)
(1.23779 -0.0289918 13.2891)
(0.665359 -0.00414009 12.2169)
(1.21291 0.00501199 9.79149)
(1.78904 0.0146967 7.71712)
(2.61999 0.410025 6.43782)
(5.86268 -1.03078 -6.45061)
(3.65856 -0.630859 -12.9199)
(3.20257 1.02583 -9.20253)
(0.660963 0.585812 -2.66017)
(0.0628547 -0.180304 6.31662)
(-1.92486 -0.0132913 9.78982)
(0.301489 -0.0396325 15.4988)
(-6.22713 -0.00228872 19.8989)
(2.76444 -0.0129071 17.9629)
(0.24313 -0.0348916 15.8526)
(1.2296 -0.0175985 13.5439)
(0.666111 -0.00406564 12.4059)
(1.20951 0.00870288 9.84702)
(1.87711 0.0147638 7.76842)
(2.53138 0.333489 5.91317)
(6.98088 -0.136545 -2.63904)
(6.85018 -0.371457 -11.048)
(5.80224 -0.0606508 -9.66206)
(2.70753 0.103899 -4.82172)
(0.165537 -0.32858 6.16001)
(-1.85953 -0.0244357 9.87141)
(0.313098 -0.0590805 15.5538)
(-6.27516 -0.00500895 19.7295)
(2.7759 -0.00150323 17.8516)
(0.24313 0.00421848 15.8427)
(1.22892 -0.00186492 13.5919)
(0.665312 -0.00483282 12.4663)
(1.21407 -0.00207118 9.87114)
(1.86936 -0.0131521 7.83947)
(2.65918 0.0418491 5.31623)
(6.82655 -0.022909 -0.210155)
(8.8745 -0.0827178 -9.23249)
(7.39379 -0.328781 -10.3851)
(3.30571 -0.205866 -6.08234)
(0.147441 -0.119553 6.68141)
(-1.80137 -0.0200491 10.0112)
(0.32576 -0.0142472 15.5142)
(-6.39415 -0.00527376 19.3517)
(2.75573 0.0104222 18.0291)
(0.243686 0.0404826 15.8248)
(1.22855 0.0132537 13.501)
(0.667511 -0.00523124 12.3809)
(1.20734 -0.0123465 9.84876)
(1.89241 -0.0510799 7.75471)
(2.53978 -0.158789 5.60993)
(6.87127 -0.0715843 -0.273403)
(8.35131 -0.0593077 -9.40128)
(6.77708 -0.349624 -9.98329)
(2.96278 -0.371717 -5.42857)
(0.135442 0.116413 6.46757)
(-1.82106 -0.0171165 9.95858)
(0.316282 0.0366484 15.5819)
(-6.24936 -0.00506245 19.7809)
(2.73423 0.0209081 18.282)
(0.245541 0.0638984 15.7007)
(1.23465 0.0233431 13.2376)
(0.667569 -0.00500322 12.1901)
(1.20484 -0.0235163 9.79104)
(1.86316 -0.0492136 7.68242)
(2.45373 -0.436224 6.43814)
(6.62119 0.505503 -4.06738)
(5.10154 0.644728 -12.0586)
(4.17552 -0.761511 -9.42954)
(1.41901 -0.701225 -3.67777)
(0.0674318 0.100448 6.28327)
(-1.87696 -0.0142378 9.86217)
(0.308464 0.0186462 15.5019)
(-6.18697 -0.00651678 19.9787)
(2.72854 0.0270957 18.4648)
(0.248283 0.0724204 15.5189)
(1.24069 0.0298097 12.9355)
(0.664442 -0.00343946 12.0102)
(1.19909 -0.00890391 9.75975)
(1.76991 -0.0580084 7.66713)
(2.4704 -0.266172 6.87503)
(5.32123 1.42115 -7.15324)
(3.39071 0.589877 -13.782)
(3.16087 -2.26446 -10.8246)
(0.346522 -1.54977 -3.88919)
(-0.0751439 -0.314355 6.9253)
(-1.84655 -0.0421615 9.95208)
(0.307723 -0.00579973 15.409)
(-6.19098 -0.00811838 19.9608)
(2.7335 0.0301569 18.5797)
(0.250806 0.074475 15.3429)
(1.24597 0.0349947 12.6496)
(0.665293 0.000220897 11.8442)
(1.18763 0.00794651 9.74562)
(1.79989 -0.0522762 7.68751)
(2.22303 -0.00560892 7.42257)
(5.7469 2.12866 -5.19549)
(6.11519 0.510967 -13.0741)
(5.2562 -3.23279 -12.5315)
(1.09028 -2.64252 -6.04422)
(-0.169971 -0.641428 7.65066)
(-1.73721 -0.0712619 10.1026)
(0.313812 -0.0100863 15.3772)
(-6.20577 -0.0100552 19.8928)
(2.74553 0.0278359 18.6518)
(0.252733 0.0670451 15.2125)
(1.25041 0.0331674 12.385)
(0.665686 0.00106645 11.6787)
(1.17903 -0.0118407 9.74528)
(1.82793 -0.0212502 7.72524)
(2.0391 -0.385708 7.60053)
(6.16412 1.66025 0.242878)
(9.0089 0.73777 -7.40766)
(8.59231 -2.83073 -11.2803)
(2.90416 -2.91133 -7.51538)
(-0.140533 -0.610933 7.61321)
(-1.60013 -0.0769961 10.1208)
(0.335253 0.0282993 15.1664)
(-6.25932 -0.00966451 19.7308)
(2.75927 0.0261329 18.6741)
(0.254694 0.0649933 15.0605)
(1.26139 0.0328491 12.1065)
(0.660534 0.0022675 11.5006)
(1.1798 -0.0402211 9.73815)
(1.66381 -0.0069984 7.71743)
(2.13131 -0.642059 8.05406)
(4.15217 1.06067 3.45965)
(8.14614 0.682011 -2.73439)
(9.33053 -2.05733 -9.49769)
(3.58563 -2.29365 -7.63142)
(-0.106124 -0.323265 7.25566)
(-1.54626 -0.04583 10.0514)
(0.329304 0.0774357 15.1769)
(-6.08372 -0.00670266 20.2789)
(2.77466 0.0140429 18.707)
(0.257299 0.0359447 14.9133)
(1.28223 0.0192998 11.7231)
(0.658992 0.00285797 11.1718)
(1.18754 -0.0232557 9.64686)
(1.50403 -0.00451594 7.77067)
(2.21048 -0.291499 8.65519)
(3.0111 0.581198 4.13393)
(6.60015 0.458051 -2.72273)
(8.13581 -1.49842 -10.3286)
(2.87429 -1.55982 -7.53261)
(-0.101865 -0.100714 7.1316)
(-1.56712 -0.00947632 9.6736)
(0.320985 0.0477845 15.1548)
(-6.00122 -0.00268993 20.5897)
(7.96018 -0.036548 18.402)
(0.606275 -0.124535 15.2476)
(3.4974 -0.0929158 12.2161)
(1.95174 -0.0462963 10.9095)
(2.9472 -0.0518278 9.21371)
(3.14122 -0.129292 6.83001)
(4.52823 0.12162 6.58282)
(6.30642 -0.756637 2.12595)
(9.26397 0.846026 -6.49771)
(6.52852 1.70607 -8.71695)
(-0.232285 0.797037 -0.488769)
(-2.6523 0.151657 8.53368)
(-5.79293 -0.141538 10.7553)
(-3.19467 -0.130547 16.9896)
(-16.447 0.041825 20.2425)
(7.91253 -0.0685627 18.3652)
(0.590286 -0.212054 15.3661)
(3.45729 -0.154415 12.5542)
(1.90721 -0.0742078 11.2283)
(2.89411 -0.125487 9.27267)
(3.22649 -0.224882 6.79145)
(4.43225 0.0516666 5.91374)
(7.28869 -1.41593 0.969025)
(10.3005 1.68168 -6.23397)
(7.12649 2.87052 -8.50986)
(0.0268488 1.32409 -0.607412)
(-2.56846 0.396473 8.7589)
(-5.79628 -0.206883 11.0137)
(-3.29258 -0.22798 16.9647)
(-16.5737 0.102254 19.9431)
(7.87601 -0.0760242 18.3392)
(0.58026 -0.208559 15.5019)
(3.43069 -0.152566 12.8098)
(1.8698 -0.0722825 11.4052)
(2.87066 -0.218177 9.23899)
(3.19038 -0.2122 6.7728)
(4.63296 -0.730176 5.67025)
(7.5552 -2.49372 -2.41131)
(9.78425 2.3262 -8.60836)
(5.62628 3.90029 -8.58813)
(-0.786749 1.49321 0.418637)
(-2.50334 0.61418 8.88149)
(-5.91262 -0.0314435 11.1245)
(-3.61271 -0.134807 16.9064)
(-16.8493 0.0519034 19.3665)
(7.84003 -0.08594 18.2631)
(0.569469 -0.225341 15.6088)
(3.41837 -0.161866 13.0422)
(1.82124 -0.0756211 11.5581)
(2.86382 -0.274901 9.15715)
(2.84123 -0.237051 6.63251)
(5.24574 -1.39523 5.01495)
(5.58414 -3.03638 -7.29516)
(6.33391 3.03499 -11.7026)
(2.13768 4.07865 -7.66473)
(-1.85965 0.739652 2.5345)
(-2.64608 0.636603 8.69836)
(-6.02068 0.0908948 11.1805)
(-3.43858 -0.0553488 17.0724)
(-16.7456 0.0021241 19.5364)
(7.8252 -0.0814371 18.1418)
(0.563782 -0.205177 15.7568)
(3.39997 -0.139354 13.3006)
(1.77165 -0.0610548 11.7153)
(2.84807 -0.202055 9.09565)
(2.46144 -0.25214 6.48354)
(5.76259 -0.789133 3.47945)
(2.6126 -2.25454 -10.4948)
(2.3907 2.38905 -11.7899)
(0.0779501 2.57666 -5.05247)
(-1.74296 -0.0786907 3.3122)
(-2.82486 0.437393 8.13311)
(-6.12403 0.0718891 11.1614)
(-3.39637 -0.0638134 17.1424)
(-16.7087 0.0207093 19.6145)
(7.83597 -0.0672587 17.9535)
(0.562458 -0.169356 15.9006)
(3.3782 -0.109724 13.5734)
(1.74332 -0.0483914 11.8911)
(2.82458 -0.0571198 9.08703)
(2.49114 -0.275692 6.4081)
(5.6097 0.640866 2.73915)
(3.59919 -1.31208 -9.80206)
(1.54877 0.632864 -10.3536)
(1.35947 0.96753 -3.35609)
(-1.18741 -0.0328367 2.84263)
(-2.84316 0.111003 7.7927)
(-6.19167 -0.0231132 11.2117)
(-3.37466 -0.0924766 17.2559)
(-16.701 0.0200095 19.6117)
(7.88774 -0.0399539 17.6919)
(0.571325 -0.0916323 15.9731)
(3.35578 -0.0634114 13.8034)
(1.74146 -0.0330928 12.0869)
(2.7713 0.0124062 9.16033)
(2.84665 -0.224704 6.52686)
(4.78277 1.12871 2.7657)
(7.01653 -0.0358315 -7.43919)
(4.63379 -0.507355 -10.3743)
(3.00397 -0.0837488 -4.59681)
(-0.651004 0.187501 2.40679)
(-2.59197 -0.14697 7.92891)
(-6.19277 -0.128988 11.2962)
(-3.45503 -0.118264 17.2809)
(-16.7814 0.0428872 19.4344)
(7.91278 -0.00559021 17.5795)
(0.577717 0.00940841 15.9527)
(3.35248 -0.00445108 13.8418)
(1.74281 -0.0137812 12.1446)
(2.74474 0.00688457 9.19915)
(3.00404 -0.0922341 6.59188)
(4.22756 0.387904 2.43356)
(8.9576 0.314593 -4.66458)
(8.18484 -0.317534 -9.78013)
(4.23547 -0.421965 -5.82268)
(-0.450174 -0.048954 2.00675)
(-2.42917 -0.118201 8.34648)
(-6.18167 -0.0272348 11.3877)
(-3.68437 -0.0155718 17.2027)
(-16.9674 -0.0142969 19.0445)
(7.86633 0.0307957 17.7533)
(0.570908 0.104488 15.9566)
(3.35356 0.0524913 13.7646)
(1.75043 0.00745929 12.0596)
(2.74313 -0.00822528 9.17329)
(3.01311 0.100268 6.52462)
(4.24934 -0.686459 2.69246)
(8.52041 -0.313454 -5.32845)
(7.0407 0.0684022 -10.068)
(3.63842 -0.210686 -5.41658)
(-0.687745 -0.309808 2.2546)
(-2.5525 -0.0292142 8.15282)
(-6.13621 0.0865732 11.3289)
(-3.39952 0.0962337 17.2983)
(-16.7484 -0.0713411 19.4966)
(7.8177 0.0600838 18.0057)
(0.561716 0.173792 15.872)
(3.37132 0.093733 13.525)
(1.75562 0.0247389 11.8645)
(2.79188 -0.00469856 9.09483)
(2.76475 0.2174 6.46619)
(5.02618 -1.04062 3.07849)
(5.66025 0.882336 -8.27688)
(2.78833 0.0851686 -10.4009)
(2.0468 -0.810059 -3.95941)
(-1.00198 -0.245454 2.71105)
(-2.81472 -0.207083 7.85318)
(-6.14005 -0.00399089 11.244)
(-3.30045 0.0623515 17.2591)
(-16.6459 -0.0443264 19.7062)
(7.80763 0.0750234 18.189)
(0.560044 0.204951 15.7283)
(3.38859 0.121066 13.2479)
(1.76503 0.0374831 11.6812)
(2.823 0.0956658 9.07233)
(2.49985 0.195908 6.45487)
(5.53745 -0.0506358 3.30173)
(2.69848 1.92825 -10.2375)
(1.99693 -1.59086 -11.2736)
(0.722085 -2.3241 -4.83504)
(-1.48247 -0.0882732 3.15376)
(-2.82143 -0.510806 8.15965)
(-6.06496 -0.100093 11.2326)
(-3.31798 0.0272449 17.1711)
(-16.6521 -0.0400667 19.6867)
(7.8232 0.0805908 18.3038)
(0.562771 0.221662 15.5801)
(3.4038 0.145301 12.9842)
(1.79975 0.053927 11.5179)
(2.83713 0.200885 9.10181)
(2.70204 0.183294 6.57538)
(5.24987 1.04132 4.61328)
(4.17504 2.76487 -8.80642)
(5.15283 -2.93832 -11.9955)
(1.77117 -3.99662 -7.30346)
(-1.75885 -0.710963 2.64344)
(-2.65584 -0.700792 8.73481)
(-5.95419 -0.124263 11.2665)
(-3.34429 0.0290805 17.1139)
(-16.6791 -0.0191387 19.6125)
(7.85896 0.0717617 18.3747)
(0.570791 0.203904 15.4753)
(3.41367 0.139855 12.7504)
(1.84177 0.0550335 11.3619)
(2.84181 0.18202 9.17784)
(3.0761 0.167132 6.72748)
(4.64652 0.804713 5.55959)
(6.84427 2.81615 -3.97373)
(9.09715 -2.58177 -9.44843)
(5.12878 -4.24648 -8.5975)
(-0.885033 -1.55485 0.65306)
(-2.49801 -0.684247 9.00858)
(-5.83763 -0.00466725 11.2132)
(-3.50299 0.11168 16.9488)
(-16.774 -0.0627283 19.4456)
(7.89541 0.0651192 18.3968)
(0.578955 0.206746 15.341)
(3.43866 0.14421 12.4938)
(1.87744 0.0610249 11.1816)
(2.85877 0.099828 9.21679)
(3.16634 0.198577 6.76428)
(4.32314 -0.0197849 5.87747)
(7.2455 1.78812 0.203072)
(10.3121 -1.90231 -6.34373)
(7.10069 -3.27793 -8.50686)
(0.0896972 -1.47535 -0.628621)
(-2.54492 -0.470103 8.8953)
(-5.71306 0.176439 11.1032)
(-3.18223 0.208899 17.0018)
(-16.4955 -0.108 20.0168)
(7.94229 0.0348153 18.4303)
(0.592756 0.121258 15.2264)
(3.47725 0.0874347 12.1589)
(1.91723 0.0403095 10.8618)
(2.91325 0.0362453 9.16439)
(3.06834 0.127104 6.81244)
(4.43347 -0.173258 6.5097)
(6.23935 0.954581 2.13388)
(9.31112 -1.08648 -6.10995)
(6.58204 -2.02205 -8.68329)
(-0.096018 -0.871371 -0.580503)
(-2.64518 -0.182284 8.64899)
(-5.70641 0.128533 10.8459)
(-3.07838 0.121034 17.0266)
(-16.3627 -0.04428 20.3192)
(12.8686 -0.056666 17.7783)
(1.0165 -0.204529 15.8978)
(5.16343 -0.213807 12.5327)
(2.74799 -0.144913 10.8792)
(3.91747 -0.227022 9.14251)
(3.76645 -0.292488 6.33836)
(4.42078 -0.377734 5.30825)
(6.71694 -0.138808 0.956056)
(5.63419 1.93286 -6.21619)
(-0.272843 1.00639 -4.25264)
(-6.12385 0.232696 3.42693)
(-9.27323 -0.0655437 10.4322)
(-12.5416 -0.225636 14.0302)
(-10.9316 -0.0266263 18.8923)
(-22.5038 0.0908126 15.8866)
(12.7949 -0.104185 17.7593)
(0.902775 -0.329332 15.9364)
(5.12965 -0.33892 12.8146)
(2.66582 -0.224352 11.1869)
(3.8458 -0.449468 9.18955)
(3.68772 -0.46582 6.21539)
(4.53133 -1.25281 5.23416)
(7.79051 0.00811818 1.10989)
(6.37489 3.09396 -6.07982)
(-0.248231 1.67862 -4.30351)
(-5.96242 0.442916 3.66156)
(-9.26135 -0.0254891 10.6237)
(-12.6242 -0.362611 14.1058)
(-11.0624 -0.0106624 18.7671)
(-22.5521 0.215906 15.6427)
(12.7465 -0.114173 17.7407)
(0.838053 -0.318666 16.0219)
(5.10246 -0.333143 13.049)
(2.58235 -0.214176 11.3714)
(3.82039 -0.595509 9.15944)
(3.39049 -0.558119 6.03097)
(5.27707 -2.72786 5.43302)
(8.08015 -1.30377 -0.399515)
(5.14788 4.05909 -7.14095)
(-1.8725 2.02686 -3.57058)
(-6.27251 0.469108 4.31442)
(-9.51294 0.257435 10.7299)
(-12.9717 -0.141804 14.1097)
(-11.5274 -0.00936341 18.4351)
(-22.6033 0.121355 15.1096)
(12.6889 -0.128237 17.6727)
(0.76244 -0.348211 16.0687)
(5.09268 -0.359397 13.2541)
(2.47885 -0.22798 11.5126)
(3.7814 -0.665389 9.01812)
(2.54303 -0.866379 5.62844)
(5.96436 -3.50742 3.83524)
(4.63808 -1.10417 -5.13509)
(1.40832 4.87109 -8.21363)
(-3.78552 1.65738 -2.21194)
(-6.63909 0.329572 4.98186)
(-9.60233 0.458365 10.6349)
(-12.8212 0.0341857 14.2255)
(-11.2223 -0.0125019 18.6735)
(-22.597 0.0334174 15.2865)
(12.6609 -0.119206 17.5469)
(0.735716 -0.312587 16.1633)
(5.07167 -0.311762 13.4998)
(2.38241 -0.186816 11.6705)
(3.68473 -0.464375 8.88786)
(1.81845 -0.897258 5.23601)
(5.74866 -2.15628 0.941313)
(-0.654472 -0.551603 -7.51074)
(-1.59427 3.55609 -7.26259)
(-4.18498 0.753861 -1.29573)
(-6.98504 0.194837 5.16741)
(-9.87149 0.41842 10.51)
(-12.8129 0.0270328 14.2956)
(-11.1438 -0.00409071 18.8018)
(-22.606 0.0686915 15.3651)
(12.6618 -0.0973687 17.346)
(0.745306 -0.256672 16.2478)
(5.04656 -0.248351 13.7554)
(2.33855 -0.134499 11.8522)
(3.59597 -0.172683 8.83541)
(1.91849 -0.44835 5.17843)
(5.25307 -0.0707269 -0.129219)
(-0.897441 -0.79938 -6.92592)
(-1.90657 1.40262 -5.83637)
(-3.69764 0.292017 -1.10948)
(-7.24518 0.145182 5.11773)
(-10.0066 0.183843 10.4984)
(-12.8282 -0.0518076 14.3803)
(-11.0999 -0.0294111 18.8972)
(-22.6151 0.0541387 15.373)
(12.7151 -0.0604343 17.0698)
(0.810703 -0.135442 16.2744)
(5.02038 -0.138272 13.9646)
(2.34214 -0.0750003 12.0629)
(3.5804 -0.000329353 8.92271)
(2.35134 -0.219604 5.50599)
(5.10122 1.22698 1.32807)
(3.17434 -0.472698 -6.04728)
(-0.349718 -0.113169 -5.54522)
(-3.04774 0.0248296 -1.26757)
(-6.92391 -0.0446195 5.10843)
(-9.88991 -0.164934 10.57)
(-12.9418 -0.166581 14.3941)
(-11.2347 -0.0188215 18.8032)
(-22.629 0.0875397 15.1944)
(12.7392 -0.0161341 16.9504)
(0.838055 0.0149903 16.2416)
(5.01443 -4.72521e-05 13.9925)
(2.35633 -0.0185816 12.1188)
(3.53946 0.0234437 8.96902)
(2.73487 -0.0876551 5.57475)
(3.96003 0.6635 2.08287)
(6.93136 0.160505 -4.29778)
(2.1745 -0.395919 -6.13275)
(-2.29741 -0.153129 -1.45058)
(-6.58757 -0.0793047 5.18177)
(-9.87325 -0.0871947 10.7122)
(-13.1564 -0.0243641 14.3569)
(-11.569 -0.0272513 18.5467)
(-22.6514 -0.0165786 14.8431)
(12.6869 0.0364912 17.1279)
(0.785228 0.156629 16.2652)
(5.01799 0.129828 13.9295)
(2.36541 0.0439391 12.0402)
(3.55756 0.00319319 8.94424)
(2.66022 0.253965 5.54783)
(4.24637 -1.02808 2.04502)
(5.7062 -0.17339 -5.00305)
(1.12076 -0.037999 -5.95119)
(-2.70789 -0.186831 -1.44247)
(-6.73905 -0.0942522 5.05217)
(-9.73868 0.0687812 10.6059)
(-12.8673 0.149124 14.4074)
(-11.1638 -0.0153447 18.8604)
(-22.6271 -0.120789 15.273)
(12.6382 0.0820076 17.3969)
(0.722779 0.264955 16.2286)
(5.03951 0.225332 13.7096)
(2.35915 0.0982272 11.8352)
(3.63056 0.0687263 8.85991)
(2.16559 0.383041 5.40422)
(5.49193 -0.731857 1.33936)
(1.42153 0.828859 -6.37087)
(-1.14113 -0.856745 -5.66316)
(-3.33024 -0.347401 -1.34149)
(-7.14638 -0.237071 5.00965)
(-9.89367 -0.220482 10.49)
(-12.7434 0.0417199 14.3943)
(-11.0043 -0.00292867 18.959)
(-22.6023 -0.0812582 15.4881)
(12.6388 0.106691 17.5934)
(0.7105 0.313684 16.1428)
(5.05667 0.282691 13.4485)
(2.37318 0.145151 11.6398)
(3.66404 0.293968 8.85432)
(1.8915 0.615987 5.29863)
(5.60827 0.964597 0.753194)
(-1.18645 0.891632 -7.36464)
(-1.52809 -2.72982 -6.78608)
(-3.68328 -0.670862 -1.43163)
(-6.91101 -0.269156 5.03602)
(-9.77285 -0.492272 10.5101)
(-12.7036 -0.0466336 14.3342)
(-11.0354 -0.029106 18.875)
(-22.5869 -0.0899692 15.4769)
(12.6681 0.118795 17.7143)
(0.733452 0.344115 16.0464)
(5.07341 0.332708 13.1963)
(2.43672 0.195809 11.4722)
(3.75783 0.539095 8.93934)
(2.23374 0.799086 5.5537)
(5.97228 2.88239 2.96536)
(2.11919 0.89727 -6.66795)
(0.685115 -4.80174 -8.10038)
(-3.7292 -1.54991 -2.1596)
(-6.49201 -0.332469 4.92893)
(-9.4829 -0.542701 10.6327)
(-12.682 -0.0541213 14.272)
(-11.0906 -0.00653416 18.7588)
(-22.5753 -0.0520614 15.4124)
(12.7259 0.107078 17.7784)
(0.805288 0.312917 15.9996)
(5.07989 0.314096 12.9893)
(2.52989 0.189981 11.3264)
(3.80135 0.552745 9.08671)
(3.14032 0.538934 5.94973)
(5.49146 2.92948 5.14613)
(7.12183 1.54902 -2.0455)
(4.46449 -4.60786 -7.62584)
(-2.14732 -2.13186 -3.50724)
(-6.13082 -0.487847 4.32604)
(-9.34682 -0.336486 10.7474)
(-12.8109 0.117878 14.16)
(-11.3742 -0.000690102 18.5349)
(-22.5781 -0.130804 15.2508)
(12.7747 0.0986905 17.794)
(0.868426 0.322281 15.9147)
(5.10471 0.324564 12.7543)
(2.61435 0.205655 11.1389)
(3.81965 0.436482 9.13237)
(3.5709 0.430488 6.16507)
(4.65674 1.54725 5.36337)
(7.87134 0.350803 0.825844)
(6.3807 -3.60628 -6.12336)
(-0.262066 -1.96265 -4.42623)
(-5.78354 -0.505235 3.6101)
(-9.07942 -0.0425319 10.6564)
(-12.4572 0.350797 14.142)
(-10.8998 0.00986346 18.8589)
(-22.5229 -0.219885 15.7925)
(12.8475 0.0538647 17.8106)
(0.979367 0.199879 15.8781)
(5.13617 0.205684 12.4759)
(2.69467 0.13555 10.8308)
(3.88584 0.217742 9.09888)
(3.6803 0.275506 6.31534)
(4.40453 0.418205 5.34765)
(6.69026 0.122426 1.01388)
(5.7759 -2.40744 -6.00869)
(-0.0919643 -1.19645 -4.44035)
(-5.92995 -0.267391 3.32817)
(-9.08928 0.0354459 10.4584)
(-12.3604 0.221764 14.0637)
(-10.7524 0.025564 18.9907)
(-22.4722 -0.0928104 16.0496)
(16.6271 -0.0805196 15.5987)
(3.83856 -0.227425 17.631)
(7.10096 -0.335864 13.5737)
(3.26168 -0.31535 11.1836)
(3.71537 -0.49126 9.22686)
(3.41835 -0.628416 6.76368)
(3.30139 -0.984159 5.65843)
(5.25597 -0.0685366 0.193656)
(-1.15605 1.64065 -2.48631)
(-7.61001 0.310997 2.13636)
(-13.2084 0.046313 8.17707)
(-16.7545 -0.0839101 13.5373)
(-18.0201 -0.0305348 16.0797)
(-15.2949 0.220953 16.5056)
(-23.9674 0.14447 9.12658)
(16.5914 -0.144654 15.6682)
(3.55769 -0.353783 17.6065)
(6.99316 -0.514908 13.6948)
(3.10778 -0.479555 11.4352)
(3.62956 -0.852477 9.32963)
(3.19687 -1.14471 6.62116)
(3.72766 -2.19832 6.18898)
(6.38395 0.787029 1.29938)
(-0.679566 2.3731 -2.50853)
(-7.87565 0.640254 2.33404)
(-13.2469 0.117586 8.28886)
(-16.8414 -0.0911123 13.5243)
(-18.0527 -0.0169553 15.9573)
(-15.3295 0.487894 16.4336)
(-24.0237 0.318687 9.08193)
(16.5738 -0.155674 15.6983)
(3.38855 -0.338001 17.6295)
(6.91299 -0.509252 13.8267)
(2.96542 -0.468195 11.5959)
(3.53914 -1.00564 9.33218)
(2.84024 -1.68563 6.37421)
(4.00868 -3.71157 5.47551)
(6.69206 0.713576 0.663874)
(-2.31062 3.36299 -2.52726)
(-9.03121 0.881496 2.81742)
(-13.7721 0.242355 8.50884)
(-17.282 0.10556 13.3786)
(-18.3025 0.0308693 15.5575)
(-15.4706 0.370622 16.0032)
(-24.0036 0.216728 8.89852)
(16.5386 -0.172259 15.694)
(3.16431 -0.369474 17.599)
(6.83702 -0.562897 13.9218)
(2.80054 -0.500296 11.6985)
(3.36417 -1.10977 9.16587)
(1.98452 -2.31917 5.59165)
(1.97068 -4.22229 1.53403)
(1.74589 2.3375 -2.86763)
(-5.21983 3.88012 -2.14866)
(-10.0065 0.914243 3.19603)
(-13.8926 0.354432 8.67722)
(-17.211 0.260148 13.4568)
(-18.0664 0.0627281 15.7534)
(-15.2973 0.222732 16.3047)
(-24.0903 0.108599 9.00529)
(16.5168 -0.154403 15.6005)
(3.03544 -0.324242 17.5922)
(6.76966 -0.502995 14.0765)
(2.64894 -0.401492 11.8357)
(3.14463 -0.82821 8.97839)
(1.16261 -1.71067 4.22158)
(-2.27155 -2.4777 -2.50268)
(-4.34541 1.71143 -3.61469)
(-6.7842 2.7085 -1.2795)
(-10.6612 0.542545 3.45347)
(-14.2372 0.299153 8.77123)
(-17.2996 0.243519 13.5006)
(-17.9788 0.0736618 15.8454)
(-15.2671 0.231641 16.4725)
(-24.1593 0.131898 9.0561)
(16.5003 -0.120151 15.4137)
(2.98002 -0.261977 17.5552)
(6.72069 -0.414236 14.2487)
(2.57887 -0.266043 12.0157)
(3.137 -0.378121 8.91036)
(1.17316 0.0282277 3.79778)
(-1.82609 -1.64055 -2.21036)
(-5.64249 -0.177105 -2.68094)
(-6.86032 1.12049 -0.536618)
(-10.9295 0.330132 3.59776)
(-14.5134 0.180878 8.86554)
(-17.3394 0.0992991 13.5655)
(-17.9188 0.0124669 15.9105)
(-15.2463 0.149053 16.5732)
(-24.2105 0.0775115 9.07785)
(16.5091 -0.0756419 15.1262)
(3.07125 -0.132598 17.4709)
(6.70388 -0.229748 14.4017)
(2.5958 -0.125243 12.2467)
(3.33937 -0.083188 9.10787)
(1.57666 0.639726 5.13801)
(3.67964 -0.107962 0.0683669)
(-2.95919 -0.942924 -2.95023)
(-6.29371 0.0144924 -0.345463)
(-10.7324 0.0894061 3.65616)
(-14.4038 -0.0542834 8.89217)
(-17.3899 -0.09831 13.5261)
(-18.0022 -0.00430642 15.8276)
(-15.2741 0.184465 16.4673)
(-24.1795 0.0982667 8.98275)
(16.5074 -0.0336836 14.9992)
(3.10983 0.0156172 17.4063)
(6.69927 0.0148785 14.4101)
(2.60654 -0.00628016 12.3025)
(3.37664 0.0139669 9.15923)
(1.77556 0.162978 5.49703)
(3.91137 0.412163 2.53775)
(0.906754 -0.192018 -3.03158)
(-5.89701 -0.224968 -0.418358)
(-10.5889 -0.0513826 3.81652)
(-14.3906 -0.0334781 8.94494)
(-17.5657 -0.0279899 13.4043)
(-18.1823 0.0145123 15.5557)
(-15.3873 0.00635435 16.1221)
(-24.1416 0.0106904 8.83085)
(16.489 0.0302703 15.1865)
(3.01012 0.15423 17.4835)
(6.69098 0.239393 14.3645)
(2.60994 0.112807 12.2224)
(3.38842 0.0983572 9.14074)
(1.71413 -0.0632988 5.44378)
(4.11248 -0.619959 2.12109)
(-0.470489 0.281411 -3.12725)
(-5.73013 -0.0461298 -0.480156)
(-10.4355 -0.137422 3.61438)
(-14.1967 0.0262655 8.87801)
(-17.279 0.0945582 13.537)
(-17.9559 0.0360133 15.8625)
(-15.2368 -0.199782 16.5118)
(-24.1926 -0.102889 9.01785)
(16.4851 0.0972791 15.4688)
(2.93646 0.268338 17.5598)
(6.70822 0.392501 14.2006)
(2.59848 0.220749 11.9919)
(3.29973 0.251962 8.99696)
(1.57703 -0.324279 4.74163)
(1.68684 1.03321 -0.958308)
(-4.32692 0.531843 -2.87746)
(-6.28722 -0.735809 -0.515338)
(-10.6477 -0.331436 3.47604)
(-14.3538 -0.162039 8.8127)
(-17.2168 -0.0744854 13.5835)
(-17.8497 0.0154717 15.9841)
(-15.1965 -0.157481 16.6643)
(-24.2188 -0.0820119 9.14012)
(16.5027 0.137448 15.6522)
(2.99548 0.322606 17.5924)
(6.74755 0.468919 14.0183)
(2.61104 0.332117 11.7819)
(3.19498 0.581001 8.92286)
(1.21631 0.90856 4.18361)
(-1.72224 1.94851 -2.40347)
(-5.21279 -0.773576 -3.36117)
(-6.4479 -2.13052 -1.08825)
(-10.4192 -0.482151 3.34637)
(-14.1222 -0.296481 8.72523)
(-17.1513 -0.252258 13.5407)
(-17.8812 -0.0509369 15.931)
(-15.2144 -0.225939 16.5669)
(-24.1711 -0.127995 9.12943)
(16.5257 0.161174 15.7423)
(3.12327 0.362785 17.595)
(6.80862 0.531299 13.8566)
(2.716 0.448709 11.6266)
(3.32376 0.959829 9.04525)
(1.63259 1.96536 5.16304)
(0.91732 3.74374 -0.130542)
(-0.850698 -2.34334 -3.66815)
(-5.43764 -3.78474 -2.05526)
(-9.87552 -0.846966 3.10887)
(-13.7089 -0.344562 8.61941)
(-17.0434 -0.28099 13.4921)
(-17.9551 -0.0370273 15.861)
(-15.2384 -0.211901 16.4308)
(-24.0992 -0.106654 9.08792)
(16.5606 0.147919 15.7438)
(3.34572 0.32998 17.6233)
(6.88031 0.4878 13.7611)
(2.87017 0.43512 11.5222)
(3.49119 0.968746 9.23243)
(2.55478 1.70853 6.13579)
(3.59646 4.01481 4.42375)
(5.71567 -1.07703 -0.581051)
(-2.69826 -3.9035 -2.70901)
(-8.9741 -0.925444 2.71933)
(-13.5513 -0.252564 8.46128)
(-17.0843 -0.134065 13.4058)
(-18.1841 -0.00696626 15.6654)
(-15.4152 -0.348219 16.1495)
(-24.0194 -0.206196 8.99732)
(16.5781 0.139099 15.7108)
(3.51611 0.344766 17.5997)
(6.95853 0.499523 13.6318)
(3.01773 0.456807 11.3645)
(3.58406 0.860536 9.26741)
(3.03862 1.17616 6.50746)
(3.83954 2.68883 6.24263)
(6.5105 -0.991785 1.44693)
(-0.492762 -2.9466 -2.67048)
(-7.71498 -0.74265 2.16201)
(-13.0126 -0.136414 8.21906)
(-16.6295 0.0746542 13.5265)
(-17.9305 0.046403 16.0499)
(-15.2727 -0.470229 16.6035)
(-24.0432 -0.314038 9.20532)
(16.6128 0.0776353 15.6394)
(3.79546 0.221646 17.625)
(7.06373 0.326972 13.516)
(3.17579 0.3031 11.1181)
(3.6667 0.496718 9.19175)
(3.32143 0.621786 6.71142)
(3.29295 1.18219 5.92978)
(5.19429 -0.645235 0.590818)
(-0.854847 -2.07011 -2.60967)
(-7.37426 -0.368813 1.8952)
(-12.9537 -0.0538218 8.07753)
(-16.5207 0.0807976 13.5246)
(-17.8789 0.0525724 16.1812)
(-15.2339 -0.206901 16.7044)
(-23.9929 -0.141684 9.26646)
(18.3352 -0.0827452 11.6823)
(7.91804 -0.226896 18.5448)
(10.462 -0.38316 16.4666)
(6.15436 -0.479853 13.6864)
(3.7485 -0.683752 10.2628)
(1.83255 -0.92863 7.67426)
(1.52266 -0.935265 6.70701)
(-0.0887828 1.06017 2.87874)
(-7.18501 0.948061 4.03976)
(-12.3124 0.210585 7.48042)
(-16.7361 0.0783805 12.1069)
(-19.2351 0.0174754 15.1492)
(-18.2859 0.141086 15.2316)
(-14.636 0.49602 11.6271)
(-25.504 0.227163 6.0789)
(18.3701 -0.146976 11.8307)
(7.63173 -0.349371 18.5915)
(10.2428 -0.581085 16.4709)
(5.82792 -0.722861 13.7617)
(3.55931 -1.10368 10.3609)
(1.78124 -1.73317 7.72579)
(2.28245 -1.52396 7.34934)
(1.02485 1.87109 3.25364)
(-7.43759 1.42697 4.03071)
(-12.6838 0.391729 7.60359)
(-16.9268 0.173382 12.0621)
(-19.3315 0.0526037 15.043)
(-18.2003 0.204953 15.1734)
(-14.6399 0.879262 11.905)
(-25.6758 0.460511 6.29654)
(18.4016 -0.161833 11.9088)
(7.4629 -0.322787 18.629)
(10.0868 -0.574341 16.5058)
(5.55569 -0.725922 13.8117)
(3.33439 -1.31173 10.3392)
(1.54627 -2.60413 7.48362)
(1.73539 -2.13404 5.89093)
(0.17062 3.05551 2.68373)
(-8.60487 2.08355 4.10135)
(-13.5555 0.494531 7.64127)
(-17.3618 0.283265 11.8417)
(-19.5161 0.141177 14.5777)
(-18.0761 0.151462 14.7231)
(-14.509 0.695853 12.0589)
(-25.8394 0.33119 6.68786)
(18.425 -0.185011 11.9906)
(7.19196 -0.333485 18.628)
(9.87839 -0.640385 16.4874)
(5.20671 -0.799452 13.7847)
(2.92122 -1.56391 10.0474)
(0.263967 -3.28713 6.35591)
(-1.99842 -1.39464 2.46596)
(-3.95511 3.82597 1.76124)
(-9.82146 2.45576 4.09168)
(-14.0823 0.582786 7.65199)
(-17.402 0.337285 11.8489)
(-19.4821 0.207644 14.6093)
(-17.9583 0.168485 14.8151)
(-14.4992 0.567247 12.3821)
(-25.913 0.205331 6.66376)
(18.4386 -0.171894 11.9789)
(6.99365 -0.262533 18.5912)
(9.69717 -0.572309 16.4994)
(4.84546 -0.666028 13.7829)
(2.38133 -1.26789 9.597)
(-1.88475 -2.36109 4.70879)
(-6.7958 -0.823695 1.48088)
(-7.68981 2.62395 1.78854)
(-10.5245 1.83422 4.17116)
(-14.4814 0.403816 7.70723)
(-17.5904 0.260631 11.917)
(-19.5416 0.194946 14.6948)
(-17.909 0.176018 14.8882)
(-14.5376 0.506034 12.5878)
(-25.9882 0.198695 6.65563)
(18.4297 -0.139949 11.8867)
(6.83667 -0.184296 18.4883)
(9.55301 -0.463654 16.5015)
(4.5997 -0.449264 13.8161)
(2.21094 -0.499085 9.31628)
(-2.40136 -0.828842 4.13428)
(-7.05336 -1.45492 1.90293)
(-8.66244 0.740682 2.41841)
(-10.6906 0.971113 4.38566)
(-14.7007 0.351925 7.76978)
(-17.7311 0.199588 11.9332)
(-19.562 0.142382 14.6802)
(-17.8598 0.175234 14.9107)
(-14.5473 0.386935 12.8103)
(-26.0409 0.0884748 6.75075)
(18.3943 -0.0964427 11.6842)
(6.83679 -0.0756101 18.3025)
(9.51176 -0.246286 16.4962)
(4.58237 -0.20043 13.9326)
(2.49763 -0.00257262 9.63137)
(-0.216671 0.527435 5.2345)
(-2.72364 -1.31599 2.48085)
(-7.77457 -0.592015 2.68506)
(-10.8826 0.222219 4.67226)
(-14.8735 0.218923 7.89264)
(-17.8 0.0996939 11.908)
(-19.652 0.085538 14.5856)
(-17.8469 0.161417 14.777)
(-14.4391 0.244221 12.6537)
(-26.0098 0.0436178 6.62843)
(18.3605 -0.0498622 11.5863)
(6.83502 0.00127253 18.2095)
(9.50107 0.0224619 16.4603)
(4.57244 0.0140713 13.9494)
(2.63046 0.0489021 9.74673)
(0.266192 0.446219 6.12334)
(1.44469 -0.0943491 3.85994)
(-6.34639 -0.360216 2.52824)
(-11.1844 -0.0508759 4.83245)
(-15.0724 0.0620343 7.94224)
(-17.8353 0.0640659 11.7217)
(-19.618 0.0422379 14.2303)
(-17.7148 -0.00319066 14.5098)
(-14.274 -0.0879904 12.7531)
(-26.0786 -0.0165904 6.94888)
(18.3809 0.0315608 11.7239)
(6.78588 0.0758633 18.3507)
(9.49017 0.26776 16.4875)
(4.59182 0.208411 13.9071)
(2.62176 0.10452 9.71926)
(0.243434 -0.381757 5.90183)
(0.731923 0.389356 3.40902)
(-6.59492 0.432115 2.51666)
(-10.7207 -0.10205 4.69455)
(-14.7108 -0.148607 7.88435)