/*--------------------------------*- C++ -*----------------------------------*\
| =========                 |                                                 |
| \\      /  F ield         | OpenFOAM: The Open Source CFD Toolbox           |
|  \\    /   O peration     | Version:  4.1                                   |
|   \\  /    A nd           | Web:      www.OpenFOAM.org                      |
|    \\/     M anipulation  |                                                 |
\*---------------------------------------------------------------------------*/
FoamFile
{
    version     2.0;
    format      ascii;
    class       volScalarField;
    location    "4.5";
    object      p;
}
// * * * * * * * * * * * * * * * * * * * * * * * * * * * * * * * * * * * * * //

dimensions      [0 2 -2 0 0 0 0];

internalField   nonuniform List<scalar> 
204246
(
-19.5212
-32.1561
-33.068
-33.4409
-33.7456
-33.9554
-34.149
-34.2486
-34.3067
-34.3137
-34.2845
-34.1959
-34.1412
-34.1138
-34.0974
-33.999
-34.4165
-34.5698
-34.4229
-34.3533
-34.3232
-34.3047
-34.2893
-34.2894
-34.2916
-34.2957
-34.2932
-34.3045
-34.2949
-34.274
-34.1935
-34.0953
-34.013
-34.0285
-33.9799
-34.3154
-34.4752
-34.3216
-34.2786
-34.2609
-34.2584
-34.2594
-34.2399
-34.2238
-34.2288
-34.1993
-34.1705
-34.1841
-34.2103
-34.1011
-33.9986
-33.9116
-34.2313
-34.3793
-34.2517
-34.2123
-34.1569
-34.1305
-34.1282
-34.1041
-34.0455
-33.9967
-33.9681
-33.9404
-33.8526
-33.8369
-33.6548
-33.6158
-33.3706
-33.5623
-33.6042
-33.3734
-33.237
-32.9388
-32.7042
-32.4186
-32.1079
-31.7516
-31.3343
-30.8214
-30.3055
-29.7049
-29.0589
-28.4215
-27.9668
-27.72
-27.8392
-28.502
-29.8551
-32.6724
-37.9253
-47.5631
-60.3175
-70.4652
-73.3329
-76.3453
-77.7998
-79.4702
-80.0172
-80.8294
-81.0101
-80.5973
-79.6921
-78.931
-78.515
-78.5262
-77.8827
-76.6756
-76.19
-75.7676
-75.4886
-75.1478
-75.1511
-75.3112
-75.413
-75.5949
-75.8871
-75.9728
-76.8028
-76.5323
-77.1801
-76.9793
-78.5744
-79.4104
-79.2726
-80.0135
-79.789
-80.5706
-80.3734
-81.3851
-81.6448
-81.7833
-81.7117
-82.5365
-82.2559
-83.1109
-83.0528
-82.9997
-82.9124
-84.5067
-85.2946
-84.9858
-85.6781
-85.3742
-86.1046
-85.8501
-86.8903
-87.3069
-87.7657
-88.1505
-88.4724
-88.6352
-89.7776
-89.9802
-90.1843
-90.3435
-92.2902
-93.3318
-93.1959
-93.9506
-93.7046
-94.475
-93.4379
-94.1013
-93.1181
-92.5401
-90.8462
-89.7029
-87.2738
-85.1031
-81.6774
-78.2151
-73.872
-69.1522
-63.7351
-57.6781
-50.7625
-42.9036
-34.2648
-24.3104
-13.0308
-0.100452
14.509
31.118
49.7193
70.542
93.5666
119.394
148.816
187.808
246.77
340.013
464.986
-28.5538
-29.801
-31.5317
-32.7256
-33.4871
-33.9047
-34.148
-34.2522
-34.3638
-34.3908
-34.3665
-34.3092
-34.2864
-34.2288
-34.1924
-34.1701
-34.2882
-34.4138
-34.4186
-34.4132
-34.3779
-34.3547
-34.3353
-34.334
-34.3323
-34.3246
-34.3202
-34.3339
-34.3519
-34.3264
-34.2579
-34.1966
-34.1409
-34.1171
-34.1282
-34.228
-34.3208
-34.3284
-34.3237
-34.3032
-34.3062
-34.2958
-34.2792
-34.2716
-34.2688
-34.2427
-34.2221
-34.2362
-34.2347
-34.1865
-34.1305
-34.0993
-34.1726
-34.2541
-34.2735
-34.2693
-34.2186
-34.1989
-34.1838
-34.1613
-34.1239
-34.0874
-34.0565
-34.0137
-33.9791
-33.9129
-33.8204
-33.7374
-33.706
-33.6534
-33.5905
-33.5162
-33.3779
-33.2081
-33.0145
-32.7787
-32.5241
-32.2143
-31.8505
-31.4329
-30.9499
-30.3654
-29.6901
-29.0033
-28.3406
-27.7485
-27.3796
-27.322
-27.8893
-29.6682
-33.4597
-44.1567
-59.995
-70.2583
-75.0261
-76.2692
-77.5883
-79.128
-80.3427
-80.9726
-81.6242
-81.4172
-80.7811
-80.1955
-79.4991
-78.8017
-78.0223
-77.193
-76.4593
-75.929
-75.4977
-75.2752
-75.192
-75.2714
-75.309
-75.5656
-75.7655
-76.0419
-76.4132
-76.7451
-76.9849
-77.3509
-77.9697
-78.5958
-79.0871
-79.5339
-79.9092
-80.2197
-80.5828
-81.0071
-81.5026
-81.6872
-82.0041
-82.2807
-82.6345
-82.9389
-83.2494
-83.2278
-83.4951
-84.0386
-84.6152
-84.9861
-85.3305
-85.6621
-85.9072
-86.2527
-86.6515
-87.2467
-87.6542
-88.2166
-88.5479
-89.1271
-89.6972
-90.3671
-90.637
-91.2568
-92.0443
-92.8545
-93.5288
-94.1096
-94.7588
-95.1356
-95.3791
-95.3359
-95.3288
-95.0374
-94.3294
-93.6665
-92.2912
-90.5056
-88.0892
-85.1476
-81.5704
-77.4562
-72.7235
-67.3827
-61.2585
-54.3768
-46.6969
-38.0603
-28.3958
-17.4268
-5.04792
9.00961
24.7645
42.2972
61.382
81.9776
104.027
129.539
165.383
231.564
329.501
-36.3
-34.0569
-33.29
-33.2956
-33.5694
-33.82
-34.0297
-34.154
-34.231
-34.2709
-34.2601
-34.2384
-34.2227
-34.2026
-34.194
-34.2037
-34.2409
-34.2836
-34.3034
-34.3077
-34.3054
-34.2933
-34.2797
-34.2686
-34.2605
-34.2441
-34.2406
-34.2568
-34.2747
-34.2559
-34.2157
-34.18
-34.1384
-34.1138
-34.1271
-34.1753
-34.2078
-34.2192
-34.2274
-34.2327
-34.2308
-34.224
-34.2033
-34.2029
-34.2058
-34.1957
-34.1858
-34.1812
-34.1665
-34.1314
-34.1056
-34.0989
-34.127
-34.1613
-34.1734
-34.1623
-34.1407
-34.1271
-34.1203
-34.097
-34.0631
-34.0371
-34.0129
-33.9787
-33.9235
-33.8508
-33.7569
-33.7323
-33.703
-33.6514
-33.5792
-33.485
-33.3393
-33.1901
-33.0184
-32.8295
-32.5987
-32.3126
-31.9812
-31.6152
-31.1863
-30.7086
-30.198
-29.6872
-29.1452
-28.5909
-28.1671
-28.1079
-29.0489
-33.0404
-38.9594
-46.71
-58.8498
-69.2538
-74.6125
-75.9191
-77.3783
-78.7755
-79.7886
-80.5749
-80.7998
-80.9282
-80.9029
-80.421
-79.8294
-78.9828
-77.988
-77.0854
-76.313
-75.7492
-75.304
-75.0264
-74.89
-74.9439
-74.9636
-75.1743
-75.3919
-75.687
-76.0176
-76.3969
-76.7661
-77.2001
-77.6727
-78.1568
-78.6203
-79.0821
-79.4928
-79.8231
-80.1995
-80.5699
-80.9687
-81.2377
-81.5409
-81.8191
-82.144
-82.4279
-82.7072
-82.9248
-83.2127
-83.5515
-83.9341
-84.3063
-84.647
-84.9593
-85.213
-85.5173
-85.8754
-86.2787
-86.6783
-87.0882
-87.5056
-87.9444
-88.4603
-88.8981
-89.4797
-90.137
-90.873
-91.559
-92.1328
-92.6418
-93.0634
-93.3989
-93.5236
-93.4008
-92.9973
-92.2751
-91.2492
-89.909
-88.2925
-86.3149
-83.9817
-81.1908
-77.9123
-74.0437
-69.547
-64.3489
-58.3942
-51.7081
-44.1386
-35.6464
-26.0983
-15.42
-3.3755
10.1475
25.3866
42.3004
60.8623
80.4083
100.901
122.779
151.841
195.268
252.826
-39.8085
-37.2955
-35.6449
-34.8085
-34.4193
-34.3401
-34.3329
-34.3847
-34.4153
-34.4228
-34.4055
-34.3846
-34.3599
-34.3372
-34.3215
-34.3284
-34.3381
-34.3488
-34.3646
-34.3687
-34.3635
-34.3626
-34.3634
-34.3723
-34.3672
-34.3551
-34.3407
-34.3433
-34.3348
-34.3047
-34.2764
-34.2559
-34.2413
-34.2341
-34.2532
-34.2615
-34.2743
-34.2898
-34.3008
-34.3087
-34.3197
-34.314
-34.3094
-34.3022
-34.2989
-34.2809
-34.2644
-34.2549
-34.24
-34.2349
-34.226
-34.2299
-34.229
-34.2421
-34.2592
-34.2467
-34.2355
-34.2387
-34.2283
-34.2126
-34.1898
-34.1632
-34.1355
-34.0962
-34.0521
-33.9909
-33.9507
-33.9142
-33.8564
-33.808
-33.7595
-33.6783
-33.5652
-33.4348
-33.2921
-33.1338
-32.9495
-32.7076
-32.4254
-32.0996
-31.7191
-31.2826
-30.8449
-30.4057
-29.9303
-29.4648
-29.1201
-29.04
-29.5818
-32.4746
-39.6631
-48.4516
-59.238
-69.906
-74.6821
-76.4498
-77.8988
-79.1438
-80.2348
-80.9751
-81.7097
-82.0808
-81.9101
-81.5703
-80.8407
-79.9738
-78.9066
-77.7525
-76.7579
-75.967
-75.424
-75.165
-75.1443
-75.12
-75.1548
-75.3336
-75.5309
-75.8493
-76.1701
-76.5806
-76.9513
-77.4069
-77.7871
-78.2195
-78.6936
-79.1686
-79.6312
-80.0393
-80.4639
-80.8421
-81.2326
-81.5383
-81.9425
-82.2018
-82.5779
-82.8319
-83.1896
-83.4141
-83.7905
-84.0416
-84.365
-84.7375
-85.107
-85.4821
-85.815
-86.2267
-86.6178
-87.0762
-87.5015
-88.0031
-88.4705
-89.034
-89.5483
-90.1597
-90.7319
-91.4128
-92.0491
-92.7489
-93.4853
-94.2029
-94.9109
-95.5777
-96.201
-96.7032
-97.1587
-97.408
-97.3963
-97.2221
-96.2647
-94.8438
-92.8164
-90.2978
-87.2392
-83.6852
-79.5449
-74.8095
-69.3338
-63.1609
-56.2057
-48.4005
-39.6822
-29.9428
-19.0966
-7.00983
6.34544
20.9819
36.8251
53.9452
72.6966
94.8099
122.96
158.301
197.05
-41.4569
-39.0936
-37.3323
-36.1049
-35.3097
-34.8524
-34.5941
-34.4679
-34.3962
-34.3575
-34.3208
-34.293
-34.2692
-34.2472
-34.2344
-34.2287
-34.2424
-34.2652
-34.276
-34.2721
-34.2612
-34.2466
-34.2404
-34.2335
-34.2315
-34.2217
-34.2278
-34.2388
-34.2418
-34.2245
-34.2066
-34.1903
-34.1666
-34.1551
-34.1486
-34.1578
-34.1735
-34.1857
-34.1908
-34.1912
-34.1846
-34.1819
-34.1695
-34.1766
-34.1783
-34.1815
-34.1765
-34.1686
-34.1562
-34.1318
-34.1163
-34.1049
-34.1292
-34.1491
-34.1482
-34.1378
-34.1242
-34.1107
-34.1022
-34.0905
-34.0783
-34.0664
-34.0467
-34.0275
-33.988
-33.943
-33.8799
-33.8466
-33.8274
-33.7874
-33.7408
-33.6765
-33.5794
-33.4765
-33.3654
-33.2484
-33.0979
-32.9099
-32.6925
-32.4485
-32.1666
-31.858
-31.5212
-31.1696
-30.8122
-30.4818
-30.2555
-30.2645
-30.6825
-32.2698
-37.6769
-45.6454
-55.1231
-65.0152
-71.6339
-75.8134
-77.8223
-78.1526
-78.9342
-79.9737
-80.6079
-81.0424
-81.3502
-81.388
-81.0255
-80.1441
-79.0293
-77.8315
-76.6904
-75.6985
-75.0103
-74.6253
-74.384
-74.4207
-74.5052
-74.6891
-74.9245
-75.1784
-75.4943
-75.7624
-76.2085
-76.63
-77.1339
-77.6431
-78.0717
-78.4777
-78.8795
-79.2925
-79.6824
-80.0667
-80.414
-80.7627
-81.0812
-81.4104
-81.703
-81.9995
-82.2481
-82.5187
-82.7793
-83.1017
-83.4324
-83.7308
-84.0432
-84.2824
-84.5792
-84.8145
-85.1688
-85.4029
-85.797
-86.1528
-86.5718
-86.9679
-87.4477
-87.9357
-88.5197
-89.1634
-89.896
-90.6233
-91.3037
-91.9346
-92.5211
-93.0656
-93.3437
-93.512
-93.3081
-92.9387
-92.4213
-91.7257
-90.8532
-89.7228
-88.2961
-86.4399
-84.1336
-81.2925
-77.905
-73.8882
-69.2037
-63.8433
-57.7018
-50.6845
-42.7149
-33.7389
-23.7371
-12.755
-0.871142
11.7392
25.0523
39.1669
54.8499
73.6499
97.2077
125.57
153.728
-42.5534
-40.3092
-38.5412
-37.21
-36.2519
-35.6071
-35.1726
-34.9145
-34.7385
-34.6386
-34.5679
-34.5125
-34.4624
-34.4303
-34.404
-34.3865
-34.3712
-34.3697
-34.3742
-34.373
-34.3695
-34.3682
-34.3716
-34.3833
-34.3786
-34.373
-34.3602
-34.3553
-34.3431
-34.3268
-34.3136
-34.296
-34.2868
-34.2886
-34.3042
-34.2934
-34.2875
-34.2961
-34.3058
-34.3152
-34.3283
-34.3296
-34.3352
-34.3213
-34.3179
-34.3031
-34.2937
-34.283
-34.2735
-34.2756
-34.2734
-34.2821
-34.2611
-34.2605
-34.2712
-34.2696
-34.2673
-34.2697
-34.2673
-34.2603
-34.2507
-34.2227
-34.1989
-34.1686
-34.1428
-34.1086
-34.0932
-34.0492
-33.9865
-33.9515
-33.9178
-33.857
-33.7801
-33.6883
-33.5962
-33.4943
-33.3697
-33.21
-33.0334
-32.8363
-32.6189
-32.378
-32.1278
-31.8853
-31.6612
-31.4874
-31.437
-31.6462
-32.3028
-33.8302
-37.4348
-43.6495
-51.8611
-61.2237
-69.3896
-74.6288
-77.1259
-78.8503
-80.1133
-81.0512
-81.8404
-82.2606
-82.5026
-82.3593
-82.0516
-81.2253
-80.1078
-78.6537
-77.2121
-76.0996
-75.3648
-74.8926
-74.6694
-74.6372
-74.7379
-74.9434
-75.1617
-75.5184
-75.8457
-76.2924
-76.6689
-77.0927
-77.4872
-77.9304
-78.4005
-78.8623
-79.3361
-79.7735
-80.2119
-80.5949
-81.0139
-81.3535
-81.7399
-82.0444
-82.4104
-82.6945
-83.065
-83.35
-83.7096
-83.89
-84.1547
-84.51
-84.8654
-85.2436
-85.589
-86.0108
-86.3618
-86.8135
-87.1667
-87.6715
-88.0769
-88.6225
-89.0701
-89.6794
-90.2265
-90.9078
-91.5297
-92.2594
-93.0514
-93.8661
-94.6819
-95.4899
-96.3359
-97.1642
-98.0232
-98.7416
-99.2299
-99.2934
-98.7985
-97.7649
-96.2104
-94.1706
-91.6363
-88.6337
-85.1616
-81.2173
-76.6907
-71.5926
-65.8161
-59.2354
-51.762
-43.3572
-34.0464
-23.8537
-12.9069
-1.30355
10.9239
23.8766
38.0655
54.7157
74.4632
97.2558
118.77
-42.925
-40.9091
-39.2307
-37.8774
-36.8354
-36.0542
-35.491
-35.0939
-34.8127
-34.6256
-34.4907
-34.4101
-34.3544
-34.315
-34.2855
-34.2557
-34.2527
-34.2564
-34.258
-34.2497
-34.2374
-34.2245
-34.2162
-34.2046
-34.2041
-34.1976
-34.2043
-34.2097
-34.2152
-34.2071
-34.1991
-34.1916
-34.1751
-34.1646
-34.15
-34.1528
-34.16
-34.1644
-34.1657
-34.1631
-34.1556
-34.1571
-34.1517
-34.1607
-34.1579
-34.1656
-34.1656
-34.1608
-34.1543
-34.1347
-34.123
-34.1083
-34.1274
-34.1333
-34.1221
-34.1276
-34.117
-34.1086
-34.101
-34.0854
-34.0809
-34.0925
-34.0831
-34.0711
-34.0472
-34.0265
-33.9878
-33.9669
-33.9595
-33.9308
-33.9023
-33.8701
-33.814
-33.7525
-33.6908
-33.6288
-33.5421
-33.4359
-33.3133
-33.1807
-33.033
-32.8709
-32.7025
-32.5496
-32.4263
-32.366
-32.4262
-32.7161
-33.4086
-34.8218
-37.5785
-42.1647
-48.6138
-56.4294
-64.2685
-70.634
-74.7716
-77.1513
-78.5728
-79.6992
-80.8986
-81.8257
-82.3833
-82.3622
-81.3594
-81.1804
-80.2253
-78.8979
-77.4048
-76.0261
-75.0363
-74.4202
-73.9294
-73.8405
-73.8831
-74.1263
-74.4726
-74.6672
-74.9318
-75.2058
-75.6986
-76.195
-76.6669
-77.1389
-77.5765
-78.0076
-78.4376
-78.8631
-79.2551
-79.661
-80.0302
-80.4119
-80.7329
-81.0818
-81.3569
-81.6837
-81.9122
-82.2116
-82.4401
-82.7887
-83.0962
-83.3317
-83.6154
-83.7514
-84.0619
-84.2194
-84.5403
-84.7998
-85.1297
-85.4532
-85.8513
-86.2559
-86.7291
-87.2183
-87.7821
-88.3968
-89.1034
-89.8585
-90.632
-91.4023
-92.1538
-92.8858
-93.5445
-94.1297
-94.3872
-94.5668
-94.5562
-94.5189
-94.4118
-94.0923
-93.4969
-92.5027
-91.0376
-89.0161
-86.4342
-83.2792
-79.5096
-75.1157
-70.0646
-64.2861
-57.7343
-50.3858
-42.2654
-33.3638
-23.7491
-13.4327
-2.43094
9.35228
22.2862
37.1132
54.0141
72.7608
89.8957
-42.9361
-41.1133
-39.5976
-38.3482
-37.3445
-36.549
-35.9478
-35.5049
-35.182
-34.956
-34.7917
-34.6743
-34.5853
-34.5266
-34.4765
-34.4408
-34.4149
-34.4103
-34.4035
-34.3913
-34.3808
-34.3775
-34.3798
-34.3904
-34.3882
-34.388
-34.3711
-34.3657
-34.3503
-34.3448
-34.3317
-34.3162
-34.3128
-34.3163
-34.3318
-34.3216
-34.3153
-34.317
-34.3186
-34.3259
-34.3383
-34.3411
-34.3494
-34.3339
-34.3314
-34.3099
-34.3037
-34.2983
-34.2929
-34.3011
-34.3033
-34.3151
-34.294
-34.2869
-34.2929
-34.2915
-34.2952
-34.3015
-34.3075
-34.3082
-34.2877
-34.2617
-34.2514
-34.231
-34.216
-34.1948
-34.19
-34.1617
-34.1108
-34.0869
-34.0657
-34.029
-33.9857
-33.9322
-33.8833
-33.8297
-33.7664
-33.6848
-33.5981
-33.5064
-33.412
-33.3093
-33.2166
-33.1454
-33.1139
-33.1509
-33.3047
-33.654
-34.3217
-35.529
-37.6512
-41.0642
-45.9569
-52.166
-59.0087
-65.495
-70.8333
-74.8161
-77.5753
-79.5241
-81.0309
-82.1914
-83.1526
-83.6978
-83.9314
-83.0855
-81.8109
-80.1918
-78.2933
-76.5107
-75.3578
-74.6418
-74.3349
-74.2626
-74.1842
-74.2256
-74.6393
-75.0901
-75.4558
-75.8815
-76.2413
-76.6357
-77.0817
-77.5524
-78.0276
-78.5017
-78.9598
-79.4085
-79.8532
-80.2516
-80.6812
-81.0499
-81.4525
-81.7767
-82.1622
-82.4468
-82.8172
-83.0935
-83.4722
-83.6453
-83.9092
-84.2336
-84.5634
-84.9564
-85.237
-85.6383
-85.8955
-86.3254
-86.6168
-87.0603
-87.3981
-87.8636
-88.2825
-88.826
-89.3191
-89.9126
-90.534
-91.2603
-92.0611
-92.9507
-93.9096
-94.8974
-95.8823
-96.8674
-97.8613
-98.8005
-99.618
-100.127
-100.213
-99.8611
-99.0436
-97.7785
-96.1013
-93.985
-91.3809
-88.3117
-84.7174
-80.5686
-75.8184
-70.4498
-64.45
-57.8007
-50.5138
-42.6045
-34.0584
-24.8712
-15.0024
-4.33135
7.44651
20.6656
35.383
51.2399
65.3381
-42.3523
-40.8414
-39.511
-38.3766
-37.4373
-36.6717
-36.054
-35.5783
-35.2067
-34.9271
-34.7077
-34.5679
-34.4692
-34.3942
-34.3327
-34.2782
-34.262
-34.2584
-34.2516
-34.2402
-34.2264
-34.2112
-34.2001
-34.1857
-34.184
-34.1784
-34.1855
-34.1866
-34.1968
-34.1943
-34.1922
-34.1886
-34.1748
-34.1639
-34.1456
-34.1507
-34.1506
-34.1503
-34.1563
-34.1518
-34.1419
-34.1421
-34.1383
-34.1511
-34.1501
-34.1584
-34.1578
-34.1558
-34.1522
-34.1347
-34.1259
-34.1117
-34.1294
-34.1338
-34.1252
-34.1237
-34.1181
-34.1093
-34.1046
-34.0935
-34.1029
-34.1155
-34.1137
-34.1114
-34.1005
-34.0982
-34.0748
-34.0679
-34.0738
-34.0573
-34.0451
-34.0362
-34.0108
-33.9851
-33.9622
-33.943
-33.9097
-33.87
-33.825
-33.7814
-33.7336
-33.6931
-33.6641
-33.6627
-33.7023
-33.8135
-34.036
-34.4345
-35.0985
-36.1708
-37.8762
-40.4717
-44.1638
-48.9436
-54.5036
-60.2575
-65.5787
-70.0634
-73.57
-76.2388
-78.3061
-79.9352
-81.1747
-81.9771
-82.2895
-81.8302
-80.4372
-79.4711
-77.998
-76.2158
-74.7225
-73.7825
-73.5521
-73.5633
-73.4697
-73.5849
-73.7984
-74.1014
-74.4772
-74.8515
-75.3425
-75.8039
-76.2837
-76.7431
-77.2137
-77.6608
-78.0969
-78.5368
-78.9701
-79.3799
-79.7607
-80.1393
-80.4799
-80.8383
-81.1464
-81.4639
-81.7221
-82.018
-82.2603
-82.5712
-82.8367
-83.0574
-83.3108
-83.4573
-83.7114
-83.9259
-84.1933
-84.4384
-84.7415
-85.0558
-85.418
-85.7935
-86.2313
-86.7172
-87.2572
-87.8196
-88.4514
-89.1487
-89.9323
-90.8016
-91.7254
-92.6809
-93.6306
-94.5664
-95.4617
-96.3023
-97.0094
-97.5962
-98.0699
-98.4082
-98.5195
-98.251
-97.5503
-96.3451
-94.5369
-92.1258
-89.1132
-85.4985
-81.2621
-76.4503
-71.0793
-65.1362
-58.6263
-51.5664
-43.9442
-35.7295
-26.865
-17.2007
-6.53198
5.29117
18.2713
32.0141
43.9759
-41.4241
-40.2322
-39.1268
-38.191
-37.4157
-36.7415
-36.1974
-35.749
-35.4029
-35.1336
-34.9452
-34.7909
-34.6805
-34.6034
-34.5347
-34.4848
-34.4398
-34.4166
-34.4034
-34.3915
-34.3829
-34.3812
-34.3842
-34.3948
-34.393
-34.3935
-34.3774
-34.3765
-34.3494
-34.3453
-34.3373
-34.326
-34.3257
-34.3299
-34.3462
-34.3352
-34.3321
-34.3325
-34.329
-34.3369
-34.3494
-34.3515
-34.3594
-34.3469
-34.348
-34.3321
-34.3276
-34.3113
-34.3059
-34.3164
-34.3206
-34.3353
-34.3149
-34.3067
-34.3174
-34.3098
-34.3195
-34.3276
-34.3322
-34.3356
-34.3308
-34.3091
-34.2938
-34.2773
-34.2698
-34.2638
-34.2936
-34.2592
-34.2162
-34.2026
-34.1943
-34.1786
-34.1632
-34.1432
-34.1289
-34.113
-34.0982
-34.0778
-34.0607
-34.0442
-34.0344
-34.0306
-34.0494
-34.0995
-34.199
-34.3678
-34.6382
-35.0637
-35.7112
-36.6806
-38.1093
-40.1715
-43.03
-46.7289
-51.1499
-55.9844
-60.8303
-65.3265
-69.2277
-72.4767
-75.1314
-77.2998
-79.041
-80.3767
-81.3004
-81.7113
-81.7152
-80.4755
-78.6284
-77.0866
-75.728
-74.7162
-74.0674
-73.794
-73.6383
-73.5982
-73.9366
-74.6183
-74.9111
-75.3389
-75.6539
-76.1313
-76.6564
-77.097
-77.5878
-78.0766
-78.53
-78.9796
-79.4254
-79.8512
-80.3066
-80.7115
-81.1009
-81.4379
-81.7948
-82.121
-82.4682
-82.7729
-83.1146
-83.3311
-83.5985
-83.9061
-84.2078
-84.5234
-84.7713
-85.0972
-85.3376
-85.6793
-85.9327
-86.2553
-86.553
-86.9416
-87.2913
-87.7287
-88.2076
-88.739
-89.2725
-89.9212
-90.6901
-91.5929
-92.5876
-93.6723
-94.8301
-96.0113
-97.1715
-98.2927
-99.3562
-100.276
-100.951
-101.325
-101.391
-101.108
-100.43
-99.388
-97.9208
-95.9181
-93.3473
-90.2236
-86.5239
-82.2806
-77.5404
-72.2839
-66.5049
-60.2162
-53.4241
-46.0878
-38.122
-29.3894
-19.7431
-9.12165
2.46478
14.5716
25.0043
-40.1175
-39.2214
-38.3658
-37.6491
-37.0261
-36.4673
-36.0176
-35.6256
-35.2985
-35.0364
-34.8229
-34.6661
-34.5317
-34.4318
-34.3591
-34.2953
-34.2692
-34.2517
-34.2409
-34.2289
-34.2138
-34.1999
-34.1891
-34.1742
-34.1701
-34.1642
-34.1752
-34.1749
-34.1843
-34.1844
-34.1863
-34.1853
-34.1724
-34.1622
-34.1437
-34.1506
-34.1478
-34.1465
-34.1538
-34.1474
-34.137
-34.1366
-34.1318
-34.1458
-34.1458
-34.153
-34.1556
-34.1577
-34.1533
-34.1361
-34.1283
-34.1126
-34.1311
-34.1377
-34.128
-34.1254
-34.1225
-34.1169
-34.1164
-34.1113
-34.1298
-34.143
-34.1467
-34.145
-34.1382
-34.1409
-34.1179
-34.1411
-34.1619
-34.1559
-34.1563
-34.1632
-34.1622
-34.1666
-34.1739
-34.1861
-34.1915
-34.2007
-34.2146
-34.2407
-34.2732
-34.3223
-34.3875
-34.4823
-34.6198
-34.826
-35.1264
-35.5662
-36.1973
-37.0816
-38.313
-40.0101
-42.2993
-45.2285
-48.7595
-52.7358
-56.9246
-61.0544
-64.8914
-68.2928
-71.2051
-73.6418
-75.6047
-77.0944
-78.085
-78.5532
-78.4718
-77.7276
-77.174
-76.1644
-74.8806
-73.9041
-73.328
-72.9591
-72.7601
-72.7346
-72.8702
-73.2294
-73.9372
-74.6974
-75.0996
-75.4901
-75.9634
-76.4011
-76.8818
-77.3781
-77.8212
-78.2821
-78.7147
-79.1273
-79.5135
-79.9029
-80.299
-80.6895
-81.0237
-81.3329
-81.5869
-81.877
-82.145
-82.4298
-82.6954
-82.9316
-83.1616
-83.3582
-83.5767
-83.7782
-84.0218
-84.267
-84.5388
-84.8177
-85.1295
-85.4674
-85.8514
-86.2536
-86.7167
-87.2461
-87.8147
-88.4297
-89.1191
-89.942
-90.9391
-92.0531
-93.24
-94.4824
-95.7871
-97.1516
-98.5106
-99.8137
-100.991
-101.955
-102.667
-103.019
-102.901
-102.319
-101.264
-99.6644
-97.4893
-94.8098
-91.6307
-87.9465
-83.7864
-79.1649
-74.0771
-68.5203
-62.502
-55.9828
-48.8571
-40.9895
-32.2761
-22.6984
-12.2599
-1.42053
7.82797
-38.5734
-37.9615
-37.3884
-36.9123
-36.4796
-36.0934
-35.7812
-35.4905
-35.2461
-35.0369
-34.8701
-34.7495
-34.6734
-34.6113
-34.5431
-34.4847
-34.4381
-34.4112
-34.3951
-34.3841
-34.3742
-34.3728
-34.3777
-34.3906
-34.3924
-34.3958
-34.3816
-34.3807
-34.3633
-34.3609
-34.3399
-34.3297
-34.3292
-34.3319
-34.3479
-34.3391
-34.3368
-34.3369
-34.3322
-34.3415
-34.354
-34.3563
-34.3637
-34.3508
-34.3502
-34.3353
-34.3327
-34.3162
-34.3124
-34.3235
-34.3278
-34.3422
-34.3243
-34.3174
-34.3298
-34.3204
-34.3312
-34.3408
-34.3442
-34.3488
-34.3466
-34.3297
-34.3178
-34.3086
-34.3056
-34.3027
-34.3309
-34.3055
-34.2878
-34.289
-34.2906
-34.2919
-34.2996
-34.3078
-34.3221
-34.3345
-34.3541
-34.3761
-34.4089
-34.45
-34.5066
-34.5738
-34.6638
-34.7818
-34.9488
-35.1856
-35.5114
-35.9618
-36.5726
-37.3911
-38.4759
-39.914
-41.8
-44.1788
-47.0449
-50.3198
-53.8758
-57.533
-61.0987
-64.4244
-67.4199
-70.0509
-72.2866
-74.1174
-75.5331
-76.557
-77.1876
-77.3193
-77.0397
-76.3715
-75.77
-75.0076
-74.3421
-73.8802
-73.6382
-73.5913
-73.7477
-74.021
-74.3514
-74.6945
-75.0851
-75.669
-76.3455
-76.8856
-77.2388
-77.6758
-78.0869
-78.5461
-79.012
-79.4621
-79.9363
-80.3379
-80.7262
-81.0608
-81.4296
-81.781
-82.1254
-82.426
-82.7242
-82.9828
-83.262
-83.5314
-83.7892
-84.07
-84.302
-84.5379
-84.7492
-85.022
-85.2429
-85.494
-85.722
-86.013
-86.326
-86.6773
-87.0485
-87.4954
-87.992
-88.5563
-89.2037
-89.9516
-90.8742
-91.997
-93.2473
-94.5562
-95.9076
-97.297
-98.7269
-100.193
-101.634
-102.942
-104.013
-104.787
-105.163
-105.053
-104.447
-103.301
-101.551
-99.2931
-96.6005
-93.4335
-89.796
-85.7556
-81.3206
-76.4535
-71.1728
-65.4288
-59.1117
-52.0719
-44.226
-35.5569
-26.0913
-16.2668
-7.90116
-36.7663
-36.4537
-36.1649
-35.9281
-35.7011
-35.4845
-35.2994
-35.1142
-34.9481
-34.8032
-34.6724
-34.5717
-34.4778
-34.3955
-34.3293
-34.2732
-34.2482
-34.2294
-34.217
-34.203
-34.1978
-34.1894
-34.1778
-34.1635
-34.1602
-34.157
-34.173
-34.1745
-34.1826
-34.1848
-34.1894
-34.1873
-34.174
-34.1624
-34.143
-34.1526
-34.1504
-34.1501
-34.1575
-34.1489
-34.1401
-34.141
-34.1372
-34.1516
-34.15
-34.157
-34.1588
-34.1629
-34.1581
-34.1412
-34.1332
-34.1168
-34.1375
-34.1432
-34.1363
-34.1374
-34.134
-34.1301
-34.1333
-34.1345
-34.152
-34.166
-34.1742
-34.1742
-34.1714
-34.1796
-34.1689
-34.1917
-34.2055
-34.2173
-34.232
-34.249
-34.2649
-34.2913
-34.3228
-34.3604
-34.3927
-34.4309
-34.478
-34.5452
-34.6265
-34.7324
-34.8652
-35.0391
-35.2506
-35.5054
-35.8325
-36.2723
-36.8563
-37.6161
-38.5941
-39.8461
-41.4465
-43.434
-45.8127
-48.5431
-51.5652
-54.7601
-57.9842
-61.1036
-64.0253
-66.6838
-69.0221
-71.0082
-72.6061
-73.802
-74.5731
-74.8898
-74.8639
-74.5701
-74.226
-73.8319
-73.4546
-73.1554
-72.9651
-72.9012
-72.9807
-73.2072
-73.5814
-74.0253
-74.4576
-74.8911
-75.3627
-75.9287
-76.721
-77.36
-77.6797
-78.0004
-78.3468
-78.7581
-79.2058
-79.6934
-80.1396
-80.5341
-80.8927
-81.1943
-81.4472
-81.7475
-82.0442
-82.319
-82.5999
-82.8767
-83.12
-83.3178
-83.5405
-83.7159
-83.9195
-84.16
-84.4046
-84.6495
-84.9019
-85.1691
-85.4885
-85.8515
-86.2284
-86.6306
-87.0956
-87.641
-88.2632
-88.9786
-89.8524
-90.9493
-92.2694
-93.7345
-95.2675
-96.8443
-98.4816
-100.194
-101.967
-103.681
-105.166
-106.34
-107.184
-107.6
-107.476
-106.781
-105.501
-103.699
-101.43
-98.7115
-95.5711
-92.0603
-88.1997
-83.9937
-79.4249
-74.4153
-68.8835
-62.6737
-55.6463
-47.8051
-39.1844
-30.1949
-22.513
-34.7798
-34.7825
-34.7743
-34.7886
-34.7962
-34.7691
-34.748
-34.7027
-34.6487
-34.6012
-34.5462
-34.5017
-34.4729
-34.4489
-34.441
-34.4227
-34.3867
-34.3659
-34.3556
-34.3484
-34.3394
-34.3408
-34.3526
-34.3729
-34.3782
-34.3832
-34.3715
-34.3711
-34.3583
-34.3556
-34.3371
-34.3279
-34.327
-34.327
-34.3398
-34.3317
-34.3288
-34.3255
-34.3201
-34.3335
-34.3475
-34.3525
-34.362
-34.3513
-34.351
-34.3391
-34.3358
-34.318
-34.3145
-34.3234
-34.3253
-34.3372
-34.3202
-34.3147
-34.3199
-34.3102
-34.3262
-34.3398
-34.348
-34.3588
-34.3535
-34.3484
-34.3405
-34.3303
-34.3269
-34.3244
-34.3427
-34.3386
-34.3402
-34.3489
-34.3523
-34.3643
-34.3896
-34.4186
-34.4556
-34.4912
-34.5364
-34.5861
-34.648
-34.723
-34.8201
-34.932
-35.0735
-35.2465
-35.461
-35.7219
-36.0526
-36.4895
-37.0492
-37.7627
-38.6581
-39.7749
-41.1674
-42.8666
-44.8818
-47.2015
-49.7946
-52.5865
-55.4735
-58.3501
-61.1287
-63.7368
-66.1121
-68.2142
-70.0038
-71.4698
-72.6103
-73.4026
-73.8893
-74.1033
-74.1367
-73.9929
-73.7337
-73.5082
-73.3474
-73.2843
-73.3323
-73.4892
-73.7573
-74.1233
-74.5747
-75.1045
-75.6772
-76.2201
-76.7418
-77.2136
-77.697
-78.2389
-78.8676
-79.2354
-79.4924
-79.9055
-80.2821
-80.6935
-81.1382
-81.5082
-81.814
-82.1057
-82.4252
-82.6478
-82.9342
-83.1942
-83.43
-83.6825
-83.9013
-84.1216
-84.2656
-84.4595
-84.6511
-84.8574
-85.014
-85.2042
-85.4157
-85.7085
-86.0493
-86.3589
-86.696
-87.089
-87.5637
-88.1811
-88.9665
-89.9679
-91.2359
-92.7299
-94.349
-96.061
-97.9132
-99.8985
-101.957
-103.989
-105.901
-107.592
-108.966
-109.934
-110.344
-110.122
-109.31
-107.971
-106.12
-103.803
-101.106
-98.0627
-94.724
-91.1222
-87.2044
-82.909
-78.1661
-72.7818
-66.5781
-59.5246
-51.6798
-43.3984
-36.2633
-32.6097
-32.9226
-33.1964
-33.4587
-33.6926
-33.8669
-34.0135
-34.1119
-34.1715
-34.2108
-34.2282
-34.2341
-34.2274
-34.2124
-34.1634
-34.1479
-34.1716
-34.1746
-34.1698
-34.166
-34.1639
-34.1563
-34.1506
-34.1427
-34.1485
-34.1525
-34.1718
-34.174
-34.187
-34.1907
-34.1962
-34.1934
-34.1813
-34.1673
-34.1457
-34.1574
-34.1567
-34.1548
-34.159
-34.1526
-34.147
-34.1502
-34.1493
-34.1661
-34.1657
-34.173
-34.1736
-34.1764
-34.1698
-34.1525
-34.1426
-34.1254
-34.1453
-34.1544
-34.1524
-34.1537
-34.1477
-34.1448
-34.1513
-34.1582
-34.1788
-34.1869
-34.1986
-34.2034
-34.2053
-34.2142
-34.2118
-34.2303
-34.2399
-34.2671
-34.2868
-34.3021
-34.3233
-34.3636
-34.4108
-34.4679
-34.5226
-34.5799
-34.6425
-34.7275
-34.8313
-34.9673
-35.1301
-35.332
-35.5767
-35.8757
-36.2338
-36.6684
-37.2068
-37.8695
-38.6863
-39.693
-40.9288
-42.4117
-44.1565
-46.1627
-48.419
-50.8733
-53.4572
-56.0874
-58.6917
-61.1994
-63.5494
-65.6915
-67.5801
-69.1919
-70.5228
-71.541
-72.2538
-72.7095
-73.016
-73.1146
-73.0875
-73.0473
-73.0146
-73.0232
-73.095
-73.2392
-73.4542
-73.7395
-74.0863
-74.4995
-74.9739
-75.5117
-76.0931
-76.6537
-77.1321
-77.5404
-77.9586
-78.4571
-79.1477
-79.653
-79.9602
-80.2907
-80.635
-80.9568
-81.2421
-81.5422
-81.8801
-82.1957
-82.5329
-82.8363
-83.0769
-83.2515
-83.449
-83.6331
-83.8307
-84.0403
-84.2886
-84.5504
-84.7641
-84.9729
-85.1856
-85.4364
-85.7687
-86.1567
-86.479
-86.7745
-87.1311
-87.6463
-88.3658
-89.2731
-90.405
-91.7953
-93.4258
-95.2348
-97.2065
-99.3465
-101.638
-104.01
-106.388
-108.662
-110.644
-112.149
-113.016
-113.251
-112.935
-112.097
-110.662
-108.703
-106.399
-103.784
-100.899
-97.792
-94.4523
-90.844
-86.8634
-82.3434
-77.0229
-70.7894
-63.7106
-56.0637
-49.368
-30.2888
-30.91
-31.4702
-32.0058
-32.4843
-32.8739
-33.212
-33.4796
-33.6817
-33.8416
-33.9583
-34.0373
-34.1057
-34.168
-34.2386
-34.2668
-34.2529
-34.2573
-34.2708
-34.281
-34.2857
-34.301
-34.3169
-34.34
-34.3468
-34.3584
-34.3549
-34.353
-34.3446
-34.3412
-34.3283
-34.325
-34.3231
-34.3175
-34.3223
-34.3161
-34.3155
-34.3144
-34.3089
-34.3153
-34.3268
-34.3357
-34.3505
-34.3454
-34.3455
-34.3365
-34.3303
-34.3186
-34.3163
-34.3209
-34.3174
-34.3221
-34.301
-34.2936
-34.2955
-34.2965
-34.3075
-34.3218
-34.3345
-34.3522
-34.3521
-34.3543
-34.3506
-34.3484
-34.3426
-34.3421
-34.3584
-34.3661
-34.3956
-34.3784
-34.3832
-34.404
-34.4365
-34.4753
-34.5281
-34.5817
-34.6451
-34.7137
-34.7949
-34.8865
-35.0034
-35.1393
-35.3036
-35.4958
-35.7289
-36.0117
-36.3545
-36.7712
-37.2718
-37.8894
-38.6467
-39.5716
-40.6901
-42.0137
-43.5508
-45.3173
-47.3094
-49.4912
-51.8146
-54.2191
-56.6467
-59.0331
-61.3214
-63.4651
-65.4165
-67.1431
-68.6348
-69.8578
-70.8213
-71.566
-72.0679
-72.3881
-72.5794
-72.6989
-72.7702
-72.8471
-72.9577
-73.1135
-73.3133
-73.5673
-73.8834
-74.265
-74.7156
-75.2139
-75.756
-76.3214
-76.8926
-77.4564
-78.0085
-78.4939
-78.973
-79.4237
-79.8927
-80.3728
-80.9177
-81.2972
-81.524
-81.755
-81.9954
-82.2863
-82.5919
-82.8913
-83.1702
-83.4236
-83.6055
-83.7761
-83.9052
-84.0262
-84.1624
-84.35
-84.5112
-84.6458
-84.8088
-84.997
-85.2671
-85.6162
-85.928
-86.1646
-86.3604
-86.6542
-87.2187
-88.0809
-89.1715
-90.475
-92.0473
-93.9039
-95.9958
-98.2781
-100.774
-103.486
-106.344
-109.162
-111.646
-113.581
-115.004
-116.013
-116.427
-116.068
-115.01
-113.411
-111.448
-109.226
-106.722
-103.982
-101.135
-98.1094
-94.8544
-91.2459
-86.9147
-81.6251
-75.3722
-68.3566
-62.0987
-27.7925
-28.7054
-29.5868
-30.405
-31.1294
-31.7444
-32.2749
-32.7111
-33.0544
-33.3282
-33.5346
-33.6878
-33.8077
-33.8819
-33.9269
-33.9711
-34.0283
-34.063
-34.0772
-34.0942
-34.1083
-34.1128
-34.1173
-34.1205
-34.1353
-34.1517
-34.1805
-34.1953
-34.2162
-34.216
-34.2184
-34.2092
-34.1963
-34.1798
-34.1546
-34.1665
-34.1667
-34.1669
-34.1695
-34.1605
-34.1528
-34.1573
-34.1625
-34.182
-34.1908
-34.208
-34.2102
-34.2101
-34.1953
-34.1738
-34.1604
-34.1418
-34.1592
-34.1637
-34.1587
-34.1614
-34.1574
-34.1542
-34.1636
-34.1769
-34.2042
-34.2167
-34.2276
-34.2353
-34.2413
-34.2443
-34.2429
-34.256
-34.2579
-34.2975
-34.3169
-34.3316
-34.348
-34.3899
-34.4439
-34.5137
-34.5868
-34.6618
-34.7339
-34.8238
-34.9313
-35.0725
-35.2416
-35.4491
-35.6977
-35.9918
-36.3422
-36.7704
-37.2823
-37.8838
-38.6013
-39.4567
-40.4789
-41.6688
-43.0414
-44.6166
-46.4007
-48.3597
-50.4656
-52.6718
-54.9314
-57.1922
-59.4049
-61.5241
-63.4973
-65.2943
-66.9003
-68.2722
-69.4171
-70.3643
-71.0615
-71.5913
-71.9826
-72.2645
-72.4548
-72.6241
-72.7884
-72.9729
-73.1685
-73.3963
-73.6683
-73.9963
-74.3868
-74.8317
-75.3175
-75.8261
-76.3436
-76.8587
-77.3759
-77.8929
-78.4315
-78.9571
-79.4325
-79.8548
-80.288
-80.6959
-81.0844
-81.4868
-81.8816
-82.1395
-82.3781
-82.6567
-82.9082
-83.1555
-83.378
-83.5689
-83.7463
-83.9334
-84.1436
-84.4035
-84.5622
-84.6566
-84.7758
-84.9238
-85.1657
-85.5345
-85.8538
-86.0586
-86.2009
-86.3456
-86.6572
-87.31
-88.3141
-89.5735
-91.0403
-92.7861
-94.8342
-97.1513
-99.7954
-102.828
-106.154
-109.485
-112.557
-115.286
-117.65
-119.376
-120.098
-119.876
-119.078
-117.839
-116.261
-114.383
-112.173
-109.723
-107.228
-104.665
-102.048
-99.3056
-96.092
-91.9682
-86.7489
-80.5879
-74.7742
-25.1287
-26.3523
-27.5754
-28.6962
-29.6937
-30.556
-31.2982