/*--------------------------------*- C++ -*----------------------------------*\
| =========                 |                                                 |
| \\      /  F ield         | OpenFOAM: The Open Source CFD Toolbox           |
|  \\    /   O peration     | Version:  4.1                                   |
|   \\  /    A nd           | Web:      www.OpenFOAM.org                      |
|    \\/     M anipulation  |                                                 |
\*---------------------------------------------------------------------------*/
FoamFile
{
    version     2.0;
    format      ascii;
    class       volScalarField;
    location    "3.5";
    object      epsilon;
}
// * * * * * * * * * * * * * * * * * * * * * * * * * * * * * * * * * * * * * //

dimensions      [0 2 -3 0 0 0 0];

internalField   nonuniform List<scalar> 
204246
(
0.892095
0.998748
0.995157
0.994449
0.994095
0.992148
0.991521
0.990098
0.989926
0.990068
0.990495
0.991019
0.991709
0.993325
0.995444
0.997124
0.999223
0.996641
0.999153
0.997861
0.99729
0.996213
0.994211
0.993054
0.991217
0.990668
0.99094
0.990888
0.992229
0.99337
0.994739
0.996586
0.99831
1.00063
1.0019
1.00286
1.00027
1.00228
1.00081
0.999755
0.998948
0.997022
0.995624
0.992985
0.991218
0.991496
0.991886
0.99286
0.994035
0.994971
0.996777
0.998249
1.00073
0.999047
1.00218
1.00097
0.999997
0.999169
0.997036
0.995479
0.992479
0.990559
0.990744
0.991157
0.992156
0.993336
0.994288
0.996053
0.997492
0.999921
0.998243
1.00093
0.999712
0.998837
0.997624
0.995488
0.994081
0.993344
0.992847
0.994153
0.99499
0.996267
0.99769
0.998765
1.0002
1.00148
1.00314
1.00143
1.00451
1.00564
1.00684
1.00791
1.00938
1.01061
1.01364
1.01738
1.02031
1.02594
1.02997
1.03816
1.04349
1.05388
1.06326
1.0762
1.09202
1.11022
1.13315
1.17068
1.21363
1.28925
1.39225
1.56529
1.80077
2.11305
2.25314
2.28898
2.26484
2.16434
2.02058
1.95996
1.91072
1.82917
1.72907
1.66345
1.61384
1.52528
1.45013
1.3906
1.34551
1.27453
1.21343
1.16453
1.11559
1.06282
1.01227
0.972545
0.92638
0.886868
0.84521
0.81644
0.775752
0.752603
0.718006
0.70111
0.675452
0.659096
0.6479
0.645771
0.644917
0.647072
0.650369
0.657441
0.668896
0.68467
0.707731
0.735946
0.774747
0.817645
0.88003
0.943201
1.02842
1.11866
1.23129
1.35111
1.49134
1.63733
1.80162
1.96657
2.15167
2.32797
2.52945
2.71013
2.92725
3.11072
3.34803
3.53835
3.79465
4.03214
4.28015
4.55874
4.80742
5.12592
5.3772
5.73828
5.99432
6.39108
6.64038
7.04439
7.25997
7.63256
7.80257
8.02873
8.07265
0.0145319
0.10715
0.104208
0.102167
0.104293
0.101775
0.104276
0.102858
0.105596
0.104401
0.107705
0.10669
0.110232
0.108582
0.112758
0.11084
0.114481
0.112209
0.111414
0.113032
0.109127
0.111101
0.106637
0.108084
0.105753
0.107961
0.106508
0.109263
0.1074
0.111113
0.109113
0.113119
0.111092
0.114804
0.112374
0.11489
0.113123
0.111303
0.113048
0.109007
0.110557
0.1071
0.108282
0.105021
0.106447
0.103854
0.107001
0.104856
0.108546
0.106632
0.110888
0.110154
0.114632
0.113677
0.112506
0.114103
0.109879
0.111356
0.107416
0.108449
0.104833
0.106248
0.10375
0.106936
0.104809
0.108423
0.106457
0.11049
0.109667
0.114047
0.113121
0.112002
0.113401
0.110611
0.111997
0.108594
0.109906
0.107608
0.109746
0.107579
0.110877
0.108677
0.11224
0.110128
0.11386
0.112777
0.116579
0.115518
0.114787
0.117631
0.116099
0.119168
0.117772
0.121512
0.11976
0.125333
0.123797
0.131284
0.130426
0.141494
0.142369
0.160669
0.16644
0.193425
0.20439
0.245341
0.266375
0.324005
0.399503
0.519331
0.734069
1.05502
1.51811
1.70155
1.7164
1.52906
1.11696
0.683593
0.521064
0.443752
0.413436
0.35997
0.320371
0.282797
0.268868
0.266649
0.248818
0.247389
0.231941
0.230631
0.215374
0.213641
0.200245
0.199039
0.187904
0.187542
0.178995
0.179299
0.17303
0.173707
0.169393
0.168314
0.170504
0.169476
0.173907
0.174124
0.184045
0.187347
0.20483
0.212072
0.236754
0.248477
0.281271
0.299317
0.342431
0.370422
0.427867
0.470455
0.540432
0.605794
0.690291
0.778286
0.876473
0.981006
1.0868
1.20189
1.31128
1.43114
1.54301
1.66601
1.78138
1.90528
2.02684
2.14935
2.28276
2.40737
2.55548
2.67586
2.85213
2.97511
3.16448
3.28522
3.47997
3.59419
3.78887
3.88229
4.06885
4.14527
4.38307
4.56191
5.04968
5.33344
5.46692
0.00705476
0.00839123
0.00762934
0.00714347
0.00735134
0.00710767
0.00734211
0.00727078
0.00752017
0.00749115
0.00782448
0.00780033
0.00824303
0.00815255
0.00859193
0.00838322
0.00866582
0.00837909
0.00827648
0.00831639
0.00788004
0.00800754
0.00756772
0.00772258
0.00754169
0.0077635
0.00766407
0.00795165
0.00783418
0.00824518
0.0081133
0.00859823
0.00845133
0.00880342
0.00852195
0.00871858
0.00847462
0.00830597
0.00837313
0.00794169
0.00805091
0.00762826
0.00769036
0.00738197
0.00755244
0.00736615
0.00768964
0.00755239
0.00797032
0.00788545
0.00841336
0.00837828
0.00877423
0.00861642
0.00847642
0.008521
0.00804688
0.00814124
0.00766153
0.00771206
0.00738707
0.00755981
0.00739205
0.00772569
0.00759517
0.00803217
0.0079371
0.00842654
0.00837374
0.00872702
0.00855562
0.00840985
0.00844563
0.0080517
0.0081217
0.00776088
0.00792068
0.00776194
0.00800973
0.00786497
0.00823783
0.00808745
0.00855829
0.00841633
0.0088478
0.0087377
0.00896291
0.0087503
0.00862963
0.00891817
0.00877797
0.00911566
0.00899866
0.00946942
0.00934288
0.0100759
0.00999479
0.0111991
0.01136
0.0137014
0.0144954
0.0183968
0.0208241
0.027507
0.0334904
0.0466278
0.0622741
0.0935691
0.145589
0.240713
0.415037
0.711168
1.11185
1.24345
1.22046
0.936871
0.468693
0.224428
0.149921
0.120102
0.107712
0.0958524
0.084681
0.0728482
0.0690176
0.0679781
0.0657958
0.0656264
0.0637995
0.0638039
0.0621817
0.0622154
0.0608286
0.0609103
0.0599463
0.0602598
0.0599018
0.060542
0.0603925
0.0617048
0.061923
0.0636412
0.0661715
0.0680236
0.0728737
0.0756481
0.0829392
0.0876212
0.0981549
0.105768
0.12037
0.131743
0.151564
0.16801
0.194606
0.21773
0.252995
0.284474
0.327313
0.370681
0.419946
0.473645
0.528151
0.590007
0.647162
0.715352
0.773304
0.847848
0.906128
0.986649
1.0443
1.12848
1.18292
1.26684
1.31481
1.39544
1.43393
1.49599
1.54449
1.57067
1.59774
1.59657
1.60421
1.58409
1.58438
1.54486
1.53981
1.51574
1.53099
1.52744
1.53984
1.42349
1.37931
0.00352607
0.00391797
0.00388029
0.00385822
0.00386374
0.00385374
0.00386067
0.00385843
0.00386621
0.00386679
0.0038774
0.00388126
0.00389502
0.00389409
0.00391363
0.00390592
0.00391812
0.00390594
0.00390175
0.00390249
0.00388524
0.00388956
0.00387331
0.00387919
0.00387272
0.0038806
0.0038775
0.00388804
0.0038844
0.00390018
0.00389607
0.00391738
0.00391156
0.00392629
0.00391331
0.00392147
0.00391058
0.00390324
0.00390569
0.00388832
0.00389255
0.00387623
0.00387797
0.0038643
0.00386884
0.00386123
0.00387188
0.00386771
0.00388241
0.00388036
0.00390563
0.00390951
0.00392649
0.00391887
0.00391194
0.00391372
0.00389417
0.00389794
0.00387903
0.0038803
0.00386563
0.00387021
0.00386313
0.00387427
0.00387051
0.00388628
0.0038845
0.00391144
0.00391383
0.00392889
0.00392049
0.00391281
0.00391432
0.00389746
0.00389992
0.00388333
0.00388787
0.00388084
0.00388965
0.00388423
0.0038984
0.00389334
0.00391369
0.00391029
0.0039337
0.00393029
0.00394193
0.00393164
0.0039258
0.00393838
0.00393162
0.00394788
0.00394257
0.00396825
0.00396336
0.00401191
0.00401446
0.00412082
0.00416651
0.00439653
0.00456758
0.00506888
0.00563418
0.00688651
0.00873761
0.0126289
0.0196241
0.0343107
0.0641814
0.124432
0.244093
0.462071
0.805598
0.969866
0.972981
0.803259
0.452624
0.164218
0.0737845
0.0452352
0.0355123
0.0308186
0.0285882
0.0257995
0.0243243
0.0238475
0.0234395
0.0234568
0.0231222
0.0231418
0.0227875
0.022806
0.0225775
0.0226904
0.0226137
0.02285
0.0228282
0.0232456
0.0233085
0.0240079
0.0242223
0.0250973
0.0261093
0.0273002
0.0293236
0.0311751
0.0346327
0.0377547
0.0432483
0.04857
0.0569544
0.0654967
0.0778517
0.0907972
0.108307
0.126835
0.150503
0.175696
0.205768
0.237292
0.27234
0.307969
0.344983
0.380759
0.415404
0.447633
0.476701
0.503504
0.526635
0.548034
0.56431
0.580948
0.590424
0.602655
0.605966
0.611051
0.609746
0.609296
0.609052
0.602512
0.599952
0.585352
0.578009
0.557938
0.549389
0.53058
0.525937
0.521404
0.531248
0.549104
0.577403
0.587294
0.594061
0.00386659
0.00384283
0.00383432
0.00382969
0.00382794
0.0038267
0.00382636
0.00382564
0.00382555
0.00382543
0.00382553
0.00382546
0.00382526
0.00382507
0.00382538
0.00382514
0.00382533
0.00382507
0.00382495
0.00382527
0.00382507
0.00382508
0.00382467
0.00382475
0.00382448
0.00382442
0.0038244
0.00382452
0.00382442
0.00382458
0.00382438
0.0038247
0.00382451
0.0038243
0.00382413
0.00382448
0.00382446
0.00382429
0.00382427
0.0038246
0.00382533
0.00382531
0.0038254
0.00382528
0.00382523
0.0038249
0.00382485
0.00382455
0.00382475
0.00382467
0.00382433
0.00382418
0.00382453
0.00382443
0.00382409
0.00382424
0.00382398
0.00382397
0.00382364
0.00382373
0.00382361
0.00382329
0.00382315
0.0038235
0.00382344
0.00382316
0.00382303
0.00382348
0.00382333
0.00382315
0.00382315
0.00382303
0.00382301
0.00382281
0.00382279
0.00382258
0.00382312
0.00382426
0.00382557
0.00382592
0.00382662
0.00382674
0.00382699
0.00382677
0.0038272
0.0038271
0.00382726
0.00382725
0.00382788
0.00382853
0.00382845
0.00382868
0.00382849
0.00382878
0.00382849
0.00382944
0.00382995
0.00383472
0.00384107
0.00385895
0.00388772
0.00395422
0.0040753
0.00434509
0.00489966
0.00617174
0.00899835
0.0154902
0.0302362
0.0626727
0.132236
0.270489
0.523284
0.779325
0.832949
0.760431
0.508825
0.196531
0.072798
0.0318191
0.0184605
0.0142935
0.0131037
0.0127254
0.0126672
0.0129021
0.0134424
0.0140171
0.0141556
0.0142759
0.0142779
0.0143541
0.0143404
0.0144146
0.0144101
0.0145595
0.0146296
0.0149918
0.0152885
0.015994
0.0166586
0.0178582
0.0193371
0.0212983
0.0239032
0.0270789
0.0314501
0.0366943
0.0437545
0.0521398
0.0628499
0.0753418
0.0903818
0.107542
0.12711
0.148843
0.172434
0.197942
0.224074
0.250481
0.276217
0.300563
0.323272
0.343433
0.361785
0.377395
0.39119
0.403204
0.412549
0.418999
0.420161
0.420874
0.419058
0.418119
0.412965
0.410736
0.403142
0.399058
0.39514
0.391275
0.390815
0.388762
0.389168
0.387653
0.388067
0.386745
0.387819
0.387997
0.395919
0.401649
0.412791
0.417088
0.420231
0.00384412
0.00383736
0.00382753
0.00382473
0.0038229
0.00382167
0.00382107
0.00382059
0.00382053
0.00382022
0.00381993
0.00381993
0.00381968
0.00381944
0.00381944
0.00381915
0.00381894
0.00381895
0.00381886
0.00381871
0.00381869
0.00381869
0.0038185
0.00381851
0.00381841
0.00381839
0.00381918
0.00382128
0.00382295
0.00382341
0.00382353
0.00382355
0.00382351
0.00382321
0.00382319
0.00382313
0.00382302
0.00382296
0.00382289
0.00382323
0.00382376
0.0038238
0.00382381
0.00382379
0.00382348
0.00382352
0.00382352
0.00382328
0.00382329
0.00382326
0.00382317
0.00382319
0.00382305
0.00382304
0.00382293
0.00382296
0.00382354
0.00382372
0.00382369
0.00382356
0.00382347
0.00382342
0.00382317
0.00382318
0.00382314
0.00382285
0.00382287
0.00382275
0.00382247
0.00382246
0.00382217
0.00382195
0.00382195
0.00382179
0.0038216
0.00382159
0.00382155
0.00382137
0.00382138
0.00382127
0.00382124
0.00382176
0.00382246
0.00382268
0.00382282
0.00382299
0.00382309
0.00382314
0.00382311
0.00382306
0.00382307
0.00382292
0.00382286
0.0038229
0.00382308
0.0038243
0.00382677
0.00383075
0.00383639
0.00384434
0.00385542
0.00387406
0.00390936
0.00398733
0.00416747
0.00461011
0.00569268
0.00834866
0.0147922
0.0298678
0.0642742
0.137572
0.283729
0.531313
0.719596
0.738361
0.630189
0.37215
0.13309
0.0537061
0.0257318
0.0153422
0.0109483
0.00915687
0.00848414
0.00829327
0.00826217
0.0083542
0.00855974
0.00890408
0.00916774
0.00946371
0.00964091
0.00990098
0.0100256
0.0102456
0.0103377
0.0105836
0.0107255
0.0111272
0.0115519
0.0124133
0.0135576
0.0151882
0.017411
0.020313
0.0242152
0.0291445
0.0356075
0.0434059
0.053249
0.0646929
0.0785284
0.0939646
0.111635
0.13045
0.150918
0.171857
0.193195
0.214185
0.233692
0.251467
0.265879
0.277486
0.285794
0.291813
0.295815
0.298652
0.299181
0.29951
0.298658
0.298127
0.296315
0.295917
0.294846
0.294965
0.294777
0.29565
0.296906
0.298488
0.301495
0.30385
0.308497
0.311921
0.317918
0.322412
0.329751
0.335272
0.343723
0.349661
0.356531
0.35941
0.361064
0.00385742
0.0038452
0.0038358
0.00383178
0.00382852
0.00382655
0.00382541
0.00382452
0.00382409
0.00382383
0.00382378
0.00382363
0.00382315
0.00382304
0.003823
0.00382265
0.00382249
0.00382249
0.00382231
0.0038222
0.00382222
0.00382203
0.00382203
0.00382196
0.00382189
0.00382242
0.0038243
0.00382549
0.00382566
0.00382565
0.0038255
0.00382545
0.00382546
0.00382537
0.00382537
0.00382533
0.00382532
0.00382564
0.00382585
0.00382582
0.0038257
0.00382565
0.00382543
0.00382536
0.00382526
0.00382499
0.00382499
0.00382486
0.00382456
0.00382457
0.00382453
0.0038242
0.00382421
0.00382418
0.00382383
0.00382383
0.00382368
0.0038234
0.00382339
0.00382311
0.00382293
0.00382286
0.00382264
0.00382262
0.00382248
0.00382249
0.00382241
0.00382238
0.00382301
0.00382408
0.00382444
0.00382451
0.00382453
0.00382453
0.00382427
0.00382428
0.00382425
0.00382399
0.003824
0.00382397
0.00382361
0.00382363
0.0038235
0.00382326
0.00382323
0.00382319
0.00382308
0.00382302
0.00382303
0.00382294
0.00382294
0.00382286
0.00382276
0.00382314
0.00382458
0.00382652
0.00382765
0.00382822
0.00382906
0.00383086
0.00383431
0.00384104
0.00385396
0.00388154
0.00394397
0.00409754
0.00448231
0.00545848
0.00792081
0.0139331
0.0283222
0.0607422
0.130332
0.263034
0.482398
0.646908
0.664869
0.58755
0.396168
0.17714
0.0778143
0.0411241
0.0241874
0.0165869
0.0123361
0.00971537
0.00856087
0.00795541
0.00780912
0.00771418
0.00770523
0.00772786
0.00786214
0.0080901
0.00835914
0.00856209
0.00870388
0.00889707
0.00925351
0.00989858
0.0108173
0.0120942
0.0138427
0.0162213
0.0194459
0.0236285
0.0290348
0.0358899
0.0443467
0.0546795
0.0667362
0.0809763
0.0967196
0.114607
0.133105
0.153112
0.17223
0.191833
0.208537
0.223684
0.23589
0.245396
0.253077
0.258016
0.261792
0.263646
0.264677
0.265135
0.264912
0.264856
0.264172
0.264091
0.263775
0.264269
0.264885
0.267198
0.268863
0.272026
0.274812
0.278136
0.282074
0.285741
0.290651
0.294732
0.300482
0.305121
0.311565
0.31687
0.323776
0.328845
0.334091
0.336436
0.337652
0.00385385
0.00383985
0.0038325
0.0038292
0.00382586
0.00382442
0.00382374
0.00382325
0.00382294
0.0038228
0.00382273
0.00382257
0.00382277
0.00382375
0.00382421
0.00382416
0.003824
0.00382398
0.00382368
0.00382357
0.00382351
0.00382323
0.00382317
0.00382316
0.00382305
0.00382301
0.00382303
0.00382297
0.00382293
0.00382357
0.00382467
0.0038249
0.00382494
0.00382493
0.00382465
0.00382464
0.00382459
0.00382426
0.00382426
0.0038242
0.0038239
0.0038239
0.00382389
0.00382354
0.00382355
0.00382356
0.0038233
0.00382333
0.00382332
0.00382327
0.00382327
0.00382308
0.00382312
0.00382311
0.00382279
0.0038228
0.00382276
0.00382243
0.00382243
0.00382239
0.00382231
0.00382236
0.00382236
0.00382231
0.00382229
0.0038222
0.00382206
0.00382248
0.0038239
0.00382492
0.00382506
0.00382504
0.00382503
0.00382499
0.00382495
0.00382494
0.00382487
0.0038248
0.00382508
0.00382581
0.00382608
0.00382621
0.00382624
0.00382615
0.00382619
0.0038262
0.00382595
0.00382598
0.00382597
0.00382569
0.00382576
0.00382575
0.0038254
0.0038254
0.00382538
0.00382536
0.00382592
0.00382716
0.00382973
0.00383353
0.00383845
0.00384447
0.00385252
0.0038656
0.00389143
0.00394894
0.00408821
0.00443567
0.00531884
0.00751798
0.0129371
0.0256161
0.0543104
0.113456
0.225927
0.405696
0.58514
0.620961
0.601678
0.513009
0.368077
0.238022
0.16244
0.132673
0.116882
0.0981328
0.0686865
0.0290511
0.0155786
0.0102203
0.00833565
0.00746508
0.00715747
0.00703948
0.00701877
0.00703482
0.00715715
0.00740936
0.00783998
0.00849734
0.00947159
0.0108488
0.0127604
0.0153149
0.018778
0.0232902
0.029228
0.0367677
0.0462171
0.0577026
0.0711707
0.0865993
0.10334
0.121407
0.139543
0.158092
0.175166
0.191452
0.204325
0.214944
0.221492
0.225945
0.228044
0.229909
0.231351
0.232276
0.232849
0.233214
0.233444
0.234073
0.235189
0.236961
0.239008
0.24155
0.244273
0.247761
0.251673
0.25625
0.261243
0.266246
0.271735
0.276943
0.282889
0.288264
0.294579
0.299946
0.306416
0.311783
0.318108
0.322621
0.326942
0.329019
0.330004
0.00386199
0.003846
0.00383794
0.003834
0.00382934
0.00382731
0.00382606
0.00382491
0.00382439
0.00382388
0.00382369
0.00382321
0.00382294
0.00382288
0.00382282
0.00382232
0.00382225
0.00382218
0.00382184
0.00382181
0.00382172
0.00382151
0.00382149
0.00382146
0.00382143
0.00382138
0.00382128
0.00382174
0.00382347
0.0038248
0.00382503
0.00382494
0.00382478
0.00382477
0.00382471
0.00382468
0.00382455
0.00382443
0.00382439
0.00382422
0.00382427
0.00382426
0.00382402
0.00382404
0.00382403
0.00382375
0.00382378
0.00382379
0.00382355
0.00382361
0.00382358
0.00382328
0.00382329
0.00382325
0.00382295
0.00382294
0.00382268
0.00382246
0.00382241
0.00382209
0.00382195
0.00382189
0.00382182
0.00382174
0.00382163
0.00382154
0.00382156
0.00382157
0.00382144
0.00382145
0.00382147
0.00382143
0.00382137
0.00382145
0.00382216
0.00382373
0.00382602
0.00382714
0.00382748
0.00382756
0.00382761
0.00382761
0.00382736
0.00382741
0.00382741
0.00382712
0.00382713
0.00382711
0.00382686
0.0038269
0.00382691
0.00382668
0.00382666
0.00382661
0.00382661
0.00382656
0.0038265
0.00382681
0.00382813
0.00383007
0.00383239
0.00383558
0.00384053
0.00384757
0.00385878
0.00388162
0.00393171
0.00404943
0.00433973
0.00505984
0.00685954
0.0111863
0.0213917
0.0436637
0.0898246
0.173909
0.311579
0.485213
0.595706
0.630167
0.634071
0.617412
0.578171
0.534255
0.489257
0.428926
0.348093
0.228157
0.108549
0.0419641
0.0214701
0.012801
0.00955555
0.00797489
0.00744813
0.00728614
0.00728531
0.00744043
0.0079434
0.00881672
0.0101488
0.0120178
0.0146559
0.0183174
0.0231716
0.0295627
0.0375851
0.0477243
0.059726
0.0741288
0.0900636
0.108046
0.12636
0.145535
0.162961
0.179606
0.192723
0.204368
0.212075
0.218331
0.221282
0.222694
0.223284
0.223582
0.223629
0.223731
0.223978
0.224466
0.224781
0.225463
0.226789
0.229178
0.231927
0.235352
0.23883
0.242935
0.247129
0.252208
0.257721
0.263393
0.269241
0.275239
0.28149
0.287663
0.29421
0.300402
0.306738
0.312587
0.318092
0.322875
0.326447
0.328478
0.329307
0.00385728
0.00384248
0.00383484
0.00383116
0.0038272
0.00382569
0.00382433
0.00382371
0.00382312
0.00382287
0.00382273
0.00382244
0.00382217
0.00382206
0.00382206
0.00382191
0.00382169
0.00382168
0.00382159
0.00382153
0.00382148
0.00382141
0.00382207
0.00382317
0.00382345
0.0038234
0.00382338
0.0038232
0.00382319
0.00382317
0.00382291
0.00382295
0.0038229
0.00382258
0.00382259
0.00382241
0.00382216
0.00382214
0.00382211
0.00382206
0.00382199
0.003822
0.00382195
0.00382192
0.0038226
0.00382425
0.00382507
0.00382508
0.00382499
0.00382498
0.00382478
0.0038246
0.0038245
0.00382421
0.00382417
0.00382402
0.00382375
0.00382376
0.00382371
0.00382337
0.00382338
0.00382336
0.00382306
0.00382307
0.00382307
0.00382268
0.00382268
0.00382266
0.00382234
0.00382234
0.00382229
0.00382196
0.00382196
0.00382189
0.00382175
0.0038217
0.0038217
0.00382163
0.00382159
0.00382224
0.00382437
0.00382711
0.00382819
0.00382855
0.00382868
0.00382867
0.00382855
0.00382856
0.00382853
0.00382839
0.00382839
0.00382826
0.00382826
0.00382819
0.00382812
0.00382856
0.00382953
0.00383014
0.00383072
0.00383162
0.00383337
0.00383589
0.0038399
0.00384525
0.00385314
0.00386535
0.00388761
0.0039325
0.00403239
0.00426443
0.0048294
0.00618591
0.00944712
0.0168127
0.0329306
0.0647532
0.123668
0.218826
0.362486
0.509508
0.609436
0.664281
0.690232
0.694453
0.685252
0.651499
0.593465
0.510557
0.412923
0.302827
0.195645
0.0914413
0.0362772
0.0174385
0.0110811
0.00879924
0.00814101
0.00798601
0.00804546
0.00848484
0.00963712
0.0115723
0.0144408
0.0183863
0.0237261
0.0308421
0.0399762
0.0514369
0.0650377
0.0809125
0.0982102
0.116976
0.135605
0.15431
0.170734
0.185386
0.195622
0.202778
0.206005
0.20825
0.209327
0.210389
0.210736
0.211236
0.211376
0.211919
0.213009
0.214728
0.217059
0.219239
0.221843
0.224718
0.22869
0.232864
0.238047
0.243192
0.248984
0.255079
0.261854
0.268682
0.275845
0.283085
0.290379
0.297808
0.305056
0.312316
0.318904
0.325586
0.33109
0.336094
0.339298
0.341558
0.342355
0.00386545
0.0038495
0.00384283
0.00383747
0.00383332
0.00383151
0.00382982
0.00382877
0.00382785
0.00382737
0.00382667
0.0038264
0.0038263
0.00382608
0.00382564
0.00382555
0.00382547
0.00382533
0.00382528
0.00382511
0.00382509
0.00382502
0.00382502
0.00382499
0.00382498
0.00382533
0.0038255
0.00382546
0.00382547
0.00382539
0.00382508
0.00382508
0.00382492
0.00382461
0.00382458
0.00382432
0.00382417
0.00382408
0.00382378
0.00382379
0.00382362
0.0038234
0.0038234
0.0038232
0.00382292
0.00382291
0.0038226
0.00382243
0.00382248
0.00382248
0.00382229
0.0038223
0.00382226
0.00382224
0.00382294
0.00382475
0.00382545
0.00382545
0.00382534
0.00382533
0.00382508
0.00382488
0.00382483
0.00382446
0.00382433
0.00382422
0.0038239
0.00382383
0.00382369
0.0038234
0.00382339
0.00382322
0.00382301
0.00382302
0.00382291
0.00382292
0.00382289
0.00382261
0.00382261
0.00382252
0.00382226
0.00382226
0.00382216
0.00382194
0.00382196
0.00382183
0.00382185
0.00382181
0.00382177
0.0038224
0.00382389
0.00382605
0.00382813
0.00383017
0.00383217
0.003834
0.00383463
0.00383488
0.00383506
0.00383534
0.00383604
0.00383754
0.00384011
0.00384351
0.00384818
0.00385511
0.00386688
0.003888
0.00392841
0.00400899
0.0041845
0.00458093
0.00551864
0.007656
0.0124935
0.0225321
0.0425014
0.0778935
0.136818
0.221914
0.343686
0.470937
0.577001
0.618797
0.626572
0.613353
0.569562
0.500473
0.412854
0.32323
0.235013
0.16151
0.0966188
0.0500921
0.0260942
0.0167197
0.0127954
0.0110948
0.010667
0.0106297
0.0113859
0.0134256
0.0169763
0.0221286
0.0287902
0.0375508
0.0485764
0.0625732
0.0789386
0.0976825
0.117155
0.137157
0.155632
0.172893
0.186942
0.198655
0.204546
0.207004
0.207961
0.208325
0.20846
0.208627
0.208988
0.209534
0.210003
0.210405
0.211083
0.212713
0.215445
0.21881
0.222606
0.22678
0.231385
0.236529
0.242533
0.248853
0.255457
0.262323
0.269682
0.277507
0.285295
0.29362
0.301498
0.31004
0.317826
0.326152
0.333131
0.34039
0.346123
0.351603
0.354622
0.356989
0.357746
0.00386677
0.00385107
0.00384439
0.00383753
0.00383332
0.00383004
0.00382832
0.00382717
0.0038262
0.0038258
0.00382521
0.00382477
0.00382451
0.00382444
0.00382398
0.00382371
0.00382371
0.00382342
0.0038232
0.00382319
0.00382318
0.00382294
0.0038229
0.00382286
0.0038227
0.00382269
0.00382261
0.00382266
0.0038235
0.00382425
0.00382438
0.00382434
0.00382427
0.00382456
0.00382562
0.00382633
0.0038264
0.00382641
0.00382637
0.00382604
0.00382605
0.00382605
0.00382568
0.00382568
0.00382565
0.0038253
0.0038253
0.00382521
0.00382488
0.00382487
0.0038246
0.00382442
0.00382437
0.00382418
0.00382417
0.0038241
0.00382407
0.0038245
0.00382476
0.00382482
0.00382481
0.00382477
0.00382478
0.00382464
0.0038247
0.00382471
0.00382446
0.00382449
0.00382447
0.00382413
0.00382413
0.00382406
0.00382371
0.00382371
0.00382349
0.00382326
0.00382323
0.00382314
0.00382311
0.00382304
0.00382288
0.00382288
0.0038228
0.00382279
0.00382277
0.00382266
0.00382255
0.00382301
0.00382431
0.00382568
0.0038265
0.00382674
0.0038268
0.00382681
0.00382668
0.00382667
0.00382664
0.00382663
0.00382659
0.00382694
0.00382805
0.00383053
0.00383358
0.00383721
0.00384159
0.00384783
0.00385676
0.00387069
0.00389243
0.003929
0.0039952
0.00412403
0.00439562
0.00498212
0.00629354
0.00905747
0.0147743
0.0254613
0.0444841
0.0742347
0.118651
0.174498
0.242799
0.310613
0.358311
0.371903
0.366103
0.345257
0.304363
0.261645
0.207223
0.162556
0.116543
0.0876821
0.0608194
0.0484738
0.0376843
0.0311644
0.0219545
0.0168299
0.0156494
0.0156995
0.0174126
0.0220433
0.0295862
0.0398413
0.0522496
0.067022
0.0839965
0.103557
0.124481
0.145875
0.164895
0.180891
0.191924
0.199624
0.203181
0.204668
0.205076
0.205111
0.20491
0.204782
0.20483
0.205605
0.207245
0.20929
0.211592
0.214122
0.217414
0.221285
0.22616
0.231137
0.236839
0.242612
0.249354
0.256387
0.264515
0.272066
0.280487
0.289171
0.298331
0.307789
0.317253
0.327036
0.33636
0.346156
0.354537
0.36292
0.369434
0.375756
0.379152
0.381739
0.382514
0.00386584
0.00385155
0.00384535
0.00383818
0.00383453
0.00383103
0.00382937
0.00382792
0.00382678
0.00382618
0.00382542
0.00382514
0.00382499
0.00382496
0.00382488
0.00382475
0.00382498
0.00382527
0.00382533
0.00382531
0.00382504
0.00382504
0.00382491
0.0038246
0.0038246
0.00382443
0.00382417
0.00382418
0.00382395
0.00382371
0.00382371
0.00382346
0.00382331
0.00382328
0.00382328
0.00382324
0.00382316
0.00382354
0.0038249
0.00382555
0.00382568
0.00382566
0.00382556
0.00382556
0.00382552
0.00382548
0.00382542
0.00382536
0.00382573
0.0038262
0.00382621
0.00382622
0.00382619
0.00382586
0.00382587
0.00382577
0.00382548
0.00382549
0.0038253
0.00382506
0.00382507
0.0038249
0.00382466
0.00382466
0.00382457
0.00382449
0.00382449
0.00382426
0.00382427
0.0038241
0.003824
0.00382413
0.00382446
0.00382543
0.00382686
0.00382742
0.00382768
0.00382792
0.00382799
0.00382802
0.00382802
0.00382778
0.00382779
0.00382779
0.00382762
0.0038277
0.00382773
0.0038276
0.00382772
0.0038277
0.00382748
0.00382756
0.00382756
0.00382746
0.00382757
0.00382755
0.00382741
0.00382739
0.00382735
0.00382744
0.0038283
0.00382996
0.00383199
0.00383409
0.00383664
0.0038406
0.00384731
0.00385766
0.00387318
0.00389591
0.00393129
0.00398532
0.00407961
0.00425124
0.00459907
0.0052973
0.00673532
0.00948037
0.0145691
0.0229331
0.0360974
0.0537425
0.0764949
0.099991
0.123402
0.138021
0.140176
0.138031
0.128076
0.117614
0.102729
0.0929571
0.0771841
0.066201
0.049778
0.0405299
0.0369522
0.0368472
0.0370544
0.035551
0.030385
0.0262213
0.0254063
0.026751
0.0325076
0.0434929
0.0579489
0.0752063
0.0943062
0.115529
0.13766
0.160388
0.181267
0.197753
0.204568
0.207418
0.20848
0.208833
0.20886
0.208641
0.208369
0.207961
0.207821
0.207891
0.209199
0.211766
0.215264
0.218712
0.222798
0.227116
0.232552
0.238247
0.244859
0.251204
0.258224
0.265254
0.274094
0.28288
0.292463
0.302529
0.313244
0.324526
0.33593
0.347786
0.358908
0.370762
0.380919
0.391082
0.398596
0.406
0.409805
0.412692
0.413499
0.00387057
0.00385469
0.00384826
0.0038401
0.00383631
0.00383251
0.00382976
0.00382851
0.00382732
0.00382658
0.00382607
0.00382559
0.00382549
0.00382516
0.00382501
0.00382501
0.00382497
0.00382467
0.00382468
0.0038247
0.00382462
0.00382464
0.00382465
0.00382462
0.00382431
0.00382431
0.00382419
0.00382392
0.00382391
0.00382375
0.00382349
0.00382344
0.00382308
0.00382304
0.00382299
0.00382278
0.0038228
0.00382266
0.00382266
0.00382256
0.00382253
0.00382313
0.00382443
0.00382486
0.00382503
0.00382502
0.00382502
0.00382484
0.00382468
0.00382461
0.00382445
0.00382441
0.00382424
0.00382404
0.00382401
0.00382393
0.00382394
0.00382386
0.00382378
0.00382419
0.00382488
0.00382519
0.00382527
0.00382531
0.0038253
0.00382501
0.00382502
0.00382496
0.00382465
0.00382465
0.00382448
0.00382423
0.00382423
0.00382409
0.00382399
0.00382396
0.00382389
0.00382384
0.00382374
0.00382391
0.00382497
0.00382586
0.00382614
0.00382618
0.00382621
0.00382623
0.00382615
0.00382615
0.00382605
0.00382594
0.00382636
0.00382695
0.00382706
0.00382707
0.00382694
0.00382703
0.00382705
0.00382681
0.00382682
0.00382675
0.0038267
0.00382706
0.00382764
0.00382888
0.00383116
0.00383484
0.00384022
0.00384787
0.00385875
0.00387438
0.00389647
0.00392832
0.00397489
0.0040448
0.00415943
0.00435446
0.00471611
0.00537156
0.00657892
0.0085981
0.0118985
0.0165268
0.0228491
0.0297514
0.0370842
0.0438633
0.0471478
0.04797
0.0465901
0.0447612
0.0408151
0.0381285
0.0336408
0.0310483
0.0265958
0.0249512
0.0246548
0.0261826
0.0292467
0.0345438
0.0409113
0.0442384
0.0442487
0.0426661
0.0422374
0.0453308
0.0554053
0.0727204
0.0946418
0.119889
0.145656
0.170233
0.191069
0.205151
0.210575
0.212707
0.213352
0.213522
0.213304
0.212193
0.211604
0.211444
0.211881
0.213108
0.215044
0.217002
0.220607
0.225146
0.230717
0.235467
0.2406
0.245669
0.252445
0.259431
0.267494
0.275319
0.285288
0.295777
0.307436
0.319833
0.332766
0.346335
0.360019
0.37439
0.387713
0.401779
0.414032
0.426416
0.435459
0.44437
0.448739
0.452114
0.453009
0.00386495
0.00385043
0.00384408
0.0038367
0.0038313
0.00382848
0.00382514
0.00382378
0.00382262
0.00382205
0.00382175
0.00382156
0.00382157
0.00382257
0.0038229
0.00382294
0.00382292
0.0038226
0.00382261
0.00382253
0.0038222
0.0038222
0.00382201
0.00382174
0.00382175
0.00382155
0.00382131
0.0038213
0.00382112
0.00382086
0.00382086
0.00382067
0.00382044
0.00382045
0.00382029
0.00382001
0.00382001
0.00381976
0.00381954
0.00381953
0.00381919
0.00381907
0.00381908
0.00381881
0.0038187
0.0038187
0.0038187
0.00381863
0.00381859
0.0038185
0.00381861
0.0038199
0.00382246
0.00382358
0.00382372
0.00382373
0.00382367
0.0038235
0.00382353
0.00382342
0.00382343
0.00382336
0.00382335
0.00382404
0.00382492
0.0038251
0.00382506
0.00382491
0.00382494
0.0038249
0.00382493
0.00382493
0.00382471
0.00382475
0.00382473
0.00382449
0.00382455
0.00382454
0.00382427
0.0038243
0.00382428
0.00382396
0.00382397
0.00382397
0.00382375
0.00382371
0.00382378
0.00382378
0.00382362
0.00382364
0.00382361
0.00382351
0.00382346
0.00382322
0.0038233
0.00382415
0.00382495
0.00382544
0.00382606
0.00382687
0.00382742
0.00382846
0.00382981
0.00383129
0.00383313
0.00383591
0.00384011
0.00384654
0.00385593
0.00386906
0.00388739
0.00391162
0.00394438
0.00398783
0.00404715
0.00412909
0.00425025
0.0044341
0.00473316
0.00520278
0.00595596
0.00702601
0.00854106
0.010292
0.012274
0.0142685
0.0158106
0.0169031
0.017014
0.0169931
0.0163363
0.0158684
0.0147887
0.0141986
0.0130302
0.0126198
0.0124923
0.0129516
0.0141959
0.0175793
0.0231678
0.0317813
0.0430322
0.0557138
0.066711
0.0730604
0.0763448
0.0822062
0.0956704
0.11923
0.147866
0.177977
0.205495
0.221852
0.227087
0.228626
0.228675
0.228354
0.22686
0.224191
0.222437
0.221677
0.221627
0.222186
0.224904
0.228285
0.232006
0.234963
0.239893
0.245337
0.251838
0.256982
0.263714
0.270723
0.280116
0.289616
0.301066
0.312645
0.326136
0.340265
0.355246
0.370587
0.386197
0.402752
0.418482
0.435143
0.449724
0.465182
0.476493
0.487943
0.493412
0.497723
0.498874
0.00387883
0.00385981
0.00385243
0.00384409
0.0038387
0.00383394
0.00383121
0.00382845
0.00382717
0.00382565
0.00382491
0.00382429
0.0038238
0.00382352
0.00382307
0.00382292
0.00382287
0.00382277