/*--------------------------------*- C++ -*----------------------------------*\
| =========                 |                                                 |
| \\      /  F ield         | OpenFOAM: The Open Source CFD Toolbox           |
|  \\    /   O peration     | Version:  4.1                                   |
|   \\  /    A nd           | Web:      www.OpenFOAM.org                      |
|    \\/     M anipulation  |                                                 |
\*---------------------------------------------------------------------------*/
FoamFile
{
    version     2.0;
    format      ascii;
    class       volScalarField;
    location    "3.5";
    object      k;
}
// * * * * * * * * * * * * * * * * * * * * * * * * * * * * * * * * * * * * * //

dimensions      [0 2 -2 0 0 0 0];

internalField   nonuniform List<scalar> 
204246
(
0.976314
1.05081
1.05063
1.04776
1.04987
1.04649
1.04771
1.0451
1.04666
1.04513
1.04709
1.04581
1.04833
1.04712
1.05098
1.0498
1.05358
1.05173
1.0511
1.05253
1.04975
1.05134
1.04791
1.04875
1.04586
1.04718
1.04574
1.04771
1.04631
1.04949
1.0481
1.05178
1.05063
1.05462
1.05348
1.05576
1.05426
1.05328
1.0546
1.05184
1.05293
1.04988
1.05055
1.04704
1.04785
1.04575
1.04841
1.04675
1.04996
1.04863
1.05159
1.05096
1.05433
1.05347
1.05325
1.05472
1.052
1.05307
1.04987
1.05043
1.04667
1.04737
1.04522
1.04789
1.04626
1.04947
1.04815
1.05107
1.05042
1.05376
1.05291
1.05273
1.0535
1.05119
1.05198
1.04882
1.0495
1.0474
1.04908
1.04765
1.05062
1.04916
1.05254
1.05129
1.05397
1.0532
1.05602
1.05517
1.05532
1.05779
1.05696
1.05941
1.05877
1.0617
1.06145
1.06651
1.06618
1.07259
1.07303
1.08121
1.08291
1.09191
1.09675
1.10756
1.11682
1.13162
1.14721
1.17125
1.20277
1.25197
1.32293
1.4305
1.57735
1.74692
1.81621
1.82931
1.81631
1.75424
1.68178
1.64785
1.62192
1.57036
1.51645
1.47937
1.44589
1.39399
1.34654
1.31318
1.28118
1.23743
1.19617
1.16658
1.13098
1.09709
1.06043
1.03468
0.999547
0.973055
0.940911
0.921422
0.890544
0.871386
0.84655
0.831986
0.813217
0.799168
0.793069
0.790316
0.791356
0.791804
0.796455
0.801144
0.812614
0.824393
0.845192
0.866599
0.8994
0.933124
0.978937
1.0279
1.08752
1.1529
1.22707
1.30787
1.39407
1.48579
1.57989
1.67716
1.77642
1.8745
1.97621
2.07194
2.17595
2.26926
2.37787
2.47109
2.58823
2.68925
2.80301
2.9167
3.0267
3.15171
3.2592
3.39566
3.50145
3.64545
3.74503
3.88547
3.97033
4.09573
4.16386
4.23492
4.25824
0.113614
0.215393
0.210771
0.207386
0.209936
0.20721
0.209965
0.208407
0.211781
0.210553
0.214755
0.213801
0.218433
0.216906
0.222294
0.220395
0.224556
0.221832
0.220693
0.222559
0.21786
0.219832
0.21439
0.215775
0.212794
0.21512
0.213521
0.216764
0.214874
0.219662
0.217764
0.223019
0.221087
0.225784
0.223325
0.225919
0.223743
0.221166
0.223139
0.218056
0.219434
0.214786
0.215789
0.211556
0.212999
0.210279
0.213896
0.211712
0.216555
0.214819
0.220493
0.220014
0.225563
0.224545
0.223133
0.22487
0.219612
0.220864
0.21552
0.21629
0.211534
0.212921
0.210251
0.213953
0.211811
0.216625
0.214844
0.220239
0.219638
0.225057
0.224093
0.222818
0.22427
0.220703
0.221954
0.217547
0.218763
0.216033
0.218441
0.216222
0.220139
0.217938
0.222606
0.220644
0.225538
0.224655
0.229586
0.228589
0.227866
0.230904
0.229288
0.232676
0.2313
0.235784
0.234243
0.241393
0.240332
0.250224
0.250228
0.265922
0.269141
0.293819
0.303101
0.33878
0.355006
0.40707
0.43711
0.511311
0.598465
0.734805
0.949483
1.24778
1.55916
1.64522
1.63895
1.466
1.13338
0.773653
0.626427
0.556206
0.525934
0.473064
0.42847
0.388132
0.37233
0.367367
0.346823
0.342998
0.324151
0.320548
0.301681
0.297838
0.281001
0.278015
0.263839
0.261995
0.250769
0.250067
0.242011
0.242312
0.236453
0.234886
0.237046
0.235797
0.240926
0.24133
0.25355
0.25815
0.28044
0.291166
0.323401
0.340594
0.383745
0.409898
0.46727
0.507849
0.584966
0.646769
0.744285
0.836243
0.957887
1.0802
1.22322
1.36605
1.51972
1.67172
1.82707
1.9787
2.13098
2.27912
2.42693
2.56878
2.71427
2.84804
2.99972
3.13161
3.2974
3.43182
3.61492
3.75791
3.94022
4.0783
4.25632
4.39319
4.57259
4.70302
4.87797
4.9874
5.16436
5.30989
5.65541
5.87667
5.96694
0.0126126
0.0248454
0.023164
0.0221366
0.0225274
0.0220527
0.0225459
0.0224138
0.0229855
0.0229432
0.0237713
0.0237485
0.0247483
0.0245989
0.0255258
0.0251113
0.0256361
0.0250378
0.0248005
0.0248603
0.023903
0.0241442
0.0231619
0.0234158
0.0230431
0.0234968
0.0233145
0.0239648
0.0237555
0.0247208
0.0244827
0.02555
0.0252974
0.0260282
0.0254578
0.0258051
0.0252838
0.0249131
0.025021
0.0240719
0.0242515
0.0233021
0.0233881
0.0226709
0.0229876
0.0226543
0.0233345
0.0230867
0.0240779
0.0239712
0.0252059
0.0251748
0.025973
0.0256481
0.0253356
0.0253961
0.0243495
0.0244914
0.0234072
0.0234633
0.0226992
0.0230213
0.0227188
0.0234284
0.0232008
0.024257
0.0241179
0.0252385
0.0251637
0.0258837
0.0255349
0.0252155
0.0252551
0.0243864
0.0244932
0.0236616
0.0239389
0.023629
0.0241455
0.0238804
0.0247152
0.0244552
0.0255145
0.0252769
0.0262512
0.026093
0.0265784
0.0261343
0.0258516
0.0263906
0.0261274
0.0268091
0.0266026
0.0275956
0.0273966
0.028966
0.0288901
0.0316514
0.03225
0.037448
0.0394867
0.0478959
0.0533085
0.0671478
0.0793363
0.104726
0.133529
0.187923
0.270371
0.40994
0.641178
1.00108
1.34656
1.4217
1.36293
1.04842
0.574176
0.306996
0.220318
0.183382
0.167317
0.151424
0.135851
0.119192
0.113675
0.112084
0.109119
0.108846
0.106396
0.106395
0.104258
0.104319
0.102597
0.10279
0.101946
0.102561
0.102196
0.103382
0.103357
0.105994
0.106867
0.110559
0.114992
0.119268
0.12761
0.133544
0.146296
0.155823
0.174274
0.189318
0.214882
0.23711
0.271957
0.304018
0.351127
0.396316
0.459201
0.521079
0.600084
0.682221
0.776332
0.875738
0.980982
1.09122
1.19964
1.31456
1.42167
1.54011
1.64605
1.76861
1.87406
1.99898
2.10123
2.22412
2.31896
2.43671
2.52256
2.62411
2.72215
2.78644
2.82354
2.82243
2.82455
2.77633
2.72925
2.58145
2.47425
2.3671
2.35704
2.34113
2.34831
2.21391
2.1619
0.0126845
0.0126674
0.0125746
0.0125109
0.0125251
0.0124946
0.012514
0.0125073
0.0125304
0.0125328
0.0125646
0.0125764
0.0126185
0.0126168
0.0126737
0.0126516
0.0126849
0.0126504
0.012638
0.0126397
0.0125898
0.012602
0.0125547
0.0125714
0.0125532
0.0125764
0.012568
0.0125998
0.0125899
0.0126375
0.0126267
0.0126889
0.0126719
0.0127113
0.0126741
0.0126954
0.0126642
0.0126431
0.0126495
0.0125989
0.0126103
0.0125621
0.0125668
0.012526
0.0125386
0.0125174
0.0125492
0.0125381
0.0125832
0.0125786
0.0126556
0.0126655
0.0127114
0.0126895
0.012669
0.0126732
0.0126158
0.0126257
0.0125698
0.0125732
0.0125311
0.0125449
0.0125262
0.0125598
0.0125498
0.0125987
0.012595
0.0126752
0.012679
0.0127193
0.0126952
0.0126727
0.0126762
0.0126271
0.0126338
0.0125848
0.0125968
0.0125765
0.0126021
0.0125876
0.0126292
0.0126156
0.0126765
0.0126671
0.012735
0.0127269
0.0127614
0.0127311
0.0127117
0.0127456
0.0127267
0.0127716
0.0127574
0.0128293
0.0128171
0.012953
0.0129637
0.0132606
0.0133917
0.014017
0.0144721
0.015775
0.0171774
0.020202
0.0243974
0.0328583
0.0470065
0.0750798
0.128094
0.227251
0.408621
0.711374
1.11188
1.24497
1.23179
1.01798
0.604201
0.243627
0.121524
0.0810567
0.0666771
0.0596522
0.0562679
0.052074
0.0496885
0.048876
0.0481949
0.0481734
0.0476284
0.0476453
0.047121
0.0471662
0.0469084
0.0471158
0.0470252
0.0474772
0.0474944
0.0484026
0.0486555
0.0501618
0.0507588
0.0527401
0.0548736
0.0576846
0.0618727
0.0663121
0.0735814
0.0810261
0.0928799
0.105368
0.123709
0.143579
0.170865
0.200918
0.239976
0.283214
0.336684
0.396006
0.465309
0.53923
0.62135
0.704128
0.79038
0.870805
0.949088
1.01683
1.07918
1.13106
1.1784
1.21725
1.25073
1.27965
1.30075
1.32115
1.32952
1.33667
1.33449
1.33327
1.33233
1.31901
1.31074
1.27863
1.25946
1.21506
1.19112
1.14215
1.12369
1.10564
1.10719
1.1291
1.1624
1.17327
1.18101
0.0124287
0.0124445
0.012406
0.0123958
0.012392
0.0123889
0.0123883
0.0123872
0.0123872
0.0123866
0.0123873
0.012387
0.0123868
0.0123868
0.0123876
0.0123869
0.0123877
0.0123868
0.0123863
0.0123863
0.0123846
0.0123846
0.0123831
0.0123831
0.0123819
0.0123819
0.0123813
0.0123818
0.0123816
0.0123828
0.0123828
0.0123845
0.0123841
0.0123856
0.0123848
0.0123851
0.0123847
0.0123855
0.0123873
0.0123868
0.0123873
0.0123867
0.0123867
0.0123858
0.0123858
0.012385
0.0123853
0.0123849
0.0123845
0.0123841
0.0123852
0.0123854
0.0123863
0.012386
0.0123851
0.0123851
0.0123834
0.0123834
0.0123821
0.0123821
0.0123811
0.0123811
0.0123799
0.0123802
0.0123796
0.0123793
0.012379
0.0123799
0.0123798
0.0123804
0.0123799
0.0123799
0.0123805
0.0123801
0.0123806
0.0123804
0.0123825
0.0123846
0.0123897
0.0123912
0.0123927
0.0123924
0.0123935
0.0123929
0.0123937
0.012393
0.0123936
0.0123927
0.0123917
0.0123917
0.012391
0.012392
0.0123915
0.0123931
0.0123925
0.0123969
0.0123991
0.0124146
0.0124331
0.0124864
0.0125649
0.0127429
0.0130482
0.0137028
0.0149699
0.0177439
0.023562
0.0362739
0.0636107
0.120276
0.234383
0.445637
0.802281
1.0958
1.1461
1.04468
0.718809
0.306052
0.12381
0.0615678
0.040166
0.0332992
0.0313059
0.0306741
0.0305726
0.0309413
0.0317933
0.0327171
0.0329324
0.0331357
0.0331414
0.0333
0.0332905
0.0334939
0.033531
0.0339519
0.0342125
0.035108
0.0358857
0.0375522
0.0392428
0.0421466
0.0457266
0.0505484
0.0568278
0.0647618
0.0754009
0.0887208
0.106163
0.127503
0.15417
0.186059
0.223914
0.268116
0.317906
0.374438
0.434871
0.501449
0.568368
0.635566
0.700415
0.759173
0.813719
0.85834
0.899774
0.930858
0.960467
0.98201
1.00171
1.01212
1.01421
1.01528
1.01148
1.00819
0.996365
0.988738
0.970291
0.95696
0.941551
0.922557
0.9155
0.902154
0.898223
0.887172
0.883923
0.873977
0.871441
0.868342
0.872724
0.880057
0.893099
0.897678
0.901895
0.0124244
0.0124001
0.0123813
0.0123747
0.0123699
0.0123673
0.0123662
0.0123656
0.0123655
0.0123649
0.0123644
0.0123645
0.0123642
0.0123638
0.0123638
0.0123636
0.012363
0.012363
0.0123625
0.0123622
0.0123621
0.0123619
0.0123618
0.0123616
0.0123616
0.0123615
0.0123615
0.012363
0.0123682
0.0123773
0.012382
0.0123828
0.0123828
0.0123828
0.0123827
0.0123821
0.0123821
0.0123818
0.0123813
0.0123813
0.012381
0.0123806
0.0123806
0.0123806
0.0123805
0.0123805
0.01238
0.01238
0.01238
0.0123795
0.0123795
0.0123792
0.0123788
0.0123788
0.0123786
0.0123783
0.0123783
0.0123778
0.0123774
0.0123774
0.012377
0.0123768
0.0123768
0.0123762
0.0123761
0.0123766
0.0123767
0.0123767
0.0123767
0.012376
0.0123761
0.0123759
0.0123753
0.0123753
0.0123749
0.0123744
0.0123744
0.0123739
0.0123735
0.0123735
0.012373
0.0123727
0.0123727
0.0123722
0.0123719
0.0123719
0.0123715
0.0123714
0.0123713
0.0123713
0.0123712
0.0123711
0.0123711
0.0123723
0.0123757
0.0123824
0.0123919
0.0124048
0.01242
0.0124394
0.0124653
0.0125096
0.0125931
0.0127747
0.0131773
0.0141279
0.0163548
0.0216082
0.0338449
0.0612083
0.12064
0.240189
0.463885
0.813066
1.03711
1.05559
0.925149
0.593581
0.234174
0.101339
0.053634
0.0353414
0.0273005
0.0239008
0.0225746
0.0221785
0.0221095
0.0222628
0.0226276
0.0232539
0.0237446
0.0243072
0.0246564
0.0251752
0.0254613
0.0259751
0.0262699
0.0269044
0.0273762
0.0284469
0.029706
0.0320453
0.0351779
0.0396808
0.0457586
0.053861
0.0646685
0.0784276
0.096317
0.11825
0.145737
0.178266
0.217176
0.261423
0.31149
0.365869
0.423927
0.484286
0.544254
0.602338
0.655114
0.700321
0.735694
0.760407
0.777069
0.786664
0.790598
0.792142
0.79127
0.790201
0.785376
0.781062
0.77264
0.767302
0.758167
0.75414
0.746652
0.743188
0.739502
0.737146
0.736876
0.736297
0.738008
0.739944
0.744666
0.748213
0.755603
0.760654
0.771027
0.777081
0.785532
0.78857
0.790787
0.0124575
0.0124291
0.0124076
0.0123983
0.0123905
0.0123859
0.0123831
0.0123816
0.0123809
0.0123802
0.0123797
0.0123793
0.0123793
0.0123787
0.0123781
0.0123781
0.0123779
0.0123771
0.012377
0.0123769
0.0123767
0.0123766
0.0123765
0.0123763
0.0123762
0.0123761
0.0123775
0.0123819
0.0123859
0.0123866
0.0123866
0.0123864
0.0123864
0.0123862
0.0123857
0.0123857
0.0123853
0.0123849
0.0123849
0.0123844
0.0123841
0.012384
0.0123838
0.0123832
0.0123832
0.0123826
0.0123824
0.0123823
0.0123819
0.0123817
0.0123817
0.0123812
0.0123811
0.0123811
0.0123805
0.0123805
0.0123803
0.0123798
0.0123798
0.0123794
0.0123791
0.012379
0.0123787
0.0123787
0.0123786
0.0123786
0.0123784
0.0123788
0.0123812
0.0123838
0.0123843
0.0123842
0.012384
0.012384
0.0123836
0.0123833
0.0123831
0.0123827
0.0123827
0.0123825
0.0123818
0.0123816
0.0123816
0.0123813
0.0123807
0.0123807
0.0123806
0.0123803
0.0123803
0.01238
0.0123801
0.0123799
0.0123799
0.0123808
0.0123838
0.0123875
0.0123911
0.0123935
0.0123965
0.0124014
0.0124106
0.0124269
0.0124573
0.0125205
0.0126599
0.0129913
0.0137917
0.0157545
0.0205451
0.0318424
0.0578823
0.114043
0.228936
0.436713
0.76134
0.969077
0.989344
0.895407
0.646821
0.333217
0.151965
0.0849901
0.0537932
0.0396823
0.0314666
0.0256659
0.0227896
0.021478
0.0211531
0.0209675
0.0209511
0.0210031
0.0212863
0.0217732
0.0223697
0.0228862
0.0233405
0.0239747
0.0250368
0.0268464
0.0294632
0.0331283
0.0381132
0.044934
0.0541423
0.0662479
0.0818409
0.101788
0.126296
0.156518
0.191661
0.233547
0.279617
0.33238
0.386427
0.445185
0.500096
0.556162
0.60215
0.64237
0.672799
0.69422
0.709764
0.717429
0.72188
0.72322
0.722774
0.721746
0.717787
0.714242
0.707889
0.70361
0.696191
0.692653
0.6878
0.686167
0.683961
0.683281
0.683375
0.683577
0.685745
0.68762
0.690683
0.693079
0.698451
0.702215
0.709079
0.713925
0.722474
0.727586
0.733906
0.736401
0.737984
0.0124501
0.0124165
0.0124007
0.0123932
0.0123856
0.0123822
0.0123807
0.0123798
0.0123794
0.0123789
0.0123789
0.0123789
0.0123785
0.0123785
0.0123783
0.012378
0.012378
0.0123778
0.0123776
0.0123775
0.0123773
0.012377
0.0123766
0.0123762
0.0123758
0.0123755
0.0123752
0.0123748
0.0123743
0.0123739
0.012373
0.0123722
0.0123715
0.0123709
0.0123707
0.0123705
0.0123701
0.0123701
0.0123699
0.0123693
0.0123693
0.0123688
0.0123685
0.0123684
0.0123679
0.0123676
0.0123675
0.0123669
0.0123668
0.0123665
0.012366
0.0123659
0.0123658
0.0123653
0.0123652
0.0123652
0.0123649
0.0123649
0.0123648
0.0123647
0.0123663
0.0123711
0.0123757
0.0123765
0.0123764
0.0123764
0.012376
0.0123755
0.0123747
0.0123741
0.0123733
0.0123731
0.0123729
0.0123729
0.012373
0.0123726
0.0123726
0.0123724
0.0123724
0.0123741
0.0123773
0.0123798
0.0123807
0.0123814
0.0123821
0.0123833
0.0123846
0.0123861
0.0123867
0.0123868
0.0123868
0.0123866
0.0123867
0.0123866
0.0123865
0.012387
0.012389
0.0123933
0.0124002
0.0124096
0.0124212
0.0124351
0.0124538
0.0124843
0.0125432
0.0126701
0.0129671
0.013684
0.0154509
0.0197203
0.0299304
0.0530366
0.10343
0.203074
0.384711
0.663026
0.904322
0.95093
0.929634
0.817324
0.621954
0.431524
0.300504
0.244534
0.215188
0.181543
0.131402
0.0609505
0.0355182
0.0255422
0.0220476
0.020448
0.0198956
0.0196969
0.0196733
0.0197501
0.0201289
0.0208713
0.0221253
0.0240384
0.0268905
0.0309389
0.0365877
0.0442271
0.0546109
0.0682935
0.0862774
0.10932
0.138098
0.173364
0.214576
0.262183
0.313491
0.369098
0.423974
0.479876
0.529575
0.576293
0.610991
0.635899
0.646613
0.651711
0.653633
0.654313
0.653929
0.652928
0.650657
0.647778
0.643206
0.639951
0.636511
0.635173
0.633754
0.633593
0.633595
0.635576
0.637103
0.640527
0.644514
0.648502
0.653525
0.657993
0.663791
0.668608
0.675323
0.680252
0.687407
0.692608
0.69981
0.704396
0.709321
0.711474
0.712701
0.0124657
0.012429
0.0124109
0.0124018
0.012391
0.0123863
0.0123833
0.0123807
0.0123795
0.0123783
0.0123778
0.0123773
0.0123765
0.0123759
0.0123759
0.0123755
0.0123749
0.0123749
0.0123746
0.0123742
0.0123742
0.0123742
0.0123739
0.0123738
0.0123738
0.0123736
0.0123736
0.0123753
0.0123787
0.0123799
0.0123799
0.0123799
0.0123799
0.0123794
0.0123794
0.012379
0.0123787
0.0123785
0.012378
0.0123779
0.0123777
0.0123773
0.0123773
0.0123771
0.0123766
0.0123766
0.0123761
0.0123758
0.0123758
0.0123757
0.012375
0.012375
0.0123745
0.0123741
0.012374
0.0123735
0.0123734
0.0123732
0.0123728
0.0123727
0.0123725
0.012372
0.012372
0.0123716
0.0123713
0.0123713
0.0123712
0.012371
0.0123709
0.0123708
0.0123711
0.0123735
0.0123797
0.0123862
0.0123877
0.0123877
0.0123875
0.0123889
0.012393
0.0123955
0.0123958
0.0123958
0.0123958
0.0123952
0.0123952
0.0123952
0.0123946
0.0123947
0.0123946
0.0123942
0.0123943
0.0123943
0.012394
0.012394
0.012394
0.0123938
0.0123938
0.0123937
0.0123943
0.0123967
0.0124018
0.0124102
0.0124223
0.0124394
0.0124658
0.0125174
0.0126274
0.0128798
0.0134809
0.0149272
0.018443
0.0266654
0.0455093
0.0853234
0.165007
0.304895
0.525822
0.78263
0.928279
0.974911
0.979907
0.956654
0.906808
0.849443
0.788792
0.705059
0.586711
0.403828
0.207823
0.0838126
0.0459024
0.0302639
0.0244765
0.021717
0.0208252
0.0205837
0.0206557
0.0212506
0.0228401
0.0254863
0.0295048
0.0351675
0.0431727
0.0543177
0.0691565
0.0887875
0.113443
0.144635
0.181641
0.226085
0.275318
0.3307
0.386878
0.444937
0.496946
0.545325
0.582333
0.614081
0.629584
0.635417
0.637088
0.637416
0.636914
0.635478
0.632325
0.628629
0.624496
0.620675
0.615924
0.612506
0.610109
0.609207
0.608752
0.609208
0.611231
0.614338
0.616669
0.621744
0.627062
0.632486
0.638489
0.644525
0.651135
0.657666
0.664758
0.671145
0.678017
0.684099
0.690405
0.695017
0.699081
0.701041
0.701997
0.0124576
0.012423
0.0124053
0.0123963
0.0123856
0.0123815
0.0123776
0.0123753
0.0123737
0.012373
0.0123727
0.0123725
0.0123715
0.0123713
0.0123713
0.0123708
0.0123703
0.0123703
0.0123702
0.0123701
0.01237
0.0123705
0.0123732
0.0123755
0.0123761
0.0123762
0.0123762
0.012376
0.012376
0.0123759
0.0123753
0.0123752
0.0123749
0.0123743
0.0123743
0.0123742
0.0123738
0.0123738
0.0123737
0.0123736
0.0123734
0.0123737
0.0123763
0.0123809
0.0123823
0.0123823
0.0123822
0.0123822
0.0123821
0.0123821
0.012382
0.0123815
0.0123815
0.0123813
0.0123808
0.0123808
0.0123804
0.01238
0.0123798
0.0123793
0.0123793
0.012379
0.0123786
0.0123787
0.0123787
0.0123781
0.0123781
0.0123778
0.0123774
0.0123774
0.0123772
0.0123768
0.0123767
0.0123767
0.0123767
0.0123765
0.0123765
0.0123763
0.0123762
0.012377
0.0123791
0.0123804
0.012381
0.0123814
0.0123823
0.0123832
0.012384
0.0123843
0.0123846
0.0123852
0.012386
0.0123872
0.0123884
0.01239
0.0123911
0.0123927
0.0123937
0.0123959
0.0123987
0.0124026
0.0124072
0.0124135
0.0124218
0.0124335
0.0124511
0.0124799
0.0125309
0.0126309
0.0128457
0.0133307
0.0144782
0.0171595
0.0234421
0.0372671
0.066695
0.123046
0.223999
0.380888
0.606793
0.819111
0.953528
1.02514
1.06138
1.06833
1.0594
1.02101
0.949222
0.837506
0.694251
0.519818
0.340133
0.15941
0.0685276
0.0377854
0.0275269
0.0238845
0.0229148
0.0227343
0.0231519
0.0248325
0.0285919
0.0346254
0.0434673
0.0557084
0.0723646
0.0946911
0.123406
0.159568
0.202471
0.252579
0.306885
0.365532
0.423137
0.480226
0.529181
0.572034
0.597266
0.607249
0.610277
0.610855
0.610323
0.608885
0.605847
0.60311
0.599741
0.596786
0.593549
0.592072
0.590633
0.589875
0.589484
0.589715
0.591178
0.593695
0.597032
0.602149
0.606322
0.612458
0.619036
0.625949
0.632408
0.639335
0.646339
0.653795
0.661192
0.668348
0.675266
0.681744
0.6879
0.692526
0.696242
0.698183
0.699046
0.0124765
0.0124405
0.0124256
0.0124138
0.0124049
0.0124009
0.0123971
0.0123946
0.0123924
0.0123914
0.0123902
0.0123893
0.0123887
0.0123885
0.0123876
0.0123873
0.0123872
0.0123863
0.012386
0.0123859
0.0123851
0.0123848
0.0123847
0.0123839
0.0123835
0.0123834
0.0123832
0.0123825
0.0123821
0.0123821
0.0123817
0.0123811
0.0123811
0.0123809
0.0123805
0.0123805
0.0123802
0.0123798
0.0123798
0.0123794
0.0123791
0.012379
0.0123785
0.0123785
0.0123782
0.0123777
0.0123777
0.0123775
0.0123772
0.0123771
0.0123769
0.0123769
0.0123767
0.012377
0.0123789
0.0123817
0.0123822
0.0123822
0.0123822
0.012382
0.012382
0.0123818
0.0123814
0.0123814
0.0123813
0.0123808
0.0123809
0.0123809
0.0123804
0.0123804
0.0123802
0.0123797
0.0123797
0.0123792
0.0123788
0.0123787
0.0123782
0.0123781
0.0123777
0.0123772
0.0123771
0.012377
0.0123769
0.0123768
0.0123767
0.0123766
0.0123765
0.0123774
0.0123806
0.0123865
0.0123934
0.0123969
0.0123982
0.0123988
0.0123993
0.0124002
0.0124022
0.012405
0.012409
0.0124129
0.0124168
0.0124203
0.0124251
0.0124317
0.0124427
0.0124599
0.0124883
0.0125364
0.012626
0.0128012
0.0131738
0.0139917
0.0158747
0.020061
0.029317
0.0480688
0.0844322
0.147077
0.248203
0.389933
0.583692
0.77322
0.921407
0.980624
0.993672
0.981085
0.929834
0.840788
0.719704
0.585
0.442454
0.310126
0.185827
0.0916736
0.0527314
0.0380372
0.0323771
0.0300941
0.0296793
0.030124
0.033429
0.0405164
0.0518158
0.0677336
0.0884511
0.115894
0.150634
0.194545
0.245821
0.304268
0.364929
0.426827
0.483805
0.536794
0.579076
0.599195
0.605646
0.607495
0.607694
0.606987
0.604678
0.601396
0.597354
0.593178
0.588671
0.584446
0.580387
0.578362
0.577322
0.577062
0.577449
0.580159
0.583175
0.586525
0.591099
0.597035
0.602913
0.60995
0.617476
0.6258
0.633774
0.642691
0.650659
0.659385
0.667516
0.675896
0.682846
0.689914
0.695853
0.700977
0.703919
0.706109
0.706879
0.0124795
0.0124438
0.0124286
0.0124129
0.0124037
0.0123962
0.012392
0.0123889
0.0123862
0.012385
0.0123837
0.0123833
0.0123826
0.0123816
0.0123812
0.0123809
0.0123806
0.0123806
0.01238
0.0123797
0.0123797
0.0123792
0.0123788
0.0123788
0.0123787
0.0123783
0.0123782
0.0123782
0.0123781
0.0123779
0.0123777
0.0123784
0.0123819
0.0123869
0.0123881
0.0123881
0.0123879
0.0123879
0.0123874
0.012387
0.012387
0.0123865
0.0123863
0.0123862
0.0123859
0.012386
0.0123859
0.0123855
0.0123855
0.0123855
0.0123849
0.012385
0.012385
0.0123845
0.0123845
0.0123845
0.012384
0.0123841
0.012384
0.0123834
0.0123834
0.0123834
0.0123828
0.0123828
0.0123825
0.012382
0.012382
0.0123815
0.0123811
0.0123811
0.0123805
0.0123802
0.0123802
0.0123798
0.0123794
0.0123794
0.0123791
0.0123788
0.0123787
0.0123787
0.0123785
0.0123785
0.012378
0.012378
0.0123779
0.0123779
0.0123777
0.0123773
0.0123779
0.0123801
0.0123828
0.012385
0.0123874
0.0123891
0.0123899
0.0123904
0.0123905
0.0123904
0.0123904
0.012391
0.0123929
0.0123971
0.0124036
0.0124141
0.0124273
0.012445
0.0124672
0.0124987
0.0125481
0.0126312
0.0127794
0.0130591
0.013632
0.0148345
0.0174583
0.0228671
0.0338289
0.0539046
0.0888904
0.142428
0.220636
0.317085
0.436321
0.550931
0.638848
0.669623
0.666678
0.641941
0.582733
0.510175
0.415097
0.329711
0.242752
0.180096
0.122083
0.0896307
0.0684297
0.0576273
0.0473077
0.0431466
0.0425445
0.0443955
0.0522079
0.0682668
0.0922665
0.123987
0.162538
0.208969
0.262825
0.324738
0.390453
0.456947
0.516117
0.56655
0.590586
0.598627
0.600491
0.60064
0.599603
0.59685
0.592537
0.587842
0.583139
0.579252
0.575907
0.573283
0.571409
0.570678
0.570455
0.5709
0.573408
0.577265
0.581864
0.587749
0.594619
0.60202
0.610356
0.617749
0.625264
0.633793
0.642391
0.651542
0.660413
0.669367
0.677865
0.687046
0.694808
0.702425
0.708647
0.714351
0.717558
0.71976
0.720497
0.0124787
0.0124463
0.0124325
0.0124165
0.0124077
0.0124002
0.0123965
0.0123931
0.0123906
0.0123891
0.0123882
0.0123876
0.0123865
0.0123859
0.0123858
0.0123854
0.012385
0.012385
0.0123846
0.0123842
0.0123842
0.0123838
0.0123834
0.0123834
0.0123831
0.0123826
0.0123826
0.0123823
0.0123818
0.0123818
0.0123815
0.012381
0.012381
0.0123809
0.0123807
0.0123806
0.0123805
0.0123803
0.0123805
0.0123827
0.0123863
0.0123871
0.0123871
0.012387
0.012387
0.0123865
0.0123864
0.0123863
0.0123855
0.0123852
0.0123852
0.0123846
0.0123843
0.0123842
0.0123837
0.0123834
0.0123833
0.0123828
0.0123828
0.0123825
0.0123821
0.0123821
0.0123817
0.0123813
0.0123813
0.0123811
0.0123811
0.0123809
0.0123811
0.0123829
0.0123865
0.012388
0.0123884
0.0123887
0.0123891
0.0123894
0.0123895
0.0123896
0.0123896
0.0123894
0.0123888
0.0123888
0.0123885
0.0123883
0.0123882
0.0123877
0.0123879
0.0123889
0.0123893
0.0123893
0.0123893
0.0123889
0.0123887
0.0123891
0.0123897
0.0123902
0.0123902
0.0123902
0.0123902
0.0123902
0.0123901
0.0123907
0.0123928
0.0123974
0.0124053
0.0124177
0.0124359
0.0124625
0.0125016
0.0125567
0.0126392
0.012762
0.012971
0.0133402
0.0140708
0.0155034
0.0183955
0.0238196
0.0337226
0.0497848
0.0747712
0.108033
0.150945
0.195746
0.240453
0.275973
0.286597
0.28693
0.274855
0.261357
0.236502
0.216244
0.181512
0.152696
0.112113
0.0835222
0.0718488
0.0704851
0.0707284
0.0700842
0.0675218
0.066648
0.0679887
0.078335
0.101338
0.136121
0.179152
0.231333
0.291133
0.358362
0.428584
0.500215
0.565237
0.598025
0.608222
0.611035
0.61131
0.610542
0.607526
0.602005
0.595533
0.588665
0.582458
0.576621
0.572844
0.570801
0.569918
0.56967
0.570403
0.573729
0.578593
0.583419
0.588719
0.594677
0.599877
0.604944
0.612138
0.61978
0.627424
0.636427
0.64623
0.656618
0.667635
0.678997
0.689928
0.701681
0.71177
0.721578
0.729097
0.736062
0.739854
0.742431
0.743202
0.0124863
0.0124505
0.0124359
0.0124174
0.0124089
0.0124006
0.0123942
0.0123911
0.0123885
0.0123865
0.0123855
0.0123845
0.012384
0.0123834
0.0123833
0.012383
0.0123827
0.0123824
0.0123824
0.0123821
0.0123815
0.0123815
0.0123812
0.0123809
0.0123809
0.0123808
0.0123801
0.0123801
0.0123795
0.0123793
0.0123792
0.0123788
0.0123784
0.0123784
0.0123778
0.0123778
0.0123776
0.0123772
0.0123772
0.0123769
0.012377
0.0123767
0.0123766
0.0123776
0.0123805
0.0123823
0.0123834
0.0123842
0.0123848
0.0123848
0.0123848
0.0123845
0.0123845
0.0123842
0.0123839
0.0123839
0.0123837
0.0123836
0.0123835
0.0123833
0.0123839
0.0123861
0.012387
0.0123869
0.0123867
0.0123866
0.0123861
0.0123859
0.0123857
0.0123852
0.0123851
0.0123848
0.0123844
0.0123843
0.0123843
0.0123839
0.012384
0.0123838
0.0123837
0.0123846
0.0123877
0.0123891
0.0123893
0.0123893
0.0123888
0.0123888
0.0123884
0.012388
0.012388
0.0123878
0.0123872
0.0123872
0.0123871
0.0123866
0.0123866
0.0123866
0.0123859
0.0123859
0.012386
0.0123857
0.0123856
0.0123861
0.0123877
0.0123913
0.0123969
0.012406
0.0124191
0.0124384
0.012466
0.0125044
0.0125576
0.012632
0.012739
0.0128966
0.0131495
0.0135716
0.0143379
0.015701
0.0181749
0.0222681
0.0289113
0.0382224
0.0509882
0.0651818
0.0805528
0.0951144
0.105573
0.110266
0.109531
0.107734
0.101457
0.0965953
0.0874284
0.0815202
0.0716149
0.0638332
0.0587576
0.0586858
0.0605803
0.0662195
0.0738536
0.0836317
0.0925488
0.10125
0.112721
0.134865
0.172307
0.225909
0.292244
0.368087
0.447692
0.525414
0.587532
0.61197
0.619539
0.621658
0.621837
0.620973
0.616983
0.608781
0.599463
0.590829
0.585216
0.580046
0.576834
0.575369
0.575053
0.575484
0.578519
0.582799
0.586147
0.588317
0.592278
0.597616
0.603297
0.609021
0.617438
0.627278
0.638247
0.650646
0.663622
0.677031
0.690693
0.70472
0.717526
0.730781
0.742333
0.753566
0.761783
0.769638
0.773415
0.776228
0.777007
0.0124682
0.0124346
0.0124183
0.0124034
0.0123899
0.0123834
0.0123753
0.0123721
0.0123702
0.0123685
0.0123679
0.0123692
0.0123698
0.0123698
0.0123698
0.0123693
0.0123689
0.0123688
0.0123682
0.0123678
0.0123677
0.0123671
0.012367
0.0123667
0.0123662
0.0123662
0.012366
0.0123655
0.0123655
0.0123651
0.0123647
0.0123647
0.0123644
0.0123639
0.0123639
0.0123635
0.0123631
0.0123631
0.0123625
0.0123622
0.0123622
0.0123616
0.0123613
0.0123613
0.0123612
0.0123611
0.0123611
0.012361
0.012361
0.0123608
0.0123608
0.0123625
0.0123674
0.0123762
0.012381
0.0123819
0.0123819
0.0123818
0.0123818
0.0123816
0.0123816
0.0123814
0.0123813
0.0123822
0.0123838
0.0123841
0.0123839
0.0123839
0.0123837
0.0123832
0.0123832
0.0123828
0.0123827
0.0123826
0.0123824
0.0123824
0.0123823
0.0123822
0.012382
0.0123817
0.0123822
0.0123835
0.0123844
0.0123848
0.0123855
0.0123857
0.0123858
0.0123859
0.0123855
0.0123856
0.0123856
0.0123851
0.0123851
0.012385
0.0123845
0.0123846
0.0123847
0.0123844
0.0123844
0.0123842
0.0123842
0.0123855
0.0123888
0.0123945
0.0124016
0.0124097
0.01242
0.0124356
0.0124592
0.0124919
0.0125363
0.0125939
0.0126709
0.0127715
0.0129068
0.0130915
0.0133607
0.0137633
0.0144093
0.0154124
0.017009
0.0192768
0.0225016
0.0262978
0.0306912
0.0352499
0.0389914
0.0425422
0.0439551
0.0445424
0.0438065
0.0432005
0.0411837
0.0399446
0.03727
0.03546
0.0340178
0.0341546
0.0353679
0.0399586
0.0481472
0.0621396
0.0820914
0.106447
0.133027
0.160004
0.190049
0.228743
0.283476
0.358464
0.447091
0.540783
0.617762
0.646396
0.654402
0.656193
0.655453
0.652356
0.644474
0.632325
0.619996
0.607498
0.600089
0.594531
0.592057
0.590361
0.590028
0.589963
0.591897
0.595048
0.598069
0.599687
0.60343
0.607921
0.614624
0.622271
0.632497
0.642951
0.655296
0.668308
0.682119
0.695708
0.709323
0.723635
0.737109
0.751284
0.763477
0.776637
0.785918
0.795493
0.800039
0.803455
0.804425
0.0125093
0.0124645
0.0124475
0.0124285
0.012416
0.012405
0.0123987
0.0123922
0.0123891
0.0123855
0.0123838
0.0123822
0.0123811
0.0123807
0.0123798
0.0123792
0.0123791
0.0123789
0.0123789
0.0123787
0.0123783
0.0123785
0.0123798
0.0123801
0.0123803
0.0123803
0.0123803
0.0123803
0.0123803
0.0123798
0.0123797
0.0123797
0.0123796
0.0123787
0.0123786
0.0123786
0.012378
0.0123778
0.0123778
0.0123776
0.0123772
0.0123772
0.0123766
0.0123766
0.0123765
0.0123761
0.0123763
0.0123784
0.0123826
0.0123859
0.0123863
0.0123863
0.012386
0.0123857
0.0123856
0.0123852
0.0123852
0.012385
0.0123846
0.0123846
0.0123842
0.0123839
0.0123838
0.0123835
0.0123834
0.0123831
0.0123827
0.0123827
0.0123823
0.0123821
0.0123818
0.0123814
0.0123813
0.0123809
0.0123804
0.0123803
0.0123797
0.0123794
0.0123792
0.0123785
0.0123783
0.012378
0.0123773
0.0123773
0.012377
0.0123766
0.0123766
0.0123762
0.0123755
0.0123755
0.0123753
0.0123748
0.0123747
0.0123747
0.0123742
0.0123742
0.0123741
0.012374
0.012374
0.0123738
0.0123737
0.0123739
0.0123746
0.0123768
0.0123806
0.0123869
0.0123953
0.0124075
0.0124249
0.0124488
0.0124807
0.0125235
0.012581
0.0126539
0.0127491
0.0128657
0.0130161
0.0132003
0.0134469
0.0137645
0.0142116
0.0147896
0.0155889
0.0165267
0.0176547
0.0188863
0.0200077
0.0211666
0.0219073
0.0227093
0.0228689
0.0229797
0.0227388
0.0226186
0.0221032
0.0218224
0.0215861
0.0217186
0.0221201
0.0235933
0.0263038
0.0320329
0.0427581
0.0624826
0.0943292
0.13808
0.189892
0.244159
0.301716
0.363917
0.43571
0.526406
0.632771
0.699188
0.718768
0.724236
0.724381
0.722845
0.713737
0.693649
0.67028
0.646585
0.6357
0.629409
0.625751
0.622489
0.622023
0.621725
0.622627
0.622259
0.622292
0.62296
0.62743
0.63201
0.637371
0.643255
0.654274
0.664487
0.675645
0.687615
0.701358
0.71612
0.730705
0.747113
0.762279
0.780267
0.794614
0.812129
0.823925
0.837114
0.8433
0.848056
0.849385
0.0125391
0.0124708
0.01245
0.0124312
0.0124149
0.0124078
0.0123988
0.0123952
0.0123904
0.0123885
0.0123857