/*--------------------------------*- C++ -*----------------------------------*\
| =========                 |                                                 |
| \\      /  F ield         | OpenFOAM: The Open Source CFD Toolbox           |
|  \\    /   O peration     | Version:  4.1                                   |
|   \\  /    A nd           | Web:      www.OpenFOAM.org                      |
|    \\/     M anipulation  |                                                 |
\*---------------------------------------------------------------------------*/
FoamFile
{
    version     2.0;
    format      ascii;
    class       volScalarField;
    location    "3.5";
    object      p;
}
// * * * * * * * * * * * * * * * * * * * * * * * * * * * * * * * * * * * * * //

dimensions      [0 2 -2 0 0 0 0];

internalField   nonuniform List<scalar> 
204246
(
-30.4278
-42.792
-43.0416
-42.7684
-42.6741
-42.53
-42.3911
-42.2396
-42.1011
-41.9406
-41.7894
-41.5897
-41.3978
-41.1669
-41.0561
-41.0674
-41.3472
-41.4104
-41.0483
-40.9982
-40.9162
-40.867
-40.7893
-40.7325
-40.6758
-40.6505
-40.6184
-40.6028
-40.5458
-40.4941
-40.3784
-40.2687
-40.1353
-40.1067
-40.1638
-40.3804
-40.4336
-40.2751
-40.2147
-40.1419
-40.0896
-40.0481
-40.0267
-40.0043
-39.9911
-39.943
-39.9093
-39.8148
-39.7139
-39.5643
-39.5225
-39.5662
-39.7933
-39.8891
-39.7021
-39.634
-39.5808
-39.528
-39.4824
-39.4638
-39.4409
-39.4351
-39.3846
-39.3504
-39.2491
-39.1513
-39.0097
-38.962
-38.9981
-39.2152
-39.3199
-39.1777
-39.0983
-39.0152
-38.9517
-38.9002
-38.8805
-38.8576
-38.8481
-38.7913
-38.7494
-38.6451
-38.5447
-38.4077
-38.3491
-38.3616
-38.528
-38.6021
-38.4788
-38.3775
-38.2667
-38.1814
-38.0821
-38.0037
-37.8915
-37.7961
-37.6558
-37.507
-37.2304
-37.2171
-36.9304
-36.687
-36.3607
-36.0422
-35.7948
-35.5887
-35.2374
-34.8283
-34.5071
-34.1748
-34.0378
-34.0926
-34.6289
-35.9172
-38.8092
-44.792
-55.096
-64.7503
-69.5991
-73.1295
-76.5938
-78.862
-81.3578
-82.4919
-82.6469
-83.0423
-82.9477
-82.9404
-82.8482
-82.8742
-82.9737
-83.1357
-83.2422
-83.3447
-83.3454
-83.3688
-83.4416
-83.7761
-84.3995
-85.4531
-86.0539
-85.844
-86.5762
-86.7588
-87.084
-87.37
-87.609
-87.5985
-88.5329
-88.6283
-88.8541
-89.0877
-89.3645
-89.5114
-89.5149
-89.3173
-90.9081
-91.581
-90.6925
-91.0757
-90.3212
-90.4825
-89.5174
-89.363
-88.0302
-87.4225
-85.5847
-84.3978
-81.9616
-79.9416
-76.6731
-73.5323
-69.336
-64.9249
-59.8372
-54.0944
-47.4523
-39.7654
-31.3172
-21.5814
-10.5904
2.05459
16.3955
32.8758
51.504
72.536
95.8774
122.097
152.102
191.496
251.247
346.446
474.55
-40.1986
-40.5148
-41.7217
-42.414
-42.626
-42.6169
-42.5382
-42.4116
-42.2627
-42.0985
-41.9279
-41.7467
-41.5548
-41.3587
-41.2133
-41.1621
-41.2526
-41.288
-41.1969
-41.0915
-41.0016
-40.9349
-40.864
-40.8051
-40.7461
-40.7128
-40.6692
-40.6413
-40.5933
-40.5607
-40.4788
-40.3943
-40.266
-40.2089
-40.2373
-40.309
-40.3448
-40.309
-40.2781
-40.2105
-40.1645
-40.1125
-40.0835
-40.0528
-40.0268
-39.9933
-39.9601
-39.8969
-39.8273
-39.6963
-39.6361
-39.6465
-39.7361
-39.7893
-39.7538
-39.7146
-39.6506
-39.5985
-39.5507
-39.5167
-39.4897
-39.466
-39.4327
-39.4096
-39.3378
-39.2738
-39.1409
-39.0795
-39.0873
-39.1649
-39.2194
-39.2043
-39.1757
-39.0997
-39.0334
-38.9742
-38.9436
-38.9108
-38.8923
-38.8466
-38.8127
-38.7339
-38.6601
-38.55
-38.4831
-38.4832
-38.5156
-38.5256
-38.5064
-38.4575
-38.3861
-38.2992
-38.2116
-38.1209
-38.0313
-37.9309
-37.8305
-37.6885
-37.5121
-37.3357
-37.1627
-36.962
-36.7256
-36.4997
-36.2597
-35.9671
-35.6188
-35.2662
-34.8911
-34.4974
-34.1593
-33.9839
-34.1626
-35.0742
-37.0776
-41.477
-52.0769
-62.8041
-69.3607
-73.0115
-75.8838
-78.505
-80.6438
-81.9995
-82.61
-82.9163
-83.0764
-83.0011
-82.9452
-82.8122
-82.9565
-83.0217
-83.1898
-83.2465
-83.4129
-83.4074
-83.5479
-83.7068
-84.259
-84.8944
-85.4499
-85.7864
-86.1908
-86.654
-86.9436
-87.3561
-87.5728
-87.9374
-88.3132
-88.7793
-89.0154
-89.4453
-89.7047
-90.0175
-90.0964
-90.352
-90.8283
-91.3945
-91.6069
-91.7618
-91.7511
-91.6701
-91.4464
-91.1739
-90.5998
-90.0648
-89.0954
-88.019
-86.5368
-84.7696
-82.4468
-79.7218
-76.3855
-72.6051
-68.2016
-63.2655
-57.4813
-50.8533
-43.4349
-35.0157
-25.6336
-14.9712
-2.96778
10.7976
26.3659
43.9669
63.2417
83.9923
105.912
131.092
167.147
232.884
329.985
-48.5142
-45.2049
-43.5644
-42.9321
-42.7258
-42.6297
-42.5184
-42.3856
-42.235
-42.0797
-41.9092
-41.7424
-41.5749
-41.4141
-41.2879
-41.2173
-41.1959
-41.1776
-41.1253
-41.0569
-40.9815
-40.9064
-40.8346
-40.7699
-40.7156
-40.6645
-40.6219
-40.5898
-40.5567
-40.5176
-40.4663
-40.3967
-40.3118
-40.2611
-40.2556
-40.2654
-40.2604
-40.2459
-40.2202
-40.1764
-40.1265
-40.0823
-40.0441
-40.0164
-39.9896
-39.9585
-39.9183
-39.8777
-39.8216
-39.7357
-39.6694
-39.6581
-39.6852
-39.6951
-39.6749
-39.648
-39.6058
-39.5597
-39.5167
-39.4794
-39.455
-39.4234
-39.3977
-39.3604
-39.3139
-39.2571
-39.1746
-39.1157
-39.1053
-39.1271
-39.1288
-39.1087
-39.0809
-39.0354
-38.9906
-38.951
-38.9071
-38.8669
-38.837
-38.8093
-38.7703
-38.7189
-38.6555
-38.5768
-38.5204
-38.5022
-38.4937
-38.4604
-38.4231
-38.3817
-38.3183
-38.2489
-38.165
-38.0859
-37.9984
-37.9255
-37.8339
-37.6923
-37.5193
-37.3318
-37.1543
-36.9555
-36.7325
-36.4989
-36.2502
-35.9601
-35.6457
-35.3357
-35.0248
-34.7454
-34.5822
-34.5984
-34.9977
-36.7294
-40.8825
-45.7669
-53.938
-63.7416
-70.2401
-74.0504
-76.5196
-78.6434
-80.5394
-81.9412
-82.665
-82.9892
-83.0224
-82.9613
-82.8929
-82.7564
-82.776
-82.8129
-82.9543
-83.0644
-83.2363
-83.3125
-83.4704
-83.6957
-84.0747
-84.5072
-84.9699
-85.3963
-85.7841
-86.1694
-86.4821
-86.8111
-87.0875
-87.3943
-87.7028
-88.0312
-88.3105
-88.6237
-88.8755
-89.136
-89.3132
-89.5913
-89.8104
-90.087
-90.2834
-90.2968
-90.276
-90.0447
-89.7726
-89.2078
-88.5772
-87.5871
-86.525
-85.1806
-83.655
-81.8186
-79.6858
-77.1054
-74.0992
-70.5417
-66.411
-61.5738
-56.0123
-49.7198
-42.4967
-34.3303
-25.0807
-14.7457
-3.09976
9.98562
24.8775
41.6886
60.4209
80.4033
101.263
123.596
152.339
195.534
252.702
-51.443
-48.2555
-45.9913
-44.5714
-43.6573
-43.1668
-42.8452
-42.5991
-42.3886
-42.1914
-42.0156
-41.8387
-41.6766
-41.5432
-41.4482
-41.3823
-41.3107
-41.2403
-41.1783
-41.1163
-41.053
-40.9935
-40.9357
-40.8867
-40.8373
-40.7922
-40.7437
-40.6887
-40.6337
-40.5819
-40.5332
-40.476
-40.4225
-40.389
-40.3677
-40.3437
-40.3269
-40.3074
-40.2841
-40.2573
-40.23
-40.1935
-40.1595
-40.1158
-40.0781
-40.0331
-39.9823
-39.9368
-39.8922
-39.8521
-39.8162
-39.8
-39.7713
-39.7586
-39.7499
-39.7248
-39.694
-39.6646
-39.6273
-39.5974
-39.5561
-39.5191
-39.4721
-39.4246
-39.3788
-39.3318
-39.2897
-39.2534
-39.245
-39.2242
-39.2084
-39.2012
-39.1791
-39.1413
-39.106
-39.0678
-39.0337
-38.9921
-38.9463
-38.895
-38.8432
-38.795
-38.7424
-38.6946
-38.6576
-38.639
-38.6023
-38.5706
-38.5489
-38.5097
-38.4647
-38.3991
-38.3175
-38.2399
-38.166
-38.0892
-37.9945
-37.8919
-37.7381
-37.5812
-37.4274
-37.2607
-37.0613
-36.8489
-36.6095
-36.3253
-35.9873
-35.6355
-35.2968
-35.009
-34.8344
-34.8618
-35.2572
-36.9825
-41.7599
-48.0178
-56.0516
-65.343
-71.1936
-74.7239
-77.172
-79.0376
-80.7976
-82.1763
-82.9206
-83.1452
-83.3163
-83.2322
-83.1496
-83.0723
-83.0237
-82.9835
-83.0588
-83.138
-83.3207
-83.4415
-83.674
-83.9149
-84.3265
-84.6469
-85.0382
-85.4809
-85.9143
-86.3552
-86.709
-87.171
-87.4614
-87.9042
-88.2068
-88.652
-88.9448
-89.3762
-89.6671
-90.0688
-90.3546
-90.7135
-91.0309
-91.3642
-91.6583
-91.9043
-92.1079
-92.2144
-92.2557
-92.2016
-92.0553
-91.7976
-91.1812
-90.6314
-89.431
-87.8997
-85.9355
-83.5822
-80.7749
-77.5276
-73.7367
-69.387
-64.3451
-58.5841
-52.0433
-44.6119
-36.2548
-26.8505
-16.3672
-4.6585
8.3689
22.8585
38.7897
56.1477
75.1057
96.85
124.131
158.943
197.367
-52.4381
-49.445
-47.2033
-45.5492
-44.382
-43.6122
-43.0802
-42.7259
-42.4433
-42.2136
-41.997
-41.8067
-41.6281
-41.4754
-41.352
-41.2761
-41.2198
-41.1623
-41.1002
-41.0339
-40.9626
-40.8879
-40.8179
-40.7513
-40.7058
-40.6651
-40.6356
-40.5999
-40.5582
-40.515
-40.4621
-40.4066
-40.3498
-40.3135
-40.2849
-40.2629
-40.2437
-40.223
-40.1928
-40.1537
-40.107
-40.0711
-40.0403
-40.0243
-39.9935
-39.9618
-39.9204
-39.8761
-39.8289
-39.774
-39.7333
-39.6995
-39.6872
-39.6705
-39.6504
-39.6263
-39.5909
-39.5456
-39.5086
-39.4719
-39.4548
-39.4299
-39.4007
-39.36
-39.3169
-39.2692
-39.2127
-39.1721
-39.1387
-39.132
-39.1117
-39.0813
-39.0489
-39.0156
-38.9739
-38.9399
-38.9029
-38.8832
-38.8557
-38.8195
-38.777
-38.7295
-38.6768
-38.6157
-38.578
-38.5409
-38.5247
-38.4865
-38.4372
-38.3956
-38.3367
-38.286
-38.2474
-38.1794
-38.1076
-38.034
-37.9567
-37.8427
-37.7214
-37.5871
-37.4558
-37.3087
-37.1452
-36.961
-36.7645
-36.5514
-36.3158
-36.0609
-35.786
-35.5172
-35.3255
-35.3413
-35.6889
-36.8329
-40.3564
-46.7735
-54.0881
-62.5087
-69.627
-74.0852
-76.6473
-78.2876
-79.9352
-81.3908
-82.4903
-83.0877
-82.9991
-82.8534
-82.6705
-82.4308
-82.3825
-82.3596
-82.4443
-82.5536
-82.7059
-82.8314
-82.9996
-83.2317
-83.5186
-83.9447
-84.3574
-84.734
-85.1357
-85.4507
-85.8255
-86.1252
-86.4821
-86.753
-87.1102
-87.3833
-87.7312
-87.9897
-88.3045
-88.5108
-88.7847
-89.0208
-89.3623
-89.6729
-89.8962
-90.0829
-90.1631
-90.1856
-90.085
-89.8073
-89.3251
-88.7255
-88.0268
-87.2386
-86.3567
-85.2425
-83.8916
-82.1353
-79.9695
-77.3124
-74.143
-70.3749
-65.9648
-60.9015
-55.0539
-48.3419
-40.6877
-32.0221
-22.3015
-11.5246
0.259077
12.9184
26.3838
40.7043
56.4784
75.0777
98.3628
126.354
154.354
-52.8143
-50.1405
-47.9932
-46.337
-45.0694
-44.1524
-43.4864
-43.0062
-42.6434
-42.353
-42.1144
-41.9198
-41.7617
-41.6431
-41.5405
-41.4519
-41.3594
-41.2778
-41.2146
-41.1558
-41.0971
-41.0417
-40.9859
-40.9391
-40.892
-40.8516
-40.8
-40.7454
-40.6953
-40.6471
-40.599
-40.5476
-40.515
-40.479
-40.4433
-40.4081
-40.3784
-40.3519
-40.3281
-40.3039
-40.2831
-40.2482
-40.218
-40.1732
-40.1339
-40.0881
-40.0477
-40.0058
-39.9625
-39.9343
-39.9088
-39.8903
-39.8435
-39.8075
-39.7861
-39.764
-39.7406
-39.7204
-39.6869
-39.6598
-39.6138
-39.5766
-39.5293
-39.4896
-39.4474
-39.4049
-39.3757
-39.3471
-39.3306
-39.2871
-39.2576
-39.2422
-39.2208
-39.1918
-39.167
-39.1321
-39.102
-39.0497
-39.0051
-38.9613
-38.9191
-38.8762
-38.827
-38.7944
-38.7595
-38.7405
-38.6811
-38.6428
-38.6222
-38.5922
-38.5468
-38.4807
-38.4065
-38.3587
-38.3099
-38.2438
-38.1565
-38.0624
-37.9449
-37.8314
-37.6993
-37.5609
-37.4097
-37.243
-37.0593
-36.8646
-36.6428
-36.4103
-36.1972
-36.0188
-35.9162
-36.0109
-36.4819
-37.5868
-40.1851
-45.6868
-52.3461
-60.2518
-67.8359
-73.2506
-76.5934
-79.4121
-80.8827
-82.0176
-83.2279
-83.7596
-83.9736
-83.7799
-83.2707
-83.123
-82.9634
-82.8088
-82.8293
-82.8931
-83.0456
-83.2701
-83.5248
-83.7925
-84.1161
-84.3841
-84.7594
-85.197
-85.6394
-86.08
-86.4657
-86.9023
-87.2617
-87.6617
-88.01
-88.4021
-88.7462
-89.1291
-89.5157
-89.9314
-90.2503
-90.5496
-90.8373
-91.169
-91.5104
-91.8495
-92.1982
-92.501
-92.8061
-92.9736
-93.1004
-93.0958
-92.8936
-92.4471
-91.6223
-90.4809
-89.0141
-87.2212
-85.0521
-82.4881
-79.5015
-76.0336
-71.9825
-67.3335
-62.0122
-55.8975
-48.9198
-40.9803
-32.0436
-22.1007
-11.2613
0.321092
12.5388
25.435
39.4535
55.8136
75.4039
98.0628
119.604
-52.1664
-49.9695
-48.0601
-46.5478
-45.3229
-44.3732
-43.6506
-43.1069
-42.6841
-42.3569
-42.087
-41.8696
-41.6827
-41.5243
-41.388
-41.2745
-41.1893
-41.121
-41.0617
-41.0013
-40.9412
-40.8759
-40.81
-40.7407
-40.6918
-40.6465
-40.6207
-40.591
-40.5577
-40.5214
-40.4733
-40.4296
-40.3835
-40.3469
-40.2967
-40.2604
-40.2401
-40.2173
-40.1859
-40.1497
-40.105
-40.0718
-40.0378
-40.0206
-39.9899
-39.9633
-39.9276
-39.888
-39.8481
-39.7988
-39.7603
-39.714
-39.6892
-39.6758
-39.6536
-39.621
-39.5858
-39.5412
-39.5076
-39.4712
-39.4565
-39.4256
-39.4032
-39.3685
-39.3308
-39.2909
-39.2396
-39.2017
-39.1578
-39.1424
-39.124
-39.0837
-39.0476
-39.0134
-38.9738
-38.9427
-38.9051
-38.8882
-38.8586
-38.8308
-38.7972
-38.7554
-38.7115
-38.6549
-38.6167
-38.566
-38.5665
-38.5395
-38.4796
-38.4372
-38.4027
-38.3618
-38.3213
-38.2682
-38.2252
-38.162
-38.1021
-38.0193
-37.9446
-37.8503
-37.7551
-37.6545
-37.5491
-37.4307
-37.3109
-37.1655
-36.9965
-36.8254
-36.67
-36.5544
-36.5071
-36.6304
-37.0946
-38.1582
-40.3148
-44.3389
-50.0261
-57.0293
-64.2857
-70.3985
-74.742
-77.425
-79.6356
-81.5852
-82.627
-82.9359
-83.1464
-82.9427
-82.818
-82.4266
-82.1026
-81.903
-81.8974
-82.0635
-82.1563
-82.2667
-82.4765
-82.7528
-83.0267
-83.4304
-83.8353
-84.1818
-84.5517
-84.8696
-85.2483
-85.5525
-85.951
-86.1987
-86.5813
-86.8787
-87.2076
-87.4758
-87.8056
-88.0909
-88.4111
-88.7632
-89.1648
-89.5432
-89.869
-90.1567
-90.3698
-90.5889
-90.6599
-90.7153
-90.5261
-90.2796
-90.0306
-89.7505
-89.4247
-88.9259
-88.1925
-87.1271
-85.687
-83.8072
-81.4758
-78.6373
-75.2262
-71.2475
-66.6432
-61.3369
-55.2451
-48.285
-40.4172
-31.6398
-22.038
-11.7254
-0.793036
10.8244
23.4937
38.0233
54.7951
73.5404
90.7798
-51.0194
-49.2522
-47.7099
-46.4427
-45.3515
-44.4663
-43.7749
-43.2214
-42.7926
-42.4552
-42.1841
-41.9552
-41.7762
-41.6323
-41.5323
-41.4637
-41.3758
-41.2944
-41.23
-41.1739
-41.1148
-41.0658
-41.0159
-40.9765
-40.9297
-40.8923
-40.8434
-40.7916
-40.744
-40.6935
-40.6449
-40.5947
-40.5697
-40.5396
-40.5084
-40.4699
-40.4319
-40.3987
-40.3724
-40.3484
-40.3312
-40.2992
-40.2713
-40.2234
-40.1907
-40.1401
-40.1022
-40.0584
-40.0178
-39.9953
-39.9707
-39.9612
-39.9135
-39.8688
-39.8399
-39.8143
-39.7897
-39.7708
-39.7384
-39.7142
-39.666
-39.6314
-39.5758
-39.5403
-39.5003
-39.4609
-39.4383
-39.4097
-39.3974
-39.3497
-39.3116
-39.2934
-39.2702
-39.2433
-39.2211
-39.1863
-39.1583
-39.1041
-39.0617
-39.0131
-38.9763
-38.9347
-38.8912
-38.8686
-38.8348
-38.8181
-38.7465
-38.7071
-38.6887
-38.6615
-38.6137
-38.5636
-38.5027
-38.4579
-38.4039
-38.3648
-38.2963
-38.2321
-38.1502
-38.0708
-37.9755
-37.8748
-37.7696
-37.6716
-37.5655
-37.4523
-37.332
-37.2151
-37.1265
-37.085
-37.1118
-37.27
-37.6979
-38.5983
-40.3192
-43.3386
-47.8069
-53.6146
-60.2603
-66.7428
-72.2067
-76.3135
-79.3344
-81.7462
-83.3261
-84.5258
-84.9684
-84.462
-83.6776
-83.2961
-82.921
-82.5124
-82.3681
-82.3454
-82.5587
-82.8233
-83.0909
-83.3685
-83.7034
-84.0075
-84.3931
-84.8372
-85.2593
-85.7215
-86.0894
-86.5309
-86.8814
-87.2681
-87.5901
-87.9867
-88.3333
-88.7053
-89.0639
-89.4481
-89.7586
-90.0848
-90.417
-90.7756
-91.1695
-91.5934
-92.0271
-92.4469
-92.8676
-93.2483
-93.5858
-93.76
-93.7495
-93.5534
-93.1339
-92.4916
-91.6174
-90.5067
-89.1262
-87.4021
-85.2907
-82.7536
-79.7063
-76.1337
-71.9954
-67.2304
-61.7765
-55.5638
-48.5747
-40.8119
-32.3236
-23.1848
-13.4366
-2.98359
8.48591
21.4469
36.056
51.9661
66.2349
-49.335
-48.0142
-46.839
-45.8548
-44.9658
-44.2148
-43.6036
-43.0894
-42.6762
-42.3445
-42.07
-41.8458
-41.6554
-41.5026
-41.3643
-41.2432
-41.1315
-41.0493
-41.0013
-40.9494
-40.9041
-40.8488
-40.7918
-40.7266
-40.6756
-40.6152
-40.6019
-40.5828
-40.5577
-40.5291
-40.4877
-40.4487
-40.4005
-40.3653
-40.311
-40.2749
-40.2572
-40.23
-40.1956
-40.1589
-40.113
-40.0808
-40.0454
-40.0292
-39.9983
-39.9744
-39.9418
-39.9074
-39.8711
-39.8199
-39.7798
-39.7287
-39.7052
-39.6797
-39.6526
-39.6302
-39.597
-39.5516
-39.5183
-39.48
-39.467
-39.436
-39.4155
-39.3833
-39.3502
-39.3148
-39.2641
-39.2267
-39.1763
-39.1581
-39.1343
-39.0905
-39.057
-39.0247
-38.9851
-38.9552
-38.9171
-38.9059
-38.8753
-38.8558
-38.8218
-38.7834
-38.7463
-38.6917
-38.6543
-38.6018
-38.6098
-38.5843
-38.5312
-38.4859
-38.454
-38.4171
-38.3933
-38.3484
-38.3041
-38.2641
-38.2286
-38.1721
-38.1309
-38.0729
-38.0117
-37.9478
-37.8973
-37.8394
-37.7761
-37.7054
-37.6333
-37.5724
-37.5399
-37.5592
-37.6474
-37.858
-38.2809
-39.0673
-40.4402
-42.7315
-46.1521
-50.7432
-56.273
-62.1717
-67.7585
-72.5478
-76.4318
-79.5258
-81.6508
-82.9383
-83.2669
-83.2523
-83.0369
-82.4228
-82.1145
-81.8213
-81.6426
-81.5478
-81.5806
-81.6701
-81.9412
-82.3159
-82.5268
-82.9531
-83.3709
-83.719
-84.093
-84.4521
-84.8369
-85.2013
-85.5675
-85.8934
-86.2411
-86.5375
-86.8587
-87.1665
-87.5
-87.8444
-88.2147
-88.6196
-89.0395
-89.4539
-89.8659
-90.2798
-90.7003
-91.1051
-91.4396
-91.6976
-91.8756
-92.0389
-92.1283
-92.1926
-92.2604
-92.2413
-92.0435
-91.6121
-90.8959
-89.801
-88.2651
-86.2823
-83.8035
-80.7813
-77.1938
-73.0226
-68.2181
-62.7158
-56.523
-49.6716
-42.1902
-34.1042
-25.4191
-16.02
-5.65661
5.95464
18.8606
32.6737
44.8353
-47.3357
-46.463
-45.669
-44.9668
-44.3164
-43.7757
-43.2997
-42.8872
-42.5539
-42.2694
-42.0379
-41.8421
-41.6792
-41.5341
-41.4481
-41.3795
-41.3285
-41.2716
-41.208
-41.1509
-41.0944
-41.0559
-41.0174
-40.9911
-40.9483
-40.9097
-40.8639
-40.8163
-40.7713
-40.7227
-40.6788
-40.6338
-40.6052
-40.568
-40.5526
-40.5179
-40.4687
-40.4378
-40.4117
-40.3886
-40.3731
-40.3417
-40.3142
-40.2651
-40.2375
-40.1879
-40.155
-40.1021
-40.0628
-40.044
-40.0189
-40.0095
-39.9629
-39.9228
-39.8898
-39.8562
-39.8324
-39.8157
-39.7838
-39.7602
-39.7108
-39.6804
-39.6289
-39.5962
-39.5451
-39.5059
-39.4865
-39.4586
-39.4484
-39.3985
-39.3598
-39.3429
-39.316
-39.2888
-39.2679
-39.2336
-39.2074
-39.1547
-39.1194
-39.0597
-39.0202
-38.9834
-38.9446
-38.9261
-38.8909
-38.8696
-38.7947
-38.7632
-38.7527
-38.7304
-38.6904
-38.6489
-38.5949
-38.5604
-38.5217
-38.4783
-38.4219
-38.3866
-38.3369
-38.2843
-38.2152
-38.1579
-38.1058
-38.0563
-37.9998
-37.9462
-37.9009
-37.8788
-37.8979
-37.9669
-38.1052
-38.3531
-38.7779
-39.4776
-40.6147
-42.4041
-45.0287
-48.5904
-53.0262
-58.053
-63.2241
-68.1126
-72.4676
-76.2153
-79.2041
-81.4109
-82.8386
-83.6446
-83.7607
-83.2938
-82.5566
-82.1367
-81.8911
-81.9354
-82.0544
-82.1436
-82.3778
-82.6628
-83.2559
-83.5843
-83.9436
-84.3423
-84.7666
-85.1858
-85.59
-86.0167
-86.3759
-86.728
-87.0676
-87.4361
-87.7617
-88.0883
-88.4187
-88.7873
-89.111
-89.4385
-89.8131
-90.2375
-90.6812
-91.1442
-91.6245
-92.1276
-92.6171
-93.0927
-93.5492
-93.9314
-94.1959
-94.26
-94.1475
-93.9685
-93.7058
-93.3357
-92.8251
-92.0934
-91.0224
-89.542
-87.6111
-85.1712
-82.1751
-78.6129
-74.4628
-69.6689
-64.2411
-58.2287
-51.6612
-44.5304
-36.8072
-28.3704
-19.0229
-8.58157
2.95315
15.1627
25.79
-45.0578
-44.6074
-44.1773
-43.7631
-43.3718
-43.038
-42.7178
-42.4377
-42.1958
-41.9813
-41.788
-41.6226
-41.4732
-41.3465
-41.2391
-41.1475
-41.0288
-40.9368
-40.9121
-40.8702
-40.8445
-40.8016
-40.759
-40.7017
-40.6634
-40.599
-40.5928
-40.5743
-40.5557
-40.5359
-40.5009
-40.464
-40.4152
-40.3818
-40.3326
-40.3
-40.2824
-40.2492
-40.2149
-40.1784
-40.1322
-40.1006
-40.0654
-40.0503
-40.017
-39.992
-39.9631
-39.9352
-39.8988
-39.8471
-39.808
-39.7542
-39.7331
-39.7062
-39.6771
-39.6552
-39.6197
-39.5739
-39.5412
-39.5019
-39.4891
-39.4568
-39.4328
-39.4038
-39.3786
-39.3427
-39.2912
-39.2546
-39.2016
-39.1866
-39.1614
-39.1153
-39.0826
-39.0494
-39.0098
-38.9815
-38.9445
-38.9309
-38.901
-38.883
-38.851
-38.8164
-38.7834
-38.7323
-38.6976
-38.6481
-38.6511
-38.6169
-38.5665
-38.5286
-38.5002
-38.4739
-38.4539
-38.4203
-38.3913
-38.3699
-38.3485
-38.3031
-38.2767
-38.2387
-38.2108
-38.1849
-38.1736
-38.1603
-38.151
-38.1492
-38.1611
-38.1797
-38.2213
-38.3226
-38.4938
-38.7707
-39.1901
-39.827
-40.798
-42.2486
-44.308
-47.0866
-50.5973
-54.7178
-59.1831
-63.6828
-67.9507
-71.8109
-75.0576
-77.5758
-79.3183
-80.374
-80.8511
-80.9109
-80.689
-80.491
-80.3598
-80.408
-80.7141
-81.233
-81.6018
-81.6873
-81.9956
-82.4928
-82.984
-83.3984
-83.784
-84.1527
-84.5417
-84.9277
-85.3048
-85.6652
-86.0066
-86.3128
-86.6368
-86.9619
-87.2912
-87.649
-88.0326
-88.4406
-88.8503
-89.303
-89.7835
-90.2746
-90.7859
-91.3157
-91.8514
-92.3571
-92.857
-93.3528
-93.8176
-94.2385
-94.5683
-94.7859
-94.8897
-94.8337
-94.6183
-94.2431
-93.5889
-92.567
-91.1439
-89.2828
-86.8958
-83.9471
-80.4422
-76.3557
-71.6832
-66.4659
-60.746
-54.5005
-47.6692
-40.1264
-31.7133
-22.2944
-11.8891
-0.935091
8.52933
-42.6498
-42.5655
-42.4894
-42.3807
-42.259
-42.1486
-42.0142
-41.8916
-41.784
-41.6754
-41.5661
-41.4716
-41.3825
-41.294
-41.2268
-41.1867
-41.2041
-41.1861
-41.1288
-41.078
-41.0266
-41.0004
-40.9698
-40.9643
-40.9294
-40.9005
-40.8612
-40.8174
-40.7748
-40.7324
-40.6962
-40.6546
-40.6286
-40.5955
-40.5788
-40.553
-40.5099
-40.4722
-40.4425
-40.4192
-40.4045
-40.374
-40.3465
-40.298
-40.2689
-40.2196
-40.1872
-40.1337
-40.0978
-40.0805
-40.0549
-40.0443
-39.9981
-39.96
-39.9268
-39.8901
-39.8674
-39.8509
-39.8194
-39.7956
-39.7451
-39.7136
-39.6624
-39.6299
-39.5773
-39.5409
-39.5229
-39.4941
-39.4829
-39.4324
-39.3949
-39.38
-39.3518
-39.3252
-39.3041
-39.2707
-39.2462
-39.1964
-39.1613
-39.1117
-39.075
-39.0253
-38.9867
-38.9685
-38.9357
-38.9164
-38.8453
-38.8119
-38.8107
-38.7873
-38.7633
-38.7287
-38.6831
-38.6452
-38.6105
-38.5738
-38.5284
-38.5153
-38.4802
-38.4499
-38.4176
-38.4001
-38.3722
-38.353
-38.3452
-38.3543
-38.3667
-38.3958
-38.468
-38.5954
-38.8017
-39.098
-39.517
-40.111
-40.9633
-42.1748
-43.8401
-46.0533
-48.8526
-52.1972
-55.9398
-59.8832
-63.8209
-67.5945
-70.9968
-73.8908
-76.1923
-77.9009
-79.0849
-79.8443
-80.2715
-80.4861
-80.6639
-80.8882
-81.19
-81.5116
-81.6864
-82.128
-82.7613
-83.0807
-83.3119
-83.739
-84.2102
-84.6501
-85.0768
-85.5033
-85.83
-86.165
-86.5138
-86.8492
-87.1618
-87.4862
-87.7927
-88.1081
-88.4381
-88.7977
-89.1795
-89.5991
-90.0581
-90.5569
-91.0902
-91.6394
-92.205
-92.7918
-93.339
-93.8387
-94.3088
-94.7553
-95.1591
-95.5208
-95.8403
-96.0666
-96.1654
-96.1336
-95.9
-95.3454
-94.4173
-93.1096
-91.3317
-89.0054
-86.135
-82.7365
-78.8028
-74.3494
-69.4295
-64.0222
-58.0479
-51.3672
-43.8298
-35.3189
-25.8683
-15.9219
-7.34919
-40.1208
-40.3526
-40.6092
-40.7989
-40.9318
-41.0699
-41.1227
-41.153
-41.1697
-41.1659
-41.1421
-41.113
-41.0717
-41.0274
-40.9757
-40.9212
-40.8388
-40.7958
-40.7977
-40.7751
-40.7661
-40.7309
-40.7064
-40.6689
-40.6464
-40.5911
-40.5885
-40.5724
-40.5576
-40.5417
-40.5126
-40.4807
-40.4318
-40.3978
-40.3567
-40.3176
-40.2965
-40.2759
-40.2444
-40.2082
-40.1629
-40.1331
-40.0998
-40.0861
-40.0497
-40.0265
-39.9974
-39.9691
-39.9318
-39.8813
-39.8419
-39.7869
-39.7671
-39.7396
-39.711
-39.6903
-39.6533
-39.6093
-39.5783
-39.5401
-39.5274
-39.4927
-39.4694
-39.4394
-39.4143
-39.3773
-39.3264
-39.2893
-39.2356
-39.22
-39.1909
-39.1465
-39.1188
-39.0848
-39.0471
-39.0207
-38.9858
-38.9764
-38.9438
-38.9201
-38.8909
-38.8612
-38.8264
-38.7779
-38.7447
-38.6971
-38.6916
-38.6559
-38.6064
-38.5731
-38.5485
-38.5309
-38.5203
-38.5016
-38.4864
-38.466
-38.4382
-38.4135
-38.3887
-38.3592
-38.3634
-38.3631
-38.3662
-38.3742
-38.4025
-38.4403
-38.5044
-38.6041
-38.7225
-38.8692
-39.074
-39.3655
-39.7714
-40.3323
-41.0973
-42.1369
-43.5241
-45.3391
-47.62
-50.361
-53.4798
-56.8552
-60.3467
-63.8351
-67.1374
-70.1152
-72.6552
-74.6912
-76.2347
-77.3339
-78.0629
-78.5273
-78.8426
-79.139
-79.5075
-79.9765
-80.4195
-80.8411
-81.208
-81.8837
-82.739
-83.241
-83.4834
-83.825
-84.2216
-84.6896
-85.117
-85.4721
-85.7928
-86.1166
-86.4292
-86.7536
-87.0952
-87.471
-87.8435
-88.2117
-88.6026
-89.0409
-89.5225
-90.0576
-90.6348
-91.2407
-91.887
-92.5687
-93.2691
-93.9203
-94.5039
-95.0749
-95.6088
-96.0997
-96.5791
-97.0483
-97.4479
-97.736
-97.8903
-97.8066
-97.3884
-96.6259
-95.4538
-93.7611
-91.5284
-88.7896
-85.5564
-81.8396
-77.6874
-73.0891
-67.9631
-62.1487
-55.4589
-47.7799
-39.1668
-30.0458
-22.1448
-37.532
-38.0748
-38.6136
-39.1193
-39.5138
-39.8789
-40.1502
-40.3437
-40.5161
-40.6455
-40.7213
-40.792
-40.8347
-40.8564
-40.8768
-40.8897
-40.9355
-40.9654
-40.944
-40.9315
-40.9094
-40.9059
-40.8935
-40.9019
-40.8812
-40.8668
-40.836
-40.7997
-40.7609
-40.7244
-40.6964
-40.6608
-40.6352
-40.601
-40.5826
-40.5622
-40.5224
-40.4832
-40.4571
-40.4356
-40.4215
-40.3929
-40.3663
-40.319
-40.2922
-40.249
-40.215
-40.1604
-40.1247
-40.1052
-40.0786
-40.067
-40.0206
-39.9822
-39.9477
-39.9104
-39.8887
-39.8724
-39.8429
-39.8202
-39.7721
-39.7408
-39.6929
-39.6588
-39.6048
-39.5691
-39.5483
-39.5173
-39.5047
-39.4558
-39.4199
-39.4028
-39.3674
-39.3459
-39.3256
-39.294
-39.2707
-39.2219
-39.1878
-39.1402
-39.1046
-39.0544
-39.0192
-38.9996
-38.9687
-38.9525
-38.885
-38.8485
-38.855
-38.824
-38.8074
-38.7869
-38.761
-38.7288
-38.697
-38.6482
-38.6489
-38.6073
-38.5767
-38.5741
-38.5628
-38.5709
-38.5682
-38.5689
-38.5837
-38.6268
-38.6821
-38.7628
-38.8873
-39.0419
-39.2548
-39.5493
-39.9488
-40.4852
-41.1883
-42.1039
-43.2909
-44.816
-46.719
-49.0075
-51.6326
-54.5191
-57.5773
-60.7293
-63.8258
-66.7495
-69.3856
-71.6518
-73.5244
-75.0186
-76.1728
-77.0577
-77.7483
-78.3425
-78.9243
-79.5368
-80.173
-80.8366
-81.4959
-82.0983
-82.5584
-83.0198
-83.8301
-84.5394
-84.7189
-85.0205
-85.3024
-85.6566
-86.0169
-86.3591
-86.6328
-86.9096
-87.1958
-87.5286
-87.875
-88.212
-88.5492
-88.9289
-89.3576
-89.8502
-90.4053
-90.999
-91.6554
-92.3748
-93.1192
-93.8536
-94.5731
-95.2502
-95.8818
-96.4995
-97.1234
-97.7842
-98.4456
-99.0341
-99.5268
-99.876
-99.9806
-99.7784
-99.2162
-98.1763
-96.593
-94.4837
-91.9058
-88.8938
-85.4834
-81.6762
-77.4051
-72.4742
-66.6415
-59.7734
-51.9345
-43.5056
-36.0677
-34.8732
-35.7254
-36.5274
-37.315
-37.9666
-38.5377
-39.0193
-39.3874
-39.7132
-39.9636
-40.149
-40.3094
-40.4107
-40.4921
-40.5492
-40.5832
-40.5859
-40.586
-40.6187
-40.6243
-40.6398
-40.6315
-40.627
-40.6065
-40.6007
-40.5872
-40.5845
-40.5775
-40.5655
-40.5494
-40.5259
-40.502
-40.456
-40.4175
-40.3855
-40.3549
-40.3376
-40.3166
-40.2801
-40.2438
-40.2032
-40.1754
-40.1435
-40.1293
-40.0978
-40.0734
-40.0428
-40.0129
-39.9742
-39.9246
-39.8826
-39.8279
-39.8092
-39.7803
-39.751
-39.7296
-39.6935
-39.6538
-39.6254
-39.5896
-39.5778
-39.5453
-39.5212
-39.4881
-39.4594
-39.4213
-39.3708
-39.3305
-39.2758
-39.2609
-39.2296
-39.1871
-39.1589
-39.1256
-39.0931
-39.0702
-39.0392
-39.0314
-39.0019
-38.9759
-38.9444
-38.9118
-38.8744
-38.828
-38.7947
-38.7479
-38.7368
-38.7025
-38.6581
-38.6228
-38.5968
-38.5826
-38.5768
-38.5676
-38.5627
-38.553
-38.5275
-38.5123
-38.4719
-38.4603
-38.4762
-38.483
-38.4949
-38.5114
-38.5532
-38.6093
-38.6973
-38.8231
-38.9769
-39.1802
-39.4218
-39.718
-40.099
-40.6
-41.2401
-42.06
-43.0991
-44.4092
-46.0305
-47.9784
-50.2222
-52.7092
-55.3878
-58.2127
-61.0686
-63.8594
-66.4774
-68.8332
-70.8875
-72.6252
-74.0621
-75.2327
-76.1808
-76.9705
-77.6791
-78.3479
-78.9858
-79.6188
-80.2602
-80.9437
-81.6199
-82.2215
-82.7925
-83.3089
-84.1321
-84.8515
-85.0692
-85.2949
-85.6068
-85.8902
-86.2261
-86.578
-86.8995
-87.2502
-87.6116
-87.9684
-88.3054
-88.6743
-89.1039
-89.6049
-90.1714
-90.7671
-91.4029
-92.1391
-92.9581
-93.7611
-94.5147
-95.255
-95.9956
-96.7525
-97.5254
-98.318
-99.1452
-99.9786
-100.779
-101.508
-102.107
-102.489
-102.561
-102.19
-101.266
-99.7812
-97.829
-95.4811
-92.7775
-89.7369
-86.3134
-82.2977
-77.3746
-71.3554
-64.2801
-56.4681
-49.3654
-32.182
-33.3144
-34.3928
-35.4251
-36.3517
-37.1382
-37.8258
-38.397
-38.8735
-39.2789
-39.5952
-39.8577
-40.0618
-40.2179
-40.3549
-40.4593
-40.5657
-40.6437
-40.6798
-40.7194
-40.7367
-40.7601
-40.7728
-40.7974
-40.7953
-40.8007
-40.782
-40.7619
-40.7373
-40.7084
-40.6843
-40.6557
-40.6335
-40.601
-40.5739
-40.545
-40.5161
-40.4868
-40.4617
-40.4394
-40.4237
-40.3995
-40.3774
-40.3356
-40.3043
-40.2707
-40.2353
-40.1829
-40.1486
-40.1231
-40.0903
-40.0734
-40.0305
-39.9936
-39.958
-39.9189
-39.8975
-39.8785
-39.8523
-39.8332
-39.7907
-39.7576
-39.7209
-39.6831
-39.631
-39.5959
-39.5682
-39.5308
-39.5103
-39.4659
-39.4323
-39.421
-39.3832
-39.3575
-39.331
-39.3013
-39.2814
-39.2386
-39.2098
-39.1748
-39.1358
-39.0845
-39.0484
-39.0214
-38.9877
-38.9722
-38.9182
-38.8808
-38.8965
-38.8438
-38.8314
-38.8112
-38.7827
-38.7565
-38.7335
-38.7174
-38.6981
-38.6716
-38.6698
-38.6528
-38.6542
-38.6743
-38.6848
-38.7031
-38.728
-38.7869
-38.8647
-38.9607
-39.1068
-39.2941
-39.5231
-39.8063
-40.1697
-40.6373
-41.2322
-41.9827
-42.9149
-44.0639
-45.4721
-47.161
-49.1059
-51.2737
-53.6336
-56.1641
-58.781
-61.4082
-63.9467
-66.3134
-68.4559
-70.3495
-71.9889
-73.3872
-74.5647
-75.5674
-76.4502
-77.2567
-78.0124
-78.7407
-79.4576
-80.1881
-80.9373
-81.6946
-82.4782
-83.2214
-83.8917
-84.371
-84.8375
-85.4512
-85.8609
-85.9709
-86.1537
-86.4242
-86.7061
-87.0503
-87.3937
-87.7355
-88.0599
-88.3965
-88.7654
-89.2119
-89.757
-90.3866
-91.0633
-91.8119
-92.6584
-93.5329
-94.381
-95.1828
-95.9675
-96.8059
-97.6906
-98.591
-99.5202
-100.515
-101.585
-102.678
-103.754
-104.705
-105.411
-105.706
-105.46
-104.643
-103.331
-101.616
-99.5634
-97.2119
-94.5809
-91.5024
-87.5955
-82.5411
-76.301
-69.1091
-62.411
-29.4188
-30.8181
-32.1833
-33.4678
-34.6426
-35.6582
-36.5457
-37.3042
-37.9404
-38.4834
-38.916
-39.2779
-39.5692
-39.7967
-39.976
-40.1239
-40.2187
-40.2941
-40.3754
-40.4295
-40.4754
-40.5032
-40.5254
-40.5349
-40.5495
-40.5615
-40.5757
-40.5822
-40.58
-40.569
-40.5469
-40.5229
-40.4838
-40.4525
-40.4199
-40.3866
-40.3613
-40.3391
-40.3125
-40.2815
-40.2474
-40.2229
-40.1979
-40.1846
-40.1568
-40.1389
-40.1005
-40.0785
-40.0314
-39.9791
-39.9317
-39.8729
-39.8589
-39.8344
-39.8112
-39.7861
-39.7418
-39.7038
-39.6775
-39.6483
-39.6354
-39.608
-39.5898
-39.5537
-39.5309
-39.4802
-39.4271
-39.3813
-39.3225
-39.3072
-39.2759
-39.2387
-39.2121
-39.179
-39.1478
-39.1255
-39.1002
-39.0907
-39.0643
-39.041
-39.0067
-38.9827
-38.9376
-38.8864
-38.844
-38.7912
-38.7812
-38.7516
-38.708
-38.6849
-38.6567
-38.6414
-38.6377
-38.6301
-38.6319
-38.6295
-38.6199
-38.5986
-38.5719
-38.5703
-38.546
-38.5593
-38.5745
-38.5913
-38.6362
-38.6958
-38.7833
-38.912
-39.0699
-39.2691
-39.5162
-39.824
-40.2022
-40.6595
-41.2197
-41.9134
-42.7519
-43.7714
-45.0093
-46.4921
-48.2043
-50.1196
-52.2182
-54.498
-56.8951
-59.3499
-61.7812
-64.1102
-66.2828
-68.2642
-70.0387
-71.6049
-72.9661
-74.1424
-75.1768
-76.1096
-76.9653
-77.7667
-78.5361
-79.2947
-80.0447
-80.7909
-81.5492
-82.3217
-83.0975
-83.8051
-84.3777
-84.897
-85.3008
-85.7181
-86.1687
-86.5395
-86.7196
-87.0066
-87.3271
-87.6254
-87.9352
-88.2616
-88.5935
-88.9878
-89.4635
-90.0509
-90.7199
-91.4831
-92.3557
-93.2639
-94.1785
-95.0224
-95.8296
-96.7038
-97.6656
-98.6742
-99.7105
-100.821
-102.104
-103.513
-104.949
-106.349
-107.622
-108.562
-109.043
-109.011
-108.438
-107.358
-105.856
-104.041
-102.062
-99.8793
-97.1306
-93.2926
-88.1293
-81.7384
-75.5275
-26.5814
-28.2515
-29.904
-31.4625
-32.9078
-34.1589
-35.2602