/*--------------------------------*- C++ -*----------------------------------*\
| =========                 |                                                 |
| \\      /  F ield         | OpenFOAM: The Open Source CFD Toolbox           |
|  \\    /   O peration     | Version:  4.1                                   |
|   \\  /    A nd           | Web:      www.OpenFOAM.org                      |
|    \\/     M anipulation  |                                                 |
\*---------------------------------------------------------------------------*/
FoamFile
{
    version     2.0;
    format      ascii;
    class       volScalarField;
    location    "413";
    object      p;
}
// * * * * * * * * * * * * * * * * * * * * * * * * * * * * * * * * * * * * * //

dimensions      [0 2 -2 0 0 0 0];

internalField   nonuniform List<scalar> 
204246
(
127.71
-4.37934
39.9713
22.972
18.4286
25.4042
13.6702
25.1246
12.0838
24.9151
11.3231
25.5563
9.76852
25.9081
11.0922
23.3448
17.5972
12.1733
24.443
9.80287
25.7969
10.2777
24.5443
11.1445
24.5247
11.0496
25.4957
9.36417
26.4805
9.16103
26.5347
9.64574
25.683
12.1593
21.8386
18.4419
11.6616
24.1031
10.3475
23.7438
10.6905
23.8142
10.3563
24.6864
8.52545
25.5046
8.34582
25.1839
9.5253
22.9195
11.7773
20.3589
17.5186
10.3602
23.0225
9.08417
22.6103
9.4417
22.6569
9.09607
23.4855
7.20798
24.1959
6.91028
23.6394
7.90838
20.9699
9.71557
18.1131
14.3744
8.22827
17.486
6.08198
16.9792
5.00193
15.0696
2.92346
13.2723
-0.931613
10.4834
-4.11114
6.09996
-7.51824
-0.451872
-11.5103
-8.23252
-13.4708
-21.8635
-20.2846
-29.5207
-26.6758
-38.4407
-31.2601
-47.7765
-34.8849
-52.9824
-36.4759
-52.7602
-37.1153
-47.6668
-35.6829
-40.8978
-29.3852
-31.8185
-21.4151
-20.2279
-19.3687
-9.24954
-13.0864
0.139635
-9.14456
6.41476
-4.70536
10.3438
-2.21302
12.6724
-1.27041
13.6071
-0.779654
13.2459
0.111083
10.2484
4.87627
-1.13385
8.90161
-5.14594
7.75741
-7.46204
4.80605
-10.1725
1.6029
-13.4123
-1.65639
-16.8151
-4.83487
-19.5436
-8.15893
-20.9647
-12.5074
-17.6955
-24.485
-13.2282
-27.5114
-12.5331
-28.2233
-12.1175
-28.2292
-11.5656
-27.698
-10.8092
-26.7759
-9.93941
-25.3325
-9.298
-22.4284
-10.5335
-14.9622
-18.93
-6.80947
-19.2501
-3.163
-16.9875
-0.670939
-13.1477
2.1983
-8.41256
6.19316
-2.58948
11.3799
4.45966
17.7413
13.4921
25.7742
25.0825
35.3058
41.8838
44.1005
57.9954
62.5164
75.8567
85.5862
98.9864
113.308
128.233
148.156
166.006
194.277
216.955
260.837
289.797
377.518
393.448
600.485
44.8759
24.1752
21.3595
25.7562
18.5026
22.4977
17.0368
21.0351
16.1246
20.5183
15.564
20.5043
15.4788
19.5781
16.9286
17.4913
20.1561
14.7206
20.1499
15.0355
19.9595
15.6888
19.7039
15.6597
20.0028
15.4006
20.5866
15.0732
20.4977
15.2523
20.2058
15.8176
19.2315
17.397
17.2266
20.2441
14.8098
19.7472
15.2734
19.302
15.1349
19.4373
14.7441
19.8473
14.3065
19.5398
14.4911
18.9174
15.2552
17.807
16.2952
16.0005
19.1155
13.6155
18.599
14.0974
18.1575
13.972
18.3018
13.5834
18.6962
13.1157
18.3167
13.211
17.54
13.737
16.242
14.3082
14.2349
16.4453
11.5862
14.864
10.6588
13.6496
9.30154
12.6434
7.27541
11.0759
4.62773
8.20545
1.93665
4.16832
-1.19825
-1.21431
-4.91117
-8.66999
-8.52324
-16.6052
-17.7059
-24.2557
-26.6153
-32.6917
-33.4546
-40.1925
-39.5
-45.1546
-43.6726
-46.7558
-43.9326
-45.7617
-41.1814
-41.2194
-36.3506
-32.6272
-29.4491
-22.1996
-22.1898
-13.8994
-13.5758
-5.28732
-6.86717
-0.366395
-1.74602
3.66863
1.54778
6.38734
3.51524
7.75974
4.57105
7.58836
5.65522
5.28531
7.80221
2.10933
5.88437
0.481307
3.71943
-1.75156
1.35412
-4.54197
-1.53374
-7.65319
-4.84631
-10.8371
-8.47149
-13.616
-12.2434
-15.1901
-16.7237
-14.62
-21.2006
-17.0725
-22.4575
-17.9537
-22.9779
-18.0553
-22.9584
-17.7229
-22.4953
-17.1182
-21.6456
-16.4324
-20.2654
-16.046
-17.7674
-16.6125
-13.6272
-17.6278
-11.8687
-15.6973
-9.86187
-13.1726
-7.39668
-10.3415
-4.35518
-6.77064
-0.531002
-2.16347
4.28717
3.7425
9.75967
11.5543
16.778
21.3724
25.0057
33.7994
37.4846
46.5965
53.1484
62.7026
72.3743
82.8611
95.8863
107.491
124.653
137.493
160.681
174.131
209.366
216.022
290.737
256.178
390.858
17.5763
29.8468
23.3818
25.4064
20.4508
22.4838
17.8944
21.1682
16.4378
20.6006
15.8909
20.291
15.8351
19.6042
16.7502
18.1187
18.6119
16.188
19.4453
15.5517
19.828
15.5916
19.8558
15.6199
20.0042
15.5143
20.2829
15.3211
20.3598
15.4014
20.1745
15.8775
19.4326
17.0211
17.8175
18.6586
16.0569
19.1901
15.4884
19.3171
15.196
19.4021
14.8874
19.5286
14.5554
19.3987
14.5848
18.952
15.0697
18.0357
15.9987
16.5348
17.5804
14.8253
18.0281
14.2655
18.1336
13.9737
18.2137
13.675
18.3263
13.3361
18.1421
13.2931
17.5693
13.5997
16.3955
14.1188
14.608
14.9363
12.4901
14.5644
11.0427
13.7432
9.70273
12.3064
7.9878
10.3648
5.73157
7.44287
3.16711
3.50895
-0.11127
-1.65585
-4.30276
-8.13731
-9.99222
-15.1818
-17.149
-22.955
-25.1946
-31.0928
-33.5376
-38.8127
-40.5266
-44.5012
-44.5764
-47.2708
-45.1939
-46.5919
-42.9493
-41.762
-37.6589
-33.711
-29.7971
-24.0096
-21.5205
-14.8403
-13.4731
-6.76192
-5.82346
-1.08994
-0.451482
3.37461
2.61205
6.45733
4.21424
8.02555
5.12892
8.02376
6.00603
6.31782
6.72525
3.65612
5.95267
1.34177
4.2512
-0.880896
1.59977
-3.47632
-1.57062
-6.47967
-5.04223
-9.66814
-8.65343
-12.5966
-12.3873
-14.5416
-16.2633
-16.0058
-19.9571
-17.3244
-21.8349
-17.897
-22.704
-17.9466
-22.8385
-17.5965
-22.424
-16.9948
-21.569
-16.3362
-20.1793
-15.8978
-17.9395
-16.1082
-14.7545
-16.3111
-12.3027
-15.2021
-9.78696
-13.1417
-7.41309
-10.0176
-4.67953
-6.0422
-1.07862
-1.19427
3.64902
4.82338
9.74403
12.3137
17.2921
21.8606
26.9389
33.4989
38.5036
47.5454
54.1402
64.4071
74.0602
85.346
98.8763
111.426
129.987
143.885
169.528
184.224
223.914
231.846
308.002
286.731
375.511
6.0261
19.0615
15.8778
21.2892
17.2121
20.7508
17.171
19.7662
16.9517
18.9352
16.9732
18.4739
17.2787
17.7489
18.0982
16.846
19.015
16.5151
18.6071
16.8207
18.3445
17.1347
18.3091
17.133
18.4689
17.0612
18.6384
17.0917
18.5033
17.2828
18.22
17.6964
17.6585
18.4519
16.8866
19.0891
16.5838
18.4588
16.7632
18.0854
16.6587
17.9965
16.4703
17.9542
16.3862
17.61
16.5025
17.1494
16.8308
16.5608
17.3208
15.7676
17.8957
15.4877
17.2936
15.6515
16.9701
15.5631
16.9068
15.3846
16.86
15.2947
16.4779
15.3664
15.9283
15.5257
15.2022
15.6004
14.2761
15.8435
13.5463
14.5115
12.8478
13.2867
11.7614
12.1847
10.2814
10.6408
8.4425
8.17121
5.97123
4.92579
2.88131
0.485509
-1.24589
-5.17471
-6.59998
-12.1514
-14.2251
-19.9284
-22.8642
-28.2838
-31.6348
-36.4617
-40.0128
-43.2809
-46.3084
-47.3445
-48.3881
-48.1597
-46.9652
-44.8078
-42.1114
-37.4968
-34.3381
-27.6247
-25.1628
-18.0665
-15.7588
-9.93072
-7.48746
-3.61569
-1.30408
1.31895
2.66047
4.43493
5.15396
6.06348
6.57121
6.27645
7.32542
5.4486
7.4453
4.57873
5.89194
3.3822
3.57347
1.41241
1.04641
-1.1084
-1.95041
-4.09726
-5.38672
-7.40689
-9.08419
-10.7319
-12.7871
-13.4874
-16.3342
-15.694
-19.0941
-18.7909
-20.694
-20.0383
-21.4998
-20.3612
-21.6592
-20.1152
-21.242
-19.6094
-20.4166
-19.0226
-19.1725
-18.538
-17.3963
-18.0992
-15.6857
-17.0078
-14.5554
-15.3348
-13.0752
-13.2872
-11.0259
-10.9274
-8.50741
-7.96457
-5.24712
-4.23358
-1.09925
0.515772
3.92215
6.78291
10.2597
14.5716
18.1506
24.4067
28.5439
35.5177
41.6295
48.9965
57.6515
65.5079
77.0827
85.4158
100.614
109.412
129.964
137.087
170.114
165.003
222.49
209.355
280.451
6.33082
20.7749
15.6732
20.653
17.768
20.2295
17.8715
19.5446
17.5579
18.9424
17.3463
18.4413
17.508
17.8791
17.9126
17.3756
18.2745
17.2447
18.1345
17.1937
18.1658
17.21
18.2984
17.1675
18.4239
17.1531
18.4952
17.233
18.4227
17.3848
18.2135
17.68
17.7868
18.1053
17.2802
18.2974
17.198
18.0393
17.0375
17.9639
16.8038
17.9124
16.5979
17.7906
16.5217
17.5163
16.5431
17.1439
16.7154
16.6794
17.0081
16.2006
17.1583
16.0257
16.8804
15.8396
16.8016
15.5928
16.7633
15.4274
16.65
15.3774
16.3572
15.3495
15.9525
15.4656
15.2547
15.41
14.4181
15.1119
13.857
14.4358
13.0842
13.3916
11.9896
12.1747
10.5874
10.5928
8.82403
8.32818
6.54417
5.1874
3.46579
1.17702
-0.607211
-4.02498
-5.98041
-10.2564
-12.9381
-17.8901
-21.1788
-26.5613
-30.2259
-35.3546
-39.0611
-43.1175
-46.1823
-48.4762
-49.7976
-50.0098
-49.3057
-47.1777
-44.5309
-39.99
-36.1659
-29.8577
-25.9565
-19.39
-15.99
-10.1618
-7.45805
-3.096
-1.03643
1.79899
3.29738
4.94418
5.87786
6.68449
7.24793
7.25364
7.84949
6.8461
7.60119
5.99233
6.45129
4.61082
4.50913
2.56389
2.02504
-0.0154736
-0.964176
-3.04978
-4.39218
-6.38917
-8.1257
-9.8252
-11.9196
-13.0508
-15.3795
-15.9479
-18.1827
-18.5127
-19.9525
-19.8447
-21.0865
-20.19
-21.4485
-20.0026
-21.0797
-19.4706
-20.2726
-18.9128
-19.0036
-18.3711
-17.5424
-17.457
-15.8905
-16.3497
-14.5881
-14.7476
-12.869
-12.8409
-10.7714
-10.389
-8.08782
-7.37182
-4.69824
-3.56562
-0.453933
1.35263
4.81659
7.60539
11.476
15.5354
19.8417
25.316
30.5282
37.294
44.1539
51.9306
61.1974
69.8614
82.2928
91.6877
108.115
117.783
140.264
148.045
182.383
179.327
228.613
217.251
262.348
3.86305
14.6668
12.0437
16.8484
15.3244
17.8954
16.5945
18.0483
17.0458
17.8425
17.3111
17.5587
17.6436
17.2469
17.9961
17.0327
18.1919
17.2699
17.9139
17.5384
17.7688
17.6805
17.7875
17.7071
17.8688
17.736
17.8961
17.856
17.788
18.0154
17.6137
18.199
17.4245
18.4392
17.2
18.3997
17.27
17.9887
17.4144
17.5979
17.3192
17.4513
17.2245
17.2622
17.1985
16.9601
17.2197
16.6828
17.2489
16.4123
17.3082
16.1513
17.2718
16.2584
16.8399
16.3542
16.5755
16.2938
16.4149
16.1939
16.2062
16.1829
15.9039
16.1731
15.5951
16.1259
15.35
16.0295
14.8836
15.6214
14.4646
14.876
13.9289
14.0017
13.1226
12.9676
11.9855
11.6602
10.525
9.75479
8.52702
7.15541
5.78674
3.55055
2.03904
-1.27779
-3.15375
-7.50745
-10.0847
-15.1435
-18.5922
-24.0196
-28.2371
-33.572
-38.1539
-42.6958
-46.806
-49.844
-52.3012
-53.2561
-53.3628
-51.6472
-49.5072
-44.9134
-41.2168
-34.4808
-30.2937
-23.1043
-19.1163
-12.8808
-9.38369
-4.87187
-2.055
0.787826
2.83934
4.38137
5.81212
6.33343
7.3913
7.11784
8.01105
7.08719
7.77713
6.44705
6.71515
5.20427
5.05896
3.32607
2.79173
0.891153
-0.115681
-2.09581
-3.58971
-5.53246
-7.47842
-9.20465
-11.5463
-12.7916
-15.4126
-16.0996
-18.5742
-19.2762
-20.5769
-21.2026
-21.6261
-21.7571
-21.8519
-21.588
-21.3759
-20.9829
-20.5183
-20.2994
-19.4309
-19.5498
-18.3125
-18.7505
-17.225
-17.4934
-16.2078
-16.1901
-14.9592
-14.6017
-13.3215
-12.7564
-11.2191
-10.4482
-8.56458
-7.47354
-5.23558
-3.59359
-1.06223
1.37258
4.18466
7.63888
10.8791
15.3811
19.5204
24.6853
30.3811
35.9962
43.8359
49.8116
60.2762
66.5623
80.3279
86.3407
105.142
108.394
138.81
132.364
173.544
171.038
211.629
6.76337
16.9845
13.0236
17.0714
15.8141
17.6927
16.8848
17.9569
17.3024
17.8232
17.481
17.6139
17.6566
17.4138
17.8584
17.2523
17.8962
17.4346
17.7117
17.6304
17.663
17.7474
17.7521
17.741
17.8309
17.7852
17.8431
17.8855
17.8014
18.0187
17.6719
18.1359
17.4991
18.2188
17.4073
18.1509
17.5272
17.8133
17.5781
17.5549
17.4308
17.3932
17.2847
17.2032
17.2238
16.9576
17.149
16.6963
17.1274
16.4808
17.1182
16.2639
16.894
16.3676
16.5679
16.3848
16.4428
16.2104
16.3526
16.1696
16.1404
16.1495
15.8846
16.0681
15.5913
15.9685
15.2474
15.7741
14.8876
15.3989
14.5665
14.8073
14.0257
14.0389
13.2296
13.0663
12.1895
11.7768
10.8545
10.0681
9.02794
7.73632
6.5603
4.54164
3.12705
0.271468
-1.63991
-5.30328
-8.06944
-12.5224
-16.2308
-21.3888
-25.9445
-31.4599
-36.5047
-41.7447
-46.4295
-50.4897
-53.6417
-55.5457
-56.4127
-55.3811
-53.5576
-49.1421
-44.8546
-37.8446
-32.4059
-24.9766
-19.9344
-13.552
-9.45866
-4.73245
-1.71763
1.39673
3.45713
5.17691
6.65496
7.29845
8.36582
8.24296
9.05521
8.31254
8.9212
7.7527
8.03033
6.5525
6.42501
4.7479
4.15563
2.35691
1.28062
-0.614969
-2.17061
-4.07792
-6.08461
-7.88367
-10.2384
-11.7701
-14.2007
-15.4643
-17.5367
-18.6559
-19.9148
-20.7452
-21.2823
-21.5539
-21.6926
-21.4687
-21.3352
-20.8754
-20.4899
-20.0539
-19.4728
-19.2047
-18.2907
-18.2286
-17.0164
-17.0732
-15.8092
-15.6134
-14.3732
-13.992
-12.6064
-12.0483
-10.3985
-9.66504
-7.6398
-6.63102
-4.24633
-2.66256
0.0472529
2.40712
5.52583
8.79667
12.522
16.7483
21.4967
26.5378
32.8751
38.5602
46.9964
53.2237
64.2972
70.839
85.2597
91.3972
111.018
113.239
141.184
137.835
169.046
165.205
194.006
4.94059
14.3478
11.0731
14.899
14.1576
15.9503
15.6399
16.6865
16.5242
16.9673
17.0321
17.0151
17.4008
16.9986
17.6475
17.1319
17.7566
17.4087
17.6316
17.6647
17.5552
17.8563
17.5986
17.9093
17.6633
17.9666
17.6731
18.0921
17.6133
18.1993
17.5454
18.309
17.4307
18.4006
17.3563
18.1946
17.5791
17.8066
17.689
17.5334
17.6171
17.3018
17.5613
17.0703
17.5038
16.8436
17.4155
16.6762
17.3067
16.4443
17.2716
16.3546
17.0366
16.5309
16.6983
16.6118
16.496
16.6291
16.3309
16.5201
16.1772
16.4941
15.9884
16.4885
15.7689
16.411
15.6189
16.2437
15.3367
15.8589
15.1031
15.3017
14.675
14.7047
14.0746
13.9227
13.2665
12.883
12.1824
11.4689
10.6917
9.47759
8.55699
6.67938
5.45343
2.7684
0.962724
-2.60755
-5.28032
-9.75677
-13.4967
-18.7927
-23.6069
-29.4367
-35.0421
-40.9076
-46.5583
-51.6141
-56.093
-59.0515
-61.0487
-60.6073
-59.4243
-55.3416
-51.3566
-44.3057
-38.3843
-30.0496
-23.9171
-16.5145
-11.4498
-6.04316
-2.45727
0.944767
3.28921
5.06267
6.67299
7.3037
8.41939
8.30306
9.13729
8.42026
9.0361
7.95281
8.2556
6.95483
6.84022
5.35842
4.78073
3.14283
2.04795
0.256227
-1.38129
-3.26386
-5.40315
-7.30399
-9.84824
-11.6055
-14.3214
-15.7882
-18.3444
-19.5812
-21.1541
-22.0454
-22.7842
-23.0571
-23.0372
-22.8767
-22.3491
-22.0918
-21.2963
-21.154
-20.2082
-20.3119
-19.1967
-19.4459
-18.2786
-18.3396
-17.4471
-17.2816
-16.3908
-16.1013
-15.0742
-14.6837
-13.4384
-12.8757
-11.3863
-10.5095
-8.79817
-7.46233
-5.48941
-3.57339
-1.2453
1.33875
4.22871
7.45451
11.3003
15.0278
20.2424
24.3542
31.4442
35.8311
45.2666
49.8181
62.2697
66.1205
83.791
84.4981
109.092
107.181
135.628
135.539
162.556
8.07524
16.2701
12.4966
15.8786
14.9003
16.301
16.0791
16.7578
16.7172
16.9772
17.1204
17.0351
17.3686
17.0563
17.5189
17.141
17.6055
17.4254
17.4954
17.6591
17.4845
17.8342
17.5934
17.8993
17.6578
17.9899
17.6563
18.0941
17.6249
18.1894
17.5462
18.2688
17.4604
18.3089
17.5058
18.0763
17.7143
17.7134
17.7696
17.5407
17.6882
17.3218
17.5459
17.1176
17.4386
16.9071
17.3365
16.6864
17.2771
16.4766
17.1454
16.3668
16.8661
16.5366
16.4797
16.561
16.3561
16.4827
16.2409
16.435
16.078
16.377
15.8751
16.3291
15.6326
16.223
15.4352
16.0289
15.3256
15.6362
15.1174
15.2095
14.7344
14.6598
14.1911
13.9402
13.4485
13.0118
12.4899
11.7822
11.2036
10.0985
9.37728
7.74587
6.71606
4.44561
2.83566
-0.175184
-2.70567
-6.62012
-10.3289
-15.2617
-20.3144
-26.2347
-32.3999
-38.8857
-45.4346
-51.5223
-57.1722
-61.4775
-64.817
-65.8729
-65.7152
-62.3399
-58.0224
-50.4948
-43.1283
-33.8249
-26.5136
-18.2996
-12.3612
-6.43624
-2.25148
1.47587
4.14057
6.00403
7.81385
8.52105
9.69636
9.65361
10.5569
9.88382
10.5
9.53798
9.78063
8.58431
8.43328
7.06512
6.40623
4.90482
3.75112
2.07628
0.380742
-1.43072
-3.61292
-5.55123
-8.12142
-10.0741
-12.7547
-14.6411
-17.0144
-18.7572
-20.3472
-21.5943
-22.4415
-22.9515
-23.091
-22.9262
-22.6633
-22.0942
-21.5439
-21.0678
-20.3339
-20.0935
-19.1603
-19.0376
-17.9982
-17.8284
-16.8419
-16.585
-15.6137
-15.2923
-14.251
-13.7968
-12.5862
-12.0076
-10.5398
-9.71071
-7.98074
-6.71546
-4.67979
-2.86198
-0.403603
2.02554
5.12494
8.17225
12.2469
15.8012
21.3186
25.2284
32.5923
36.7639
46.3768
50.6021
63.1667
66.4105
83.3253
83.6604
105.345
102.995
125.767
124.622
146.041
6.78654
15.2164
11.1581
14.8678
13.7192
15.2404
15.1736
15.8329
16.0361
16.282
16.6304
16.5828
17.0187
16.8074
17.31
17.008
17.4759
17.3427
17.4462
17.6372
17.4499
17.8278
17.5456
17.9497
17.5974
18.0641
17.6101
18.1722
17.5948
18.2717
17.5487
18.3497
17.4762
18.3468
17.5218
18.0948
17.7447
17.7361
17.8254
17.5516
17.7648
17.3635
17.6942
17.1531
17.6159
16.9081
17.5338
16.6987
17.3882
16.5661
17.2436
16.5014
16.9984
16.7068
16.7285
16.7762
16.558
16.7218
16.3961
16.6881
16.2488
16.6885
16.106
16.6697
15.9446
16.5633
15.8646
16.3287
15.7334
16.0419
15.558
15.6744
15.2457
15.2549
14.8196
14.7007
14.2726
13.9366
13.5555
12.9402
12.5507
11.5755
11.0588
9.60535
8.753
6.67662
5.1997
2.34747
-0.0701658
-3.90081
-7.58309
-12.4849
-17.5022
-23.545
-30.013
-37.0626
-44.3971
-51.5692
-58.6672
-64.5345
-69.5562
-71.9283
-72.679
-69.8627
-65.9765
-58.4935
-51.1173
-40.6127
-31.6154
-21.9647
-14.3493
-7.42927
-2.53806
1.58496
4.46314
6.30853
8.07438
8.72786
9.79382
9.72533
10.5121
9.895
10.436
9.51585
9.87539
8.77509
8.68291
7.5014
6.91466
5.58323
4.48981
2.94233
1.23765
-0.536285
-2.76346
-4.80658
-7.52816
-9.71961
-12.7002
-14.889
-17.7721
-19.7248
-21.8856
-23.2292
-24.3986
-24.8544
-24.9303
-24.6346
-23.866
-23.3585
-22.3162
-22.0179
-20.9291
-20.989
-19.9475
-20.1043
-19.1469
-19.1589
-18.3706
-18.2652
-17.5071
-17.329
-16.5156
-16.2307
-15.266
-14.8392
-13.7012
-13.0516
-11.7365
-10.7638
-9.20281
-7.83644
-5.90089
-4.11739
-1.60703
0.574778
3.97679
6.49496
11.1262
13.9012
20.1765
23.1251
31.4917
34.4347
45.6418
47.8034
63.3477
63.1372
82.6211
83.0459
103.459
103.955
123.996
9.14601
17.062
12.6087
16.1868
14.6187
16.0289
15.6649
16.1677
16.3042
16.3414
16.6984
16.5497
16.9904
16.7046
17.2278
16.8982
17.3716
17.2668
17.3412
17.5929
17.3645
17.7936
17.5084
17.9288
17.5766
18.0619
17.5915
18.1769
17.5788
18.2683
17.5369
18.344
17.5114
18.3262
17.5981
18.0698
17.8117
17.7209
17.8644
17.55
17.801
17.3546
17.7223
17.1383
17.6399
16.9283
17.5237
16.7513
17.3687
16.5768
17.1886
16.4648
16.8798
16.6148
16.5866
16.6707
16.3933
16.5938
16.2387
16.5416
16.0715
16.5114
15.8965
16.4923
15.7351
16.4162
15.6503
16.2086
15.6354
15.9113
15.5234
15.6152
15.2896
15.2002
14.9514
14.688
14.4689
14.034
13.8295
13.2023
12.9955
12.1061
11.7949
10.5691
9.98194
8.3197
7.19976
4.94534
2.92869
-0.230149
-3.59217
-8.1343
-13.2786
-19.2952
-26.1492
-33.5848
-42.0076
-50.4687
-59.2338
-66.9114
-74.0073
-78.6666
-81.7594
-81.0177
-77.9612
-70.291
-61.4064
-48.7377
-37.6278
-26.3432
-17.2335
-8.7288
-2.8069
2.1149
5.55601
7.64131
9.56842
10.3587
11.4619
11.3959
12.3691
11.6081
12.2819
11.3406
11.5669
10.671
10.4503
9.42892
8.70468
7.5599
6.39389
5.0205
3.26839
1.61363
-0.628587
-2.646
-5.40282
-7.7182
-10.7571
-13.3092
-16.2182
-18.714
-21.0608
-22.9321
-24.3672
-25.1934
-25.5596
-25.3393
-24.8442
-23.9641
-22.9553
-22.319
-21.2858
-21.0505
-20.0091
-19.8757
-18.8655
-18.5725
-17.7597
-17.4103
-16.7179
-16.4318
-15.7427
-15.4135
-14.6151
-14.1953
-13.2463
-12.6348
-11.4887
-10.5834
-9.14332
-7.89421
-6.0433
-4.42907
-1.96021
-0.00700469
3.37097
5.57095
10.2198
12.6009
18.8465
21.3197
29.5561
31.8544
42.8299
43.902
58.4213
58.2426
74.6335
74.5395
91.745
91.8869
108.878
8.47461
16.3743
11.7529
15.5947
13.7601
15.528
15.0423
15.6488
15.86
15.8734
16.3383
16.2311
16.7253
16.5166
17.0379
16.7723
17.267
17.168
17.3186
17.5463
17.368
17.7579
17.4784
17.9549
17.5394
18.1136
17.5707
18.2328
17.5743
18.3286
17.5407
18.3791
17.5227
18.3347
17.6057
18.0848
17.8258
17.7598
17.9095
17.59
17.887
17.4048
17.8352
17.192
17.7618
16.9743
17.6572
16.7969
17.4941
16.6834
17.2989
16.644
17.0039
16.8291
16.7694
16.8941
16.5829
16.8264
16.4039
16.8143
16.251
16.7942
16.169
16.7754
16.0266
16.7177
16.0015
16.4742
15.9656
16.2204
15.8878
15.9366
15.7488
15.5982
15.5087
15.1792
15.1463
14.7044
14.6671
14.1054
14.0387
13.2753
13.1059
12.0333
11.562
10.0508
9.03056
6.95406
5.09898
2.17383
-0.931543
-5.10648
-9.97996
-15.9004
-22.8791
-30.5948
-39.354
-48.3867
-58.3448
-67.9056
-77.1685
-84.2585
-89.5904
-90.3723
-88.1766
-81.1857
-72.1362
-59.249
-45.6809
-31.4057
-19.8788
-9.82399
-2.52743
2.63234
6.60379
8.33927
10.1902
10.6383
11.6691
11.329
12.1859
11.3844
11.8994
11.2186
11.2861
10.6312
10.4554
9.68725
9.08819
8.13287
7.07993
5.87567
4.2252
2.64016
0.463171
-1.57718
-4.36807
-6.86753
-10.0912
-12.9354
-16.3367
-19.1943
-22.1676
-24.4286
-26.3533
-27.4154
-27.7257
-27.5041
-26.2534
-25.3915
-23.5955
-22.9616
-21.484
-21.5241
-20.5664
-20.7056
-19.9851
-19.8784
-19.197
-19.0317
-18.3631
-18.2533
-17.6123
-17.4707
-16.6862
-16.4452
-15.5316
-15.1508
-14.1328
-13.5346
-12.3154
-11.4614
-9.88604
-8.80666
-6.70325
-5.40581
-2.5429
-1.05073
2.89415
4.47206
9.87313
11.4365
18.7195
20.117
29.9847
30.5618
43.0057
44.0963
58.2956
59.8064
74.9652
76.1019
91.9611
10.8586
18.3884
13.2848
17.0036
14.7298
16.3467
15.5849
16.0793
16.1515
16.0112
16.4078
16.1871
16.6683
16.4011
16.9328
16.6664
17.1085
17.072
17.1512
17.4442
17.2885
17.7181
17.4203
17.9417
17.5064
18.1113
17.5485
18.2277
17.5617
18.3219
17.553
18.392
17.5574
18.3554
17.6572
18.1077
17.8649
17.7696
17.9389
17.5694
17.9291
17.3793
17.8791
17.1841
17.8104
16.9778
17.7068
16.8025
17.5315
16.678
17.29
16.6113
16.954
16.7088
16.5996
16.7787
16.4084
16.697
16.2266
16.6406
16.0551
16.6044
15.8812
16.6124
15.7753
16.5656
15.779
16.4064
15.7698
16.1679
15.8666
15.8356
15.7449
15.5824
15.5424
15.2564
15.2381
14.8305
14.8558
14.3072
14.3738
13.674
13.7097
12.8532
12.6991
11.6053
10.9989
9.50321
8.11641
5.86389
3.18282
-0.404522
-4.9881
-10.434
-17.352
-25.2226
-34.9274
-45.5029
-57.4192
-69.0325
-81.2519
-91.7215
-100.537
-105.107
-106.252
-101.271
-92.2231
-77.2107
-59.9187
-42.0583
-27.1005
-13.4348
-3.87024
3.35863
7.88985
10.667
12.1209
12.9587
13.8025
13.516
14.5013
13.4862
14.0814
13.2493
13.2878
12.6063
12.3298
11.6213
10.9097
10.1319
9.00434
8.00088
6.34592
4.90266
2.724
0.797624
-2.07237
-4.64789
-8.03557
-11.1649
-14.8546
-18.185
-21.6083
-24.4671
-26.9685
-28.5372
-29.4382
-29.3287
-28.5435
-27.1151
-25.2086
-23.8268
-22.3008
-21.7747
-20.6884
-20.4412
-19.6412
-19.2065
-18.427
-17.9799
-17.4737
-17.2523
-16.9468
-16.6256
-16.3367
-15.9222
-15.5305
-15.0608
-14.4487
-13.8695
-12.9208
-12.1955
-10.8665
-9.94457
-8.06292
-7.00504
-4.31357
-3.24477
0.543776
1.63975
6.76514
7.82512
14.4993
15.4361
24.1061
25.1146
35.4754
36.6521
48.5018
49.8141
62.9636
64.0386
78.1329
10.2335
18.1011
12.7535
16.7675
14.2749
16.172
15.2039
15.9248
15.8343
15.9029
16.2253
16.0306
16.5031
16.2668
16.8158
16.5589
17.0086
17.0448
17.0783
17.4245
17.2111
17.73
17.3734
17.9802
17.4748
18.1611
17.5247
18.3001
17.5232
18.3874
17.5204
18.4348
17.5311
18.3724
17.6389
18.1204
17.875
17.7895
18.0019
17.587
18.0285
17.4133
17.9745
17.2143
17.9195
17.015
17.8132
16.8717
17.6511
16.793
17.434
16.771
17.1287
16.9092
16.8059
16.9969
16.5811
16.9424
16.3698
16.9088
16.2271
16.8729
16.1129
16.856
15.9958
16.8667
16.0054
16.6502
16.0899
16.3301
16.1116
16.0895
16.0394
15.8508
15.9313
15.5959
15.7513
15.3202
15.4863
14.98
15.1276
14.4988
14.5899
13.8186
13.7053
12.7405
12.2228
10.9561
9.7928
7.92622
5.62904
2.54505
-1.60875
-6.6471
-13.2268
-20.7335
-30.2709
-40.9534
-53.9136
-67.1394
-81.008
-94.1507
-106.73
-114.769
-118.82
-115.815
-108.973
-92.0648
-73.0639
-50.6198
-32.9108
-16.8644
-3.8371
3.55541
10.1308
11.0615
13.4493
12.9769
14.1044
13.0159
14.2363
12.8591
13.2963
12.496
12.7187
12.3504
12.1618
11.8463
11.2147
10.7018
9.72426
8.93078
7.45589
6.17822
4.16806
2.32952
-0.333318
-2.92954
-6.31208
-9.58799
-13.5793
-17.4537
-21.4732
-25.1076
-28.3794
-30.6951
-31.8537
-32.1124
-30.4664
-28.9523
-25.8394
-24.0961
-21.6677
-21.761
-20.9599
-21.257
-20.9016
-20.7661
-20.0837
-19.6135
-18.8988
-18.7925
-18.4658
-18.4368
-17.8919
-17.6263
-17.0651
-16.7272
-16.1943
-15.8091
-15.0084
-14.6063
-13.4002
-12.9982
-11.2966
-10.9063
-8.49642
-8.05782
-4.844
-4.39198
-0.0151127
0.43843
6.30402
6.73484
14.2641
14.9504
24.1193
25.2638
35.8506
37.4008
49.299
50.5826
64.0633
12.4888
20.1426
14.2316
18.1771
15.2381
17.0126
15.766
16.3502
16.0872
16.0181
16.3329
15.9721
16.4713
16.1121
16.7072
16.3763
16.918
16.8773
16.9699
17.3414
17.1063
17.6643
17.2877
17.942
17.4309
18.1398
17.5124
18.2661
17.5316
18.3775
17.5371
18.4511
17.5691
18.4244
17.6954
18.1729
17.9097
17.8086
18.0208
17.5664
18.0664
17.4035
18.0579
17.2024
17.996
17.0057
17.8867
16.8538
17.7037
16.7602
17.4375
16.7281
17.0792
16.8255
16.6625
16.9064
16.4348
16.8265
16.2273
16.7388
16.0194
16.7219
15.8427
16.6817
15.7707
16.5946
15.8342
16.5532
15.84
16.3643
16.0494
16.0151
16.0802
15.8179
15.949
15.6321
15.8042
15.3332
15.6151
15.0251
15.3562
14.7341
15.0062
14.3775
14.508
13.8401
13.6223
12.7972
11.985
10.7137
8.89073
6.55874
3.00333
-1.23625
-7.30411
-14.3413
-23.7748
-34.7948
-48.3985
-63.3029
-79.9636
-96.3961
-113.248
-126.885
-136.186
-138.276
-136.306
-122.348
-99.5739
-72.2091
-48.2586
-27.1215
-9.42699
3.87442
10.8
15.8258
15.6832
16.4296
16.6091
16.1805
16.475
15.6661
15.6178
14.8365
14.5148
14.1652
13.7412
13.4915
12.8495
12.4562
11.442
10.8291
9.45216
8.36228
6.45272
4.83218
2.13824
-0.458308
-4.05094
-7.52404
-11.8981
-16.1674
-20.871
-25.1476
-29.4265
-32.6056
-34.9315
-35.7096
-34.8767
-32.8451
-29.4193
-26.0806
-23.1657
-21.757
-20.704
-20.6224
-19.9306
-19.816
-19.0654
-18.2391
-17.9004
-17.4751
-17.7223
-17.2537
-17.6506
-17.184
-17.2501
-16.8658
-16.7153
-16.3444
-15.9055
-15.4775
-14.664
-14.2694
-12.8857
-12.5618
-10.5443
-10.2996
-7.39148
-7.26974
-3.30513
-3.22427
1.79117
1.88998
8.42918
8.54805
16.6993
16.8697
26.4475
26.8416
37.9137
38.2214
51.0214
12.0662
20.1043
13.9632
18.2108
15.091
17.0838
15.6841
16.3874
16.0249
16.0082
16.2607
15.9465
16.3802
16.0607
16.628
16.2972
16.8726
16.8168
16.9362
17.3133
17.0882
17.6918
17.2439
17.9946
17.3965
18.2008
17.4793
18.3491
17.4861
18.4413
17.5081
18.4718
17.537
18.422
17.6666
18.1875
17.9238
17.833
18.0923
17.5789
18.1368
17.4087
18.1314
17.2125
18.1022
17.0261
18.0167
16.9048
17.8513
16.8577
17.6037
16.8724
17.2616
17.0198
16.8195
17.1116
16.5719
17.0438
16.3549
16.992
16.1724
16.9555
16.0225
16.9319
15.9233
16.8437
16.0241
16.7144
16.0776
16.4651
16.1756
16.1944
16.2719
15.9787
16.2255
15.8182
16.1873
15.7048
16.0211
15.562
15.8057
15.2816
15.5375
14.9721
15.0956
14.5667
14.395
13.8198
13.1915
12.292
10.8077
9.00281
5.98296
2.40704
-2.97084
-9.26566
-17.9952
-28.4333
-41.9529
-57.0054
-74.1794
-92.1698
-111.449
-127.1
-139.309
-145.829
-152.585
-144.392
-119.262
-87.2719
-59.7426
-36.6114
-14.4042
-0.480702
13.7254
13.4969
18.6037
15.307
16.7345
14.9892
15.6314
14.6358
14.6307
13.6493
13.8711
13.7672
13.5168
13.574
13.0618
12.9638
12.1193
11.6861
10.4769
9.58971
7.88524
6.46672
4.17233
1.79691
-1.4671
-4.81353
-9.21873
-13.8275
-18.9588
-24.1435
-29.3574
-33.8035
-37.0918
-39.1874
-38.0523
-36.0146
-30.7204
-26.2251
-21.2503
-21.1209
-20.1208
-21.7775
-21.8395
-22.3679
-21.2218
-20.3055
-18.7996
-18.717
-18.9298
-19.2193
-18.8618
-18.4529
-18.1746
-17.7288
-17.8569
-17.5758
-17.3136
-17.0134
-16.4519
-16.2679
-15.2037
-15.2597
-13.5758
-13.7011
-11.4049
-11.6822
-8.50405
-8.72483
-4.80933
-4.93205
0.290535
0.35494
7.11032
7.69497
15.4221
16.4131
25.8069
26.4704
38.4046
13.9181
22.1702
15.2493
19.5344
15.9831
17.8038
16.2525
16.7379
16.3027
16.0891
16.3463
15.8391
16.3388
15.8633
16.5322
16.1011
16.7612
16.6683
16.8183
17.1825
16.9725
17.6451
17.1301
18.0145
17.2871
18.2658
17.3466
18.3969
17.3471
18.5073
17.389
18.5472
17.4726
18.4801
17.639
18.2157
17.9445
17.8138
18.1167
17.5732
18.2022
17.399
18.2225
17.195
18.1885
16.9907
18.0999
16.8556
17.9218
16.8025
17.6382
16.8191
17.2472
16.9761
16.7601
17.05
16.4742
16.9966
16.1998
16.9303
15.9562
16.8855
15.7672
16.8404
15.6786
16.7463
15.7415
16.628
15.9157
16.4042
16.1714
16.0945
16.2532
15.9356
16.2824
15.7733
16.2992
15.569
16.1924
15.4741
16.0241
15.3699
15.7805
15.2753
15.5393
15.1804
15.1687
14.8869
14.471
14.0712
12.9891
11.9006
9.53109
6.86602
2.31114
-3.03842
-10.8911
-20.3195
-33.1665
-47.8832
-65.6238
-84.5109
-105.792
-124.587
-139.617
-149.106
-160.14
-166.938
-147.982
-114.362
-76.2742
-52.3413
-25.7356
-6.27801
11.323
17.7791
19.9276
20.9306
19.3736
17.966
18.6385
17.3893
17.6129
15.7508
14.9528
15.082
14.6225
14.78
14.2625
14.3129
13.5048
13.264
12.178
11.5439
10.1194
8.95337
6.75771
4.52011
1.24762
-2.1685
-6.76556
-11.6722
-17.6099
-23.4239
-30.0906
-35.8376
-40.887
-44.4237
-45.1596
-43.7104
-38.63
-31.1471
-24.0966
-20.04
-18.5713
-18.7951
-19.1183
-20.6052
-20.709
-19.2621
-18.0367
-16.6516
-17.5357
-17.4104
-18.7509
-18.3583
-18.5646
-17.9631
-18.2407
-17.9174
-18.2014
-17.7243
-17.6444
-17.3348
-16.5316
-16.5867
-15.4166
-15.641
-13.555
-14.2774
-11.3849
-11.9394
-8.68844
-9.38003
-4.7712
-5.79977
0.403913
-0.489725
6.85863
5.89708
14.7869
13.7213
25.7479
13.5294
22.2807
15.2361
19.695
16.1444
17.9852
16.4867
16.8485
16.5152
16.1881
16.4326
15.8983
16.3163
15.8339
16.4963
16.0697
16.748
16.6682
16.7358
17.2289
16.8533
17.6765
17.0599
18.0811
17.2303
18.3318
17.3084
18.4822
17.2639
18.573
17.2989
18.5756
17.4033
18.4856
17.6118
18.2122
17.9716
17.7987
18.2209
17.5443
18.2719
17.3795
18.2906
17.1922
18.2887
17.0126
18.2214
16.9045
18.0598
16.8986
17.7763
16.9585
17.3854
17.159
16.8731
17.282
16.5405
17.243
16.2866
17.1741
16.0519
17.1193
15.8625
17.0644
15.776
16.9529
15.8313
16.7641
15.9686
16.4835
16.2773
16.1213
16.429
15.99
16.4549
15.8642
16.5082
15.7844
16.4793
15.6532
16.4027
15.5992
16.1579
15.6105
15.8443
15.6185
15.5107
15.4259
15.0275
14.8306
13.9197
13.1786
11.2711
9.22093
5.48884
1.07476
-5.60002
-13.7569
-24.9788
-38.5201
-54.814
-73.1608
-93.2664
-113.031
-128.272
-142.607
-155.734
-168.946
-153.697
-122.62
-85.6232
-58.9947
-34.9784
-13.5965
5.07077
15.9774
15.963
18.2952
19.2594
15.8288
16.0207
16.1759
15.5464
15.1836
14.5803
14.2551
14.2181
14.7346
14.3353
14.7296
14.0628
13.9012
12.9395
12.3684
11.1246
10.3325
8.69942
6.9016
4.09989
1.11175
-3.18188
-8.03607
-14.0341
-20.4489
-27.7945
-34.7288
-41.3704
-47.2451
-49.0898
-48.9796
-42.2454
-33.2419
-21.3066
-18.789
-18.1575
-20.6804
-21.7136
-24.3613
-23.4231
-21.814
-18.6415
-17.3695
-18.2312
-19.411
-19.4845
-18.9025
-18.6228
-18.0966
-18.6019
-18.7149
-18.7068
-18.5095
-18.5481
-18.3623
-17.8688
-18.1312
-17.0875
-17.4802
-15.9352
-17.0004
-14.761
-15.3549
-13.2864
-14.1199
-10.7406
-12.2539
-6.99139
-7.19413
-2.45416
-2.00192
3.35206
3.46758
12.7775
15.275
24.0978
16.2943
20.7656
16.8702
18.5384
16.943
17.0858
16.7554
16.2227
16.5022
15.8001
16.2706
15.6147
16.3768
15.865
16.6018
16.5629
16.6005
17.1577
16.7255
17.639
16.9378
18.1035
17.1159
18.3985
17.2011
18.5659
17.1438
18.6393
17.2242
18.646
17.3262
18.5571
17.5529
18.2282
17.9978
17.73
18.3198
17.4564
18.4076
17.2896
18.4048
17.1389
18.3618
16.9659
18.2831
16.8457
18.1276
16.8262
17.846
16.9068
17.3985
17.1691
16.7948
17.3305
16.4299