/*--------------------------------*- C++ -*----------------------------------*\
| =========                 |                                                 |
| \\      /  F ield         | OpenFOAM: The Open Source CFD Toolbox           |
|  \\    /   O peration     | Version:  4.1                                   |
|   \\  /    A nd           | Web:      www.OpenFOAM.org                      |
|    \\/     M anipulation  |                                                 |
\*---------------------------------------------------------------------------*/
FoamFile
{
    version     2.0;
    format      ascii;
    class       volScalarField;
    location    "9";
    object      epsilon;
}
// * * * * * * * * * * * * * * * * * * * * * * * * * * * * * * * * * * * * * //

dimensions      [0 2 -3 0 0 0 0];

internalField   nonuniform List<scalar> 
204246
(
0.563869
0.639257
0.644104
0.660705
0.69177
0.753243
0.881264
1.12574
1.55806
2.21936
2.95414
3.27442
3.38379
3.4436
3.46637
3.50427
3.50784
3.50435
3.51008
3.48057
3.46621
3.42277
3.39424
3.34973
3.31835
3.28078
3.25219
3.23066
3.21095
3.1928
3.18232
3.16983
3.17039
3.16333
3.16975
3.17847
3.18329
3.20923
3.22873
3.24615
3.2769
3.29735
3.33174
3.35531
3.3897
3.41762
3.45089
3.47819
3.50745
3.5329
3.56318
3.58811
3.61445
3.62914
3.67098
3.67909
3.71531
3.725
3.7591
3.76749
3.80105
3.80701
3.84423
3.85095
3.88598
3.89667
3.9272
3.94032
3.97158
3.98523
4.00393
4.03874
4.05423
4.08435
4.10275
4.13106
4.1518
4.17938
4.19944
4.23129
4.25545
4.28354
4.31079
4.3359
4.36634
4.39142
4.42213
4.43507
4.48559
4.49979
4.54226
4.56056
4.60074
4.61919
4.66307
4.6869
4.72543
4.75537
4.79024
4.824
4.85497
4.89381
4.92479
4.96385
4.99617
5.03454
5.05747
5.11932
5.13747
5.19389
5.21389
5.27388
5.30043
5.35324
5.3909
5.43785
5.47746
5.52554
5.56782
5.61642
5.66246
5.71113
5.76005
5.79264
5.87233
5.89745
5.97254
6.00262
6.07641
6.1116
6.18411
6.22238
6.29528
6.33626
6.41026
6.45374
6.5282
6.57428
6.65023
6.69879
6.75645
6.8428
6.88665
6.97179
7.01776
7.10412
7.15068
7.23939
7.28632
7.37736
7.42426
7.51764
7.56412
7.66007
7.70621
7.80504
7.85088
7.92808
8.01821
8.0737
8.1648
8.21862
8.31266
8.36421
8.46144
8.51019
8.61183
8.65684
8.76338
8.80538
8.91874
8.95682
9.07902
9.11432
9.2499
9.27937
9.40344
9.49788
9.584
9.706
9.78741
9.93895
10.0249
10.21
10.3121
10.5364
10.6693
10.9386
11.1171
11.4069
11.5927
11.7526
11.773
0.0836704
0.158327
0.174953
0.229016
0.327579
0.506725
0.850878
1.41995
1.98061
2.11733
2.08165
1.77783
1.37034
1.14458
1.06376
0.994277
0.935881
0.838453
0.805048
0.800133
0.752316
0.747987
0.727292
0.73704
0.735183
0.753284
0.75844
0.773988
0.773964
0.78333
0.779712
0.783191
0.77639
0.775165
0.767561
0.767504
0.766036
0.766203
0.770976
0.778846
0.790656
0.801277
0.817794
0.820435
0.838439
0.83681
0.858018
0.854769
0.875572
0.871546
0.887026
0.884315
0.90029
0.89763
0.895775
0.910901
0.90469
0.916828
0.913138
0.925991
0.922822
0.937237
0.932492
0.948604
0.943308
0.959725
0.95448
0.971175
0.968977
0.987948
0.987431
0.990187
1.00748
1.00587
1.0247
1.0229
1.04243
1.0407
1.06127
1.05828
1.07979
1.07566
1.09785
1.09388
1.11646
1.11564
1.14142
1.14288
1.15158
1.17301
1.17318
1.19868
1.19842
1.22536
1.22375
1.2519
1.24918
1.27771
1.27465
1.30501
1.30294
1.33378
1.33528
1.36699
1.36885
1.40346
1.40521
1.43028
1.45646
1.46033
1.49652
1.49803
1.53687
1.53692
1.5778
1.5782
1.62184
1.62546
1.67021
1.67487
1.7203
1.72457
1.77612
1.78426
1.81757
1.8576
1.86463
1.91882
1.92715
1.98222
1.99032
2.04957
2.05942
2.12117
2.13216
2.19705
2.20907
2.27723
2.2907
2.36532
2.38274
2.43331
2.49458
2.51065
2.58992
2.60786
2.69019
2.70902
2.79488
2.81491
2.90468
2.92622
3.01778
3.03943
3.135
3.15816
3.26252
3.29041
3.35873
3.44418
3.46889
3.57113
3.59546
3.69846
3.72282
3.82469
3.84828
3.94838
3.97042
4.06762
4.08848
4.18236
4.2016
4.29466
4.31842
4.40629
4.42814
4.46579
4.53401
4.53848
4.60498
4.60207
4.65301
4.64313
4.67892
4.66316
4.6992
4.68703
4.8252
4.95147
5.43066
5.71657
5.86267
0.0325161
0.0572377
0.0809895
0.144112
0.250438
0.450523
0.805956
1.36747
1.71389
1.74393
1.48033
0.952152
0.672919
0.567519
0.526792
0.507212
0.501693
0.498287
0.49945
0.512705
0.524012
0.540893
0.555909
0.587394
0.613391
0.644032
0.668987
0.699878
0.722999
0.746288
0.76337
0.779064
0.785872
0.788106
0.789062
0.788047
0.786784
0.782559
0.778512
0.777554
0.776812
0.777537
0.778939
0.78272
0.78591
0.790691
0.795587
0.801906
0.807683
0.814467
0.82047
0.828421
0.834033
0.841583
0.846087
0.854088
0.8586
0.866473
0.871907
0.879581
0.886386
0.893182
0.900647
0.907409
0.915358
0.92169
0.930251
0.936748
0.945873
0.952333
0.961686
0.967352
0.976962
0.98299
0.992297
0.999272
1.00827
1.01623
1.02499
1.0335
1.04206
1.05135
1.05983
1.06996
1.07872
1.0898
1.09896
1.11039
1.11889
1.13072
1.13967
1.1515
1.1616
1.17335
1.18413
1.19569
1.20721
1.21886
1.23121
1.2432
1.25618
1.26819
1.28171
1.29447
1.30873
1.32218
1.33647
1.34922
1.36425
1.37683
1.39244
1.40514
1.42129
1.43412
1.45094
1.46391
1.48157
1.49474
1.513
1.52605
1.54516
1.55845
1.57908
1.59178
1.61004
1.62614
1.64116
1.66038
1.67336
1.69425
1.7058
1.72851
1.73856
1.7621
1.77145
1.79502
1.80389
1.82753
1.83611
1.85985
1.8679
1.88532
1.89976
1.90832
1.92651
1.93107
1.94859
1.9515
1.96667
1.96773
1.98039
1.97959
1.98777
1.98423
1.98872
1.9823
1.98604
1.97293
1.96597
1.96236
1.94029
1.93852
1.90806
1.90375
1.86732
1.86083
1.81949
1.81173
1.76686
1.75819
1.71024
1.70115
1.65044
1.64089
1.5912
1.58222
1.52886
1.50509
1.48592
1.44418
1.43839
1.39275
1.38823
1.34566
1.34317
1.30764
1.30909
1.28992
1.29966
1.28818
1.29614
1.18202
1.13943
0.0198688
0.0435756
0.0749437
0.138932
0.249103
0.443102
0.760119
1.18695
1.34595
1.34108
1.09788
0.650939
0.478084
0.42679
0.415073
0.413818
0.418445
0.422766
0.425127
0.4325
0.444393
0.463114
0.484318
0.519173
0.55669
0.598192
0.635671
0.676363
0.71472
0.752197
0.784166
0.813742
0.837958
0.858271
0.875018
0.890121
0.902239
0.912203
0.921001
0.927362
0.931354
0.93522
0.938673
0.943146
0.94534
0.95094
0.95341
0.961137
0.963596
0.971707
0.974802
0.983552
0.987006
0.995743
1.00011
1.00486
1.01138
1.01438
1.02175
1.0248
1.03287
1.03623
1.04487
1.0482
1.05725
1.0607
1.07021
1.07413
1.08353
1.08756
1.09696
1.10187
1.10862
1.11489
1.12027
1.12747
1.1321
1.14008
1.14417
1.15261
1.15632
1.1649
1.16866
1.17746
1.18149
1.19024
1.19439
1.20289
1.20789
1.21461
1.22051
1.22656
1.23307
1.23862
1.24564
1.25066
1.25804
1.26288
1.27052
1.27531
1.28288
1.28777
1.29508
1.30047
1.30758
1.31324
1.31956
1.32524
1.33102
1.33606
1.34202
1.34615
1.35244
1.35542
1.36193
1.36385
1.36999
1.37177
1.37704
1.37823
1.38287
1.38331
1.38739
1.38708
1.38741
1.38871
1.38681
1.38796
1.38408
1.38471
1.37865
1.37873
1.37013
1.36937
1.3582
1.35649
1.34261
1.33974
1.32341
1.3196
1.29874
1.2889
1.27424
1.25514
1.24469
1.21813
1.20924
1.17799
1.16773
1.13342
1.12186
1.08476
1.07201
1.03217
1.01817
0.97673
0.962368
0.917158
0.895626
0.863437
0.830934
0.808408
0.767804
0.752534
0.709667
0.694925
0.653972
0.640223
0.603034
0.590571
0.55716
0.546287
0.516786
0.507543
0.481764
0.47404
0.451547
0.441614
0.427856
0.415733
0.407683
0.393394
0.389378
0.375155
0.371911
0.362787
0.362556
0.362277
0.375993
0.388272
0.411218
0.418848
0.424585
0.019829
0.041011
0.0726132
0.134558
0.240122
0.417932
0.693449
0.992966
1.0806
1.06577
0.866022
0.514982
0.381349
0.341934
0.331705
0.329884
0.330697
0.32929
0.329001
0.335033
0.35096
0.381781
0.420405
0.471894
0.526155
0.579863
0.624013
0.664561
0.70475
0.743749
0.77854
0.804073
0.826594
0.843502
0.862703
0.881179
0.908496
0.934461
0.96156
0.981998
1.00212
1.01494
1.03054
1.04153
1.05141
1.05733
1.06484
1.07292
1.07934
1.08447
1.08817
1.09351
1.0976
1.1026
1.10616
1.10863
1.11129
1.11209
1.11368
1.11402
1.11521
1.11549
1.11717
1.11775
1.12019
1.12117
1.12441
1.12596
1.12975
1.13165
1.13549
1.13755
1.14034
1.14246
1.14437
1.14631
1.14774
1.14955
1.15069
1.15223
1.15336
1.1546
1.15566
1.15654
1.15759
1.15805
1.15895
1.15886
1.15883
1.1589
1.15795
1.15812
1.15648
1.1565
1.15384
1.1539
1.15041
1.15031
1.14603
1.14576
1.1405
1.13967
1.13401
1.13283
1.12641
1.12492
1.11634
1.11265
1.10734
1.09996
1.09633
1.08584
1.08317
1.0705
1.06726
1.05287
1.0485
1.03334
1.02808
1.01146
1.00553
0.987337
0.98094
0.959982
0.94988
0.934188
0.917813
0.905476
0.883832
0.874193
0.849071
0.83982
0.813035
0.803291
0.775534
0.765453
0.736895
0.72646
0.697578
0.68702
0.656885
0.642547
0.620216
0.60011
0.583264
0.558653
0.546841
0.52001
0.510097
0.483657
0.474254
0.449264
0.440449
0.417114
0.409042
0.387757
0.380553
0.360671
0.351637
0.338836
0.327646
0.31984
0.307441
0.303167
0.291824
0.28847
0.279342
0.276845
0.269664
0.267883
0.262549
0.26149
0.257874
0.25752
0.255443
0.255716
0.254989
0.255121
0.256982
0.257227
0.260207
0.260895
0.26388
0.264534
0.266863
0.267257
0.270555
0.27186
0.279124
0.283961
0.29303
0.29668
0.299298
0.0188388
0.0359072
0.0659911
0.121368
0.216311
0.372423
0.609763
0.846374
0.910776
0.897876
0.743334
0.453972
0.301013
0.24969
0.229847
0.223126
0.222936
0.223471
0.228003
0.246319
0.28461
0.348468
0.420469
0.494589
0.563247
0.632302
0.697059
0.753498
0.801559
0.841384
0.872231
0.883435
0.887687
0.885081
0.871343
0.851025
0.844363
0.843054
0.851938
0.882719
0.925441
0.9642
0.999215
1.02698
1.05012
1.06414
1.07799
1.08966
1.10219
1.10911
1.11463
1.11774
1.12139
1.12318
1.12429
1.12452
1.12407
1.12219
1.11912
1.11515
1.11057
1.10516
1.09951
1.09415
1.08885
1.08396
1.07892
1.07514
1.07083
1.06837
1.0644
1.06152
1.05923
1.05515
1.05327
1.04782
1.04584
1.03926
1.03688
1.02919
1.02681
1.01814
1.01547
1.00596
1.00275
0.992924
0.989313
0.978013
0.972167
0.963678
0.954701
0.947685
0.936045
0.929968
0.915884
0.910826
0.895155
0.889741
0.873219
0.867496
0.85016
0.843775
0.826446
0.819651
0.801837
0.794836
0.775357
0.766243
0.750962
0.737901
0.725093
0.70824
0.698631
0.678307
0.670728
0.648732
0.640498
0.618762
0.610144
0.588329
0.579663
0.557878
0.549248
0.526538
0.515838
0.498691
0.484124
0.471186
0.453447
0.444249
0.424903
0.417508
0.398369
0.391372
0.373309
0.366795
0.349869
0.343798
0.328163
0.322606
0.307685
0.300803
0.290776
0.28213
0.275322
0.265305
0.261349
0.251327
0.247905
0.238915
0.235917
0.228028
0.225442
0.218597
0.216409
0.21054
0.208717
0.203524
0.201241
0.198347
0.19565
0.194121
0.191409
0.190626
0.188488
0.188022
0.18661
0.186465
0.185856
0.186055
0.185979
0.187012
0.187252
0.189088
0.189735
0.192317
0.193388
0.196527
0.198543
0.202049
0.205009
0.208902
0.212811
0.217164
0.222056
0.226888
0.232695
0.237881
0.244376
0.249559
0.254826
0.257157
0.258477
0.0151527
0.0290404
0.0543826
0.100652
0.181185
0.313427
0.514014
0.723158
0.784839
0.780717
0.671838
0.441007
0.241725
0.170162
0.143322
0.13446
0.133998
0.138783
0.155704
0.191877
0.250193
0.333081
0.426018
0.523308
0.614453
0.700482
0.778774
0.853415
0.922868
0.98597
1.04158
1.07829
1.09372
1.09629
1.08386
1.03334
0.960142
0.882121
0.812942
0.783927
0.774147
0.77548
0.80383
0.860972
0.91878
0.955097
0.985855
1.00755
1.03276
1.04484
1.05756
1.06284
1.06699
1.06764
1.06755
1.06748
1.06389
1.05991
1.05152
1.04422
1.03241
1.02205
1.00679
0.995283
0.979143
0.9678
0.951257
0.940642
0.925142
0.916057
0.901944
0.892905
0.882795
0.872603
0.864653
0.853425
0.846374
0.833539
0.826536
0.811666
0.805212
0.788768
0.782345
0.765013
0.758036
0.740533
0.733143
0.714558
0.704732
0.689677
0.676649
0.663573
0.647898
0.636368
0.618066
0.60876
0.588354
0.580232
0.559189
0.551099
0.530143
0.521836
0.501854
0.493635
0.474349
0.466448
0.44697
0.437932
0.422855
0.41155
0.399419
0.385903
0.377304
0.361828
0.355855
0.340034
0.334111
0.319599
0.313918
0.300418
0.29515
0.282644
0.277801
0.265698
0.260265
0.251584
0.244957
0.238754
0.231082
0.227158
0.219186
0.216282
0.208851
0.206293
0.199715
0.197497
0.191705
0.18978
0.184743
0.183098
0.178559
0.17652
0.17387
0.171291
0.169822
0.167113
0.16624
0.163796
0.163112
0.161104
0.160589
0.158994
0.158637
0.157431
0.157225
0.156393
0.156342
0.155881
0.155766
0.155951
0.155889
0.15648
0.15658
0.157565
0.157869
0.159209
0.159721
0.161512
0.162276
0.164536
0.165569
0.168333
0.169663
0.172923
0.174559
0.17828
0.180236
0.184225
0.18684
0.190934
0.194228
0.19845
0.202313
0.20673
0.211175
0.215921
0.22093
0.225995
0.231301
0.23598
0.239999
0.241956
0.242932
0.0116172
0.0228446
0.0430646
0.0805561
0.146686
0.256296
0.424116
0.621375
0.691602
0.694882
0.62275
0.446187
0.235007
0.127236
0.0927125
0.0831322
0.0825972
0.0893996
0.111177
0.152363
0.21436
0.299506
0.39806
0.501377
0.599188
0.694977
0.785795
0.871517
0.946481
1.01576
1.07898
1.13751
1.17249
1.18584
1.18989
1.18855
1.17463
1.14143
1.08455
0.992949
0.862153
0.735308
0.678362
0.660617
0.659336
0.684252
0.743099
0.802755
0.847836
0.871791
0.896862
0.913565
0.926134
0.929252
0.929854
0.930516
0.927027
0.923128
0.913085
0.904461
0.890405
0.878149
0.859018
0.843431
0.821474
0.805146
0.781833
0.765099
0.741814
0.725902
0.703913
0.688375
0.671396
0.655391
0.641799
0.625906
0.614792
0.598466
0.588661
0.57098
0.562349
0.542981
0.534904
0.515031
0.506689
0.48741
0.47904
0.459477
0.449581
0.433682
0.421602
0.408337
0.394619
0.383504
0.368189
0.359771
0.343417
0.336721
0.320688
0.314433
0.299455
0.293483
0.280068
0.274558
0.262439
0.2575
0.246113
0.240927
0.232548
0.226783
0.220338
0.213863
0.209602
0.202496
0.199794
0.192822
0.190289
0.184207
0.181891
0.176487
0.174435
0.169638
0.16783
0.163352
0.161369
0.15831
0.156075
0.153849
0.151361
0.149994
0.147417
0.146497
0.144139
0.143367
0.14134
0.140704
0.138985
0.138466
0.13703
0.136621
0.135384
0.134847
0.134303
0.133618
0.133449
0.132836
0.132748
0.132324
0.132321
0.132083
0.132159
0.132074
0.132304
0.132299
0.132769
0.132879
0.133573
0.133806
0.134615
0.135221
0.13602
0.136993
0.137894
0.139282
0.140404
0.142176
0.143518
0.145687
0.147332
0.149947
0.151979
0.155102
0.157579
0.161215
0.164173
0.168314
0.171763
0.176298
0.180188
0.184912
0.189066
0.193931
0.19838
0.203367
0.208098
0.213187
0.218131
0.223197
0.228016
0.232395
0.23578
0.237646
0.238469
0.00779276
0.0157191
0.0300142
0.0575069
0.107661
0.193949
0.331517
0.517847
0.615032
0.629277
0.59065
0.46019
0.270085
0.12502
0.0733044
0.0583397
0.0563656
0.0601782
0.0761091
0.108842
0.160148
0.233831
0.324996
0.426633
0.522123
0.611569
0.688898
0.761065
0.822397
0.887463
0.953769
1.04248
1.13458
1.19079
1.20368
1.20254
1.18665
1.16568
1.15811
1.15534
1.1459
1.10087
1.00189
0.839322
0.650267
0.563926
0.534189
0.528294
0.537936
0.577472
0.63427
0.679221
0.709519
0.725804
0.735558
0.739726
0.738674
0.737771
0.731443
0.725238
0.71297
0.702139
0.683838
0.668821
0.646218
0.629408
0.604737
0.586591
0.560996
0.5424
0.51723
0.498702
0.478609
0.460132
0.443838
0.426225
0.413596
0.397225
0.38733
0.371195
0.363597
0.34718
0.340217
0.324133
0.317271
0.302351
0.295841
0.2816
0.274525
0.263167
0.255345
0.246002
0.237824
0.230296
0.221528
0.216051
0.206904
0.203034
0.194331
0.190899
0.183151
0.18004
0.173427
0.170702
0.16501
0.162686
0.157611
0.155317
0.151743
0.149338
0.146639
0.1441
0.142284
0.139521
0.138446
0.135747
0.134759
0.132431
0.131543
0.129503
0.128729
0.12694
0.12627
0.124627
0.123902
0.12284
0.122011
0.12129
0.120384
0.120015
0.119154
0.118896
0.118196
0.118016
0.117483
0.117379
0.117009
0.116977
0.116767
0.116805
0.116733
0.116742
0.116969
0.116996
0.117391
0.117501
0.118032
0.11822
0.118899
0.119169
0.12
0.120356
0.121342
0.121796
0.122938
0.12352
0.124819
0.125569
0.126956
0.127979
0.129407
0.130718
0.132275
0.133856
0.135565
0.137458
0.139372
0.141658
0.143859
0.146545
0.149084
0.152199
0.155176
0.158811
0.162293
0.166474
0.170499
0.175198
0.179661
0.184793
0.189653
0.195083
0.200183
0.205776
0.210922
0.216468
0.221361
0.226552
0.230763
0.235016
0.237648
0.239519
0.240207
0.00513587
0.0104009
0.0199855
0.0389332
0.0745991
0.138525
0.246655
0.410545
0.551352
0.582844
0.569199
0.480983
0.327831
0.157578
0.0756891
0.0479812
0.0402596
0.0397175
0.0445251
0.0591938
0.0856314
0.127061
0.182908
0.254812
0.332247
0.409505
0.472256
0.525632
0.560066
0.594001
0.624988
0.692609
0.795901
0.96627
1.09177
1.12608
1.12757
1.11076
1.08494
1.07702
1.08262
1.10973
1.14743
1.15693
1.14064
1.05228
0.874449
0.655715
0.49603
0.438657
0.417992
0.414733
0.424256
0.455517
0.494591
0.52119
0.527883
0.530589
0.529273
0.527722
0.521087
0.515604
0.503864
0.494467
0.477174
0.46444
0.444406
0.430025
0.4088
0.39317
0.371529
0.355309
0.337503
0.321336
0.306825
0.291653
0.28051
0.267064
0.259044
0.246869
0.241388
0.230287
0.225525
0.215389
0.210971
0.201851
0.197798
0.189403
0.185263
0.178619
0.174373
0.168812
0.164637
0.160153
0.155904
0.152463
0.148158
0.145631
0.141384
0.139544
0.135635
0.133998
0.13071
0.129309
0.12654
0.125375
0.123001
0.121922
0.120264
0.119256
0.118003
0.116971
0.116052
0.11497
0.114327
0.113201
0.112741
0.111693
0.111273
0.110335
0.10997
0.10916
0.108855
0.108134
0.107818
0.107371
0.107022
0.106764
0.106413
0.106319
0.106035
0.10599
0.10583
0.105838
0.105789
0.105874
0.105886
0.106121
0.106183
0.106538
0.106664
0.107076
0.1074
0.107806
0.108312
0.108744
0.109404
0.109888
0.110693
0.111254
0.112197
0.112859
0.113937
0.114728
0.115947
0.116882
0.118252
0.119357
0.120886
0.122278
0.123982
0.125704
0.127622
0.129659
0.131878
0.134273
0.13685
0.139608
0.142549
0.145688
0.149043
0.152634
0.156467
0.160567
0.164947
0.16959
0.174565
0.17977
0.185165
0.190897
0.196651
0.202799
0.208771
0.215151
0.221093
0.22737
0.232867
0.238533
0.243037
0.247414
0.25015
0.252044
0.252723
0.00304487
0.00609324
0.0117101
0.0231854
0.0456299
0.0878047
0.163644
0.287605
0.460933
0.549026
0.559243
0.513033
0.393499
0.235681
0.10259
0.053333
0.0364985
0.031606
0.0312247
0.0346198
0.0445687
0.0630122
0.0902535
0.127836
0.173195
0.225638
0.276978
0.32563
0.360549
0.387258
0.40485
0.445033
0.527655
0.684839
0.882641
0.989729
1.01312
1.0133
0.99967
0.963259
0.935638
0.929943
0.941994
0.981654
1.05641
1.13665
1.16252
1.15517
1.07799
0.919949
0.700493
0.492618
0.365901
0.318071
0.301352
0.298352
0.302171
0.319153
0.338955
0.347754
0.348484
0.348509
0.344856
0.342073
0.33418
0.328635
0.317725
0.310026
0.297466
0.288185
0.274524
0.263778
0.251793
0.240717
0.230681
0.219849
0.211874
0.202126
0.196142
0.18764
0.183319
0.176047
0.1727
0.16636
0.163447
0.157887
0.155279
0.150164
0.147613
0.143354
0.140792
0.137149
0.134631
0.13151
0.12914
0.126515
0.124206
0.122093
0.119863
0.118209
0.116024
0.114741
0.112717
0.111761
0.110022
0.109238
0.107801
0.107133
0.106095
0.105537
0.10475
0.104279
0.103629
0.103155
0.102609
0.102147
0.101677
0.10124
0.100842
0.100441
0.100122
0.0997589
0.099542
0.0992093
0.0990516
0.0988693
0.0987279
0.0986704
0.0985914
0.0986045
0.0985982
0.0987177
0.0987808
0.0990068
0.0991488
0.099485
0.0997062
0.100149
0.100452
0.101001
0.101396
0.10202
0.10257
0.103236
0.103935
0.104672
0.105502
0.106334
0.107292
0.108233
0.109316
0.110384
0.111596
0.112809
0.11416
0.11554
0.11705
0.118639
0.120326
0.122105
0.123986
0.125971
0.128081
0.130309
0.132739
0.135294
0.138113
0.141113
0.144375
0.14789
0.15166
0.155727
0.160073
0.164727
0.169709
0.174958
0.18063
0.186506
0.192633
0.199112
0.205629
0.212577
0.219321
0.226499
0.233161
0.240147
0.246196
0.25235
0.257087
0.26169
0.264367
0.266337
0.266988
0.00184361
0.00348736
0.00655078
0.0129416
0.0258061
0.0508893
0.0984256
0.182297
0.317962
0.483181
0.541658
0.541308
0.47887
0.348755
0.192892
0.0843984
0.0456312
0.0337814
0.0312682
0.0314414
0.0348279
0.0434874
0.0588258
0.0819201
0.112878
0.150816
0.191875
0.231121
0.260825
0.279873
0.293644
0.329676
0.419339
0.578692
0.788092
0.915884
0.94546
0.945855
0.927864
0.884859
0.829129
0.771199
0.751822
0.750334
0.769524
0.815563
0.897894
0.996943
1.10191
1.13742
1.13789
1.07924
0.926123
0.718577
0.505275
0.333672
0.256064
0.221932
0.210718
0.208277
0.209201
0.216517
0.227407
0.232794
0.23299
0.232746
0.230236
0.228388
0.224567
0.221576
0.216448
0.212114
0.206992
0.201542
0.196716
0.190522
0.185783
0.179546
0.175147
0.169437
0.165479
0.160439
0.157005
0.152644
0.149678
0.14593
0.143313
0.139888
0.137347
0.134238
0.131867
0.12909
0.126808
0.124177
0.122111
0.1197
0.117819
0.115689
0.114073
0.112213
0.110797
0.109151
0.107904
0.106513
0.105426
0.104308
0.103412
0.102555
0.101874
0.101221
0.100674
0.100153
0.0996693
0.0992383
0.0987705
0.098398
0.097938
0.0976148
0.0971773
0.0969075
0.0965125
0.0963096
0.0960052
0.0958534
0.0956446
0.0955552
0.0954497
0.0954167
0.0953982
0.0954236
0.0955124
0.0956235
0.0958055
0.096013
0.0962884
0.096609
0.09697
0.0973887
0.0978527
0.0983578
0.0989296
0.0995234
0.100217
0.100903
0.101713
0.102509
0.103427
0.104352
0.105378
0.106445
0.107587
0.108806
0.110081
0.111469
0.112895
0.114479
0.116077
0.1179
0.119718
0.121792
0.12388
0.126255
0.128682
0.131378
0.134194
0.137197
0.140459
0.143816
0.147598
0.15143
0.155825
0.160251
0.165356
0.170461
0.176346
0.182156
0.188884
0.195457
0.202721
0.210044
0.217765
0.225677
0.233655
0.241875
0.24973
0.257748
0.264817
0.271826
0.277215
0.28233
0.285267
0.287403
0.28808
0.00112464
0.00190215
0.00336273
0.00647911
0.0129392
0.0259799
0.0519498
0.100894
0.18844
0.328042
0.489427
0.539332
0.5372
0.474854
0.349965
0.200605
0.0923479
0.0522707
0.039402
0.0368175
0.0381325
0.0438963
0.0555328
0.0727482
0.0961049
0.123756
0.152643
0.177985
0.196112
0.209556
0.231362
0.286146
0.39037
0.55676
0.77211
0.898195
0.925472
0.921105
0.882644
0.814112
0.733663
0.652789
0.582899
0.552989
0.549125
0.555301
0.584763
0.63648
0.725821
0.83074
0.952041
1.05285
1.09557
1.10074
1.06558
0.943608
0.753875
0.541121
0.368613
0.259259
0.211639
0.18696
0.177338
0.173619
0.173126
0.173721
0.176651
0.181252
0.185646
0.187595
0.188028
0.18805
0.18795
0.187464
0.186653
0.185215
0.183506
0.181204
0.178647
0.175661
0.172503
0.169384
0.165863
0.162758
0.159163
0.156389
0.153093
0.150575
0.147474
0.144605
0.141973
0.139107
0.136818
0.133708
0.131746
0.128516
0.126937
0.124049
0.122839
0.120341
0.119341
0.117212
0.116337
0.114508
0.113774
0.112194
0.111614
0.110341
0.109602
0.108627
0.107786
0.106985
0.105921
0.105281
0.104011
0.103496
0.10224
0.101749
0.100638
0.100205
0.0992743
0.0989187
0.0981944
0.0979372
0.0974408
0.0971803
0.096898
0.0967257
0.0966219
0.0965306
0.0965474
0.0965482
0.0967394
0.0968345
0.0971739
0.0973753
0.097861
0.0981607
0.0987824
0.0991744
0.0999436
0.100469
0.101305
0.102008
0.102911
0.103797
0.104776
0.105853
0.106912
0.108183
0.109335
0.110807
0.112072
0.11376
0.115161
0.117084
0.11865
0.120849
0.122685
0.125029
0.127233
0.129792
0.132405
0.135234
0.138312
0.141507
0.145103
0.148755
0.152945
0.157142
0.162031
0.166894
0.172601
0.178244
0.184872
0.191362
0.199005
0.206444
0.214767
0.223149
0.232065
0.241189
0.250465
0.260002
0.269207
0.278556
0.286896
0.295044
0.301359
0.307169
0.310477
0.312837
0.313554
0.000790197
0.00112867
0.00177039
0.00315462
0.00607802
0.0121127
0.0245557
0.0491406
0.0963673
0.180171
0.316273
0.4824
0.546089
0.551625
0.508254
0.403391
0.26325
0.141618
0.0824081
0.0594259
0.0539357
0.053993
0.0597945
0.0707485
0.0858428
0.102547
0.119371
0.134844
0.149855
0.172683
0.218099
0.307898
0.466164
0.68843
0.890089
0.947027
0.950349
0.916029
0.84077
0.735733
0.622608
0.515209
0.422694
0.35398
0.332122
0.328216
0.336139
0.355168
0.395223
0.449716
0.533715
0.640149
0.772239
0.895191
1.00612
1.08116
1.10038
1.09357
1.02711
0.885208
0.702289
0.519669
0.385751
0.293841
0.253498
0.222552
0.209579
0.199122
0.196416
0.195019
0.195392
0.196198
0.198211
0.200213
0.201318
0.20215
0.202302
0.202963
0.202872
0.203071
0.202317
0.202149
0.200114
0.199173
0.196104
0.194864
0.19172
0.190483
0.187565
0.184855
0.182701
0.179506
0.177962
0.174161
0.172756
0.168844
0.167623
0.164314
0.163486
0.161073
0.160721
0.159236
0.159195
0.15837
0.158561
0.1579
0.15822
0.157941
0.157154
0.156956
0.154738
0.154226
0.150403
0.149279
0.14425
0.1426
0.137278
0.135291
0.130356
0.128502
0.124177
0.122585
0.119033
0.117827
0.1152
0.113729
0.112003
0.110687
0.109657
0.108319
0.107937
0.106803
0.106601
0.105861
0.105752
0.105368
0.105391
0.10527
0.10551
0.105468
0.105997
0.10622
0.10678
0.107307
0.107928
0.108765
0.109438
0.110564
0.111317
0.112693
0.113565
0.115175
0.116196
0.118052
0.119255
0.121385
0.122802
0.125241
0.126995
0.129571
0.131771
0.134541
0.137226
0.140244
0.143494
0.146863
0.150746
0.154584
0.159181
0.163624
0.169031
0.174218
0.180579
0.186651
0.19412
0.2012
0.209933
0.218211
0.227867
0.237371
0.247872
0.258366
0.269427
0.280533
0.29166
0.302723
0.312964
0.322788
0.33057
0.337669
0.341527
0.344368
0.345179
0.000636428
0.000764259
0.00100806
0.00154185
0.00268936
0.00510082
0.0102092
0.0206716
0.0418196
0.0822539
0.156047
0.276791
0.443614
0.552431
0.581772
0.572687
0.510609
0.403066
0.279755
0.180297
0.129601
0.105134
0.0992022
0.0990599
0.105748
0.11652
0.133078
0.15443
0.190249
0.250905
0.361264
0.521415
0.747091
0.932142
0.989515
0.990291
0.957438
0.873901
0.752108
0.607167
0.468823
0.344879
0.247246
0.16723
0.126416
0.113836
0.113612
0.117282
0.131579
0.151842
0.18744
0.232874
0.30154
0.38843
0.508818
0.65784
0.794715
0.93367
1.03153
1.11598
1.13782
1.135
1.08773
0.987847
0.858126
0.716915
0.601635
0.495518
0.432412
0.380007
0.357218
0.33208
0.317727
0.305427
0.294235
0.290433
0.286551
0.286739
0.285724
0.286465
0.28501
0.28561
0.283822
0.284233
0.282324
0.28238
0.280277
0.280243
0.278792
0.277114
0.277
0.275391
0.275499
0.273642
0.27383
0.271683
0.27209
0.271017
0.272556
0.272292
0.275747
0.276539
0.282158
0.284386
0.292025
0.294984
0.304158
0.308338
0.313564
0.318272
0.319166
0.321091
0.318855
0.318911
0.310802
0.30785
0.294427
0.288871
0.273635
0.267521
0.252063
0.245898
0.231665
0.226425
0.214811
0.208179
0.199948
0.192771
0.187511
0.179472
0.176748
0.169007
0.166776
0.160271
0.158171
0.152704
0.150949
0.146235
0.144906
0.140715
0.139738
0.136833
0.135077
0.133603
0.131917
0.131497
0.130176
0.13013
0.12943
0.129651
0.129435
0.130168
0.13021
0.13159
0.131974
0.133868
0.134575
0.137017
0.138248
0.140742
0.142725
0.145316
0.148039
0.150813
0.154299
0.157388
0.161676
0.165223
0.170382
0.17455
0.180654
0.185616
0.192823
0.198769
0.207274
0.214402
0.224453
0.233102
0.244323
0.254654
0.266998
0.278803
0.291946
0.304823
0.318171
0.33148
0.343956
0.356347
0.365895
0.375275
0.379851
0.383495
0.384493
0.000577566
0.000622686
0.000707352
0.00089371
0.00129586
0.002148
0.0039751
0.00779052
0.015746
0.0316503
0.0627446
0.119249
0.215849
0.35935
0.509439
0.600574
0.635646
0.634934
0.602785
0.535407
0.456293
0.378718
0.326386
0.301121
0.302305
0.315129
0.354456
0.41129
0.511372
0.62543
0.783416
0.920047
1.01495
1.03317
1.02763
0.979725
0.8799
0.731655
0.567232
0.40067
0.261145
0.148517
0.0800594
0.0428306
0.026615
0.019447
0.017725
0.0173791
0.019136
0.0225317
0.0300909
0.0403106
0.0577421
0.0807901
0.115817
0.16748
0.232826
0.332199
0.451834
0.603574
0.735953
0.878227
0.972238
1.06753
1.12234
1.16199
1.16558
1.15484
1.11722
1.05932
0.993801
0.92478
0.850735
0.791602
0.721907
0.676455
0.623354
0.601256
0.57233
0.561529
0.53911
0.532308
0.514343
0.509506
0.494723
0.490209
0.478313
0.474952
0.467926
0.463118
0.461202
0.458796
0.459562
0.458652
0.461311
0.46069
0.464788
0.464691
0.4708
0.471885
0.481789
0.485258
0.498746
0.505371
0.52293
0.53239
0.553689
0.566539
0.583965
0.599555
0.611877
0.626794
0.631742
0.640365
0.640534
0.642438
0.638106
0.634766
0.621301
0.613635
0.595324
0.586298
0.565087
0.556976
0.537778
0.524586
0.511563
0.494647
0.487106
0.467974
0.462046
0.443207
0.43776
0.419995
0.41403
0.396666
0.390607
0.372879
0.367027
0.347766
0.341722
0.324163
0.313479
0.300313
0.286185
0.277176
0.260991
0.255102
0.239516
0.234358
0.220916
0.216645
0.205649
0.202375
0.193913
0.191656
0.185644
0.184365
0.181398
0.179433
0.179281
0.1786
0.17925
0.179521
0.182073
0.182821
0.186859
0.188426
0.193734
0.196235
0.202765
0.206401
0.214246
0.218979
0.228322
0.234317
0.245479
0.253442
0.265701
0.276194
0.289684
0.302621
0.317125
0.332197
0.347201
0.363714
0.378237
0.394735
0.406366
0.419302
0.425366
0.430149
0.431458
0.000559296
0.000573742
0.000600757
0.00065842
0.000781152
0.00104108
0.00159964
0.00277638
0.00527028
0.010378
0.020778
0.0407576
0.078066
0.141386
0.24429
0.385662
0.528024
0.619376
0.679028
0.719333
0.740851
0.753132
0.760876
0.773966
0.792296
0.824175
0.867739
0.918469
0.976642
1.03237
1.07598
1.08378
1.07093
1.02101
0.923438
0.786133
0.617211
0.442108
0.284174
0.155517
0.0771152
0.0357086
0.0180199
0.00958031
0.00580317
0.00391659
0.00313992
0.00281727
0.00281967
0.00295074
0.00356078
0.00458807
0.00670172
0.00980172
0.0149522
0.0235646
0.0354
0.0551251
0.0811293
0.120935
0.168417
0.236772
0.318958
0.435418
0.538869
0.66549
0.761117
0.880929
0.959141
1.05177
1.11047
1.19353
1.25245
1.31591
1.33897
1.34318
1.33411
1.31248
1.27254
1.23055
1.17586
1.13574
1.08071
1.049
0.99814
0.972283
0.926175
0.904991
0.870939
0.847363
0.829299
0.808779
0.80088
0.786426
0.783277
0.774502
0.77476
0.770213
0.772655
0.771032
0.776948
0.777421
0.788661
0.79269
0.809828
0.817918
0.840777
0.854131
0.873915
0.892222
0.908022
0.928321
0.939125
0.957275
0.963407
0.976095
0.979367
0.984625
0.984117
0.984944
0.980986
0.980279
0.973416
0.972411
0.966167
0.961724
0.96125
0.957792
0.958982
0.955927
0.957932
0.95527
0.957545
0.955207
0.956783
0.953265
0.954367
0.948198
0.9488
0.937057
0.93604
0.922717
0.908647
0.896939
0.872017
0.860836
0.82617
0.813644
0.773084
0.758038
0.713841
0.697468
0.650498
0.632623
0.584563
0.566266
0.519603
0.502017
0.462777
0.439453
0.411848
0.386369
0.369024
0.344454
0.335453
0.315473
0.309559
0.295946
0.292802
0.28519
0.284443
0.282149
0.283486
0.28415
0.289839
0.291407
0.300087
0.30431
0.313294
0.321681
0.331612
0.344097
0.355499
0.371607
0.385192
0.404567
0.419508
0.440959
0.455359
0.473525
0.482107
0.488744
0.490554
0.000560802
0.000557409
0.000564454
0.000583794
0.000618174
0.000691053
0.00084047
0.0011553
0.00181902
0.00318215
0.0060043
0.0115523
0.0223927
0.041844
0.0762951
0.129886
0.212239
0.323427
0.447643
0.561904
0.643612
0.714825
0.757613
0.808654
0.839172
0.882384
0.907401
0.940964
0.949027
0.9466
0.916158
0.859604
0.759865
0.645019
0.494793
0.3618
0.221573
0.134509
0.0695656
0.0349759
0.0178784
0.00969929
0.0058963
0.00387878
0.00292187
0.00230633
0.00200811
0.00172821