/*--------------------------------*- C++ -*----------------------------------*\
| =========                 |                                                 |
| \\      /  F ield         | OpenFOAM: The Open Source CFD Toolbox           |
|  \\    /   O peration     | Version:  4.1                                   |
|   \\  /    A nd           | Web:      www.OpenFOAM.org                      |
|    \\/     M anipulation  |                                                 |
\*---------------------------------------------------------------------------*/
FoamFile
{
    version     2.0;
    format      ascii;
    class       volScalarField;
    location    "9";
    object      k;
}
// * * * * * * * * * * * * * * * * * * * * * * * * * * * * * * * * * * * * * //

dimensions      [0 2 -2 0 0 0 0];

internalField   nonuniform List<scalar> 
204246
(
0.720154
0.781286
0.78724
0.799776
0.827918
0.877499
0.980633
1.15895
1.44631
1.82837
2.19172
2.32794
2.37979
2.40087
2.41678
2.42829
2.43482
2.43292
2.42976
2.42113
2.40876
2.39365
2.37563
2.35871
2.34005
2.32624
2.30941
2.30368
2.28921
2.28578
2.27587
2.27509
2.27043
2.27231
2.27113
2.27931
2.28246
2.28987
2.30442
2.30833
2.32669
2.33275
2.35273
2.36012
2.38076
2.38844
2.40925
2.41649
2.43539
2.4425
2.46027
2.46779
2.48372
2.49123
2.50465
2.51396
2.52555
2.53393
2.54531
2.55312
2.56417
2.57176
2.58265
2.5915
2.60133
2.61198
2.62055
2.63059
2.64027
2.65051
2.6597
2.66995
2.68104
2.69002
2.70237
2.7105
2.72388
2.73159
2.74559
2.75324
2.76995
2.77584
2.79389
2.79936
2.81691
2.82321
2.84085
2.84733
2.86343
2.87401
2.88749
2.89982
2.91221
2.92558
2.93746
2.9541
2.9636
2.98279
2.99063
3.01142
3.01851
3.03939
3.04738
3.06832
3.07675
3.09841
3.10678
3.1271
3.13945
3.15739
3.17155
3.18865
3.20655
3.22121
3.24218
3.25506
3.27712
3.28996
3.31306
3.32593
3.3505
3.36321
3.38888
3.40153
3.42621
3.44255
3.46507
3.48336
3.50513
3.52539
3.54642
3.56786
3.58879
3.61126
3.63223
3.65575
3.67677
3.70113
3.72244
3.74771
3.76918
3.79395
3.81744
3.84148
3.86561
3.88993
3.9144
3.93915
3.96374
3.98904
4.01361
4.03945
4.06385
4.0903
4.11459
4.14161
4.16592
4.19318
4.21681
4.24437
4.26805
4.295
4.31942
4.34557
4.3708
4.39599
4.42229
4.44634
4.47417
4.49705
4.52689
4.54846
4.58095
4.60162
4.63825
4.65701
4.69827
4.72078
4.75837
4.78948
4.82546
4.86581
4.90319
4.95388
4.99642
5.05889
5.11114
5.18664
5.25316
5.33381
5.40191
5.44105
5.4578
0.262831
0.356831
0.378531
0.448142
0.56308
0.759298
1.10878
1.61829
1.92517
1.97234
1.88305
1.59886
1.38996
1.31656
1.29604
1.28529
1.28818
1.29011
1.31569
1.36831
1.38605
1.43067
1.45869
1.52572
1.55482
1.60544
1.63373
1.66997
1.68447
1.69122
1.69368
1.68859
1.67836
1.64691
1.62641
1.59833
1.58555
1.56513
1.54891
1.53918
1.52916
1.52569
1.52408
1.52369
1.52738
1.52833
1.53776
1.54045
1.55349
1.55735
1.57042
1.57493
1.5884
1.59311
1.59968
1.61047
1.61365
1.62501
1.62863
1.63943
1.64305
1.65348
1.65647
1.66715
1.67006
1.68068
1.68355
1.6948
1.69855
1.71059
1.71522
1.72155
1.7324
1.73666
1.74903
1.75348
1.76656
1.77129
1.78493
1.78961
1.80355
1.80827
1.823
1.82803
1.84407
1.85022
1.86766
1.87495
1.88669
1.90169
1.90957
1.92751
1.93496
1.9542
1.96169
1.98136
1.98899
2.00944
2.01728
2.03907
2.04763
2.07028
2.0799
2.10355
2.11377
2.13891
2.14976
2.1711
2.19012
2.20709
2.23108
2.24438
2.27169
2.28384
2.31319
2.32596
2.35766
2.37142
2.40448
2.4193
2.45359
2.4691
2.50616
2.52336
2.5553
2.58177
2.60973
2.64126
2.66817
2.70263
2.72936
2.76761
2.79459
2.83547
2.86358
2.9067
2.93644
2.98164
3.01382
3.06149
3.09734
3.13939
3.18487
3.2257
3.27373
3.31755
3.36701
3.41408
3.46497
3.51554
3.56799
3.62229
3.67505
3.73353
3.78739
3.85087
3.90829
3.97612
4.02804
4.10444
4.16078
4.23199
4.29962
4.36527
4.44279
4.5031
4.58833
4.64473
4.73425
4.78923
4.87889
4.93528
5.01764
5.07733
5.16279
5.2211
5.30503
5.34544
5.44116
5.47799
5.56941
5.60273
5.68956
5.71949
5.80318
5.83021
5.92045
5.95246
6.12074
6.26736
6.68531
6.94554
7.05593
0.0923268
0.151154
0.186658
0.291419
0.444011
0.701619
1.10194
1.62915
1.84543
1.85277
1.61524
1.26294
1.16655
1.14272
1.14243
1.16964
1.23505
1.29945
1.34991
1.40611
1.47725
1.54966
1.62223
1.70103
1.78487
1.86278
1.93949
2.01399
2.08814
2.15393
2.21753
2.2685
2.30718
2.31914
2.32614
2.32325
2.31992
2.30519
2.27385
2.25831
2.23164
2.22263
2.20143
2.19618
2.18344
2.1839
2.17707
2.18282
2.18074
2.19451
2.19624
2.21376
2.21711
2.23703
2.24671
2.2518
2.26911
2.2721
2.28895
2.29236
2.30844
2.31134
2.32734
2.32847
2.34449
2.3453
2.3616
2.36352
2.37763
2.37954
2.3947
2.40207
2.40422
2.41636
2.41776
2.43091
2.43262
2.4462
2.44811
2.46255
2.46342
2.47869
2.47985
2.49613
2.49867
2.51422
2.51744
2.53473
2.54324
2.54896
2.56337
2.56693
2.58346
2.5875
2.60503
2.60831
2.62667
2.63033
2.64937
2.6535
2.67297
2.67802
2.69662
2.70242
2.72143
2.72751
2.74826
2.75729
2.76895
2.78465
2.79071
2.8098
2.81548
2.83501
2.84101
2.86102
2.86784
2.8871
2.89413
2.91361
2.92083
2.94107
2.94891
2.96955
2.97929
2.9933
3.00765
3.01748
3.03478
3.04252
3.06068
3.06873
3.08646
3.09459
3.11147
3.11953
3.13563
3.14379
3.15941
3.16782
3.18215
3.18909
3.20024
3.20648
3.21567
3.22082
3.22837
3.23049
3.2363
3.23548
3.23837
3.2349
3.23558
3.22529
3.2254
3.20897
3.20785
3.18178
3.16903
3.15361
3.12081
3.11182
3.06611
3.05382
2.9999
2.98452
2.92373
2.9061
2.84003
2.82047
2.74965
2.72878
2.65403
2.63242
2.55765
2.53694
2.45689
2.41968
2.38321
2.31959
2.30377
2.23242
2.21789
2.14926
2.137
2.0765
2.06943
2.02829
2.03226
2.00515
2.01017
1.87479
1.82459
0.0542385
0.105407
0.16421
0.279014
0.451372
0.726385
1.12586
1.54846
1.66929
1.65351
1.42127
1.14058
1.07479
1.06307
1.0744
1.13003
1.20665
1.25945
1.28823
1.32436
1.37858
1.44227
1.50488
1.5936
1.69483
1.8041
1.90146
2.00513
2.10628
2.20982
2.30183
2.39376
2.47492
2.55312
2.61656
2.67272
2.71931
2.76302
2.79411
2.81445
2.82558
2.83861
2.84343
2.84796
2.84747
2.85383
2.8529
2.8605
2.85982
2.86909
2.86995
2.8802
2.88168
2.89068
2.8948
2.89389
2.89893
2.89755
2.90042
2.89921
2.90231
2.90136
2.90578
2.90452
2.9096
2.9086
2.91447
2.91437
2.92032
2.92065
2.92645
2.9292
2.92906
2.93274
2.93232
2.93557
2.93513
2.93828
2.93788
2.94125
2.9404
2.94348
2.94264
2.94572
2.94534
2.9481
2.94789
2.95025
2.9514
2.95075
2.95181
2.95127
2.95224
2.95172
2.95262
2.95182
2.9526
2.95187
2.9525
2.95178
2.9522
2.95139
2.95145
2.95076
2.95076
2.94966
2.94925
2.94804
2.94556
2.94423
2.94115
2.9394
2.93562
2.93322
2.92879
2.92578
2.92063
2.91717
2.91107
2.90697
2.90019
2.89494
2.88791
2.88007
2.87099
2.86281
2.85066
2.84274
2.82643
2.81917
2.79849
2.79145
2.76684
2.75864
2.73016
2.72064
2.68792
2.67677
2.64011
2.62765
2.58325
2.56153
2.52915
2.49073
2.46692
2.41576
2.39601
2.33741
2.31568
2.2528
2.22921
2.16254
2.13722
2.06676
2.03963
1.967
1.9392
1.86111
1.82326
1.76317
1.70933
1.66294
1.59617
1.56238
1.48888
1.46048
1.38743
1.36057
1.29301
1.26824
1.20677
1.18465
1.12963
1.11029
1.06156
1.04485
1.00132
0.981561
0.952875
0.929217
0.910397
0.883244
0.871299
0.84354
0.834714
0.815276
0.81214
0.807881
0.821956
0.839101
0.869174
0.878798
0.886096
0.0534138
0.101105
0.164871
0.282309
0.46122
0.735248
1.11762
1.43298
1.50737
1.48571
1.28539
1.05086
0.993725
0.981194
0.983711
1.01452
1.04512
1.04966
1.05007
1.06394
1.10795
1.19868
1.30991
1.45044
1.58784
1.71852
1.8233
1.92104
2.01646
2.11318
2.20321
2.27991
2.35086
2.41766
2.49851
2.59642
2.70391
2.80758
2.90954
2.97919
3.04481
3.09748
3.15216
3.18377
3.20916
3.22562
3.24373
3.25935
3.26693
3.27265
3.27382
3.27798
3.27802
3.27955
3.27978
3.27489
3.2723
3.26041
3.25242
3.23733
3.22775
3.21132
3.20274
3.18763
3.18142
3.16767
3.16227
3.15121
3.14665
3.1374
3.13332
3.12556
3.11923
3.11195
3.1036
3.09583
3.08607
3.07799
3.0673
3.05913
3.04776
3.03947
3.02767
3.01904
3.00739
2.99807
2.9865
2.97588
2.9646
2.95231
2.94091
2.92817
2.91572
2.90297
2.88885
2.87664
2.86047
2.84917
2.83075
2.82051
2.79963
2.78988
2.76747
2.75804
2.73407
2.72421
2.69695
2.68385
2.66142
2.6418
2.62258
2.59604
2.58127
2.54812
2.53564
2.49813
2.48382
2.44501
2.4293
2.3879
2.37112
2.32705
2.30957
2.26
2.23568
2.19787
2.16037
2.13039
2.08248
2.05831
2.00337
1.98125
1.923
1.90006
1.84035
1.81686
1.75602
1.73196
1.67085
1.64661
1.58335
1.55275
1.50314
1.46216
1.42238
1.37347
1.34253
1.28738
1.26453
1.20795
1.18607
1.13218
1.11145
1.06065
1.04137
0.994402
0.976828
0.93256
0.911968
0.880753
0.856331
0.834594
0.807199
0.794159
0.767287
0.757715
0.734463
0.726695
0.707408
0.701178
0.685676
0.68096
0.668964
0.665688
0.656883
0.654936
0.648676
0.646295
0.645644
0.643801
0.644526
0.64362
0.644525
0.643494
0.644103
0.642755
0.644119
0.644513
0.653892
0.659616
0.672504
0.677244
0.681068
0.0523304
0.0927538
0.158789
0.271933
0.448661
0.714203
1.07599
1.34457
1.40613
1.38833
1.22818
0.965942
0.852857
0.80735
0.775067
0.734626
0.724024
0.722046
0.73323
0.786161
0.898249
1.08361
1.28866
1.49162
1.66508
1.82535
1.96315
2.0768
2.16795
2.24208
2.30934
2.34311
2.36168
2.36847
2.37173
2.37255
2.39133
2.44572
2.54693
2.67682
2.81584
2.9466
3.07098
3.16091
3.23208
3.27921
3.32792
3.36433
3.39676
3.41188
3.41923
3.42189
3.42224
3.42201
3.4197
3.41238
3.40123
3.38342
3.36328
3.33886
3.31315
3.28348
3.25509
3.22519
3.19897
3.17037
3.14667
3.12106
3.09966
3.07761
3.05824
3.03794
3.02101
3.00087
2.98438
2.96284
2.94578
2.92207
2.90447
2.87804
2.86122
2.83211
2.81629
2.78455
2.769
2.73591
2.72022
2.68483
2.66337
2.63492
2.60668
2.58183
2.5483
2.52572
2.48689
2.46775
2.42445
2.40677
2.3612
2.3431
2.29606
2.27679
2.23003
2.21013
2.16271
2.14256
2.09193
2.06765
2.02647
1.99368
1.95817
1.91777
1.8889
1.84118
1.81753
1.76455
1.74258
1.68886
1.66619
1.61239
1.58969
1.53603
1.51346
1.45799
1.43141
1.38746
1.35266
1.31762
1.27628
1.24897
1.20271
1.18247
1.13495
1.11612
1.07069
1.05296
1.01004
0.993338
0.953268
0.937766
0.89936
0.881287
0.853324
0.831632
0.810683
0.786314
0.771542
0.745838
0.735522
0.710697
0.701416
0.679188
0.670932
0.651169
0.643902
0.626458
0.620102
0.604283
0.597052
0.586426
0.57834
0.570896
0.562203
0.557712
0.549366
0.546327
0.53927
0.536949
0.531661
0.530085
0.526501
0.525661
0.523737
0.52364
0.523108
0.52389
0.524315
0.526352
0.528511
0.531267
0.5351
0.538625
0.543951
0.548207
0.555024
0.560246
0.568548
0.574601
0.584203
0.590693
0.598155
0.601135
0.603067
0.043699
0.0781933
0.137091
0.237844
0.40018
0.644956
0.981509
1.24928
1.31589
1.30818
1.18265
0.939588
0.711129
0.570478
0.492013
0.458377
0.453689
0.462835
0.508954
0.615649
0.787998
1.02858
1.29091
1.55582
1.79208
1.99871
2.16593
2.31074
2.43697
2.55019
2.64869
2.70718
2.72868
2.7264
2.6729
2.55191
2.42178
2.32299
2.28064
2.26819
2.27392
2.35127
2.52244
2.71097
2.87195
2.98392
3.09491
3.17038
3.24549
3.28276
3.31956
3.33379
3.34081
3.34142
3.33981
3.33536
3.32095
3.3027
3.27469
3.24602
3.2086
3.17052
3.12378
3.08081
3.0306
2.98658
2.93466
2.89261
2.84366
2.80605
2.761
2.72495
2.69007
2.65344
2.62421
2.5871
2.56038
2.52107
2.49466
2.45149
2.42587
2.37872
2.35416
2.30451
2.28049
2.23046
2.20593
2.15419
2.12355
2.0806
2.04283
2.0048
1.96132
1.92677
1.87795
1.84818
1.7944
1.76864
1.71198
1.68831
1.63112
1.60706
1.55216
1.5284
1.47515
1.45219
1.39858
1.37314
1.32996
1.29889
1.26287
1.22658
1.19878
1.15751
1.13689
1.0933
1.07533
1.03369
1.01638
0.977277
0.961053
0.924461
0.909358
0.873897
0.857549
0.830485
0.811301
0.790429
0.768862
0.753641
0.73026
0.72019
0.697013
0.688107
0.667102
0.65915
0.640269
0.633148
0.616308
0.609986
0.594532
0.587362
0.576723
0.568315
0.560738
0.551594
0.546589
0.537284
0.533714
0.525117
0.522008
0.51451
0.511827
0.50534
0.503054
0.497514
0.495621
0.490881
0.488745
0.486024
0.483558
0.482257
0.479959
0.479335
0.477707
0.477434
0.476671
0.476807
0.476735
0.477861
0.478197
0.480351
0.481172
0.484239
0.485534
0.48941
0.491136
0.495461
0.498156
0.502611
0.506181
0.510905
0.515432
0.520653
0.526203
0.531924
0.538494
0.544838
0.552151
0.558219
0.563698
0.566206
0.56759
0.0350779
0.0641043
0.11318
0.198997
0.340005
0.556709
0.863883
1.15434
1.23944
1.24165
1.14841
0.933142
0.672285
0.433169
0.325689
0.292952
0.289481
0.305745
0.366746
0.487999
0.670928
0.918154
1.19736
1.48196
1.73721
1.97068
2.17076
2.34244
2.47771
2.60074
2.71449
2.82911
2.90166
2.92823
2.93399
2.92111
2.86743
2.76746
2.61425
2.40188
2.1646
2.06262
2.02938
2.02713
2.08347
2.2405
2.45152
2.62258
2.75872
2.84527
2.93558
2.99113
3.03305
3.04569
3.04883
3.05058
3.04048
3.02704
2.99686
2.96751
2.92343
2.8819
2.82357
2.77191
2.70555
2.6506
2.58062
2.52376
2.45398
2.39926
2.33313
2.28026
2.22682
2.17464
2.12998
2.07991
2.04186
1.99266
1.95861
1.90789
1.87688
1.82206
1.79199
1.73413
1.70562
1.64841
1.62122
1.56363
1.53165
1.48395
1.44613
1.40564
1.3637
1.32865
1.28287
1.25437
1.20562
1.18289
1.13388
1.11343
1.06674
1.04711
1.00459
0.986279
0.947305
0.93061
0.893718
0.87651
0.847918
0.829056
0.806018
0.785289
0.768302
0.745547
0.733848
0.710533
0.700997
0.679506
0.670682
0.651268
0.643293
0.625751
0.61856
0.602067
0.594511
0.582124
0.573917
0.564033
0.555178
0.547819
0.538349
0.533215
0.523617
0.519732
0.510764
0.507304
0.499271
0.496174
0.488992
0.486233
0.479631
0.47655
0.471917
0.468331
0.46495
0.461056
0.458739
0.454703
0.453111
0.449326
0.447944
0.444647
0.443469
0.440654
0.439679
0.437398
0.436663
0.434841
0.434045
0.433317
0.432546
0.432426
0.432147
0.432447
0.432754
0.433946
0.434533
0.43662
0.437642
0.440658
0.442247
0.446226
0.448464
0.45343
0.456324
0.462279
0.465787
0.472409
0.476724
0.483523
0.4885
0.495298
0.500931
0.507671
0.513719
0.520396
0.526676
0.533182
0.539271
0.544795
0.54905
0.551322
0.552424
0.0249602
0.0462187
0.0824957
0.14877
0.262256
0.444561
0.714141
1.03687
1.16725
1.18498
1.12884
0.950144
0.692332
0.427397
0.258288
0.208424
0.200616
0.209112
0.252959
0.347808
0.497575
0.710262
0.968334
1.25257
1.50975
1.73452
1.90842
2.05399
2.16053
2.2723
2.38554
2.55713
2.74962
2.91294
2.96011
2.9665
2.94506
2.89648
2.8439
2.78139
2.69456
2.54839
2.32013
2.00086
1.78749
1.72929
1.71827
1.7423
1.85727
2.03613
2.22161
2.35064
2.44814
2.51057
2.55394
2.57177
2.5714
2.57003
2.55361
2.53454
2.49848
2.46357
2.40926
2.36084
2.29313
2.23729
2.16241
2.1013
2.02311
1.95999
1.88242
1.8193
1.75468
1.69274
1.63824
1.57999
1.53519
1.48161
1.44469
1.39387
1.36421
1.31346
1.2868
1.23386
1.20892
1.1585
1.13555
1.08697
1.06254
1.02245
0.995288
0.961937
0.933413
0.905978
0.875678
0.854241
0.822805
0.806919
0.775889
0.762714
0.734211
0.722132
0.697226
0.686438
0.664511
0.655055
0.635187
0.625961
0.61089
0.6014
0.589253
0.57942
0.570146
0.559649
0.552831
0.541897
0.536914
0.526484
0.522032
0.512511
0.508474
0.499841
0.49618
0.488074
0.484308
0.478052
0.473969
0.468836
0.464528
0.460552
0.456062
0.453021
0.448415
0.446289
0.441824
0.440032
0.436012
0.434431
0.430875
0.429496
0.426293
0.424805
0.422562
0.42093
0.419349
0.417683
0.41666
0.415043
0.414446
0.413064
0.41263
0.411616
0.411345
0.410701
0.410597
0.41035
0.410431
0.410497
0.41079
0.411413
0.411731
0.412916
0.413439
0.415123
0.415879
0.418145
0.41921
0.422218
0.423736
0.427518
0.429584
0.434238
0.436998
0.44257
0.446148
0.452558
0.457011
0.463976
0.469298
0.476517
0.482453
0.489727
0.495895
0.503253
0.509653
0.516899
0.523221
0.529969
0.535669
0.54101
0.544736
0.546882
0.547819
0.0176538
0.0321652
0.0573817
0.104995
0.189696
0.332444
0.558367
0.874989
1.09974
1.14541
1.12255
0.986112
0.752033
0.480864
0.259371
0.170744
0.145601
0.143187
0.156362
0.199873
0.279859
0.404774
0.56973
0.775972
0.993075
1.20412
1.36581
1.48959
1.55229
1.6044
1.64413
1.76724
1.96716
2.31744
2.6498
2.77152
2.79191
2.78753
2.76615
2.72646
2.69781
2.68134
2.67298
2.63683
2.52857
2.30444
1.97619
1.63819
1.49293
1.45279
1.44738
1.47655
1.57778
1.72151
1.8526
1.94893
1.98413
2.00083
2.00068
1.99893
1.9822
1.965
1.92955
1.89804
1.84455
1.8008
1.73709
1.68611
1.61711
1.56085
1.48914
1.42995
1.36805
1.30916
1.25634
1.20121
1.15807
1.10897
1.07505
1.03131
1.00605
0.96667
0.946944
0.908724
0.890979
0.855355
0.838965
0.805926
0.789491
0.7624
0.74541
0.722204
0.705503
0.686401
0.669619
0.65435
0.637097
0.62562
0.608142
0.599666
0.583001
0.575604
0.561063
0.554542
0.541869
0.536209
0.524952
0.519664
0.510903
0.505879
0.498618
0.493555
0.487528
0.482321
0.477291
0.471905
0.467648
0.462362
0.458698
0.453427
0.450309
0.445152
0.442639
0.437605
0.435186
0.43103
0.428487
0.424986
0.422322
0.419443
0.416768
0.414393
0.411772
0.409898
0.407281
0.405928
0.403398
0.40233
0.400074
0.399156
0.397178
0.396248
0.3949
0.393924
0.393037
0.392091
0.391587
0.390775
0.390505
0.389959
0.389835
0.389622
0.389653
0.389705
0.39007
0.390319
0.391024
0.391504
0.392486
0.393576
0.394801
0.396555
0.398087
0.400434
0.402439
0.405416
0.407982
0.411541
0.414628
0.41873
0.422391
0.427108
0.431423
0.436879
0.441931
0.448158
0.453971
0.46091
0.467317
0.474828
0.481738
0.489661
0.496917
0.504911
0.512114
0.519758
0.526411
0.533115
0.53861
0.54358
0.546987
0.549026
0.549851
0.0117209
0.0203044
0.035548
0.065481
0.121171
0.220084
0.387315
0.642295
0.96808
1.10695
1.12356
1.05311
0.86305
0.601877
0.330407
0.182526
0.130808
0.115271
0.113979
0.124624
0.1563
0.215258
0.301554
0.418305
0.55489
0.706178
0.844188
0.963037
1.02976
1.06332
1.08223
1.15306
1.32651
1.66005
2.07589
2.38267
2.47299
2.48999
2.49027
2.46971
2.44342
2.43405
2.44616
2.48371
2.54557
2.56595
2.56203
2.48677
2.29215
1.99931
1.6392
1.32883
1.19388
1.15425
1.14739
1.16774
1.22835
1.32519
1.40669
1.44658
1.45418
1.45682
1.44864
1.44045
1.41526
1.39474
1.35743
1.32789
1.28343
1.24699
1.19736
1.1549
1.10903
1.06469
1.02406
0.980611
0.946099
0.906851
0.878847
0.84483
0.82296
0.793696
0.776562
0.750849
0.736418
0.713155
0.700256
0.678536
0.666119
0.647655
0.635293
0.619007
0.606962
0.592879
0.581411
0.569491
0.558362
0.548596
0.537957
0.52979
0.519527
0.512658
0.503135
0.497402
0.488744
0.484149
0.476197
0.472325
0.465727
0.462284
0.456645
0.453489
0.448436
0.445241
0.440671
0.437453
0.433246
0.430112
0.426236
0.42318
0.419697
0.416707
0.413706
0.41073
0.408019
0.405457
0.402928
0.400678
0.398291
0.396373
0.394173
0.392563
0.390546
0.389243
0.387436
0.386437
0.384828
0.384089
0.382785
0.382241
0.381226
0.380751
0.380169
0.379782
0.379556
0.379343
0.379325
0.379311
0.379564
0.379774
0.380266
0.380711
0.381431
0.382129
0.3831
0.38406
0.385326
0.38661
0.388156
0.389797
0.391605
0.393593
0.39571
0.398111
0.40068
0.40365
0.406768
0.410503
0.414234
0.41881
0.423235
0.428656
0.433857
0.440119
0.446162
0.453223
0.460153
0.467939
0.475504
0.483884
0.491942
0.500711
0.50903
0.517867
0.526063
0.534442
0.541878
0.549034
0.554899
0.559994
0.563418
0.565477
0.566258
0.00828096
0.0129858
0.0215353
0.0388006
0.0721014
0.133853
0.244562
0.428367
0.708789
1.01125
1.10766
1.10878
1.01084
0.796404
0.522275
0.266214
0.154926
0.119979
0.111981
0.112053
0.121309
0.146487
0.191844
0.259553
0.347139
0.450036
0.553569
0.645878
0.707142
0.744602
0.772688
0.863943
1.06611
1.40445
1.82449
2.12243
2.21103
2.22652
2.22114
2.18271
2.12344
2.06296
2.04942
2.05338
2.09208
2.15971
2.26954
2.38221
2.43636
2.44233
2.39849
2.23116
1.9434
1.60611
1.27597
1.01785
0.9135
0.880061
0.874784
0.885173
0.92145
0.982496
1.03741
1.06183
1.06444
1.06526
1.05842
1.0528
1.03888
1.02632
1.00528
0.985997
0.96369
0.939568
0.917295
0.890201
0.867428
0.840057
0.818132
0.792643
0.77244
0.749747
0.731913
0.712197
0.696684
0.679601
0.665817
0.650133
0.637007
0.622611
0.610387
0.597189
0.585554
0.573007
0.562358
0.550795
0.541135
0.530792
0.522383
0.513176
0.505691
0.497344
0.490559
0.48309
0.476957
0.470447
0.465003
0.45947
0.45479
0.450062
0.445877
0.44171
0.437757
0.433968
0.430102
0.42659
0.422743
0.419463
0.415704
0.412681
0.409112
0.406369
0.403112
0.400643
0.397653
0.395468
0.392696
0.390865
0.388283
0.38663
0.384399
0.382939
0.380989
0.379793
0.378141
0.377204
0.375825
0.37509
0.374007
0.373459
0.372651
0.372251
0.371793
0.371549
0.371428
0.371373
0.371399
0.371648
0.371906
0.372383
0.372886
0.373591
0.374359
0.375317
0.376362
0.377631
0.378965
0.380621
0.382287
0.384416
0.38647
0.389114
0.391664
0.39481
0.397894
0.401473
0.405162
0.409213
0.413627
0.418321
0.423572
0.429093
0.435275
0.441715
0.448882
0.456207
0.464393
0.472546
0.481377
0.490233
0.499543
0.508862
0.518384
0.527804
0.537079
0.546019
0.554294
0.561855
0.568161
0.573402
0.576928
0.57901
0.579763
0.00620345
0.00844904
0.0126066
0.0212751
0.0386562
0.0722786
0.136038
0.24971
0.441586
0.730612
1.02762
1.1134
1.11272
1.01469
0.805283
0.537493
0.284059
0.170517
0.133318
0.125308
0.127955
0.141784
0.169453
0.210367
0.265467
0.330496
0.397937
0.458915
0.506279
0.550742
0.618463
0.757928
0.993686
1.34373
1.77419
2.03208
2.09248
2.09178
2.04671
1.95096
1.83041
1.6992
1.60622
1.57877
1.58205
1.60708
1.67633
1.77498
1.92246
2.06762
2.22018
2.27862
2.29169
2.27151
2.15957
1.91288
1.5963
1.26479
1.00557
0.846086
0.780712
0.755427
0.750626
0.752907
0.766844
0.795544
0.827993
0.859863
0.880888
0.890476
0.892848
0.893174
0.89295
0.890408
0.885993
0.877992
0.868265
0.855491
0.841753
0.826686
0.810824
0.79531
0.777681
0.762145
0.744328
0.730286
0.713785
0.700841
0.685424
0.671041
0.657827
0.643551
0.631994
0.616982
0.606796
0.59145
0.582979
0.568507
0.562151
0.549647
0.544335
0.533328
0.528536
0.518664
0.514388
0.505348
0.501591
0.493611
0.489154
0.482386
0.477236
0.4713
0.465079
0.459954
0.452834
0.448487
0.441007
0.437334
0.430252
0.427092
0.420666
0.417847
0.412267
0.409833
0.405116
0.402681
0.398747
0.396628
0.39332
0.391284
0.388591
0.386749
0.384635
0.382968
0.381403
0.379938
0.378884
0.377569
0.376965
0.375908
0.375495
0.374875
0.374541
0.374383
0.374274
0.374322
0.374451
0.374906
0.375154
0.375997
0.376383
0.377581
0.378156
0.3797
0.380505
0.382427
0.383504
0.385841
0.387369
0.38989
0.392003
0.394817
0.397548
0.400724
0.404148
0.407813
0.411968
0.416241
0.421202
0.42619
0.432097
0.437953
0.444913
0.451768
0.45986
0.467724
0.477001
0.485884
0.495909
0.505693
0.516295
0.526671
0.537552
0.548123
0.558776
0.568864
0.578417
0.586924
0.594131
0.599923
0.603761
0.606036
0.60681
0.00523714
0.00621847
0.00806962
0.0120008
0.0201192
0.0363311
0.0684145
0.128771
0.238632
0.422594
0.705314
1.01733
1.1305
1.14331
1.07765
0.906117
0.662859
0.413447
0.253512
0.188415
0.170743
0.16924
0.18156
0.206283
0.241225
0.280559
0.322318
0.363832
0.408689
0.474285
0.590011
0.792226
1.1172
1.54173
1.92229
2.03909
2.05489
2.0182
1.90983
1.7402
1.54716
1.35386
1.18085
1.06425
1.03564
1.03371
1.06296
1.11578
1.21233
1.32792
1.49524
1.67555
1.87129
2.03072
2.13615
2.16891
2.16828
2.12357
1.97563
1.72977
1.44931
1.18414
0.993628
0.887181
0.84388
0.819562
0.811292
0.807014
0.807828
0.814514
0.833606
0.858713
0.885563
0.904281
0.915015
0.920401
0.922933
0.925883
0.926141
0.926705
0.923643
0.921369
0.911913
0.905671
0.892024
0.884425
0.869818
0.861778
0.847622
0.833323
0.821691
0.806049
0.797037
0.779109
0.771154
0.752189
0.745246
0.728658
0.723445
0.710802
0.707585
0.698452
0.696315
0.689626
0.688583
0.682524
0.682075
0.676168
0.671253
0.666401
0.655907
0.650553
0.632643
0.625976
0.603384
0.594991
0.571524
0.562007
0.540169
0.531309
0.511941
0.504185
0.48792
0.481684
0.468815
0.461834
0.452247
0.44582
0.438856
0.432245
0.427569
0.420879
0.418328
0.412282
0.410051
0.405178
0.403379
0.399401
0.398045
0.394741
0.393721
0.391456
0.390154
0.388955
0.387815
0.387395
0.386576
0.386464
0.386117
0.386222
0.386193
0.386827
0.386993
0.38814
0.388579
0.390238
0.390979
0.393181
0.394438
0.39684
0.398769
0.401422
0.404042
0.407
0.410409
0.413837
0.418107
0.422167
0.427407
0.432241
0.438551
0.444289
0.451795
0.45857
0.46741
0.475317
0.485598
0.494767
0.506033
0.516369
0.528451
0.539595
0.552095
0.563602
0.575951
0.587137
0.598302
0.607999
0.616311
0.623164
0.627191
0.629888
0.630706
0.00479941
0.00517561
0.00588726
0.00742306
0.0106783
0.0173677
0.031115
0.0581675
0.110363
0.204999
0.368354
0.620581
0.945061
1.13966
1.19385
1.18379
1.08984
0.920029
0.707609
0.504579
0.376862
0.310607
0.293097
0.291629
0.307095
0.333495
0.376394
0.432205
0.523374
0.663604
0.897935
1.20937
1.61047
1.92475
2.03941
2.05517
2.02115
1.89684
1.69728
1.44692
1.19545
0.957656
0.760671
0.58735
0.468776
0.428286
0.427566
0.439424
0.483739
0.542262
0.639596
0.751922
0.911597
1.09618
1.32335
1.56167
1.74906
1.92668
2.02715
2.07584
2.07955
2.05564
1.96527
1.81654
1.6435
1.46623
1.32359
1.19077
1.11674
1.08177
1.07122
1.06788
1.06477
1.06729
1.06795
1.07663
1.08464
1.10285
1.11557
1.1337
1.13877
1.1489
1.15044
1.15761
1.15777
1.16099
1.15943
1.16044
1.15942
1.15192
1.15033
1.1429
1.14172
1.13204
1.13043
1.11829
1.11677
1.10747
1.10875
1.10603
1.11238
1.11281
1.12489
1.12918
1.14758
1.15386
1.17542
1.18469
1.19395
1.20157
1.20022
1.20252
1.18862
1.18284
1.14762
1.13338
1.08511
1.06204
1.00695
0.983615
0.928176
0.904683
0.853636
0.83351
0.791055
0.767097
0.735455
0.70954
0.688205
0.659114
0.646796
0.617896
0.607997
0.582951
0.573679
0.552042
0.543943
0.52476
0.517995
0.500538
0.494853
0.481282
0.473648
0.464481
0.456912
0.45099
0.443395
0.440641
0.433837
0.431867
0.426817
0.425503
0.422061
0.421345
0.41939
0.419243
0.418604
0.418984
0.419598
0.42028
0.422096
0.423002
0.425934
0.427141
0.431148
0.432904
0.437976
0.440349
0.446568
0.449759
0.457114
0.461326
0.46997
0.47538
0.485503
0.492296
0.504124
0.512626
0.525602
0.535911
0.549835
0.561617
0.576003
0.588757
0.602895
0.615992
0.628704
0.640875
0.650122
0.65929
0.663621
0.66707
0.668045
0.00461992
0.00476105
0.00501617
0.00556574
0.00672637
0.00914497
0.0142222
0.0245303
0.0452518
0.0848774
0.158605
0.285414
0.490444
0.776437
1.05847
1.21764
1.28079
1.28378
1.24085
1.14694
1.03078
0.902657
0.812243
0.769534
0.772837
0.798702
0.878575
0.988281
1.1694
1.3665
1.62605
1.83306
2.00105
2.05222
2.05494
1.99185
1.83813
1.60026
1.3212
1.01909
0.746317
0.498106
0.315334
0.182732
0.11777
0.089831
0.0836
0.082488
0.0894392
0.102025
0.12887
0.162586
0.216917
0.282193
0.375069
0.49978
0.646
0.85498
1.06903
1.31793
1.50729
1.70369
1.8119
1.92227
1.97437
2.01792
2.02153
2.01145
1.9741
1.92275
1.87061
1.82245
1.76696
1.72815
1.67302
1.64206
1.61447
1.60841
1.6023
1.60517
1.60212
1.60918
1.6078
1.61765
1.61726
1.62436
1.62316
1.62831
1.63081
1.63053
1.63828
1.63945
1.65093
1.65304
1.6655
1.66617
1.67968
1.68072
1.69815
1.70189
1.72811
1.73743
1.77147
1.78823
1.83125
1.85457
1.90564
1.93616
1.97472
2.00987
2.03398
2.06149
2.06752
2.07714
2.07102
2.0699
2.04302
2.0206
1.97307
1.94254
1.88305
1.84567
1.77699
1.74306
1.68257
1.6361
1.59035
1.53643
1.50487
1.44386
1.42085
1.3591
1.33746
1.2792
1.2568
1.20107
1.17937
1.12408
1.10341
1.04495
1.02398
0.970857
0.937773
0.896831
0.855538
0.825047
0.778446
0.758085
0.712141
0.694854
0.654375
0.6396
0.605693
0.593613
0.56627
0.556865
0.535743
0.528813
0.5149
0.506902
0.499212
0.493
0.489663
0.485031
0.484163
0.481985
0.482283
0.482061
0.484673
0.485609
0.490438
0.492625
0.4995
0.50273
0.5117
0.516226
0.527429
0.534283
0.546528
0.556368
0.569664
0.582215
0.596171
0.610991
0.624914
0.641245
0.654193
0.670374
0.680288
0.692408
0.697933
0.702113
0.70332
0.00456889
0.00462092
0.00471429
0.00489791
0.00527088
0.00603391
0.00762728
0.0109134
0.0176937
0.0311366
0.0574487
0.105719
0.191516
0.329503
0.542582
0.817162
1.08113
1.24182
1.34197
1.40871
1.44669
1.47226
1.48751
1.5153
1.54943
1.60569
1.67546
1.75847
1.85392
1.94609
2.03098
2.05554
2.04634
1.98208
1.83824
1.62787
1.35782
1.06499
0.76726
0.486488
0.279415
0.138328
0.0752917
0.0441243
0.0298389
0.0220361
0.0184763
0.0168208
0.0168022
0.0173019
0.0198304
0.0238456
0.0318265
0.0425722
0.0595236
0.0859265
0.1194
0.172495
0.236001
0.328063
0.428912
0.571976
0.725761
0.929519
1.09426
1.29514
1.43517
1.61139
1.71783
1.85178
1.93236
2.05026
2.13345
2.22735
2.29423
2.35584
2.40319
2.43147
2.43846
2.44044
2.43304
2.4289
2.41361
2.41216
2.3977
2.39435
2.37235
2.36448
2.34451
2.32918
2.32704
2.32376
2.32905
2.33073
2.34477
2.34588
2.36477
2.36774
2.39117
2.3967
2.42779
2.43856
2.47683
2.49392
2.54149
2.56755
2.62595
2.66239
2.71073
2.75377
2.78989
2.83211
2.85364
2.88565
2.89366
2.90506
2.90207
2.90185
2.8869
2.87606
2.84497
2.82475
2.78368
2.76267
2.72524
2.69406
2.6683
2.63502
2.62212
2.58772
2.57848
2.54402
2.53558
2.50204
2.49191
2.45686
2.44543
2.40526
2.39255
2.34172
2.32538
2.27429
2.22912
2.18322
2.1165
2.07224
1.98541
1.94187
1.83931
1.79581
1.68458
1.63862
1.52566
1.47966
1.36757
1.32169
1.21428
1.17061
1.07938
1.0259
0.958791
0.901675
0.856173
0.800798
0.774086
0.726444
0.708779
0.672794
0.660743
0.636076
0.628636
0.613533
0.60982
0.602576
0.601785
0.598991
0.599895
0.601775
0.604655
0.611244
0.616368
0.627683
0.634818
0.650312
0.659987
0.678423
0.69052
0.710067
0.722317
0.738038
0.74553
0.750826
0.752383
0.00458964
0.00456982
0.00459692
0.00467351
0.00479272
0.00503129
0.00548047
0.00639766
0.00826432
0.0120056
0.0195286
0.0338346
0.0607309
0.106926
0.185164
0.301105
0.472102
0.689903
0.923882
1.12982
1.27035
1.39158
1.46242
1.54619
1.59612
1.66777
1.71024
1.77219
1.79473
1.79728
1.76126
1.68774
1.54768
1.37202
1.12408
0.881857
0.603689
0.390806
0.22386
0.122971
0.068776
0.040774
0.0277755
0.019451
0.0157158
0.0129488
0.0116925
0.0103494
0.00966712
0.00878649
0.00857389
0.00854713
0.00891038
0.00971369
0.0113241
0.0143527
0.0185687
0.0259296
0.035567
0.0509062
0.0696665
0.0978482
0.130129
0.178516
0.227719
0.298046
0.364113
0.462184
0.562709
0.704622
0.837159
0.996432
1.17228
1.34723
1.5636
1.756
1.98739
2.1669
2.37084
2.51238
2.67008
2.76757
2.8782
2.94325
3.02297
3.0635
3.09242
3.1019
3.10422
3.10107
3.10158
3.10003
3.10616
3.10824
3.12092
3.12224
3.13921
3.14225
3.16413
3.16938
3.19605
3.20438
3.23438
3.24579
3.28098
3.2967
3.3395
3.36361
3.39662
3.42608
3.44795
3.47608
3.48726
3.50954
3.51471
3.52419
3.52183
3.52172
3.51214
3.50611
3.4876
3.47493
3.44959
3.43462
3.41023
3.38916
3.37315
3.35569
3.35108
3.34239
3.34388
3.34112
3.34754
3.3482
3.36144
3.36675
3.38634
3.3943
3.41847
3.42535
3.45189
3.4636
3.4753
3.48951
3.49153
3.50035
3.49496
3.4979
3.47815
3.47364
3.43313
3.41722
3.35221
3.32101
3.23253
3.18625
3.07333
3.01156
2.89384
2.78038
2.66954
2.52092
2.41007
2.24196
2.13618
1.95894
1.86818
1.68671
1.60638
1.4342
1.36065
1.21353
1.15211
1.03846
0.992403
0.915639
0.885682
0.834048
0.805857
0.777751
0.754173
0.743759
0.728919
0.725191
0.722329
0.727304
0.73428
0.748688
0.762841