/*--------------------------------*- C++ -*----------------------------------*\
| =========                 |                                                 |
| \\      /  F ield         | OpenFOAM: The Open Source CFD Toolbox           |
|  \\    /   O peration     | Version:  4.1                                   |
|   \\  /    A nd           | Web:      www.OpenFOAM.org                      |
|    \\/     M anipulation  |                                                 |
\*---------------------------------------------------------------------------*/
FoamFile
{
    version     2.0;
    format      ascii;
    class       volScalarField;
    location    "9";
    object      p;
}
// * * * * * * * * * * * * * * * * * * * * * * * * * * * * * * * * * * * * * //

dimensions      [0 2 -2 0 0 0 0];

internalField   nonuniform List<scalar> 
204246
(
-9.11504
-18.8486
-19.788
-20.2999
-20.4694
-20.3764
-20.0122
-19.6802
-19.7843
-20.7434
-23.5528
-27.7023
-33.8746
-40.0123
-44.5098
-49.4451
-53.8606
-57.1345
-59.914
-62.0821
-63.0363
-63.9636
-64.286
-63.9344
-62.9014
-61.4762
-59.6723
-57.6276
-55.2527
-52.8533
-50.3994
-48.208
-46.2309
-44.6417
-43.3299
-42.3384
-41.475
-40.558
-40.2147
-39.7996
-39.6847
-39.6435
-39.8259
-40.0744
-40.4614
-40.7802
-41.3867
-41.5502
-42.2568
-42.6424
-43.1666
-43.8483
-44.9722
-45.7649
-46.0341
-46.835
-47.0058
-47.7185
-47.9171
-48.5023
-48.9447
-49.3792
-49.6808
-50.0367
-50.2708
-50.5035
-50.607
-50.7459
-50.894
-51.9219
-52.5241
-52.3969
-52.8228
-52.8693
-53.0164
-53.1283
-53.2579
-53.2878
-53.975
-53.9761
-54.1088
-54.1956
-54.3533
-54.4021
-54.4518
-54.4389
-55.4771
-56.0547
-55.8779
-56.2908
-56.2835
-56.338
-56.329
-57.0494
-57.1147
-57.3103
-57.4052
-57.476
-57.3046
-58.0361
-58.0534
-58.1021
-58.0851
-58.116
-58.1149
-59.2447
-59.6715
-59.5069
-59.7325
-59.5064
-60.1513
-60.127
-60.2717
-60.3505
-60.4278
-60.2979
-60.8708
-60.5738
-61.1722
-61.0712
-61.0443
-60.944
-62.1368
-62.6636
-62.4947
-62.9211
-62.6285
-63.3491
-63.4586
-63.5745
-63.4814
-64.1832
-63.9875
-64.6745
-64.4381
-65.1021
-64.7622
-65.2799
-65.0359
-66.3349
-66.9628
-66.8859
-67.4065
-67.1317
-67.8103
-67.5737
-68.3096
-68.0275
-68.7332
-68.4836
-69.1995
-69.2852
-69.4061
-69.3238
-69.2008
-68.8717
-70.1006
-70.3966
-69.794
-69.9408
-69.3158
-68.7735
-68.0368
-67.2509
-66.158
-64.9065
-63.2464
-61.3465
-58.9829
-56.357
-53.3121
-50.0745
-45.4557
-40.8119
-35.4165
-29.5366
-22.7088
-14.7821
-6.17997
3.62915
14.6237
27.2717
41.6309
58.177
76.8767
97.9962
121.414
147.7
177.801
217.299
277.3
372.953
501.596
-13.8357
-15.9595
-18.1302
-19.7379
-20.5451
-20.8106
-20.614
-20.1687
-19.8836
-20.4394
-22.0973
-25.296
-30.6336
-36.6506
-42.1989
-47.23
-51.6133
-55.3667
-58.5865
-61.1875
-63.0859
-64.3549
-65.0235
-65.0865
-64.5282
-63.4857
-61.9278
-59.9147
-57.5569
-55.025
-52.4565
-50.0315
-47.811
-45.8777
-44.2451
-42.9009
-41.8021
-40.9254
-40.2546
-39.7842
-39.5043
-39.4383
-39.4733
-39.6395
-39.9865
-40.343
-40.7556
-41.1567
-41.6618
-42.1978
-42.7927
-43.465
-44.2004
-44.9158
-45.5549
-46.1528
-46.6928
-47.187
-47.634
-48.1105
-48.5873
-49.0165
-49.4152
-49.7888
-50.0873
-50.3095
-50.4893
-50.702
-51.0037
-51.4235
-51.8448
-52.1687
-52.4389
-52.6477
-52.8211
-52.9741
-53.14
-53.3403
-53.5818
-53.7979
-53.9782
-54.1225
-54.2303
-54.3172
-54.4392
-54.6603
-55.0263
-55.3995
-55.6705
-55.888
-56.0506
-56.2088
-56.4037
-56.655
-56.8928
-57.0912
-57.2467
-57.3777
-57.5255
-57.745
-57.9109
-58.0036
-58.0703
-58.1667
-58.3747
-58.7385
-59.0754
-59.2888
-59.4628
-59.6218
-59.8131
-59.9834
-60.1221
-60.2405
-60.3345
-60.4446
-60.6118
-60.7476
-60.9021
-60.9787
-61.0588
-61.2574
-61.6425
-62.0335
-62.3123
-62.5535
-62.763
-63.015
-63.2464
-63.422
-63.6176
-63.8604
-64.0986
-64.3677
-64.6139
-64.8338
-64.9805
-65.1471
-65.424
-65.8852
-66.3697
-66.7453
-67.069
-67.3383
-67.5887
-67.8625
-68.1134
-68.3904
-68.6178
-68.917
-69.1921
-69.5305
-69.7018
-69.8965
-69.8451
-70.06
-70.2749
-70.4884
-70.5741
-70.5492
-70.4757
-70.0712
-69.7597
-69.1173
-68.4369
-67.4456
-66.2317
-64.6981
-62.8783
-60.7577
-58.2506
-55.3614
-51.8621
-47.9017
-43.3039
-38.1809
-32.1907
-25.3501
-17.7665
-9.23179
0.207578
10.887
22.8694
36.6088
52.1538
69.776
89.089
109.862
131.716
156.743
192.651
258.089
354.842
-18.6388
-18.3768
-18.9943
-19.8072
-20.5827
-21.1358
-21.3522
-21.3226
-21.4136
-22.9246
-25.0292
-27.9216
-32.584
-37.7375
-42.5848
-47.2299
-51.4315
-55.065
-58.1975
-60.7893
-62.8879
-64.4645
-65.3688
-65.6374
-65.2871
-64.3012
-62.8674
-61.0254
-58.7874
-56.2816
-53.6903
-51.1677
-48.8145
-46.7013
-44.8772
-43.3372
-42.0819
-41.1068
-40.353
-39.8056
-39.4913
-39.3214
-39.3147
-39.503
-39.7574
-40.1161
-40.5264
-40.9889
-41.4845
-42.0274
-42.6587
-43.3247
-43.9871
-44.6449
-45.2873
-45.9013
-46.4824
-47.0095
-47.4897
-47.9722
-48.4359
-48.8665
-49.2769
-49.6627
-49.995
-50.255
-50.4973
-50.7582
-51.056
-51.3692
-51.6802
-51.9887
-52.2603
-52.5018
-52.7015
-52.8938
-53.0772
-53.2879
-53.4853
-53.6919
-53.887
-54.0648
-54.1983
-54.334
-54.4962
-54.7265
-54.982
-55.2403
-55.4944
-55.7163
-55.9216
-56.1121
-56.3289
-56.5348
-56.7492
-56.9445
-57.1244
-57.2977
-57.4952
-57.6742
-57.8412
-57.9693
-58.0941
-58.2466
-58.4561
-58.6785
-58.8966
-59.1107
-59.308
-59.5002
-59.666
-59.8365
-59.9862
-60.1247
-60.2399
-60.3837
-60.5221
-60.677
-60.8114
-60.9387
-61.085
-61.3023
-61.5378
-61.7897
-62.0548
-62.3082
-62.5583
-62.7909
-63.0125
-63.2282
-63.4397
-63.6592
-63.8971
-64.1461
-64.3912
-64.6192
-64.8281
-65.0447
-65.3154
-65.6498
-66.0034
-66.3434
-66.6651
-66.9468
-67.2163
-67.4713
-67.7332
-67.9779
-68.2364
-68.4897
-68.762
-68.978
-69.2012
-69.3173
-69.4466
-69.5779
-69.8301
-69.9584
-69.9614
-69.8868
-69.669
-69.3664
-68.9185
-68.3508
-67.5896
-66.6055
-65.3605
-63.7993
-61.9897
-59.8097
-57.3262
-54.3833
-51.0729
-47.2264
-42.8335
-37.744
-31.9242
-25.3824
-17.951
-9.62183
-0.279496
10.1201
21.8114
34.9852
49.9991
66.9448
85.7566
105.8
126.756
149.207
177.884
221.037
278.238
-20.4112
-19.8016
-19.8685
-20.1696
-20.676
-21.2041
-21.6248
-21.8786
-22.2452
-24.0809
-26.703
-30.1748
-34.8965
-39.7062
-44.006
-47.9301
-51.7131
-55.2523
-58.4071
-61.0433
-63.2526
-65.0668
-66.355
-67.0132
-66.9431
-66.2194
-64.8468
-62.9286
-60.6029
-57.966
-55.2016
-52.453
-49.8608
-47.5051
-45.4576
-43.7108
-42.2797
-41.1554
-40.2944
-39.6713
-39.2749
-39.0634
-38.9962
-39.0702
-39.3412
-39.6866
-40.1043
-40.587
-41.109
-41.6751
-42.3041
-42.9769
-43.6441
-44.3096
-44.9564
-45.5884
-46.1923
-46.7518
-47.2726
-47.7755
-48.2514
-48.6879
-49.107
-49.4897
-49.8358
-50.1304
-50.4131
-50.6908
-50.979
-51.2652
-51.5528
-51.8358
-52.1028
-52.3488
-52.5676
-52.7782
-52.9747
-53.1828
-53.3778
-53.5801
-53.7633
-53.9485
-54.1022
-54.2712
-54.4485
-54.6654
-54.8886
-55.1205
-55.3493
-55.5713
-55.7902
-55.9944
-56.2137
-56.4164
-56.6314
-56.8167
-57.0166
-57.1858
-57.403
-57.5646
-57.7644
-57.9042
-58.0679
-58.2396
-58.4457
-58.6247
-58.8242
-59.0176
-59.2073
-59.4103
-59.5564
-59.7468
-59.8705
-60.0429
-60.1468
-60.3202
-60.4419
-60.6127
-60.7334
-60.8952
-61.048
-61.2835
-61.4711
-61.7109
-61.9518
-62.1716
-62.4509
-62.6602
-62.9174
-63.1164
-63.3688
-63.569
-63.8352
-64.0548
-64.3292
-64.5368
-64.7977
-65.0198
-65.3476
-65.611
-65.921
-66.2455
-66.5477
-66.8998
-67.163
-67.4897
-67.7317
-68.0521
-68.2819
-68.6286
-68.8694
-69.1963
-69.3847
-69.6552
-69.821
-70.1275
-70.2665
-70.4739
-70.6424
-70.707
-70.6988
-70.5691
-70.38
-70.0656
-69.6475
-69.0859
-68.2864
-67.253
-65.8384
-64.0948
-61.9468
-59.4239
-56.4629
-53.0618
-49.1335
-44.6382
-39.4336
-33.5089
-26.8159
-19.262
-10.8202
-1.37641
9.13822
20.8995
33.9958
48.5357
64.4919
81.8998
100.946
122.746
150.022
184.773
223.171
-21.2391
-20.726
-20.4814
-20.5
-20.7521
-21.1319
-21.61
-22.1052
-22.8651
-24.9649
-27.6966
-31.4393
-36.4016
-41.4171
-45.6653
-49.2541
-52.4711
-55.6294
-58.7231
-61.4136
-63.668
-65.5797
-67.0763
-68.017
-68.2368
-67.8276
-66.7116
-64.9549
-62.6503
-59.9173
-56.9509
-53.9332
-51.0401
-48.3881
-46.0683
-44.0872
-42.4667
-41.1949
-40.229
-39.528
-39.0711
-38.8135
-38.7256
-38.7888
-38.9971
-39.3331
-39.7504
-40.2404
-40.7657
-41.3507
-41.9773
-42.6534
-43.3266
-44.0061
-44.6665
-45.314
-45.9369
-46.5202
-47.0702
-47.594
-48.0941
-48.5442
-48.9781
-49.363
-49.7241
-50.0362
-50.3439
-50.627
-50.9128
-51.1818
-51.4571
-51.727
-51.9881
-52.2383
-52.4611
-52.6865
-52.8863
-53.1003
-53.2934
-53.5018
-53.6724
-53.8839
-54.0267
-54.2256
-54.3986
-54.6087
-54.8075
-55.0266
-55.2445
-55.4568
-55.6893
-55.8808
-56.1125
-56.3037
-56.5378
-56.7109
-56.9356
-57.1007
-57.3275
-57.4849
-57.6992
-57.8448
-58.0318
-58.201
-58.4098
-58.5712
-58.7638
-58.9511
-59.1247
-59.3259
-59.4733
-59.6661
-59.7872
-59.9662
-60.0699
-60.2474
-60.3657
-60.5395
-60.6647
-60.836
-60.9809
-61.1996
-61.3833
-61.6138
-61.8401
-62.0533
-62.3207
-62.5245
-62.7915
-62.9901
-63.2551
-63.4549
-63.7284
-63.9411
-64.2202
-64.4292
-64.7003
-64.9239
-65.2376
-65.4942
-65.7963
-66.0934
-66.3969
-66.7225
-66.9914
-67.2985
-67.5678
-67.8559
-68.1285
-68.4173
-68.6984
-68.9643
-69.2002
-69.3876
-69.5969
-69.791
-70.0221
-70.1992
-70.3102
-70.3514
-70.2955
-70.1358
-69.8475
-69.4024
-68.8318
-68.0941
-67.2638
-66.2289
-65.0156
-63.5081
-61.7017
-59.5171
-56.9397
-53.9031
-50.3806
-46.3019
-41.6061
-36.2764
-30.196
-23.289
-15.4661
-6.66264
3.16566
14.0062
25.8001
38.4339
51.8807
66.2428
82.1236
100.881
124.249
152.267
180.232
-21.7848
-21.2174
-20.8646
-20.7249
-20.7655
-20.973
-21.3386
-21.9023
-22.9411
-25.3961
-28.5116
-32.5487
-37.6222
-42.7408
-47.0136
-50.4515
-53.3359
-56.1753
-59.0616
-61.6954
-63.9688
-65.9742
-67.7012
-68.9966
-69.6873
-69.4952
-68.6583
-67.0846
-64.8652
-62.1019
-58.9704
-55.6777
-52.4471
-49.437
-46.7839
-44.5299
-42.695
-41.2497
-40.1404
-39.3324
-38.806
-38.5094
-38.3939
-38.446
-38.641
-38.9659
-39.3877
-39.8978
-40.4331
-41.031
-41.659
-42.3389
-43.0176
-43.7101
-44.3848
-45.05
-45.6946
-46.3021
-46.8767
-47.4179
-47.938
-48.4064
-48.856
-49.2499
-49.6234
-49.9493
-50.2748
-50.5627
-50.854
-51.1114
-51.3756
-51.6361
-51.8955
-52.1492
-52.3659
-52.6037
-52.7971
-53.0216
-53.2063
-53.4277
-53.5933
-53.8104
-53.9606
-54.1693
-54.3398
-54.5537
-54.7331
-54.949
-55.1634
-55.3565
-55.5911
-55.7816
-56.0127
-56.2049
-56.4396
-56.6192
-56.8506
-57.0231
-57.2507
-57.4174
-57.6332
-57.7944
-57.9908
-58.1587
-58.3623
-58.5255
-58.7135
-58.8916
-59.0656
-59.2512
-59.3985
-59.5856
-59.7126
-59.8859
-59.9999
-60.1732
-60.2967
-60.461
-60.6033
-60.7655
-60.9209
-61.1124
-61.3003
-61.5176
-61.7284
-61.946
-62.1886
-62.3963
-62.6541
-62.8619
-63.1213
-63.3303
-63.5983
-63.816
-64.0918
-64.3089
-64.5848
-64.8111
-65.1146
-65.3639
-65.6623
-65.9544
-66.2531
-66.578
-66.8574
-67.1833
-67.4547
-67.778
-68.05
-68.388
-68.6635
-68.9983
-69.2521
-69.6057
-69.8453
-70.2062
-70.3675
-70.6258
-70.9454
-71.0826
-71.2675
-71.3212
-71.3676
-71.4003
-71.2698
-70.9837
-70.4315
-69.6501
-68.5902
-67.2594
-65.6126
-63.6408
-61.2951
-58.5555
-55.3684
-51.7029
-47.4672
-42.6449
-37.1508
-30.8716
-23.7248
-15.6196
-6.54533
3.47734
14.3281
25.8807
38.0811
50.9925
65.0986
81.5851
101.251
123.953
145.483
-22.2266
-21.5555
-21.0872
-20.8091
-20.701
-20.7788
-21.0285
-21.5194
-22.5339
-24.924
-28.373
-32.7554
-38.0775
-43.4188
-47.7872
-51.1177
-53.976
-56.4496
-59.139
-61.7565
-64.0898
-66.1669
-68.0505
-69.647
-70.7506
-71.1267
-70.6171
-69.3226
-67.274
-64.5492
-61.314
-57.7883
-54.2339
-50.8624
-47.8545
-45.2667
-43.119
-41.4057
-40.1005
-39.1789
-38.5846
-38.2273
-38.064
-38.0971
-38.2904
-38.6069
-39.0113
-39.5287
-40.0859
-40.7009
-41.3362
-42.025
-42.7075
-43.4085
-44.0965
-44.7782
-45.4447
-46.0778
-46.6787
-47.2396
-47.777
-48.2648
-48.7325
-49.1392
-49.527
-49.8675
-50.2067
-50.499
-50.7981
-51.0485
-51.3063
-51.5622
-51.8158
-52.0702
-52.2846
-52.5208
-52.721
-52.9442
-53.1335
-53.3545
-53.5261
-53.7405
-53.8993
-54.1085
-54.2792
-54.491
-54.6703
-54.8796
-55.0886
-55.2785
-55.5055
-55.6954
-55.9227
-56.1155
-56.351
-56.5335
-56.7677
-56.9473
-57.1784
-57.3523
-57.5745
-57.7456
-57.952
-58.1217
-58.3278
-58.4898
-58.6716
-58.8459
-59.0184
-59.1917
-59.3468
-59.5315
-59.6579
-59.8332
-59.9481
-60.1171
-60.2408
-60.4067
-60.5403
-60.7153
-60.8603
-61.0549
-61.222
-61.4298
-61.6417
-61.8469
-62.0885
-62.297
-62.5409
-62.757
-63.0039
-63.2251
-63.478
-63.7075
-63.9668
-64.1985
-64.46
-64.7024
-64.9786
-65.233
-65.5148
-65.798
-66.0904
-66.3854
-66.6688
-66.9638
-67.2509
-67.5425
-67.8307
-68.1215
-68.4143
-68.6934
-68.973
-69.2295
-69.4876
-69.7015
-69.977
-70.2187
-70.4148
-70.5498
-70.5993
-70.5647
-70.4299
-70.2034
-69.9504
-69.6157
-69.2599
-68.7636
-68.1034
-67.1973
-66.0142
-64.501
-62.631
-60.3638
-57.6742
-54.5262
-50.8669
-46.6887
-41.8969
-36.4035
-30.122
-22.9828
-14.9716
-6.11167
3.51958
13.8339
24.7777
36.4284
49.1708
63.7902
80.6184
99.3946
116.626
-22.5516
-21.8144
-21.2305
-20.8398
-20.5867
-20.5201
-20.6466
-21.0237
-21.8798
-23.8911
-27.4166
-31.8582
-37.4199
-43.105
-47.9832
-51.5867
-54.4313
-56.6538
-59.0259
-61.4856
-63.8461
-66.0336
-68.0671
-69.895
-71.3431
-72.1718
-72.1889
-71.3536
-69.642
-67.0983
-63.8633
-60.1699
-56.3267
-52.6076
-49.2473
-46.3409
-43.9147
-41.9567
-40.4388
-39.3199
-38.5187
-37.9877
-37.7353
-37.7629
-37.9697
-38.2552
-38.6197
-39.1477
-39.7428
-40.3664
-41.0021
-41.7013
-42.3913
-43.102
-43.804
-44.4967
-45.1786
-45.8352
-46.4636
-47.0486
-47.6063
-48.1144
-48.5998
-49.0222
-49.429
-49.7839
-50.1323
-50.4335
-50.7365
-50.9897
-51.2462
-51.5002
-51.7465
-51.9972
-52.2134
-52.4489
-52.648
-52.8704
-53.0608
-53.2839
-53.4584
-53.6737
-53.8373
-54.0467
-54.2167
-54.4267
-54.6048
-54.811
-55.0137
-55.2016
-55.424
-55.6115
-55.8342
-56.0265
-56.2588
-56.4445
-56.6769
-56.8617
-57.0927
-57.2728
-57.4983
-57.6767
-57.8869
-58.0628
-58.2674
-58.4301
-58.6152
-58.7889
-58.9571
-59.1307
-59.2767
-59.4509
-59.5789
-59.746
-59.866
-60.0289
-60.154
-60.3127
-60.4488
-60.6157
-60.7652
-60.9478
-61.113
-61.315
-61.5172
-61.7234
-61.9523
-62.1638
-62.4065
-62.6227
-62.8704
-63.0942
-63.3482
-63.5818
-63.8395
-64.0796
-64.3438
-64.5948
-64.8643
-65.1195
-65.3943
-65.6837
-65.9776
-66.282
-66.5778
-66.8878
-67.186
-67.5033
-67.8069
-68.1331
-68.4429
-68.7767
-69.0919
-69.4333
-69.7467
-70.0803
-70.3581
-70.6701
-71.0017
-71.3198
-71.6259
-71.8824
-72.1003
-72.2451
-72.2582
-72.1419
-71.8421
-71.3852
-70.7386
-69.9005
-68.8236
-67.4844
-65.8289
-63.8286
-61.4388
-58.6343
-55.3536
-51.587
-47.2552
-42.2887
-36.6381
-30.2619
-23.1509
-15.3109
-6.78951
2.36546
12.1471
22.6516
34.1899
47.2204
61.8698
77.7979
92.0524
-22.7426
-21.9637
-21.3179
-20.82
-20.4523
-20.2442
-20.2223
-20.4749
-21.1191
-22.4946
-26.022
-30.2733
-35.8514
-41.757
-47.2004
-51.5666
-54.2896
-56.7162
-58.8872
-61.101
-63.3297
-65.5156
-67.6362
-69.6537
-71.4224
-72.7044
-73.2785
-72.9797
-71.7315
-69.5144
-66.4112
-62.6447
-58.5673
-54.5312
-50.8344
-47.6139
-44.9327
-42.7754
-41.0803
-39.7853
-38.8233
-38.1597
-37.7897
-37.6589
-37.6919
-37.9148
-38.2769
-38.7831
-39.3824
-40.0078
-40.6542
-41.3773
-42.0837
-42.7864
-43.4947
-44.2009
-44.8954
-45.5691
-46.2236
-46.8345
-47.4118
-47.9388
-48.4423
-48.8873
-49.3182
-49.6854
-50.0432
-50.3571
-50.6641
-50.9255
-51.1858
-51.4388
-51.684
-51.9296
-52.1468
-52.3809
-52.5799
-52.8035
-52.9902
-53.2139
-53.3892
-53.6056
-53.7728
-53.9827
-54.1536
-54.3609
-54.5362
-54.7377
-54.9363
-55.1239
-55.3398
-55.5294
-55.7438
-55.9378
-56.1621
-56.3555
-56.5821
-56.7756
-57.0015
-57.1925
-57.415
-57.6067
-57.8149
-58.003
-58.2007
-58.3714
-58.5527
-58.729
-58.8982
-59.0677
-59.2146
-59.385
-59.5104
-59.6697
-59.7903
-59.9451
-60.072
-60.2217
-60.3597
-60.5208
-60.6707
-60.845
-61.002
-61.1942
-61.3912
-61.599
-61.8123
-62.0269
-62.2516
-62.4735
-62.7074
-62.9368
-63.1785
-63.4162
-63.6626
-63.9065
-64.1586
-64.4098
-64.6669
-64.9276
-65.1994
-65.4725
-65.7536
-66.0342
-66.3214
-66.6069
-66.9001
-67.1911
-67.491
-67.7878
-68.0924
-68.3898
-68.6955
-68.992
-69.3039
-69.6107
-69.9376
-70.2314
-70.4728
-70.6872
-70.8601
-71.0339
-71.1596
-71.2452
-71.3073
-71.3121
-71.3243
-71.2401
-71.0331
-70.6386
-70.0281
-69.1557
-67.9856
-66.4764
-64.5917
-62.2946
-59.5251
-56.2678
-52.4671
-48.0735
-43.0598
-37.4041
-31.1114
-24.1905
-16.6661
-8.54814
0.182396
9.64387
20.0722
31.7372
44.6739
58.4908
70.6362
-22.7887
-22.015
-21.3707
-20.8145
-20.3679
-20.0388
-19.8606
-19.9359
-20.3702
-21.3153
-24.1771
-28.0969
-33.4176
-39.3779
-45.1963
-50.2527
-53.6894
-56.2363
-58.4276
-60.547
-62.6282
-64.7466
-66.8767
-68.986
-70.9553
-72.5868
-73.6486
-73.9264
-73.2352
-71.4859
-68.6754
-64.9929
-60.8085
-56.5397
-52.5559
-49.0503
-46.1106
-43.7348
-41.8612
-40.4219
-39.3489
-38.5871
-38.0982
-37.8369
-37.7608
-37.9016
-38.1997
-38.5699
-39.0469
-39.6389
-40.2872
-41.0153
-41.7418
-42.4478
-43.1617
-43.8821
-44.592
-45.2776
-45.9494
-46.5823
-47.1838
-47.7375
-48.2587
-48.7225
-49.172
-49.5599
-49.9329
-50.2613
-50.5734
-50.846
-51.1124
-51.3703
-51.6175
-51.861
-52.0822
-52.3115
-52.513
-52.7287
-52.919
-53.1353
-53.3152
-53.5271
-53.7002
-53.9066
-54.0824
-54.281
-54.4575
-54.6544
-54.8498
-55.041
-55.2476
-55.4401
-55.6435
-55.8427
-56.0543
-56.2566
-56.4718
-56.6767
-56.8922
-57.0969
-57.3104
-57.516
-57.7253
-57.924
-58.1197
-58.3003
-58.482
-58.6613
-58.8337
-59.0001
-59.1513
-59.3111
-59.4416
-59.5965
-59.7173
-59.8687
-59.9933
-60.1425
-60.2777
-60.4329
-60.5847
-60.7498
-60.9105
-61.0916
-61.2837
-61.4858
-61.6971
-61.9141
-62.1416
-62.3628
-62.5991
-62.8277
-63.0721
-63.3102
-63.5627
-63.8084
-64.0683
-64.3199
-64.5841
-64.8366
-65.1056
-65.3855
-65.6717
-65.967
-66.2602
-66.5658
-66.8642
-67.1799
-67.4879
-67.815
-68.1326
-68.4702
-68.7977
-69.1472
-69.4843
-69.8406
-70.1769
-70.539
-70.9152
-71.2866
-71.6566
-71.9985
-72.3073
-72.542
-72.6969
-72.7636
-72.7262
-72.5996
-72.3758
-72.048
-71.5873
-70.9518
-70.0972
-68.9742
-67.5302
-65.7079
-63.4423
-60.7095
-57.4615
-53.6599
-49.2903
-44.342
-38.8263
-32.7531
-26.1347
-18.958
-11.1805
-2.67883
6.72989
17.214
28.7723
40.9773
51.5813
-22.6964
-21.9694
-21.3388
-20.7698
-20.2915
-19.9071
-19.6374
-19.5673
-19.832
-20.5636
-22.1488
-25.6961
-30.5179
-36.2931
-42.1712
-47.7037
-52.1641
-55.3135
-57.8135
-59.7696
-61.7945
-63.8028
-65.8622
-67.956
-69.9868
-71.8151
-73.237
-74.0162
-73.9167
-72.7042
-70.3306
-66.9296
-62.8232
-58.468
-54.3134
-50.6115
-47.4722
-44.9022
-42.8409
-41.2244
-39.9996
-39.1147
-38.5186
-38.1779
-38.0474
-38.1125
-38.2984
-38.5831
-38.9879
-39.5273
-40.1107
-40.7446
-41.382
-42.049
-42.7758
-43.5309
-44.2621
-44.9608
-45.6486
-46.302
-46.9227
-47.4901
-48.0222
-48.5145
-48.987
-49.3996
-49.7883
-50.1315
-50.4534
-50.7391
-51.0136
-51.2808
-51.5309
-51.7755
-52.0045
-52.2324
-52.4421
-52.6523
-52.8495
-53.0533
-53.2402
-53.4409
-53.6231
-53.8202
-54.0032
-54.1921
-54.3743
-54.5653
-54.7577
-54.9524
-55.1498
-55.3451
-55.544
-55.742
-55.9474
-56.1502
-56.3618
-56.5687
-56.7834
-56.9913
-57.2056
-57.4149
-57.6286
-57.8328
-58.0333
-58.2199
-58.4059
-58.5859
-58.7626
-58.9321
-59.0874
-59.2341
-59.366
-59.5083
-59.6277
-59.7709
-59.8908
-60.0316
-60.1688
-60.3155
-60.4644
-60.6216
-60.7844
-60.9612
-61.1452
-61.3407
-61.5441
-61.757
-61.9736
-62.1936
-62.4202
-62.6498
-62.8859
-63.1242
-63.3674
-63.6135
-63.8622
-64.1125
-64.3653
-64.623
-64.8884
-65.1555
-65.4293
-65.7053
-65.9875
-66.2716
-66.5629
-66.8566
-67.1591
-67.4636
-67.7772
-68.0921
-68.4168
-68.7428
-69.0805
-69.4216
-69.778
-70.1342
-70.4792
-70.8211
-71.15
-71.4768
-71.7936
-72.1359
-72.4716
-72.7827
-73.046
-73.2155
-73.2728
-73.2028
-72.9931
-72.63
-72.0824
-71.3115
-70.266
-68.8891
-67.111
-64.8984
-62.2037
-58.9958
-55.2663
-51.0115
-46.2438
-40.9714
-35.1978
-28.8992
-22.0117
-14.408
-5.9363
3.52081
13.9438
24.8882
34.3259
-22.4874
-21.8195
-21.2313
-20.6952
-20.2226
-19.8161
-19.4987
-19.3227
-19.4056
-19.8503
-20.9328
-23.6677
-27.5345
-32.6816
-38.4439
-44.1694
-49.36
-53.5745
-56.5111
-58.93
-61.0483
-62.9027
-64.8481
-66.8585
-68.8575
-70.7397
-72.3338
-73.4178
-73.7256
-73.0088
-71.1285
-68.1486
-64.33
-60.113
-55.962
-52.1889
-48.9452
-46.2358
-44.0126
-42.2349
-40.8577
-39.8325
-39.1069
-38.6436
-38.4048
-38.3528
-38.4795
-38.7266
-39.0755
-39.523
-40.0279
-40.5945
-41.2174
-41.8696
-42.5251
-43.1926
-43.8568
-44.5426
-45.2594
-45.9594
-46.6132
-47.209
-47.7614
-48.2701
-48.7442
-49.1779
-49.5986
-49.9621
-50.2972
-50.5995
-50.8885
-51.1646
-51.4223
-51.6716
-51.9089
-52.1405
-52.3557
-52.5674
-52.7687
-52.9705
-53.1608
-53.3554
-53.5419
-53.7348
-53.9197
-54.1065
-54.2879
-54.4755
-54.6654
-54.8594
-55.0544
-55.2493
-55.4464
-55.6419
-55.8438
-56.0445
-56.254
-56.4608
-56.676
-56.8855
-57.102
-57.3143
-57.5317
-57.7412
-57.9484
-58.1407
-58.3307
-58.5132
-58.6915
-58.8659
-59.027
-59.1779
-59.3126
-59.4519
-59.5706
-59.7133
-59.8294
-59.9607
-60.0919
-60.2348
-60.3785
-60.5336
-60.6881
-60.8581
-61.0405
-61.233
-61.4358
-61.6469
-61.8674
-62.0859
-62.3167
-62.5428
-62.7818
-63.0192
-63.2676
-63.5138
-63.7694
-64.0196
-64.278
-64.5284
-64.7918
-65.0639
-65.3416
-65.6273
-65.9132
-66.2091
-66.5019
-66.8087
-67.1132
-67.4334
-67.7513
-68.0856
-68.4178
-68.7679
-69.1175
-69.4864
-69.8544
-70.2437
-70.6405
-71.0343
-71.4249
-71.8026
-72.1707
-72.5183
-72.8582
-73.1828
-73.4922
-73.7711
-73.9979
-74.1425
-74.1832
-74.098
-73.8613
-73.4371
-72.7789
-71.8309
-70.5265
-68.8237
-66.6755
-64.0526
-60.9499
-57.3674
-53.3192
-48.8116
-43.8436
-38.3835
-32.3557
-25.6173
-18.0223
-9.47481
-0.00767423
9.92858
18.4678
-22.1616
-21.5815
-21.0567
-20.5699
-20.1253
-19.7268
-19.4018
-19.1783
-19.1517
-19.4204
-20.158
-21.8955
-25.0252
-29.2222
-34.2813
-39.7654
-45.205
-50.1132
-54.0814
-57.2152
-59.6444
-61.8309
-63.865
-65.8144
-67.736
-69.5647
-71.1618
-72.332
-72.8307
-72.4531
-71.0029
-68.4824
-65.1085
-61.2453
-57.3203
-53.6534
-50.4161
-47.6463
-45.3205
-43.4205
-41.9085
-40.749
-39.8909
-39.2977
-38.9339
-38.7656
-38.7673
-38.9219
-39.1861
-39.5553
-40.0058
-40.5244
-41.0847
-41.678
-42.2927
-42.9477
-43.6262
-44.2957
-44.9583
-45.5899
-46.1999
-46.8143
-47.4153
-47.9767
-48.4853
-48.9506
-49.3794
-49.7498
-50.1006
-50.4227
-50.7266
-51.0172
-51.2892
-51.5427
-51.7861
-52.0272
-52.254
-52.4724
-52.6785
-52.8823
-53.0745
-53.2689
-53.4553
-53.648
-53.8324
-54.0191
-54.1992
-54.3849
-54.5729
-54.7654
-54.959
-55.1524
-55.3477
-55.5407
-55.7394
-55.9369
-56.1437
-56.3488
-56.563
-56.7728
-56.9902
-57.2045
-57.4243
-57.6385
-57.851
-58.0501
-58.2458
-58.4321
-58.6123
-58.7868
-58.952
-59.1066
-59.2403
-59.3702
-59.4844
-59.61
-59.7318
-59.858
-59.9859
-60.1196
-60.2587
-60.4064
-60.5598
-60.7255
-60.8998
-61.0867
-61.2836
-61.49
-61.7022
-61.9177
-62.1414
-62.3673
-62.6008
-62.8367
-63.0795
-63.3247
-63.5736
-63.8223
-64.0725
-64.3247
-64.5851
-64.8486
-65.1185
-65.3915
-65.6695
-65.9513
-66.2384
-66.5316
-66.8322
-67.1401
-67.4564
-67.7804
-68.1131
-68.454
-68.8057
-69.1696
-69.5504
-69.9499
-70.3602
-70.786
-71.2219
-71.6659
-72.1103
-72.5515
-72.9854
-73.4114
-73.8252
-74.2196
-74.5848
-74.9049
-75.1617
-75.3315
-75.3897
-75.3018
-75.0235
-74.4987
-73.6627
-72.4647
-70.8566
-68.8078
-66.3135
-63.3766
-60.015
-56.2391
-52.0472
-47.4041
-42.2243
-36.3482
-29.6063
-21.8965
-13.2589
-4.14415
3.69775
-21.7484
-21.2591
-20.8064
-20.3805
-19.9954
-19.6366
-19.3289
-19.0947
-18.997
-19.1387
-19.6463
-20.8088
-22.9295
-26.1901
-30.4268
-35.349
-40.497
-45.5228
-50.0578
-53.926
-57.1156
-59.7875
-62.1135
-64.2197
-66.1821
-67.9945
-69.5658
-70.7469
-71.3294
-71.167
-70.0711
-68.0136
-65.1601
-61.7868
-58.2664
-54.8746
-51.766
-49.0239
-46.6688
-44.7036
-43.0973
-41.8221
-40.8378
-40.1135
-39.6173
-39.3224
-39.1863
-39.2285
-39.3867
-39.6556
-40.0163
-40.4586
-40.9569
-41.5089
-42.095
-42.708
-43.3354
-43.967
-44.6186
-45.2809
-45.9275
-46.5326
-47.1049
-47.6324
-48.1321
-48.6093
-49.0611
-49.4774
-49.86
-50.212
-50.5412
-50.8446
-51.1252
-51.3928
-51.6473
-51.8967
-52.1325
-52.3586
-52.5717
-52.7825
-52.9783
-53.1778
-53.3648
-53.5591
-53.7446
-53.9334
-54.1132
-54.2974
-54.4831
-54.6738
-54.8673
-55.0589
-55.2537
-55.4449
-55.6418
-55.8359
-56.0402
-56.2421
-56.4554
-56.6639
-56.8821
-57.0965
-57.3182
-57.5356
-57.7542
-57.9591
-58.1611
-58.3538
-58.5388
-58.7173
-58.8861
-59.0472
-59.1843
-59.3185
-59.4339
-59.5503
-59.6657
-59.7891
-59.9112
-60.0416
-60.1732
-60.3171
-60.4625
-60.6224
-60.7935
-60.9754
-61.1697
-61.3744
-61.5879
-61.8011
-62.0263
-62.2487
-62.4834
-62.717
-62.9616
-63.2058
-63.4579
-63.7064
-63.961
-64.207
-64.4638
-64.7274
-64.9965
-65.2724
-65.5494
-65.8345
-66.1181
-66.4133
-66.7091
-67.0188
-67.3309
-67.658
-67.9882
-68.3337
-68.6827
-69.0476
-69.4184
-69.8117
-70.2223
-70.6508
-71.0971
-71.5591
-72.0359
-72.5234
-73.0209
-73.5226
-74.027
-74.5275
-75.0186
-75.4901
-75.9307
-76.3231
-76.6466
-76.8712
-76.9557
-76.8447
-76.474
-75.7815
-74.7132
-73.2317
-71.3292
-69.0092
-66.2963
-63.2131
-59.7668
-55.9268
-51.6006
-46.6045
-40.7302
-33.839
-25.9612
-17.5355
-10.2253
-21.1867
-20.8208
-20.4701
-20.1372
-19.8228
-19.5227
-19.2438
-19.0298
-18.9015
-18.9558
-19.2924
-20.1005
-21.5908
-23.9372
-27.2086
-31.3428
-35.989
-40.8333
-45.4539
-49.6565
-53.3717
-56.5718
-59.3353
-61.7529
-63.898
-65.7941
-67.3999
-68.6164
-69.306
-69.3187
-68.5492
-66.9574
-64.6594
-61.8559
-58.8249
-55.7825
-52.8856
-50.261
-47.9518
-45.9756
-44.3193
-42.9658
-41.8854
-41.0552
-40.4458
-40.032
-39.7848
-39.6731
-39.7109
-39.8627
-40.1126
-40.4519
-40.8649
-41.3448
-41.8726
-42.4423
-43.041
-43.6579
-44.2902
-44.9264
-45.5478
-46.1526
-46.7449
-47.308
-47.8411
-48.3366
-48.8058
-49.2218
-49.6081
-49.9566
-50.2944
-50.6112
-50.9169
-51.2043
-51.4782
-51.7442
-51.9923
-52.2287
-52.4475
-52.6652
-52.8643
-53.0725
-53.2599
-53.4602
-53.6464
-53.8373
-54.0184
-54.2042
-54.3905
-54.5809
-54.7749
-54.965
-55.1597
-55.3496
-55.5459
-55.7368
-55.9388
-56.1361
-56.3466
-56.5507
-56.7684
-56.98
-57.2021
-57.419
-57.6417
-57.8508
-58.0599
-58.258
-58.4489
-58.6318
-58.802
-58.9666
-59.107
-59.2513
-59.3683
-59.4839
-59.592
-59.7091
-59.8249
-59.9483
-60.073
-60.2095
-60.3492
-60.5032
-60.6665
-60.8423
-61.0312
-61.2315
-61.4392
-61.6486
-61.8694
-62.0897
-62.3213
-62.5529
-62.7945
-63.0375
-63.2875
-63.5352
-63.7861
-64.0313
-64.2861
-64.5445
-64.8101
-65.0802
-65.3541
-65.6331
-65.9131
-66.2025
-66.4952
-66.7996
-67.1094
-67.4334
-67.7652
-68.1127
-68.4681
-68.8391
-69.2182
-69.6195
-70.0372
-70.4745
-70.9325
-71.4118
-71.9125
-72.4325
-72.9746
-73.5329
-74.1083
-74.6953
-75.2921
-75.8911
-76.4865
-77.0685
-77.6227
-78.1252
-78.5424
-78.823
-78.9061
-78.7181
-78.1933
-77.2803
-75.9612
-74.2367
-72.135
-69.695
-66.9477
-63.8818
-60.4155
-56.3434
-51.3936
-45.3573
-38.2372
-30.4321
-23.5321
-20.6014
-20.339
-20.0947
-19.8438
-19.6029
-19.3691
-19.1456
-18.9635
-18.8387
-18.8445
-19.0598
-19.6176
-20.685
-22.4067
-24.8672
-28.0937
-32.014
-36.3849
-40.8506
-45.162
-49.1419
-52.7059
-55.8473
-58.6003
-61.0025
-63.0773
-64.8046
-66.1242
-66.9614
-67.1641
-66.7439
-65.6173
-63.8618
-61.6143
-59.0714
-56.4126
-53.7914
-51.343
-49.1275
-47.1809
-45.5101
-44.1122
-42.9659
-42.0455
-41.3221
-40.7886
-40.4215
-40.1985
-40.1108
-40.1495
-40.2922
-40.5282
-40.8433
-41.2297
-41.6761
-42.1761
-42.7168
-43.2902
-43.892
-44.5084
-45.1273
-45.7397
-46.3366
-46.9124
-47.4563
-47.9695
-48.454
-48.9022
-49.32
-49.6991
-50.0601
-50.3901
-50.7066
-51.0016
-51.2891
-51.5605
-51.818
-52.0631
-52.2924
-52.5177
-52.7297
-52.9404
-53.1379
-53.3379
-53.5294
-53.7226
-53.9085
-54.0985
-54.2869
-54.4786
-54.6732
-54.8653
-55.0596
-55.2505
-55.4473
-55.6368
-55.8376
-56.0303
-56.2387
-56.4372
-56.6544
-56.8604
-57.082
-57.2939
-57.5192
-57.728
-57.9433
-58.1474
-58.3448
-58.5352
-58.7078
-58.8836
-59.0277
-59.1857
-59.3062
-59.4331
-59.5443
-59.6627
-59.7736
-59.8941
-60.0127
-60.1458
-60.2773
-60.4251
-60.5808
-60.7489
-60.9317
-61.1255
-61.3307
-61.5335
-61.7527
-61.9674
-62.1976
-62.4248
-62.6645
-62.9036
-63.1527
-63.3979
-63.6495
-63.8905
-64.1429
-64.3979
-64.6581
-64.9235
-65.1937
-65.469
-65.7419
-66.0262
-66.3105
-66.6088
-66.9105
-67.2292
-67.5536
-67.8966
-68.2469
-68.6161
-68.9934
-69.3959
-69.817
-70.2595
-70.7256
-71.2164
-71.7336
-72.2747
-72.8477
-73.4457
-74.0732
-74.7243
-75.4023
-76.1032
-76.8265
-77.5675
-78.3179
-79.0583
-79.7655
-80.3981
-80.906
-81.2078
-81.2274
-80.8918
-80.1629
-79.0311
-77.5185
-75.6703
-73.5481
-71.185
-68.5459
-65.4419
-61.5293
-56.4653
-50.2025
-43.0371
-36.5199
-19.8037
-19.7038
-19.6067
-19.4688
-19.3222
-19.1769
-19.0215
-18.8819
-18.7821
-18.7688
-18.9145
-19.3066
-20.0786
-21.3555
-23.2396
-25.7745
-28.9371
-32.6459
-36.7027
-40.8574
-44.8928
-48.6708
-52.1109
-55.181
-57.8719
-60.1854
-62.1119
-63.6132
-64.6667
-65.0789
-64.9938
-64.2699
-62.9671
-61.1915
-59.0881
-56.8064
-54.4776
-52.2344
-50.1481
-48.263
-46.5956
-45.1607
-43.9534
-42.965
-42.1678
-41.5497
-41.0898
-40.7726
-40.5607
-40.5001
-40.5491
-40.6901
-40.9124
-41.2132
-41.5817
-42.0047
-42.4774
-42.9906
-43.536
-44.1075
-44.6975
-45.2902
-45.8798
-46.4595
-47.016
-47.5498
-48.0546
-48.5306
-48.9776
-49.3864
-49.775
-50.1299
-50.4709
-50.787
-51.0902
-51.3757
-51.6467
-51.9043
-52.1438
-52.3739
-52.59
-52.8067
-53.0088
-53.2095
-53.401
-53.5957
-53.785
-53.9795
-54.1709
-54.3637
-54.5583
-54.7516
-54.9469
-55.1394
-55.3358
-55.528
-55.7267
-55.9208
-56.1252
-56.3236
-56.5347
-56.7383
-56.9544
-57.1639
-57.3831
-57.5916
-57.8098
-58.0181
-58.2195
-58.4149
-58.5943
-58.7718
-58.9253
-59.0836
-59.22
-59.3596
-59.479
-59.6018
-59.7146
-59.8364
-59.9547
-60.0865
-60.2146
-60.3585
-60.508
-60.6697
-60.8461
-61.0313
-61.2327
-61.4296
-61.6467
-61.8561
-62.0852
-62.3082
-62.5464
-62.7813
-63.0292
-63.2717
-63.5251
-63.7637
-64.0167
-64.2694
-64.5252
-64.7871
-65.0511
-65.3244
-65.5901
-65.871
-66.1475
-66.4401
-66.7341
-67.0448
-67.3586
-67.6933
-68.0339
-68.396
-68.7657
-69.1636
-69.58
-70.0201
-70.4859
-70.98
-71.5057
-72.0584
-72.6521
-73.2753
-73.9408
-74.6367
-75.3757
-76.1521
-76.9768
-77.84
-78.7426
-79.6698
-80.6094
-81.5349
-82.4132
-83.1651
-83.718
-83.9758
-83.8692
-83.3559
-82.4369
-81.1431
-79.5571
-77.776
-75.8553
-73.7041
-70.9738
-67.1354
-61.9799
-55.6387
-49.534
-18.9375
-19.0014
-19.0836
-19.0652
-19.018
-18.947
-18.869
-18.7781
-18.7104