/*--------------------------------*- C++ -*----------------------------------*\
| =========                 |                                                 |
| \\      /  F ield         | OpenFOAM: The Open Source CFD Toolbox           |
|  \\    /   O peration     | Version:  4.1                                   |
|   \\  /    A nd           | Web:      www.OpenFOAM.org                      |
|    \\/     M anipulation  |                                                 |
\*---------------------------------------------------------------------------*/
FoamFile
{
    version     2.0;
    format      ascii;
    class       volScalarField;
    location    "18.5";
    object      p;
}
// * * * * * * * * * * * * * * * * * * * * * * * * * * * * * * * * * * * * * //

dimensions      [0 2 -2 0 0 0 0];

internalField   nonuniform List<scalar> 
204246
(
156.218
3.18055
59.0725
31.1959
27.9018
36.7064
18.202
37.2892
14.6705
36.8259
13.0782
36.7039
11.5555
35.5157
13.9992
30.3942
23.4743
15.2078
32.4648
10.7557
34.7341
10.2993
33.6777
10.691
33.7359
10.1659
34.8318
8.21448
35.6721
8.20054
35.0084
9.58001
32.6298
13.8465
26.1725
23.2492
12.8969
30.9488
9.93519
31.5127
9.5177
32.0499
8.72445
33.2467
6.76647
33.9985
7.06334
32.9498
9.49124
29.2439
13.7737
24.4122
22.6104
11.7247
30.2564
9.11736
30.9418
8.94987
31.6359
8.32502
32.962
6.44554
33.791
6.72705
32.7701
9.02618
29.0861
13.0156
24.413
21.2078
12.4907
27.1918
9.58616
29.2074
8.2462
30.1657
7.13968
31.4854
5.01004
32.2566
5.16597
31.1888
7.43622
27.4816
11.4863
22.8105
19.8451
10.8532
26.0938
7.87867
28.5866
6.16361
30.6849
3.59725
32.1443
3.0149
32.1918
3.3776
31.2212
5.10705
28.3017
7.30986
26.1528
9.91324
22.5495
16.3053
10.2995
23.8865
5.59863
27.0161
1.83602
27.8484
1.06825
26.5106
0.210485
24.9266
-0.784679
22.5875
-1.36065
18.7203
-0.278347
11.9913
5.14358
-4.16521
9.83535
-11.565
8.47865
-16.599
4.76479
-21.083
0.246138
-25.7105
-4.43993
-29.9478
-9.17896
-32.5079
-14.4516
-32.5206
-21.2158
-26.5468
-36.2106
-18.8913
-40.4587
-15.9147
-40.9286
-13.5752
-39.8627
-11.3731
-37.7404
-9.38119
-34.8973
-7.90027
-31.166
-7.58924
-25.4417
-9.89998
-14.1188
-20.8782
-2.88394
-22.542
2.7221
-20.9574
6.84851
-17.7129
10.6793
-12.9463
14.316
-6.43816
18.9307
1.55522
24.8823
11.821
31.6341
25.0438
39.6143
43.1087
48.2036
58.9867
67.3149
76.5427
90.8966
99.1539
119.476
127.927
155.385
165.053
203.756
211.215
276.311
271.703
391.61
383.255
608.945
67.2387
23.1119
33.9728
35.1445
24.3161
34.2802
20.6674
32.2315
18.9834
30.7976
18.2355
29.5689
18.7227
26.7226
21.685
21.8947
27.1144
17.0873
27.703
16.4181
27.6042
16.5967
27.3212
16.1896
27.6244
15.6274
28.1129
15.311
27.5796
16.0179
26.3057
17.7426
23.6693
21.1865
19.3518
25.8478
15.4758
26.0519
15.2823
25.8885
14.7413
26.1872
14.1248
26.5707
13.87
25.8289
14.8317
24.2467
16.9777
21.6539
19.9211
17.9246
24.6917
14.3582
25.0791
14.4184
25.1324
14.1033
25.6473
13.668
26.212
13.5227
25.5959
14.4956
24.0912
16.5269
21.5654
19.1862
17.9632
23.4765
14.572
23.6445
13.7251
24.0411
13.1032
24.3987
12.4165
24.7915
12.0718
24.0286
12.9124
22.4155
14.8897
19.8223
17.5808
16.1842
22.0041
12.756
22.4106
11.8132
23.2287
10.9628
24.1444
10.3203
24.0746
10.4854
23.5675
11.1305
22.4509
12.4091
20.8573
13.5487
18.9558
15.7866
15.5407
19.9833
11.0609
20.7895
9.5202
21.3191
8.43592
20.4814
8.07035
19.3171
7.35868
17.7983
6.60585
15.3904
6.3677
11.4464
7.09484
5.50708
9.69386
-0.901058
6.6408
-4.92498
3.29037
-9.06743
-0.704502
-13.4909
-5.18909
-17.8905
-10.3733
-21.8523
-16.1159
-24.7002
-22.0419
-25.4906
-28.5269
-23.5866
-34.7861
-24.445
-36.128
-24.1688
-35.9805
-22.8725
-34.6739
-21.1259
-32.404
-19.4069
-29.3907
-18.1789
-25.55
-17.9583
-20.3774
-19.657
-12.9988
-21.43
-9.54941
-19.6944
-6.46131
-17.1959
-3.37845
-13.9309
-0.0450973
-9.74803
3.91903
-4.91798
8.21671
1.78992
13.1937
10.7055
19.3396
21.3526
26.7842
33.9189
39.649
46.1358
56.4022
61.645
76.6063
81.1014
101.087
105.309
131.256
134.346
172.159
166.36
226.353
199.764
297.983
246.34
381.079
27.2139
42.1092
30.5591
38.5141
27.0906
35.4891
23.2065
33.6694
20.9339
32.1341
19.9214
30.518
20.1704
27.991
22.1621
24.201
25.4301
20.161
27.2453
18.0565
28.0853
17.2323
28.2233
16.7526
28.3373
16.3583
28.4473
16.1698
28.0684
16.6877
26.9744
18.159
24.7695
20.824
21.3622
24.0438
17.982
25.6555
16.3441
26.394
15.4469
26.7454
14.8993
26.8661
14.7336
26.3686
15.4311
25.1043
17.1319
22.9192
19.7347
19.8857
23.039
16.8227
24.7994
15.4697
25.7333
14.8159
26.2902
14.4548
26.5891
14.397
26.2202
15.1055
25.0327
16.7017
22.8958
19.0664
19.9075
22.0135
16.8137
23.5378
15.0313
24.5155
14.0234
25.0348
13.3518
25.2443
13.0762
24.7749
13.6549
23.5056
15.2078
21.3151
17.619
18.2971
20.716
15.1636
22.4904
13.3124
23.8223
12.1787
24.6997
11.4892
24.9509
11.4182
24.6649
11.8974
23.7845
12.9018
22.3628
14.2319
20.4267
16.2861
17.5011
19.099
13.9152
20.8639
11.5376
21.8621
10.0142
21.7071
9.21562
20.808
8.52074
19.3815
7.90958
17.0523
7.78642
13.4691
8.29943
8.38341
8.94125
2.42961
7.66729
-2.39933
5.16947
-6.67147
1.27647
-10.8728
-3.45317
-15.1262
-8.58717
-19.0459
-14.0525
-21.965
-19.7859
-23.338
-25.542
-23.7174
-30.6404
-23.4355
-33.1825
-22.3287
-33.7613
-20.679
-32.7607
-18.8337
-30.4999
-17.0624
-27.4106
-15.7199
-23.5313
-15.2674
-18.4799
-16.0827
-12.6879
-17.0836
-8.10857
-16.5508
-4.12401
-14.6919
-0.615586
-11.687
2.91964
-7.55188
6.57221
-1.79817
10.527
5.42914
15.7214
13.9348
22.7244
24.2575
32.276
35.8608
44.3802
49.4087
60.5302
65.931
80.8527
86.4465
106.112
111.751
138.998
142.226
183.063
180.087
245.561
224.076
318.334
296.01
387.708
9.22807
26.0902
20.5497
29.9913
21.2254
30.268
20.8785
28.9103
20.5813
27.3639
20.7239
25.6408
21.7214
23.217
23.6414
20.53
25.5431
19.0281
25.2202
18.8439
24.7288
18.9182
24.465
18.7184
24.4261
18.5697
24.28
18.8169
23.545
19.6284
22.3009
21.042
20.4478
22.9634
18.4087
24.435
17.3858
23.9376
17.3242
23.4934
17.1138
23.2294
16.9735
22.8482
17.2636
21.8865
18.1677
20.5055
19.6272
18.8083
21.366
17.0044
22.9984
16.1961
22.7438
16.368
22.5739
16.3933
22.5827
16.4614
22.4415
16.8963
21.6612
17.8508
20.3963
19.2467
18.7582
20.8075
16.9441
22.2192
15.9536
21.9058
15.5847
21.6507
15.3357
21.4342
15.1672
21.0539
15.3985
20.0633
16.2015
18.6342
17.5179
16.881
19.0866
15.0011
20.6045
13.9754
20.4896
13.5883
20.5108
13.3638
20.5143
13.4104
20.0975
13.7754
19.4441
14.3958
18.5125
15.2403
17.3788
16.1597
15.8772
17.5747
13.9106
19.1034
12.3548
18.8958
11.6981
18.3887
11.3817
17.3434
11.1524
16.1303
10.7087
14.6158
10.2178
12.3489
10.0138
9.08672
9.97389
5.09284
9.53269
2.33122
5.67357
-0.876184
1.72784
-4.43602
-2.67545
-8.429
-7.66569
-12.6997
-13.213
-17.0975
-18.964
-21.1351
-24.4104
-24.1276
-29.319
-26.4489
-33.4983
-28.6535
-34.9724
-29.2652
-34.9965
-28.5669
-33.6259
-27.1216
-31.0893
-25.5292
-27.8876
-24.3024
-24.2139
-23.5939
-20.2473
-23.2143
-16.4473
-21.7273
-14.2694
-19.6482
-12.1133
-17.1498
-9.8298
-14.2341
-7.24491
-10.7388
-3.83941
-6.7444
0.00692378
-1.46215
4.48192
5.46051
10.4152
13.3916
18.6206
22.7737
29.5357
33.3867
43.2988
46.3001
60.2187
61.9878
80.6496
80.5545
105.734
101.507
137.966
122.506
180.702
147.696
218.979
197.815
268.525
8.67396
34.9822
20.5225
34.4032
23.8546
33.0491
23.7709
31.3058
23.3535
29.5546
23.1945
27.6805
23.6866
25.4992
24.6729
23.3744
25.4945
22.1055
25.5029
21.1826
25.5678
20.5228
25.6213
20.0509
25.549
19.879
25.26
20.1127
24.6128
20.7358
23.6074
21.7881
22.2022
23.0729
20.7563
23.9532
19.9252
24.0445
19.2391
24.1978
18.6597
24.1439
18.4162
23.7796
18.6381
23.0194
19.2947
21.9599
20.3549
20.6859
21.6257
19.3811
22.6892
18.7392
23.0061
18.2905
23.4143
17.9551
23.6209
17.9262
23.4908
18.3
22.9104
19.017
21.9642
20.0376
20.7289
21.1894
19.3583
22.0918
18.5191
22.3264
17.7455
22.5478
17.1923
22.5695
16.9325
22.2718
17.108
21.5416
17.6829
20.4754
18.6341
19.155
19.7926
17.7411
20.8018
16.8797
21.2201
16.1122
21.6683
15.6164
21.8766
15.5148
21.7356
15.6973
21.341
16.1458
20.6639
16.8184
19.7492
17.6853
18.4575
18.8297
16.9322
19.817
15.8221
19.9931
14.8978
19.9735
14.2585
19.4932
13.7712
18.6552
13.3301
17.3665
13.009
15.3212
12.9127
12.5865
12.5998
9.5156
11.06
6.64532
8.86509
3.48659
5.5258
0.00512708
1.40835
-3.80676
-3.4176
-7.9821
-8.6988
-12.2716
-14.1706
-16.7726
-19.1585
-20.8261
-23.8651
-23.8245
-27.5923
-25.7091
-29.7366
-25.8243
-30.5895
-24.6834
-29.7962
-23.2142
-27.1893
-21.4393
-23.8079
-19.7563
-20.2266
-18.3678
-16.955
-16.7173
-13.4289
-15.3804
-10.5341
-13.9141
-7.51133
-11.9306
-4.59646
-9.19371
-1.62498
-5.67413
1.76156
-1.10207
5.80025
4.65722
10.9201
11.2604
17.9692
19.0615
26.7568
28.6717
37.9603
40.4952
52.1091
54.9882
69.8642
72.842
92.3856
93.9784
121.547
118.373
159.496
145.845
202.347
183.322
240.06
231.689
275.063
3.94131
20.416
13.2499
24.3816
18.056
25.8227
19.9536
25.7026
20.8042
24.8
21.5437
23.4674
22.5305
21.8926
23.5653
20.5845
24.0638
20.1477
23.6085
20.1081
23.1426
20.1211
22.8139
20.0874
22.5267
20.1918
22.1089
20.5942
21.4091
21.2805
20.4885
22.1769
19.4429
23.01
18.6379
23.2333
18.4763
22.6374
18.4972
22.0923
18.4568
21.527
18.5381
20.8187
18.9114
19.8722
19.5669
18.8315
20.4014
17.8598
21.1854
17.1544
21.5714
17.1618
21.2358
17.4151
21.0041
17.6377
20.7662
17.9713
20.3625
18.5411
19.6593
19.3031
18.767
20.149
17.8317
20.8599
17.0443
21.1222
16.7991
20.6742
16.6785
20.205
16.6202
19.6775
16.6833
18.9857
17.0126
18.0228
17.5856
16.9174
18.3175
15.8255
18.9987
14.949
19.3282
14.6854
19.0256
14.6183
18.7479
14.6905
18.3908
14.9606
17.8622
15.3628
17.232
15.8707
16.4891
16.4452
15.6653
17.0519
14.691
17.7092
13.7318
18.0202
13.2416
17.4918
13.0341
16.7408
12.9607
15.724
12.8394
14.555
12.5755
13.1289
12.2424
11.2054
11.8084
8.91727
11.0554
6.64365
9.24587
4.26117
6.41768
1.46312
2.74657
-1.80374
-1.60579
-5.63224
-6.63493
-10.14
-12.1754
-15.1483
-17.9237
-20.3213
-23.7976
-25.0271
-28.863
-29.5118
-32.756
-32.6406
-35.2298
-33.4706
-35.9834
-32.9626
-34.5988
-31.6607
-31.7943
-29.6848
-28.5879
-27.7015
-25.373
-25.955
-22.3313
-24.5423
-19.936
-22.4267
-17.9966
-20.4204
-16.2355
-18.3036
-14.2377
-16.1233
-11.9023
-13.6075
-9.18347
-10.4251
-6.13502
-6.20722
-1.97354
-1.33183
3.32989
4.82461
10.2004
12.245
19.0656
21.0985
30.2989
31.4331
44.4139
43.5217
62.0004
57.5402
83.4414
73.9016
110.566
92.5687
138.538
121.618
165.702
160.417
201.336
7.66149
30.4656
16.4133
30.2005
21.1423
29.8618
23.0304
29.0351
23.8645
27.7189
24.3536
26.205
24.8544
24.6915
25.2445
23.5502
25.2108
23.0854
24.732
22.6889
24.4373
22.2866
24.246
21.9854
23.9819
21.951
23.5586
22.2342
22.9541
22.7335
22.2472
23.3456
21.5226
23.8506
21.0194
23.8564
20.9697
23.4712
20.8051
23.2098
20.5605
22.8368
20.5048
22.258
20.7372
21.5043
21.1789
20.7186
21.7245
20.0393
22.193
19.6351
22.3788
19.691
22.2414
19.7304
22.2761
19.7374
22.2203
19.9314
21.942
20.3749
21.4258
20.9484
20.7926
21.539
20.1622
22.0049
19.6399
22.109
19.5152
21.8688
19.297
21.6704
19.1027
21.3667
19.0786
20.8613
19.3175
20.1425
19.7223
19.3427
20.2109
18.5854
20.6152
18.0099
20.7746
17.8694
20.654
17.7086
20.62
17.6411
20.4884
17.7873
20.2011
18.0714
19.8103
18.4639
19.3083
18.9302
18.7239
19.4354
18.0194
19.9449
17.376
20.118
17.1467
19.7903
16.9462
19.3955
16.7765
18.8121
16.5942
18.0278
16.3711
16.9376
16.2682
15.3495
15.9068
13.64
14.8871
11.7931
13.2922
9.6465
11.1926
7.2469
8.06574
4.22416
4.18544
0.585781
-0.300673
-3.74734
-5.44966
-8.62459
-11.0268
-13.763
-16.691
-18.8999
-21.8242
-23.5049
-26.0534
-26.8813
-28.8657
-28.351
-30.0472
-28.215
-29.3377
-26.7431
-26.8094
-24.2308
-23.4671
-21.406
-20.1426
-18.9132
-17.002
-16.9119
-14.2166
-15.111
-11.8707
-13.179
-9.42842
-11.173
-6.80904
-8.90681
-4.06738
-6.09334
-1.10262
-2.36235
2.48216
1.97778
7.21165
7.12824
13.1523
13.4657
20.6843
21.3639
30.225
31.0643
42.5639
42.7139
58.0238
56.9174
77.3084
73.9496
101.21
93.371
129.223
117.813
155.784
148.476
181.482
178.794
205.568
3.21277
18.6563
10.5426
20.9812
15.3102
22.6218
18.3461
23.1172
20.1457
22.8389
21.3741
22.133
22.3351
21.3144
22.9522
20.7701
23.0117
20.7465
22.5483
20.8209
22.1177
20.8572
21.7392
20.9082
21.3389
21.0941
20.8613
21.4752
20.2865
21.9694
19.7031
22.4519
19.204
22.7217
19.0179
22.4675
19.1537
21.8339
19.275
21.2287
19.3153
20.5401
19.4329
19.7345
19.7078
18.8532
20.0974
18.0886
20.4651
17.6055
20.6461
17.4094
20.5817
17.6862
20.2135
18.0369
19.9544
18.3737
19.6478
18.8011
19.2181
19.3435
18.662
19.8997
18.0888
20.3604
17.603
20.5923
17.3478
20.3906
17.3724
19.853
17.4023
19.283
17.44
18.6237
17.5547
17.8551
17.8075
16.9942
18.124
16.155
18.4357
15.4913
18.5713
15.0935
18.4073
15.1206
17.9627
15.2489
17.5536
15.4628
17.0866
15.7956
16.5472
16.1735
15.9906
16.5658
15.4161
16.935
14.8544
17.2404
14.2911
17.4286
13.9042
17.2224
13.8345
16.5694
13.8723
15.7917
13.9249
14.8543
13.9027
13.8192
13.7339
12.5954
13.3752
11.2049
12.8091
9.64977
11.7844
8.03324
10.025
6.04365
7.5398
3.64832
4.38501
0.721532
0.384306
-3.02743
-4.34624
-7.54786
-9.82839
-12.8931
-15.9625
-18.7578
-22.4212
-24.7311
-28.5745
-30.3452
-33.7054
-34.7374
-37.0686
-37.0339
-38.2214
-37.0167
-37.0193
-35.3623
-34.2969
-32.6384
-30.8141
-29.7019
-27.2192
-27.3484
-24.1282
-25.5054
-21.9657
-23.5204
-20.2883
-21.7435
-18.7077
-20.0477
-17.0346
-18.3908
-15.1882
-16.5159
-13.2121
-14.0577
-10.6271
-11.0894
-7.24094
-7.35353
-2.89089
-2.6387
2.67868
3.23846
9.94708
10.1017
19.462
18.1922
31.5037
27.809
46.4298
39.2317
64.474
53.2935
83.3036
73.7505
104.309
98.8065
128.351
127.093
155.146
9.49008
28.1145
15.0233
27.8124
19.3064
27.5229
21.9194
27.003
23.4481
26.174
24.35
25.1931
24.9051
24.2804
25.0926
23.7066
24.8256
23.5946
24.2401
23.4611
23.8003
23.273
23.4375
23.1231
23.0458
23.149
22.5945
23.3788
22.1139
23.7067
21.7054
24.0073
21.4273
24.0881
21.4319
23.8196
21.6643
23.2563
21.7737
22.7772
21.7428
22.2089
21.7832
21.5179
21.9388
20.8063
22.1388
20.2396
22.2886
19.956
22.2806
19.9166
22.1237
20.2155
21.8028
20.5059
21.642
20.7396
21.4498
21.063
21.1453
21.4956
20.7505
21.9267
20.3769
22.2389
20.131
22.3215
20.0579
22.1413
20.213
21.6916
20.2821
21.2746
20.3054
20.8
20.3902
20.219
20.5882
19.565
20.8106
18.9594
20.9881
18.5386
20.9603
18.3433
20.7161
18.5131
20.3216
18.6611
20.0396
18.839
19.7439
19.1176
19.4031
19.4429
19.0556
19.7813
18.7028
20.0973
18.3789
20.3425
18.0766
20.4683
17.9364
20.3123
18.0932
19.8066
18.2584
19.2951
18.3694
18.7214
18.4224
18.0444
18.3986
17.204
18.1952
16.1926
17.7015
15.129
16.7182
13.9245
15.3486
12.3864
13.4395
10.4378
10.7551
7.92346
7.37586
4.54921
3.20812
0.278822
-1.76351
-4.8029
-7.55477
-10.5783
-13.8596
-16.7483
-20.1089
-22.6892
-25.7064
-27.5171
-29.871
-30.6705
-31.9043
-31.6003
-31.7342
-30.2624
-29.2713
-27.0731
-25.3022
-23.2241
-21.0508
-19.8437
-17.4023
-17.4709
-14.8886
-15.4667
-12.7608
-13.5695
-10.5927
-11.6107
-8.31435
-9.55648
-6.06201
-7.17188
-3.5898
-4.4612
-0.553231
-1.29406
3.22334
2.60332
7.97393
7.46643
13.9839
13.5057
21.9692
20.6755
32.3747
29.4233
45.3
40.2912
60.9389
53.9539
78.7303
71.2376
97.4347
91.8719
117.586
113.805
137.55
135.291
155.709
3.56431
18.5432
9.41765
19.4105
13.9501
20.5368
17.1576
21.2079
19.3436
21.3758
20.8174
21.2086
21.8
20.947
22.3006
20.8595
22.2791
21.0751
21.8468
21.2732
21.4183
21.3747
21.0058
21.4693
20.5626
21.6371
20.1161
21.93
19.6812
22.2482
19.3693
22.4611
19.2303
22.4639
19.3139
22.0858
19.6347
21.4111
19.8674
20.7655
19.9532
20.0259
20.0362
19.2174
20.1277
18.461
20.2014
17.8728
20.2143
17.6393
20.1263
17.598
19.9276
17.9922
19.5391
18.4307
19.2718
18.8401
18.9728
19.295
18.6011
19.7781
18.1943
20.1742
17.8676
20.3826
17.6693
20.3616
17.6308
20.0156
17.8215
19.3933
17.9561
18.7547
18.0381
18.0363
18.1335
17.2735
18.2724
16.5238
18.3636
15.8973
18.3603
15.4506
18.2378
15.2387
17.8119
15.4276
17.2531
15.6762
16.7728
15.9671
16.2823
16.3189
15.7747
16.6596
15.3022
16.9548
14.8732
17.165
14.524
17.2493
14.2482
17.169
14.1263
16.7803
14.2792
16.0627
14.4691
15.3141
14.6069
14.4915
14.6472
13.5909
14.5472
12.6775
14.2148
11.7103
13.593
10.7003
12.6251
9.45356
11.1996
7.88655
9.1503
5.99809
6.4422
3.49578
3.02197
0.132165
-1.23853
-4.21061
-6.5069
-9.58257
-12.7786
-15.917
-19.8486
-22.9066
-27.2121
-29.897
-34.045
-35.9858
-39.133
-39.9373
-41.6439
-41.0651
-41.0664
-39.4267
-38.0346
-35.881
-33.561
-31.7379
-28.9261
-28.281
-25.2842
-25.8839
-22.9181
-24.223
-21.4096
-22.7777
-20.1897
-21.4334
-18.9838
-20.1278
-17.6569
-18.7525
-16.074
-17.1314
-14.0527
-15.0365
-11.394
-12.2926
-7.9242
-8.7325
-3.41818
-4.39646
2.74255
0.55216
10.7267
6.62759
20.6303
14.3864
32.2346
24.705
45.3455
38.3862
60.6189
55.4839
78.7033
75.6321
98.8552
97.8078
119.411
10.7352
27.0508
15.1351
26.1552
18.5833
25.6915
21.0565
25.2996
22.7241
24.8286
23.7928
24.2976
24.4219
23.8406
24.6136
23.6434
24.3557
23.7669
23.8047
23.808
23.3495
23.8011
22.874
23.7616
22.426
23.7887
21.9759
23.947
21.6031
24.1216
21.4507
24.23
21.4257
24.2047
21.6745
23.8055
22.1139
23.1766
22.3937
22.6485
22.4548
22.0458
22.4676
21.3434
22.4622
20.6682
22.4255
20.216
22.3001
20.0134
22.1772
19.9923
21.8752
20.422
21.476
20.8595
21.2247
21.2439
20.9735
21.6506
20.6878
22.0631
20.4094
22.392
20.2241
22.5381
20.2041
22.5053
20.3452
22.1678
20.6839
21.6285
20.9226
21.1046
21.0651
20.5448
21.1786
19.932
21.2971
19.3519
21.3782
18.9127
21.3027
18.6435
21.0204
18.5716
20.5798
18.8835
20.0467
19.1863
19.6361
19.4989
19.2627
19.8542
18.9108
20.2001
18.6152
20.4954
18.384
20.7027
18.2575
20.7856
18.2029
20.7114
18.3325
20.4049
18.6957
19.8482
19.0594
19.3099
19.367
18.7508
19.5347
18.2395
19.5376
17.7001
19.3339
17.1084
18.8619
16.4531
18.1289
15.6274
17.0314
14.564
15.4311
13.1418
13.2128
11.0836
10.3839
8.11176
6.71612
4.16312
1.99531
-0.907454
-3.88737
-7.12143
-10.7893
-14.2618
-18.2704
-21.7271
-25.5814
-28.4713
-31.6606
-33.4647
-35.4258
-35.8942
-36.2829
-35.3722
-33.9391
-31.6906
-28.737
-26.2128
-22.8248
-21.2667
-18.152
-18.2129
-15.5227
-16.054
-13.644
-14.1834
-11.7087
-12.2868
-9.72884
-10.4272
-7.84612
-8.63945
-5.87534
-6.80126
-3.59297
-4.73417
-0.855627
-2.09157
2.63545
1.27831
7.23257
5.22735
13.8624
9.91968
22.2285
16.1833
32.131
24.7609
43.4567
35.9318
56.3498
49.5742
70.6421
65.2048
85.943
82.3299
101.516
99.7952
116.348
4.12252
18.8937
9.4491
18.8883
13.5722
19.4717
16.5968
20.0435
18.7563
20.4092
20.2594
20.5725
21.2538
20.6652
21.7495
20.8779
21.7733
21.2694
21.4237
21.5755
21.0482
21.7088
20.6055
21.8443
20.0813
21.9875
19.6497
22.2107
19.3341
22.3594
19.2256
22.4399
19.2813
22.3465
19.5697
21.9237
20.0328
21.2624
20.3849
20.6103
20.5226
19.8937
20.5324
19.1327
20.4473
18.4028
20.2779
17.8469
20.1031
17.5598
19.7884
17.7012
19.5155
18.1728
19.1176
18.6975
18.862
19.168
18.5887
19.6432
18.2852
20.0824
17.9938
20.3861
17.8094
20.4521
17.8149
20.3055
17.9494
19.8813
18.2445
19.2154
18.4638
18.5464
18.5656
17.8391
18.5866
17.1061
18.6016
16.4066
18.5792
15.8631
18.4221
15.4958
18.0451
15.4343
17.4805
15.6978
16.822
16.0255
16.293
16.3725
15.8013
16.7411
15.3341
17.0563
14.9411
17.2803
14.6331
17.3736
14.4421
17.3064
14.3835
17.088
14.4261
16.619
14.6917
15.8748
14.9949
15.1436
15.2252
14.3925
15.3433
13.6924
15.247
13.0974
14.9334
12.4963
14.4236
11.8007
13.6799
10.951
12.5725
9.89678
10.9103
8.56017
8.79669
6.58082
6.09119
3.7689
2.49398
-0.0470088
-2.23716
-5.09998
-8.28972
-11.5508
-15.7066
-19.3085
-24.2054
-27.8615
-33.014
-36.2347
-40.6034
-42.6713
-45.383
-45.7516
-46.2369
-44.8142
-43.1615
-40.6357
-37.3774
-34.4491
-30.6935
-28.7692
-25.5445
-25.3553
-22.8092
-24.0438
-21.7924
-23.21
-21.106
-22.2894
-20.2134
-21.2639
-19.1946
-20.3301
-18.0067
-19.3129
-16.4545
-17.9776
-14.4282
-16.1
-11.705
-13.6503
-7.84494
-11.0683
-2.62714
-7.66217
3.53791
-2.77234
10.7014
3.96974
19.149
12.7836
29.4168
24.0756
41.8475
38.0274
56.4849
54.4266
72.884
72.276
89.758
12.5455
26.3565
15.8614
24.9736
18.492
24.3079
20.5102
23.9567
21.9955
23.6913
23.0546
23.4477
23.7311
23.2956
23.9859
23.3733
23.82
23.6916
23.3704
23.9193
22.9755
23.9882
22.5302
24.0011
21.9972
24.0657
21.4691
24.1877
21.1895
24.2092
21.1927
24.2559
21.3318
24.1911
21.7657
23.758
22.3656
23.1023
22.8522
22.4579
23.0053
21.9298
22.9677
21.2869
22.8213
20.6452
22.5625
20.1905
22.2359
19.9298
22.0223
19.8894
21.6091
20.3792
21.1601
20.9018
20.8745
21.4339
20.5825
21.92
20.3202
22.3242
20.1376
22.5808
20.0884
22.6569
20.2093
22.544
20.5037
22.1643
20.9706
21.5982
21.3362
21.0201
21.5663
20.4071
21.6481
19.7971
21.6882
19.2554
21.617
18.9075
21.3954
18.6546
20.9619
18.6803
20.3827
19.0346
19.7532
19.4091
19.2551
19.8014
18.838
20.2103
18.4915
20.5725
18.2429
20.8399
18.1027
20.9764
18.0993
20.9545
18.2092
20.7878
18.4898
20.4003
18.9904
19.8148
19.479
19.266
19.8951
18.7451
20.1237
18.359
20.1339
18.0771
19.9557
17.7635
19.6267
17.3678
19.0946
16.8976
18.219
16.3171
16.9436
15.3347
15.2685
13.7367
13.1048
11.3617
10.08
7.98321
5.9007
3.28971
0.268174
-2.9837
-6.96934
-10.8663
-15.6258
-19.963
-24.9837
-29.1547
-33.6861
-36.8482
-40.0371
-41.7304
-42.9058
-42.8546
-41.4262
-39.1731
-35.0599
-31.5059
-26.2676
-23.5141
-19.2805
-18.5203
-15.9251
-16.1809
-14.3955
-14.6895
-12.7328
-12.866
-10.9937
-11.2841
-9.40794
-10.0495
-8.07294
-8.92457
-6.58811
-7.91074
-4.73674
-6.66344
-2.36192
-4.95322
1.21202
-3.06406
6.16024
-0.0948259
11.8403
4.39039
18.4975
10.6889
26.5151
18.9347
35.8118
29.1193
46.3444
41.0587
57.995
54.687
70.6336
69.3184
83.4638
5.76281
19.4504
10.4682
19.0115
14.0213
19.1789
16.6101
19.5301
18.5031
19.8878
19.8959
20.1782
20.8693
20.4598
21.3364
20.8802
21.444
21.4171
21.1486
21.8703
20.8084
22.0798
20.4236
22.1826
19.9372
22.2587
19.432
22.3699
19.1787
22.3902
19.1183
22.4136
19.327
22.3203
19.7864
21.9013
20.4147
21.2592
20.9327
20.5903
21.2179
19.9243
21.1555
19.2538
20.9329
18.5568
20.507
17.9516
20.102
17.53
19.5577
17.7639
19.2888
18.2983
18.8813
18.9208
18.6235
19.4686
18.3756
19.9759
18.1393
20.3806
17.9482
20.5924
17.9018
20.6012
18.0042
20.383
18.2613
19.928
18.6741
19.2436
19.0091
18.551
19.175
17.8224
19.1404
17.1368
19.0385
16.5104
18.8873
16.0031
18.5966
15.6969
18.0478
15.7036
17.364
15.998
16.6117
16.3831
16.0295
16.783
15.5362
17.1763
15.1073
17.4864
14.7835
17.6675
14.5756
17.6896
14.5078
17.5388
14.5663
17.2236
14.7552
16.698
15.1323
15.9352
15.544
15.2178
15.8602
14.5454
16.0196
14.0094
15.9196
13.6698
15.6751
13.32
15.323
12.9098
14.7911
12.5181
13.9003
12.0166
12.6476
11.1428
11.2106
9.69606
9.27348
7.60231
6.52487
4.57033
2.64975
0.223435
-2.74026
-5.83411
-9.98588
-13.8656
-19.1898
-23.7374
-29.9154
-34.6228
-40.6048
-44.5756
-48.8842
-50.846
-52.494
-52.1577
-50.5667
-47.987
-43.5579
-39.194
-33.1949
-29.2716
-24.6758
-23.5052
-21.3509
-22.7731
-21.4304
-23.1768
-21.9121
-22.7716
-20.9951
-21.723
-20.1721
-20.9259
-19.4446
-20.3044
-18.3404
-19.5863
-16.7893
-18.5737
-14.6631
-17.3388
-11.5115
-15.8221
-7.45314
-13.4774
-2.95278
-9.54753
1.99703
-4.41121
8.03652
2.46235
15.5776
11.2826
25.0022
22.2213
36.229
34.9025
49.3072
49.1211
63.7149
14.249
25.7036
16.7417
23.9767
18.6919
23.2435
20.2082
22.9201
21.3467
22.7433
22.3155
22.6151
23.0073
22.6802
23.316
22.9389
23.2452
23.4449
22.8753
23.8931
22.4768
24.0918
22.148
24.0918
21.689
24.0962
21.1392
24.1168
20.8507
24.0624
20.8492
24.1021
21.0535
24.0849
21.6692
23.6337
22.4417
22.9491
23.1501
22.2685
23.3717
21.7848
23.3438
21.2646
23.0973
20.7
22.6402
20.1274
22.1625
19.6956
21.8147
19.5766
21.2894
20.128
20.7634
20.8105
20.3917
21.4903
20.108
22.0373
19.8978
22.4375
19.7953
22.6275
19.8625
22.6746
20.0917
22.497
20.4982
22.1004
21.0998
21.5108
21.619
20.8921
21.9592
20.2155
21.9859
19.6287
21.8999
19.1086
21.7309
18.7385
21.3933
18.5461
20.8307
18.627
20.1184
18.9839
19.3619
19.4071
18.779
19.8673
18.3307
20.3268
17.9944
20.7158
17.7866
20.9669
17.7166
21.049
17.8068
20.9559
18.0321
20.7121
18.4211
20.2651
19.0229
19.6267
19.619
19.0537
20.1025
18.5673
20.3808
18.2483
20.3942
18.1094
20.2666
17.983
20.0281
17.8035
19.6496
17.6799
18.9372
17.4932
17.9432
16.8655
16.8539
15.7861
15.318
14.0996
13.0707
11.5259
9.74369
7.6306
4.84265
1.89969
-2.11768
-6.10279
-11.4364
-16.481
-22.8344
-28.4245
-34.8477
-39.9709
-45.2795
-48.7575
-51.5058
-52.8112
-52.2404
-50.832
-46.1258
-41.3249
-33.2593
-27.6
-20.4647
-17.7853
-14.976
-15.1157
-14.3808
-14.7404
-13.381
-13.6374
-12.1979
-11.9883
-11.0586
-10.9821
-10.2538
-10.4071
-9.49809
-10.2424
-8.65647
-10.1417
-7.23293
-9.80747
-4.75654
-9.31334
-1.17031
-7.74426
2.22498
-5.26636
6.46568
-1.4816
11.5161
3.83599
17.4436
10.6791
24.6041
19.2533
33.2054
29.7432
43.3403
42.0474
54.73
7.82087
20.3954
12.3173
19.5184
15.0736
19.4027
17.0555
19.5271
18.5477
19.7029
19.8071
19.9678
20.6516
20.3682
21.1151
20.877
21.2294
21.5799
20.9209
22.2484
20.5816
22.5504
20.3515
22.6298
19.895
22.659
19.4185
22.5781
19.0778
22.4798
18.9949
22.3956
19.3057
22.3133
19.9712
21.9259
20.807
21.3076
21.4995
20.7336
21.9281
20.0959
21.8409
19.5989
21.5177
18.955
20.9123
18.2046
20.2609
17.5955
19.4202
17.8489
19.2174
18.41
18.7339
19.1973
18.443
19.8268
18.2355
20.3736
18.0769
20.7298
17.9924
20.8842
18.0195
20.846
18.1921
20.5802
18.5632
20.0782
19.1407
19.3683
19.6572
18.6762
19.9524
17.9483
19.8362
17.34
19.5921
16.7446
19.321
16.286
18.9
16.0424
18.2394
16.0701
17.4299
16.3909
16.5534
16.8174
15.8927
17.2633
15.3938
17.6926
15.0011
18.0186
14.7473
18.1712
14.6372
18.1346
14.6776
17.9132
14.8481
17.5289
15.1563
16.9473
15.6546
16.1576
16.1773
15.4455
16.5735
14.8438
16.764
14.4106
16.7353
14.1839
16.5391
14.0326
16.2742
13.9109
15.9073
13.8633
15.2242
13.8084
14.2592
13.3513
13.3728
12.4758
12.1391
11.1027
10.2726
8.96938
7.44484
5.64134
3.12363
0.50934
-3.32818
-7.08313
-12.5069
-17.6152
-24.622
-30.7167
-38.4458
-44.4018
-51.0162
-55.2335
-59.0302
-61.2627
-60.907
-59.6166
-55.0018
-49.3773
-40.0893
-32.3722
-23.8755
-20.0066
-17.1311
-19.401
-19.2456
-23.5327
-22.8682
-22.9387
-21.5621
-21.262
-20.5103
-20.4829
-20.3945
-20.1439
-19.7287
-19.8592
-18.6772
-19.7616
-17.3533
-19.5466
-15.2072
-18.9968
-12.3098
-17.5818
-9.3428
-15.1078
-6.16786
-11.6798
-2.17987
-7.11719
2.81348
-0.738222
9.15448
7.46498
16.5973
16.6817
26.1434
27.1345
39.3686
15.9741
24.3508
17.8381
23.0216
18.9974
22.422
20.0591
22.2434
20.7296
21.9458
21.6652
21.8137
22.3306
22.0798
22.5976
22.4376
22.6456
23.1267
22.2688
23.7715
22.0034
24.0014
21.7309
24.171
21.3154
24.1011
20.8711
23.9852
20.5066
23.8792
20.3944
23.9181
20.6048
23.8689
21.3842
23.3657
22.3475
22.6623
23.2753
21.9898
23.5743
21.662
23.5642
21.2914
23.3193
20.8196
22.8136
20.1294
22.1411
19.3933
21.599
18.9189
20.9852
19.7385
20.197
20.7173
19.6806
21.4657
19.517
22.0223
19.4075
22.4463
19.3671
22.6278
19.5147
22.6136
19.8167
22.3728
20.3392
21.9205
21.1129
21.2775
21.817
20.6491
22.3081
19.9863
22.2392
19.4349
21.9991
18.8478
21.7228
18.4874
21.2823
18.3948
20.6503
18.4581
19.7853
18.804
18.8452
19.264
18.1476
19.7868
17.6755
20.2991
17.352
20.7268
17.1887
20.9597
17.1845
20.986
17.3557
20.8224
17.6709
20.5057
18.1515
19.9789
18.8621
19.2377
19.5825
18.6088
20.1327
18.1321
20.4416
17.8405
20.5007
17.7312
20.3832
17.7239
20.1689
17.72
19.9031
17.8588
19.3247
18.0677
18.4623
17.8163
17.8249
17.2112
16.9065
16.2016
15.4855
14.545
13.2329
11.8121
9.57975
7.30794
3.72148
0.154882
-5.23208
-10.4557
-17.9277
-24.7134
-33.2979
-40.8323
-48.965
-54.8002
-59.6105
-63.6219
-64.6893
-65.1682
-61.8164
-56.9176
-46.2053
-36.1003
-23.2666
-16.1715
-10.8034
-11.1832
-11.8174
-12.9375
-14.4078
-15.5765
-14.0824
-13.0606
-12.2504
-11.5343
-11.8414
-11.5827
-12.1863
-12.2003
-11.9977
-12.8849
-11.4945
-13.3263
-10.0342
-13.6687
-7.65698
-13.2072
-5.51147
-12.3629
-3.02313
-10.53
-0.277048
-7.5961
3.00117
-3.4802
7.55192
1.72508
13.0239
7.68301
19.3839
16.2767
28.2428
11.7414
20.905
14.6985
19.9648
16.4906
19.6229
17.9551
19.6502
19.1889
19.6073
20.0924
19.8888
20.6147
20.3827
21.029
20.8461
21.0751
21.7865
20.6916
22.5572
20.4505
23.0596
20.222
23.213
19.9638
23.1127
19.5515
22.8849
19.108
22.6884
18.8656
22.4361
19.2928
22.2433
20.1744
21.9429
21.215
21.2572
22.0844
20.8378
22.5444
20.429
22.5768
20.0026
22.1878
19.481
21.5106
18.6557
20.6461
17.8538
19.6287
17.7933
19.2518
18.6353
18.5014
19.7219
18.1759
20.296
18.1106
20.8547
18.027
21.1512
18.0524
21.263
18.1381
21.1875
18.3609
20.8577
18.8557
20.2407
19.6708
19.4623
20.4376
18.8128
20.8752
18.2473
20.7202
17.7151
20.2992
17.1187
19.8976
16.6472
19.3549
16.4593
18.6561
16.5757
17.6799
16.9575
16.5672
17.4104
15.7811
17.8583
15.2794
18.3325
14.9118
18.7019
14.7535
18.8207
14.767
18.718
14.9243
18.4252
15.2105
17.9738
15.6513
17.3128
16.3204
16.4311
16.9834
15.7118
17.454
15.1768
17.6773
14.8317
17.6808
14.6865
17.5152
14.6757
17.2666
14.7304
16.9959
14.9345
16.4818
15.2784
15.6537
15.174
15.1735
14.7831
14.5451
14.0549
13.4915
12.8118
11.7571
10.6777
8.80415
6.96653
3.78876
0.658603
-4.44149
-9.47573
-17.0388
-24.1641
-33.5428
-41.6053
-50.8612
-57.0811
-62.7453
-68.0437
-70.1748
-72.1357
-70.5036
-67.2006
-55.6288
-43.2289
-27.3208
-15.7547
-9.38604
-11.1302
-17.3719
-23.1349
-23.3114
-23.6839
-22.0329
-20.6762
-19.6642
-19.6169
-19.7325
-19.5562
-19.3421
-19.3873
-18.8525
-20.0877
-18.7052
-20.6271
-17.5182
-20.6916
-15.6435
-20.035
-13.8096
-18.9736
-12.0172
-17.3076
-10.1088
-15.1732
-8.04752
-11.6969
-4.61223
-5.68798
-0.469685
-0.419347
3.98057
6.42656
14.6487
18.0401
23.4555
18.7182
22.4989
19.178
21.7967
19.8351
21.4174
20.4894
21.2394
21.126
21.3056
21.6263
21.5676
21.9437
22.0271
22.0086
22.8453
21.5402
23.5775
21.3774
23.9134
21.2582
24.0344
21.06
24.0324
20.7129
23.9234
20.316
23.7815
19.9734
23.7379
20.2207
23.5386
20.8964
22.908
22.1282
22.1034
23.2679
21.5778
23.6378
21.3915
23.6317
21.2582
23.4709
20.9916
23.0428
20.269
22.2144
19.2644
21.2919
18.5093
20.2903
19.4758
19.3193
20.7004
18.9371
21.3529
18.8892
21.9013
18.8893
22.3609
18.8761
22.5669
19.0552
22.5064
19.4289
22.1454
20.1129
21.5497
21.0911
20.7903
21.9261
20.2595
22.472
19.7998
22.3847
19.3298
21.9302
18.6085
21.5287
18.2811
21.1128
18.1498
20.4453
18.2456
19.4014
18.6567
18.2068
19.1016
17.3761
19.6492
16.8746
20.1992
16.5497
20.6563
16.472
20.8355
16.5419
20.798
16.7858
20.5509
17.1731
20.1573
17.7499
19.5112
18.6287
18.6013
19.4834
17.9142
20.0606
17.4744
20.3636
17.205
20.4055
17.1189
20.2953
17.1566
20.0798