/*--------------------------------*- C++ -*----------------------------------*\
| =========                 |                                                 |
| \\      /  F ield         | OpenFOAM: The Open Source CFD Toolbox           |
|  \\    /   O peration     | Version:  4.1                                   |
|   \\  /    A nd           | Web:      www.OpenFOAM.org                      |
|    \\/     M anipulation  |                                                 |
\*---------------------------------------------------------------------------*/
FoamFile
{
    version     2.0;
    format      ascii;
    class       volScalarField;
    location    "29";
    object      p;
}
// * * * * * * * * * * * * * * * * * * * * * * * * * * * * * * * * * * * * * //

dimensions      [0 2 -2 0 0 0 0];

internalField   nonuniform List<scalar> 
6750
(
-71.0145
-40.7996
-96.9476
-104.101
-120.216
-127.955
-133.984
-137.852
-140.12
-139.234
-140.401
-134.559
-137.339
-66.0175
-137.365
-70.8871
-40.4355
-96.5763
-103.931
-120.408
-128.247
-134.356
-137.917
-140.078
-139.206
-140.418
-134.665
-137.157
-65.5595
-137.317
-70.7623
-40.0826
-96.2893
-103.863
-120.597
-128.485
-134.658
-137.925
-140.036
-139.191
-140.447
-134.622
-136.999
-65.1015
-137.305
-70.6012
-39.6045
-95.9069
-103.767
-120.827
-128.767
-134.964
-137.972
-139.976
-139.182
-140.478
-134.443
-136.902
-64.7934
-137.173
-70.4437
-39.0683
-95.5354
-103.702
-121.052
-129.016
-135.229
-138.105
-140.035
-139.24
-140.461
-133.87
-136.748
-64.5447
-137.041
-70.3048
-38.522
-95.1701
-103.632
-121.251
-129.249
-135.595
-138.375
-140.021
-139.279
-140.394
-134.066
-136.737
-64.2472
-136.899
-70.2171
-38.0643
-94.8732
-103.564
-121.37
-129.424
-135.839
-138.363
-140.013
-139.333
-140.321
-134.463
-136.698
-63.971
-136.768
-70.2054
-37.9331
-94.7791
-103.536
-121.401
-129.484
-135.97
-138.465
-139.975
-139.3
-140.324
-134.648
-136.657
-63.7246
-136.694
-70.2637
-38.1803
-94.9336
-103.58
-121.355
-129.436
-135.912
-138.478
-139.998
-139.289
-140.318
-134.472
-136.629
-63.8767
-136.522
-70.3879
-38.6861
-95.2603
-103.656
-121.227
-129.278
-135.635
-138.39
-140.013
-139.295
-140.273
-133.917
-136.546
-64.0854
-136.383
-70.5564
-39.2643
-95.6495
-103.736
-121.03
-129.029
-135.255
-138.162
-140.035
-139.313
-140.414
-133.809
-136.459
-64.2568
-136.274
-70.7359
-39.8082
-96.0318
-103.808
-120.801
-128.767
-134.948
-138.02
-140.008
-139.292
-140.436
-134.275
-136.516
-64.4151
-136.186
-70.9112
-40.2806
-96.4192
-103.909
-120.563
-128.47
-134.641
-137.972
-140.081
-139.335
-140.453
-134.685
-136.581
-64.649
-136.15
-71.0438
-40.6257
-96.7086
-103.979
-120.369
-128.221
-134.348
-137.991
-140.115
-139.401
-140.441
-134.803
-136.71
-65.0687
-136.042
-71.1761
-40.9746
-97.0772
-104.148
-120.169
-127.915
-133.949
-137.909
-140.182
-139.498
-140.391
-134.748
-136.854
-65.4833
-135.965
-95.4117
-29.5289
-98.9222
-103.64
-120.743
-128.31
-134.425
-138.113
-140.614
-139.373
-141.139
-133.692
-143.625
-50.0761
-191.213
-95.2665
-29.1799
-98.5061
-103.408
-120.944
-128.624
-134.851
-138.202
-140.562
-139.34
-141.141
-133.777
-143.397
-49.6019
-191.22
-95.1389
-28.8992
-98.2395
-103.325
-121.125
-128.833
-135.142
-138.202
-140.515
-139.327
-141.159
-133.687
-143.178
-49.1647
-191.332
-94.9728
-28.4877
-97.8381
-103.185
-121.352
-129.105
-135.458
-138.254
-140.443
-139.303
-141.189
-133.533
-143.082
-48.8342
-191.151
-94.8217
-28.0377
-97.4519
-103.095
-121.568
-129.327
-135.703
-138.35
-140.5
-139.333
-141.182
-132.957
-142.892
-48.5753
-190.983
-94.6988
-27.5696
-97.0461
-102.999
-121.757
-129.538
-136.05
-138.613
-140.461
-139.337
-141.114
-133.158
-142.883
-48.2674
-190.798
-94.6377
-27.1674
-96.6919
-102.916
-121.864
-129.688
-136.278
-138.573
-140.462
-139.379
-141.056
-133.458
-142.827
-48.008
-190.632
-94.6422
-27.0518
-96.5751
-102.881
-121.887
-129.734
-136.39
-138.673
-140.387
-139.355
-141.011
-133.621
-142.733
-47.7612
-190.597
-94.6881
-27.2646
-96.7667
-102.928
-121.842
-129.686
-136.325
-138.67
-140.404
-139.353
-141.006
-133.501
-142.732
-47.8984
-190.261
-94.795
-27.7001
-97.1448
-103.015
-121.718
-129.544
-136.056
-138.594
-140.415
-139.355
-140.934
-133.02
-142.622
-48.0697
-189.992
-94.9559
-28.1909
-97.5715
-103.118
-121.525
-129.31
-135.685
-138.372
-140.447
-139.377
-141.08
-132.887
-142.495
-48.2312
-189.775
-95.1351
-28.6437
-97.963
-103.211
-121.298
-129.07
-135.386
-138.241
-140.389
-139.343
-141.068
-133.314
-142.547
-48.3792
-189.588
-95.3202
-29.0473
-98.3647
-103.353
-121.06
-128.775
-135.061
-138.173
-140.451
-139.369
-141.075
-133.679
-142.595
-48.603
-189.514
-95.4579
-29.3201
-98.6301
-103.436
-120.87
-128.553
-134.772
-138.193
-140.475
-139.405
-141.062
-133.8
-142.772
-48.9816
-189.218
-95.61
-29.6534
-99.0396
-103.665
-120.657
-128.218
-134.31
-138.074
-140.562
-139.495
-141.032
-133.784
-142.941
-49.377
-189.009
-136.474
-7.10708
-101.018
-102.853
-121.771
-129.206
-135.587
-138.825
-141.656
-139.77
-142.68
-131.52
-155.188
-14.9702
-288.681
-136.308
-6.8551
-100.587
-102.529
-121.949
-129.521
-136.046
-138.948
-141.594
-139.735
-142.654
-131.559
-154.861
-14.4914
-288.712
-136.184
-6.72206
-100.364
-102.423
-122.101
-129.675
-136.286
-138.932
-141.541
-139.722
-142.645
-131.42
-154.455
-14.0757
-288.95
-136.027
-6.46976
-99.9447
-102.207
-122.294
-129.923
-136.595
-138.991
-141.462
-139.685
-142.656
-131.315
-154.369
-13.7365
-288.619
-135.915
-6.20776
-99.5331
-102.079
-122.474
-130.095
-136.792
-139.027
-141.491
-139.676
-142.643
-130.795
-154.116
-13.5004
-288.35
-135.848
-5.91337
-99.0538
-101.939
-122.626
-130.268
-137.077
-139.236
-141.403
-139.626
-142.55
-130.964
-154.088
-13.1899
-288.031
-135.855
-5.63503
-98.5964
-101.836
-122.699
-130.375
-137.253
-139.167
-141.382
-139.624
-142.487
-131.082
-153.973
-12.9311
-287.727
-135.882
-5.54575
-98.434
-101.79
-122.702
-130.4
-137.323
-139.243
-141.272
-139.608
-142.392
-131.19
-153.717
-12.6514
-287.712
-135.882
-5.68565
-98.6983
-101.838
-122.666
-130.348
-137.25
-139.208
-141.277
-139.609
-142.392
-131.112
-153.81
-12.7568
-287.082
-135.93
-5.96685
-99.1724
-101.936
-122.559
-130.227
-137.012
-139.155
-141.28
-139.604
-142.287
-130.792
-153.666
-12.8668
-286.57
-136.051
-6.26464
-99.6697
-102.077
-122.391
-130.017
-136.678
-138.96
-141.313
-139.618
-142.409
-130.655
-153.464
-12.9849
-286.124
-136.212
-6.51333
-100.074
-102.199
-122.187
-129.814
-136.407
-138.853
-141.205
-139.572
-142.334
-130.983
-153.481
-13.0539
-285.7
-136.403
-6.75123
-100.483
-102.41
-121.973
-129.531
-136.064
-138.751
-141.209
-139.565
-142.308
-131.234
-153.459
-13.2005
-285.523
-136.543
-6.87519
-100.698
-102.513
-121.805
-129.355
-135.805
-138.765
-141.192
-139.553
-142.273
-131.33
-153.785
-13.5074
-284.881
-136.72
-7.11314
-101.115
-102.828
-121.606
-129.008
-135.294
-138.583
-141.257
-139.595
-142.244
-131.351
-153.994
-13.7978
-284.43
-179.096
12.6523
-99.5791
-103.491
-123.186
-131.181
-137.811
-140.481
-143.473
-140.936
-144.937
-129.915
-167.033
25.0973
-401.132
-178.938
12.7657
-99.2329
-103.121
-123.289
-131.443
-138.213
-140.612
-143.405
-140.905
-144.875
-129.911
-166.557
25.5447
-401.12
-178.838
12.7623
-99.0597
-103.003
-123.392
-131.544
-138.375
-140.572
-143.335
-140.882
-144.827
-129.812
-165.815
25.9544
-401.477
-178.739
12.8027
-98.6719
-102.74
-123.509
-131.74
-138.631
-140.621
-143.266
-140.844
-144.804
-129.738
-165.766
26.2773
-400.908
-178.727
12.7988
-98.2538
-102.596
-123.623
-131.857
-138.762
-140.607
-143.243
-140.79
-144.769
-129.355
-165.447
26.4659
-400.446
-178.8
12.8315
-97.7192
-102.433
-123.701
-131.982
-138.951
-140.711
-143.094
-140.68
-144.627
-129.42
-165.355
26.7447
-399.879
-178.944
12.8783
-97.1625
-102.334
-123.717
-132.041
-139.051
-140.62
-143.004
-140.606
-144.525
-129.364
-165.116
27.0291
-399.316
-178.99
12.8814
-96.9492
-102.284
-123.689
-132.04
-139.064
-140.632
-142.846
-140.564
-144.373
-129.423
-164.574
27.39
-399.266
-178.893
12.8809
-97.2854
-102.319
-123.668
-131.98
-138.981
-140.571
-142.825
-140.549
-144.349
-129.313
-164.831
27.3899
-398.223
-178.797
12.8899
-97.8441
-102.397
-123.596
-131.874
-138.781
-140.538
-142.832
-140.553
-144.245
-129.171
-164.664
27.343
-397.353
-178.795
12.9106
-98.393
-102.547
-123.483
-131.689
-138.499
-140.382
-142.841
-140.537
-144.316
-129.083
-164.353
27.3095
-396.549
-178.886
12.9478
-98.7949
-102.673
-123.324
-131.519
-138.267
-140.297
-142.704
-140.49
-144.194
-129.286
-164.292
27.3456
-395.744
-179.05
12.9277
-99.1634
-102.92
-123.17
-131.267
-137.937
-140.168
-142.622
-140.43
-144.118
-129.391
-164.105
27.3534
-395.376
-179.179
12.9362
-99.318
-103.027
-123.038
-131.131
-137.728
-140.167
-142.566
-140.38
-144.064
-129.393
-164.697
27.1093
-394.239
-179.357
12.8211
-99.6406
-103.379
-122.901
-130.821
-137.248
-139.948
-142.574
-140.346
-144.027
-129.394
-164.947
27.0431
-393.451
-231.638
18.3368
-96.5663
-107.531
-125.832
-134.942
-141.8
-143.856
-147.128
-143.769
-148.947
-131.459
-181.947
60.7662
-542.311
-231.499
18.4527
-96.3568
-107.17
-125.846
-135.129
-142.101
-143.955
-147.028
-143.721
-148.817
-131.45
-181.321
61.1941
-542.027
-231.428
18.4306
-96.2499
-107.054
-125.899
-135.186
-142.181
-143.88
-146.914
-143.659
-148.702
-131.464
-180.227
61.544
-542.347
-231.415
18.413
-95.9604
-106.791
-125.924
-135.315
-142.351
-143.886
-146.829
-143.605
-148.623
-131.357
-180.235
61.999
-541.384
-231.571
18.3118
-95.5988
-106.653
-125.962
-135.379
-142.406
-143.827
-146.729
-143.493
-148.544
-131.062
-179.858
62.2287
-540.516
-231.781
18.1361
-95.1046
-106.495
-125.95
-135.446
-142.497
-143.823
-146.485
-143.311
-148.295
-130.992
-179.645
62.4937
-539.427
-231.994
17.8357
-94.5565
-106.41
-125.902
-135.458
-142.513
-143.694
-146.289
-143.159
-148.081
-130.854
-179.219
62.8066
-538.334
-232.063
17.687
-94.3392
-106.356
-125.835
-135.423
-142.466
-143.628
-146.054
-143.048
-147.843
-130.901
-178.311
63.2927
-537.993
-231.922
17.892
-94.6724
-106.375
-125.83
-135.355
-142.364
-143.547
-145.978
-142.994
-147.767
-130.682
-178.7
63.6826
-536.399
-231.66
18.1815
-95.2091
-106.42
-125.795
-135.253
-142.184
-143.515
-145.998
-143.021
-147.712
-130.605
-178.518
63.8025
-534.909
-231.479
18.4413
-95.7038
-106.546
-125.741
-135.089
-141.939
-143.383
-145.979
-142.97
-147.708
-130.57
-178.089
63.8254
-533.55
-231.474
18.6962
-96.0387
-106.644
-125.631
-134.939
-141.737
-143.305
-145.835
-142.916
-147.543
-130.705
-177.848
63.9336
-532.144
-231.602
18.7943
-96.3111
-106.873
-125.543
-134.725
-141.437
-143.16
-145.669
-142.782
-147.389
-130.719
-177.344
64.102
-531.408
-231.72
18.8212
-96.3978
-106.966
-125.445
-134.614
-141.273
-143.149
-145.595
-142.722
-147.334
-130.592
-178.187
63.9935
-529.493
-231.894
18.6794
-96.5809
-107.298
-125.375
-134.353
-140.854
-142.923
-145.541
-142.613
-147.264
-130.462
-178.373
64.3391
-528.164
-297.761
6.93754
-94.8968
-116.674
-130.616
-141.29
-148.573
-149.989
-154.235
-149.721
-156.857
-139.285
-206.598
83.6569
-724.9
-297.619
7.1591
-94.7971
-116.351
-130.56
-141.399
-148.756
-150.017
-154.056
-149.614
-156.617
-139.296
-205.831
84.2127
-723.757
-297.599
7.26534
-94.7491
-116.234
-130.574
-141.421
-148.764
-149.898
-153.865
-149.477
-156.396
-139.396
-204.452
84.5146
-723.648
-297.664
7.41848
-94.5725
-115.991
-130.519
-141.477
-148.831
-149.829
-153.702
-149.365
-156.206
-139.167
-204.293
85.5176
-721.963
-297.83
7.3654
-94.3416
-115.853
-130.493
-141.492
-148.805
-149.726
-153.494
-149.18
-156.029
-138.857
-203.683
85.9956
-720.273
-298.018
7.14134
-94.0161
-115.7
-130.403
-141.495
-148.8
-149.629
-153.115
-148.895
-155.603
-138.648
-203.222
86.347
-718.224
-298.212
6.67126
-93.6303
-115.617
-130.299
-141.455
-148.736
-149.448
-152.79
-148.642
-155.21
-138.47
-202.504
86.7159
-716.061
-298.28
6.44949
-93.4727
-115.561
-130.194
-141.377
-148.624
-149.304
-152.448
-148.425
-154.855
-138.536
-201.287
87.1338
-714.859
-298.175
6.76718
-93.7052
-115.566
-130.193
-141.299
-148.49
-149.192
-152.289
-148.308
-154.678
-138.182
-201.459
88.1564
-712.391
-297.949
7.16542
-94.0714
-115.589
-130.177
-141.191
-148.298
-149.125
-152.303
-148.339
-154.664
-138.076
-201.094
88.4631
-710.247
-297.709
7.39243
-94.3847
-115.689
-130.163
-141.038
-148.06
-148.979
-152.252
-148.249
-154.584
-138.096
-200.467
88.6274
-708.001
-297.632
7.60668
-94.5777
-115.76
-130.081
-140.892
-147.867
-148.885
-152.105
-148.186
-154.405
-138.241
-200.159
88.5248
-705.52
-297.757
7.66458
-94.7353
-115.945
-130.038
-140.705
-147.589
-148.721
-151.858
-147.972
-154.151
-138.265
-199.445
88.5932
-703.829
-297.858
7.64152
-94.7706
-116.02
-129.956
-140.6
-147.45
-148.697
-151.774
-147.912
-154.068
-138.02
-200.402
88.3931
-700.946
-298.027
7.3859
-94.8568
-116.299
-129.926
-140.377
-147.081
-148.473
-151.673
-147.742
-153.943
-137.724
-200.392
89.138
-698.904
-375.254
-14.2404
-97.3289
-131.787
-138.911
-151.365
-159.65
-160.228
-166.991
-160.527
-172.135
-155.034
-249.746
97.8675
-964.078
-375.167
-13.9352
-97.2517
-131.5
-138.799
-151.401
-159.705
-160.159
-166.651
-160.29
-171.692
-155.001
-248.858
98.8791
-960.726
-375.174
-13.7791
-97.2107
-131.374
-138.777
-151.396
-159.649
-160.001
-166.342
-160.048
-171.325
-155.214
-247.233
99.0611
-958.612
-375.183
-13.5933
-97.1088
-131.147
-138.668
-151.382
-159.601
-159.837
-166.031
-159.821
-170.931
-154.845
-246.405
100.421
-954.543
-375.279
-13.6288
-97.0022
-130.999
-138.591
-151.348
-159.492
-159.689
-165.681
-159.544
-170.556
-154.498
-245.227
100.859
-950.714
-375.382
-13.7904
-96.8549
-130.849
-138.449
-151.282
-159.385
-159.518
-165.12
-159.13
-169.852
-154.184
-244.278
101.12
-946.442
-375.509
-14.1221
-96.7029
-130.763
-138.302
-151.185
-159.239
-159.285
-164.632
-158.774
-169.213
-154.017
-243.26
101.164
-942.275
-375.558
-14.2502
-96.6484
-130.706
-138.169
-151.055
-159.048
-159.059
-164.13
-158.429
-168.652
-154.148
-241.573
101.647
-939.715
-375.504
-14.024
-96.747
-130.693
-138.157
-150.965
-158.87
-158.899
-163.872
-158.239
-168.305
-153.69
-241.042
103.072
-936.282
-375.353
-13.7399
-96.8982
-130.701
-138.141
-150.847
-158.641
-158.757
-163.838
-158.24
-168.282
-153.601
-240.458
103.389
-932.037
-375.28
-13.5454
-97.0129
-130.779
-138.136
-150.699
-158.387
-158.558
-163.738
-158.107
-168.116
-153.667
-239.751
103.082
-928.365
-375.317
-13.3713
-97.0614
-130.842
-138.068
-150.544
-158.182
-158.421
-163.565
-158.031
-167.924
-153.956
-239.327
103.098
-924.814
-375.435
-13.4226
-97.1439
-130.995
-138.042
-150.371
-157.915
-158.232
-163.256
-157.747
-167.584
-153.975
-238.526
103.489
-922.58
-375.515
-13.4757
-97.1653
-131.064
-137.973
-150.258
-157.786
-158.198
-163.214
-157.753
-167.64
-153.776
-239.803
103.086
-917.725
-375.668
-13.7669
-97.237
-131.293
-137.965
-150.059
-157.453
-157.972
-163.089
-157.55
-167.477
-153.297
-239.74
104.525
-914.198
-461.635
-38.2107
-104.439
-152.328
-152.168
-166.238
-176.696
-175.944
-188.153
-178.109
-200.318
-179.743
-325.174
111.748
-1278.98
-461.55
-37.9669
-104.347
-152.068
-151.993
-166.186
-176.6
-175.748
-187.533
-177.642
-199.533
-179.553
-323.751
114.043
-1271.3
-461.563
-37.8636
-104.282
-151.929
-151.925
-166.144
-176.469
-175.54
-187.02
-177.231
-198.792
-179.637
-320.993
113.981
-1266.03
-461.548
-37.7245
-104.204
-151.714
-151.766
-166.051
-176.283
-175.258
-186.45
-176.802
-197.928
-179.147
-318.058
115.756
-1257.3
-461.624
-37.7338
-104.164
-151.558
-151.64
-165.957
-176.07
-175.05
-185.893
-176.382
-197.087
-178.734
-315
116.163
-1249.68
-461.689
-37.7619
-104.138
-151.414
-151.462
-165.811
-175.835
-174.795
-185.069
-175.801
-195.907
-178.412
-312.746
116.569
-1241.99
-461.796
-37.856
-104.149
-151.328
-151.285
-165.644
-175.586
-174.495
-184.347
-175.322
-194.882
-178.223
-310.56
117.064
-1234.4
-461.85
-37.843
-104.156
-151.268
-151.133
-165.457
-175.295
-174.167
-183.603
-174.828
-194.01
-178.493
-308.67
116.345
-1228.59
-461.854
-37.7182
-104.152
-151.234
-151.099
-165.352
-175.063
-173.939
-183.234
-174.538
-193.383
-178.106
-306.91
117.363
-1221.06
-461.821
-37.5501
-104.137
-151.225
-151.071
-165.227
-174.789
-173.688
-183.104
-174.448
-193.167
-178.098
-305.316
117.846
-1216.98
-461.842
-37.4664
-104.142
-151.289
-151.062
-165.083
-174.51
-173.4
-182.924
-174.243
-192.998
-178.284
-304.2
119.239
-1211.95
-461.879
-37.4114
-104.144
-151.354
-151.011
-164.922
-174.287
-173.193
-182.714
-174.142
-192.927
-178.555
-304.707
118.529
-1205.18
-461.981
-37.5297
-104.22
-151.494
-151.006
-164.758
-174.022
-172.958
-182.362
-173.835
-192.786
-178.976
-304.814
117.915
-1198.95
-462.035
-37.576
-104.259
-151.566
-150.962
-164.64
-173.891
-172.886
-182.349
-173.8
-192.886
-178.779
-306.797
115.993
-1191.35
-462.178
-37.8188
-104.353
-151.766
-150.989
-164.466
-173.585
-172.63
-182.222
-173.543
-192.687
-178.058
-307.031
117.823
-1186.12
-557.339
-64.2315
-115.575
-178.267
-172.572
-187.948
-202.621
-199.078
-221.597
-203.361
-248.021
-208.594
-440.083
150.471
-1710.21
-557.285
-64.0385
-115.473
-178.026
-172.324
-187.782
-202.326
-198.727
-220.549
-202.578
-246.708
-207.858
-439.142
152.183
-1681.84
-557.342
-63.9491
-115.392
-177.875
-172.197
-187.675
-202.089
-198.467
-219.735
-202.07
-245.557
-208.547
-435.014
148.857
-1664.45
-557.336
-63.8296
-115.331
-177.677
-171.982
-187.492
-201.721
-198.048
-218.761
-201.42
-243.785
-208.144
-428.705
148.713
-1644.91
-557.429
-63.7994
-115.316
-177.534
-171.807
-187.318
-201.366
-197.764
-217.877
-200.884
-242.018
-208.159
-422.107
146.513
-1629.73
-557.501
-63.7375
-115.331
-177.415
-171.606
-187.09
-200.96
-197.398
-216.64
-200.128
-239.906
-207.943
-416.947
144.341
-1614.65
-557.619
-63.7079
-115.395
-177.35
-171.424
-186.853
-200.579
-197.006
-215.548
-199.545
-238.089
-207.863
-414.732
140.381
-1599.53
-557.69
-63.6357
-115.414
-177.295
-171.278
-186.622
-200.167
-196.554
-214.41
-198.887
-236.49
-208.529
-409.36
141.682
-1597.13
-557.735
-63.5867
-115.372
-177.245
-171.227
-186.507
-199.898
-196.273
-213.922
-198.52
-235.221
-208.186
-405.503
145.264
-1594.46
-557.74
-63.5227
-115.308
-177.213
-171.195
-186.393
-199.613
-195.922
-213.686
-198.355
-235.006
-208.612
-404.816
145.082
-1581.72
-557.795
-63.5332
-115.306
-177.261
-171.203
-186.275
-199.359
-195.565
-213.485
-198.107
-234.812
-208.765
-403.697
142.291
-1570.24
-557.85
-63.5264
-115.32
-177.324
-171.195
-186.144
-199.173
-195.309
-213.326
-198.071
-235.25
-210.323
-402.245
144.441
-1563.75
-557.976
-63.6503
-115.407
-177.466
-171.246
-186.021
-198.967
-195.039
-212.969
-197.649
-235.386
-209.984
-403.867
148.343
-1561.45
-558.033
-63.6735
-115.455
-177.549
-171.259
-185.944
-198.902
-194.993
-213.248
-197.868
-236.671
-209.846
-412.341
145.678
-1546.99
-558.196
-63.8677
-115.56
-177.739
-171.36
-185.842
-198.698
-194.764
-213.348
-197.736
-237.22
-209.413
-416.335
150.249
-1535.4
-660.829
-93.5702
-129.183
-208.837
-199.866
-216.632
-239.182
-230.768
-272.425
-237.731
-327.581
-234.289
-645.327
194.095
-2292.99
-660.819
-93.3926
-129.084
-208.603
-199.538
-216.326
-238.585
-230.203
-270.713
-236.62
-325.321
-235.206
-636.419
213.665
-2247.58
-660.928
-93.2855
-128.999
-208.444
-199.344
-216.13
-238.168
-229.853
-269.297
-235.851
-322.143
-235.024
-613.028
204.675
-2209.91
-660.945
-93.1612
-128.955
-208.266
-199.067
-215.84
-237.529
-229.264
-267.592
-234.972
-318.472
-237.184
-598.321
199.607
-2157.05
-661.067
-93.1036
-128.945
-208.15
-198.847
-215.578
-236.964
-228.867
-266.09
-234.281
-314.534
-238.389
-581.634
195.371
-2130.66
-661.155
-93.0124
-128.966
-208.067
-198.633
-215.279
-236.328
-228.355
-264.149
-233.365
-310.642
-239.569
-571.347
193.784
-2110.34
-661.286
-92.9762
-129.029
-208.037
-198.479
-214.992
-235.784
-227.846
-262.474
-232.553
-307.502
-240.52
-561.229
203.291
-2099.82
-661.372
-92.9181
-129.057
-207.993
-198.364
-214.742
-235.269
-227.27
-260.818
-231.684
-305.1
-240.872
-557.254
193.947
-2093.81
-661.464
-92.9075
-129.044
-207.925
-198.316
-214.621
-235.028
-226.958
-260.312
-231.224
-303.671
-241.308
-558.09
184.983
-2049.03
-661.536
-92.8649
-129.004
-207.868
-198.298
-214.533
-234.844
-226.552
-260.148
-230.928
-302.627
-241.499
-546.681
181.7
-2041.54
-661.663
-92.9
-129.028
-207.908
-198.36
-214.471
-234.75
-226.174
-260.193
-230.687
-303.492
-244.062
-541.512
195.083
-2046.12
-661.757
-92.9015
-129.048
-207.971
-198.428
-214.415
-234.74
-225.904
-260.326
-230.468
-305.069
-242.582
-549.69
200.336
-2033.58
-661.924
-93.0305
-129.14
-208.13
-198.581
-214.386
-234.759
-225.68
-260.522
-230.419
-308.615
-244.5
-560.826
199.539
-2016.77
-661.995
-93.0499
-129.182
-208.225
-198.674
-214.386
-234.869
-225.645
-261.322
-230.284
-311.254
-243.501
-571.484
195.42
-1980.01
-662.18
-93.2478
-129.292
-208.43
-198.885
-214.41
-234.903
-225.466
-261.87
-229.985
-312.344
-240.164
-575.551
208.179
-1967.74
-771.28
-131.055
-146.24
-246.656
-236.901
-254.908
-290.659
-273.503
-347.177
-280.48
-452.612
-246.902
-911.675
252.198
-3065.75
-771.338
-130.874
-146.156
-246.438
-236.504
-254.494
-289.667
-272.752
-344.451
-279.213
-449.173
-240.644
-1012.39
260.828
-2828.22
-771.515
-130.736
-146.074
-246.294
-236.262
-254.235
-289.035
-272.386
-342.495
-278.701
-445.252
-251.274
-941.086
277.876
-2820.04
-771.585
-130.606
-146.046
-246.149
-235.942
-253.882
-288.066
-271.668
-339.612
-277.59
-436.256
-253.405
-871.41
293.49
-2763.75
-771.759
-130.54
-146.04
-246.067
-235.718
-253.579
-287.247
-271.188
-337.034
-276.87
-427.28
-258.125
-819.743
272.997
-2731.87
-771.897
-130.451
-146.061
-246.023
-235.533
-253.266
-286.366
-270.529
-333.945
-275.636
-418.581
-259.973
-790.304
266.208
-2707.38
-772.075
-130.443
-146.118
-246.039
-235.454
-252.996
-285.687
-269.917
-331.37
-274.55
-411.106
-257.359
-809.049
226.257
-2631.6
-772.219
-130.413
-146.157
-246.029
-235.413
-252.777
-285.143
-269.239
-328.906
-273.574
-405.421
-263.156
-747.313
239.119
-2703.88
-772.39
-130.427
-146.199
-245.989
-235.432
-252.681
-285.064
-268.957
-328.346
-273.159
-399.861
-261.498
-721.487
260.928
-2734.13
-772.54
-130.402
-146.217
-245.948
-235.492
-252.642
-285.169
-268.604
-328.601
-273.138
-400.67
-269.791
-724.863
294.255
-2728.66
-772.735
-130.474
-146.297
-246.023
-235.688
-252.679
-285.472
-268.275
-329.284
-272.564
-402.615
-265.26
-741.511
255.495
-2668.89
-772.873
-130.499
-146.348
-246.104
-235.892
-252.735
-285.909
-268.109
-330.618
-272.79
-409.476
-272.249
-727.519
261.442
-2652.09
-773.078
-130.673
-146.478
-246.308
-236.227
-252.862
-286.422
-267.958
-331.758
-272.03
-415.32
-263.441
-742.776
275.097
-2646.69
-773.165
-130.719
-146.525
-246.419
-236.439
-252.976
-286.956
-268.111
-334.242
-272.568
-426.407
-258.158
-815.243
286.504
-2631.03
-773.368
-130.967
-146.666
-246.671
-236.832
-253.198
-287.562
-268.262
-336.552
-273.375
-434.468
-263.401
-899.011
300.891
-2594.32
-883.009
-176.47
-164.662
-289.158
-279.972
-297.771
-352.209
-323.568
-444.874
-324.864
-626.75
-253.3
-1109.29
337.269
-4550.98
-883.147
-176.313
-164.576
-288.969
-279.502
-297.283
-350.754
-322.657
-441.098
-322.253
-630.383
-221.881
-1388.38
273.658
-3815.64
-883.409
-176.145
-164.485
-288.851
-279.226
-296.995
-349.87
-322.428
-438.017
-323.706
-616.622
-230.963
-1366.6
319.811
-3547.73
-883.56
-176.012
-164.468
-288.736
-278.868
-296.628
-348.536
-321.852
-434.037
-324.255
-612.254
-251.905
-1367.64
291.578
-3333.74
-883.812
-175.936
-164.464
-288.676
-278.659
-296.35
-347.49
-321.528
-430.078
-324.868
-593.925
-264.79
-1163.89
336.985
-3447.99
-884.036
-175.845
-164.486
-288.657
-278.51
-296.085
-346.416
-320.979
-425.509
-325.027
-576.962
-271.313
-1130.67
310.744
-3408.42
-884.298
-175.843
-164.547
-288.7
-278.527
-295.905
-345.763
-320.523
-421.949
-325.188
-560.29
-281.558
-1037.32
335.879
-3468.59
-884.535
-175.827
-164.604
-288.723
-278.592
-295.758
-345.413
-319.977
-419.198
-324.918
-549.498
-285.51
-967.444
361.93
-3652.66
-884.801
-175.881
-164.702
-288.752
-278.744
-295.727
-345.789
-320.026
-419.726
-325.684
-547.917
-287.275
-1128.64
343.182
-3435.79
-885.032
-175.909
-164.779
-288.768
-278.95
-295.75
-346.516
-319.921
-421.526
-324.858
-549.702
-257.904
-1156.23
221.703
-3317.68
-885.299
-176.055
-164.931
-288.911
-279.362
-295.924
-347.656
-319.957
-424.974
-325.357
-561.411
-287.374
-997.29
310.013
-3487.96
-885.491
-176.141
-165.024
-289.023
-279.76
-296.107
-348.933
-320.039
-429.059
-324.795
-571.885
-252.151
-1049.06
393.684
-3471.8
-885.743
-176.395
-165.218
-289.291
-280.362
-296.443
-350.457
-320.313
-434.897
-324.855
-613.047
-255.025
-1311.92
367.941
-3497.19
-885.857
-176.484
-165.284
-289.415
-280.724
-296.673
-351.68
-320.714
-440.808
-324.372
-648.549
-248.518
-1598.43
267.3
-3154.84
-886.091
-176.808
-165.486
-289.734
-281.369
-297.129
-353.122
-321.295
-445.148
-325.439
-652.756
-242.084
-1622.3
380.991
-3046.9
-995.373
-237.683
-190.196
-342.019
-339.627
-355.157
-434.021
-387.265
-568.778
-372.374
-831.42
-251.028
-1379.22
743.128
-6085.51
-995.616
-237.576
-190.133
-341.908
-339.143
-354.765
-432.053
-386.712
-562.963
-370.779
-835.122
-240.822
-1606.68
425.48
-5140.9
-995.987
-237.386
-190.05
-341.855
-338.901
-354.574
-430.983
-386.745
-559.038
-370.438
-819.767
-207.917
-1657
499.118
-4728.71
-996.265
-237.28
-190.07
-341.827
-338.586
-354.361
-429.348
-386.672
-553.251
-372.783
-812.43
-232.506
-1670.39
505.197
-4441.98
-996.633
-237.221
-190.104
-341.848
-338.496
-354.28
-428.317
-386.936
-548.63
-375.737
-797.32
-261.274
-1488.68
536.227
-4542.66
-996.99
-237.164
-190.179
-341.913
-338.511
-354.22
-427.378
-386.849
-542.884
-377.02
-772.044
-274.511
-1344.34
508.91
-4574.29
-997.378
-237.201
-190.31
-342.039
-338.772
-354.286
-427.143
-386.893
-538.44
-379.07
-743.471
-281.09
-1207.42
612.674
-4782.32
-997.744
-237.243
-190.449
-342.156
-339.124
-354.342
-427.464
-386.77
-536.482
-380.956
-731.864
-304.942
-1174.65
428.47
-4904.06
-998.13
-237.382
-190.66
-342.322
-339.649
-354.49
-428.686
-387.108
-537.343
-381.746
-709.086
-251.441
-1470.09
132.774
-4236.39
-998.469
-237.508
-190.848
-342.457
-340.242
-354.65
-430.549
-387.429
-542.705
-382.856
-728.365
-282.632
-1250.41
370.993
-4435.22
-998.829
-237.763
-191.13
-342.73
-341.115
-355.02
-433.023
-387.803
-549.612
-383.206
-742.128
-263.174
-1295.56
465.597
-4605.97
-999.099
-237.943
-191.321
-342.912
-341.895
-355.323
-435.594
-388.071
-559.064
-382.691
-795.462
-282.059
-1592.62
251.011
-4568.27
-999.417
-238.298
-191.642
-343.289
-342.959
-355.878
-438.491
-388.462
-569.255
-380.058
-853.075
-261.885
-1844.52
26.6881
-4040.56
-999.574
-238.448
-191.766
-343.439
-343.567
-356.162
-440.435
-388.578
-575.603
-376.412
-862.696
-236.399
-1671.62
128.835
-3759
-999.849
-238.862
-192.09
-343.856
-344.616
-356.855
-442.978
-389.298
-581.756
-375.314
-862.607
-217.388
-1543.4
200.021
-3756.68
-1096.93
-308.261
-217.774
-397.284
-400.929
-410.125
-512.7
-449.41
-691.633
-420.911
-1039.14
-271.864
-1854.07
1913.93
-7922.69
-1097.27
-308.218
-217.72
-397.235
-400.357
-409.818
-509.636
-449.365
-678.28
-419.921
-1000.86
-258.586
-1687.81
1261.94
-7620.21
-1097.75
-308.024
-217.631
-397.237
-400.122
-409.781
-508.335
-450.333
-674.063
-423.607
-999.182
-242.282
-1862.8
864.192
-6691.22
-1098.15
-307.954
-217.67
-397.274
-399.786
-409.7
-506.222
-451.092
-665.358
-426.837
-979.851
-212.223
-1930.51
915.128
-6376.08
-1098.63
-307.915
-217.721
-397.344
-399.759
-409.791
-505.229
-452.416
-660.507
-435.173
-971.211
-262.398
-1923.45
942.343
-6296.94
-1099.12
-307.902
-217.833
-397.456
-399.871
-409.862
-504.454
-453.188
-654.536
-440.68
-942.743
-303.968
-1603.22
944.511
-6581.77
-1099.64
-307.987
-218.021
-397.625
-400.322
-410.052
-504.734
-453.764
-650.518
-444.263
-911.255
-319.374
-1484.35
1161.04
-6632.61
-1100.14
-308.098
-218.233
-397.788
-400.933
-410.176
-505.769
-454.133
-650.216
-449.708
-897.498
-355.714
-1408.09
1120.45
-6737.72
-1100.66
-308.326
-218.545
-398.041
-401.861
-410.377
-508.027
-454.774
-654.341
-452.019
-884.787
-348.475
-1421.66
1058.52
-6322.56
-1101.12
-308.548
-218.832
-398.242
-402.876
-410.514
-511.151
-455.366
-664.726
-453.153
-919.679
-336.604
-1394.37
1006.13
-6862.62
-1101.6
-308.917
-219.246
-398.606
-404.267
-410.939
-515.201
-456.003
-678.347
-453.81
-980.756
-368.542
-1974.88
160.819
-6552.81
-1101.97
-309.195
-219.534
-398.822
-405.464
-411.196
-519.131
-456.178
-692.312
-451.513
-1032.1
-326.674
-2064.28
-6.10951
-5469.79
-1102.37
-309.675
-220.002
-399.288
-407.052
-411.868
-523.441
-456.595
-705.011
-447.595
-1069.98
-291.689
-1873.86
63.0616
-4616.63
-1102.59
-309.896
-220.187
-399.444
-407.928
-412.109
-526.153
-456.592
-712.865
-444.56
-1085.5
-304.133
-1744.03
-39.009
-4661.29
-1102.93
-310.437
-220.664
-399.96
-409.454
-412.998
-529.727
-457.517
-717.869
-443.551
-1051.48
-312.487
-1280.32
165.319
-5427.71
-1174.08
-421.931
-267.193
-465.501
-504.682
-502.025
-647.24
-548.511
-873.929
-488.796
-1429.35
-192.396
-3179.87
1705.85
-10391.9
-1174.52
-422.058
-267.231
-465.654
-504.057
-502.168
-642.205
-549.902
-846.746
-497.581
-1308.38
-256.431
-2266.1
2048.24
-10381.2
-1175.07
-421.961
-267.198
-465.808
-503.827
-502.464
-639.702
-551.647
-833.509
-503.391
-1257.55
-322.26
-2289.24
1802.18
-9735.07
-1175.62
-422.048
-267.335
-466.074
-503.623
-502.864
-636.507
-553.469
-817.15
-507.233
-1224.02
-277.663
-2466.01
1443.66
-8860.02
-1176.23
-422.17
-267.5
-466.349
-503.911
-503.46
-635.591
-556.186
-809.849
-515.919
-1203.75
-280.241
-2366.05
1512.33
-8828.22
-1176.87
-422.365
-267.788
-466.69
-504.538
-504.04
-635.549
-558.439
-803.617
-526.233
-1167.39
-345.459
-1882.32
1863.18
-9308.44
-1177.53
-422.655
-268.194
-467.069
-505.729
-504.746
-637.665
-561.028
-804.142
-538.05
-1137.16
-361.556
-1972.39
2314.96
-9207.09
-1178.17
-422.986
-268.672
-467.425
-507.262
-505.249
-641.142
-562.714
-811.41
-550.136
-1173.32
-447.718
-2065.23
1465.51
-9343.19
-1178.81
-423.425
-269.296
-467.867
-509.33
-505.8
-646.571
-564.371
-823.85
-555.589
-1192.18
-431.74
-2689.64
952.884
-7635.87
-1179.4
-423.856
-269.904
-468.195
-511.526
-506.058
-653.045
-565.195
-843.02
-561.46
-1255.99
-490.788
-2665.1
1077.73
-7211.27
-1179.97
-424.415
-270.679