/*--------------------------------*- C++ -*----------------------------------*\
| =========                 |                                                 |
| \\      /  F ield         | OpenFOAM: The Open Source CFD Toolbox           |
|  \\    /   O peration     | Version:  4.1                                   |
|   \\  /    A nd           | Web:      www.OpenFOAM.org                      |
|    \\/     M anipulation  |                                                 |
\*---------------------------------------------------------------------------*/
FoamFile
{
    version     2.0;
    format      ascii;
    class       surfaceScalarField;
    location    "29";
    object      phi;
}
// * * * * * * * * * * * * * * * * * * * * * * * * * * * * * * * * * * * * * //

dimensions      [0 3 -1 0 0 0 0];

internalField   nonuniform List<scalar> 
19125
(
72.8688
-1.1312
1373.05
77.8216
-3.09278
1500.36
61.8927
-3.18334
1343.25
49.8686
-1.52286
1051.82
42.6172
2.61405
924.456
32.1444
4.57557
759.583
24.9612
6.36685
698.787
16.6721
1.01011
560.427
2.87433
-1.81857
305.491
-5.33483
-2.46102
127.919
-21.1483
0.813592
378.594
-43.8741
1.29683
760.897
-71.4771
-1.47996
1394.16
-75.2624
-3.59582
1621.82
-0.357007
1789.67
72.377
-1.52066
1372.62
77.3222
-4.20808
1500.2
61.6611
-3.78574
1355.27
49.7896
-1.25263
1076.58
42.5657
3.42053
944.691
32.4122
5.47019
768.332
24.9448
7.66029
677.811
16.5146
0.740524
526.425
3.18772
-2.50151
294.669
-5.24113
-1.90086
134.673
-21.8416
1.39794
360.599
-44.3742
-0.708446
748.042
-71.5679
-1.59796
1403.54
-75.6853
-4.30207
1608.32
-0.508419
1770.67
71.8636
-1.74637
1372.98
76.8296
-5.09394
1504.24
61.5392
-4.13179
1369.22
49.977
-1.05058
1094.8
42.7043
3.76871
952.916
32.9931
5.60702
772.791
25.1286
7.4919
644.4
15.9694
1.80566
498.066
3.41355
-1.59186
312.523
-5.89681
0.588349
148.702
-23.3294
0.971629
339.905
-44.9932
-4.95478
740.958
-72.0882
-1.30352
1402.16
-77.1637
-3.2971
1588.41
-0.964022
1729.96
71.4136
-1.78019
1368.89
76.5375
-5.75874
1504.3
61.7114
-4.20732
1380.95
50.4302
-0.884663
1111.27
43.0093
3.74178
959.773
33.2354
5.35943
772.196
24.4056
7.72734
626.41
14.4933
4.82544
492.699
3.42688
0.961236
350.179
-6.02671
4.58537
173.202
-22.9782
-0.821404
356.402
-44.8317
-6.4519
785.816
-71.9692
-1.19677
1405.72
-76.3107
-2.69697
1606.54
-1.16137
1743.93
71.1277
-1.54633
1359.56
76.2141
-5.73945
1504.59
61.8042
-3.89684
1395.58
50.7488
-0.827407
1129.68
43.284
3.15245
966.783
33.4409
4.79261
768.43
24.0909
8.50697
618.102
15.0554
6.56361
485.515
3.49347
-0.0301746
287.487
-5.55328
6.68782
156.315
-21.1784
-2.71878
429.595
-44.4013
1.57667
889.52
-72.1806
-0.519323
1394.55
-75.7648
-2.80251
1615.06
-1.20487
1751.33
71.1936
-0.985213
1342.47
75.9561
-4.44931
1501.36
61.8416
-2.91544
1409.98
50.9321
-0.736435
1149.26
43.5298
1.96664
975.725
34.1278
3.48406
769.687
25.759
6.80895
606.098
16.5552
2.96075
405.298
3.54572
-1.21624
223.028
-4.88456
6.38512
114.983
-21.7124
-2.79255
405.94
-44.7119
6.44925
848.818
-72.3092
-0.366505
1401.81
-75.6219
-2.73959
1622.55
-1.10603
1751.08
71.8465
-0.150324
1316.11
75.9368
-1.32857
1491.13
61.8386
-0.90866
1419.41
50.8699
-0.263632
1167.41
43.4002
0.561533
986.629
34.7391
1.31829
779.905
25.7665
3.31112
575.402
15.909
2.56591
390.793
3.996
-1.22094
245.839
-2.14123
-2.29959
62.9791
-24.5068
-0.527259
331.865
-45.2546
3.34242
782.001
-72.383
-0.420953
1414.54
-76.1311
-1.67054
1617.62
-0.989336
1736.03
72.2205
0.717134
1305.03
76.0733
2.41023
1484.4
61.9286
1.49413
1419.32
50.8877
0.443497
1171.79
43.345
-0.784748
989.737
35.0398
-1.02011
787.343
26.7271
-1.83688
568.356
16.14
0.545104
358.113
3.4628
0.858417
227.84
-5.20148
-3.03967
86.0562
-25.3664
-0.169896
312.259
-46.0035
-4.22281
730.036
-72.8553
-0.508724
1415.38
-77.4185
0.801438
1600.38
-1.22891
1704.95
71.6496
1.4501
1323.27
75.8993
5.07642
1493.07
61.8176
3.31825
1417.68
50.8837
0.87125
1164.34
43.4804
-2.10149
985.684
35.0663
-3.29353
782.138
27.267
-7.09085
573.741
17.5645
-4.03103
351.917
3.06215
1.62667
193.701
-6.30202
0.372497
120.118
-23.1627
0.183969
358.471
-45.4397
-8.0945
751.457
-72.2436
-0.829936
1421.04
-75.9298
1.90736
1620.87
-1.15594
1739.73
71.1163
1.90923
1348.44
75.9274
6.05541
1502.17
61.7877
4.17199
1407.45
50.9127
0.948839
1145.61
43.6383
-3.19582
975.187
34.5867
-4.99067
770.336
25.9557
-9.30431
591.947
16.7039
-6.6545
404.869
2.83653
0.912796
211.088
-5.36175
1.01143
129.617
-19.8534
3.00122
470.569
-44.8015
-1.62956
834.786
-72.3274
-0.634676
1404.26
-75.3263
1.77543
1625.82
-0.947569
1756.07
71.1092
2.0536
1364.97
76.169
5.85919
1505.17
61.7159
4.37214
1392.91
50.7155
0.980661
1125.93
43.4502
-3.81775
965.215
33.736
-5.69039
765.797
24.3484
-8.46101
614.062
15.0951
-4.62274
479.898
3.79551
0.451378
285.379
-4.69873
0.542465
113.11
-21.6805
2.02594
428.037
-44.6862
6.61187
902.889
-72.302
0.26785
1399.38
-75.5884
1.78104
1619.67
-0.737339
1752.5
71.4389
1.93048
1373.5
76.5021
5.05151
1504.48
61.6184
4.21953
1378.03
50.397
1.11974
1107.25
43.1655
-3.885
957.078
33.4103
-5.9069
768.385
24.5728
-7.7097
625.451
15.0084
-1.57615
495.725
3.75757
2.60294
327.483
-6.1798
5.04837
148.042
-22.9531
0.566827
375.224
-45.1485
7.64439
819.837
-72.1615
0.790102
1409.81
-76.1645
2.62352
1612.07
-0.562141
1743.48
71.9184
1.63132
1376.75
76.796
4.10592
1504.34
61.4358
3.82796
1366.44
49.93
1.29503
1090.81
42.8133
-3.53657
949.425
33.256
-5.72626
770.935
25.4359
-7.69628
639.67
16.7616
-0.287562
500.843
4.07465
3.01474
292.615
-6.88816
10.658
138.164
-24.361
-0.88027
331.221
-45.7667
3.13925
754.171
-72.3965
1.2277
1410.27
-76.9917
3.8546
1593.8
-0.681763
1729.65
72.4484
1.19099
1375.76
77.2914
2.98022
1500.25
61.5557
3.18951
1352.59
49.7276
1.54021
1072.41
42.6659
-2.71034
940.942
32.7366
-4.78532
767.133
25.6366
-6.6914
672.879
17.5746
-1.03747
514.212
4.41316
2.66673
281.003
-6.27774
13.631
113.798
-23.7786
-1.73026
333.529
-45.3638
-0.246467
755.224
-71.9949
1.15805
1411.94
-75.5369
3.29032
1612.93
-0.505344
1769.89
72.9437
1375.71
77.7809
1500.54
61.7707
1341.05
49.7735
1047.98
42.6755
920.835
32.4228
758.459
25.4426
693.921
17.8004
559.575
3.89626
294.634
-5.46905
82.3921
-22.399
360.858
-44.9531
767.695
-72.0051
1402.61
-75.1143
1625.96
1788.76
218.06
-3.09438
1304.06
230.587
-8.66125
1491.24
192.865
-9.88043
1384.55
151.979
-5.77806
1094.4
128.75
6.86817
944.879
98.1908
13.288
785.323
75.3408
19.5469
714.168
50.0422
4.60685
584.488
11.731
-5.51374
346.247
-16.7973
-6.96073
158.369
-63.3248
2.05363
424.28
-132.585
2.52777
830.435
-203.405
-5.50171
1467.11
-220.808
-10.1156
1643.36
-0.0141659
1793.1
216.527
-4.09135
1304.6
228.995
-11.6285
1490.7
192.113
-11.8146
1394.09
151.838
-5.24972
1116.33
128.747
9.13962
965.511
98.8035
15.6844
795.88
75.1327
23.1781
697.852
49.283
4.10903
552.775
12.3724
-7.65466
333.725
-16.3584
-5.70378
162.154
-65.2452
3.18001
408.362
-134.165
-3.05412
822.545
-203.934
-6.07531
1473.88
-222.189
-12.1053
1628.57
-0.184181
1774.99
215.043
-4.60944
1305.71
227.419
-13.9472
1494.19
191.532
-13.0025
1406.3
152.162
-4.67355
1133.6
129.119
10.1143
974.986
100.284
15.974
801.337
75.9057
22.337
669.622
48.0898
6.58286
523.41
12.1316
-4.64538
345.476
-18.2451
0.00123244
173.381
-68.9936
1.21997
392.616
-136.067
-14.0156
818.994
-206.178
-4.55711
1470.75
-227.127
-9.75319
1607
-2.41997
1735.5
213.699
-4.55875
1302.52
226.35
-15.7135
1493.42
191.858
-13.5837
1416.03
153.441
-4.14871
1149.16
130.112
10.0672
983.151
101.027
15.1776
802.078
74.0508
22.4276
653.298
43.9464
14.3933
514.996
11.5385
2.70923
375.237
-18.1039
8.56831
194.284
-67.6988
-3.33991
410.56
-135.608
-17.1276
856.839
-205.349
-4.01521
1474.92
-224.321
-8.22946
1623.99
-3.37036
1749.25
212.89
-3.7369
1293.91
225.328
-15.5978
1492.04
191.915
-12.9331
1428.34
154.236
-3.75422
1166.97
130.911
8.41933
991.758
101.605
13.3006
799.613
73.2017
23.9232
645.012
45.2108
19.1755
508.727
12.2338
0.735225
322.444
-17.0603
12.639
181.547
-63.4101
-6.72873
479.337
-134.222
3.70575
939.5
-205.406
-2.33277
1464.05
-222.495
-8.35108
1632.27
-3.47744
1756.67
213.164
-2.13164
1277.28
224.763
-11.9904
1486.16
191.851
-9.91167
1439.88
154.684
-3.05614
1185.73
131.614
5.13201
1002.08
103.382
9.39072
801.83
77.573
19.2336
636.6
49.3308
10.0293
442.69
13.3891
-2.92054
262.633
-15.2297
11.3022
144.95
-64.9301
-5.76431
454.68
-135.272
16.2071
906.661
-205.707
-2.12155
1472.03
-222.036
-7.91697
1638.45
-2.99553
1756.17
215.181
-0.114642
1251.02
225.255
-3.53142
1472.6
191.731
-3.11255
1446.13
154.487
-1.06404
1202.67
131.182
1.37334
1013.69
104.713
3.37278
812.393
78.1577
8.88872
612.304
48.3928
7.29824
423.293
16.9312
-4.54339
278.931
-10.619
-3.87258
105.72
-71.6479
-2.18604
389.32
-136.911
8.63294
854.841
-206.324
-1.9958
1483.83
-223.718
-4.85256
1631.95
-2.76347
1741.08
216.339
1.79489
1239.94
225.874
6.52345
1464.81
191.966
5.14931
1444.97
154.567
1.64134
1206.48
131.002
-2.13285
1016.81
105.401
-2.99783
819.316
80.6251
-5.70916
607.733
49.3015
0.197187
396.542
13.0267
0.836314
258.743
-16.6915
-5.8092
117.723
-74.1553
-2.66567
370.207
-139.246
-10.4317
814.193
-208.466
-1.04865
1483.66
-227.91
1.57414
1613.4
-4.67272
1710.98
214.601
3.57978
1258.23
224.969
13.7448
1475.49
191.674
11.1741
1444.95
154.51
3.47448
1199.67
131.376
-5.64058
1012.33
105.519
-9.16931
814.168
81.8493
-20.2081
611.913
53.086
-13.3209
394.203
12.3459
2.93811
232.348
-18.6376
2.10349
143.201
-69.1346
-1.70673
408.013
-137.615
-20.6495
830.157
-206.033
-1.72804
1490.14
-223.062
4.67529
1634.8
-4.75155
1744.76
212.92
4.8864
1283.26
224.604
16.4789
1487.75
191.705
13.706
1437.82
154.607
4.11008
1182.07
131.846
-8.62822
1000.94
104.523
-13.9678
802.458
78.24
-26.4734
624.499
49.9079
-20.2852
440.17
11.4686
0.965685
251.508
-16.1255
3.23941
156.087
-60.9469
7.48284
506.205
-135.685
-4.92569
893.802
-205.811
-1.49175
1474.15
-221.053
4.64479
1641.1
-3.89869
1760.3
212.827
5.41348
1299.29
225.195
16.0277
1493.26
191.67
14.0101
1426.13
154.093
4.42947
1163.19
131.3
-10.3388
989.721
102.417
-16.2131
796.926
73.974
-24.7944
640.829
45.5035
-14.7125
502.8
13.6345
-0.18142
318.402
-14.8354
0.863151
143.968
-64.5955
6.58485
478.699
-135.232
16.9781
951.624
-205.99
0.901489
1467.74
-221.879
4.8726
1635.33
-3.03896
1756.11
213.749
5.19462
1307.1
226.259
13.8768
1494.13
191.591
13.1834
1413.52
153.286
4.87156
1145.11
130.467
-10.4795
980.04
101.516
-16.9555
798.079
74.4866
-23.278
650.966
45.3115
-6.61971
516.81
12.649
6.24847
353.721
-18.574
10.3224
169.814
-67.9018
3.27943
427.86
-136.66
20.2265
885.349
-206.17
2.72608
1477.5
-223.818
7.16292
1627.43
-2.55866
1746.31
215.168
4.46037
1309.44
227.341
11.3799
1494.67
191.229
11.8531
1403.88
151.96
5.36868
1129.59
129.336
-9.49559
971.068
100.964
-16.5287
798.882
76.7296
-23.6002
664.23
50.1311
-3.32318
524.15
13.9795
8.73479
326.289
-20.7743
23.777
159.479
-71.6292
-1.07366
386.436
-138.575
9.10561
832.241
-207.374
4.74212
1477.05
-226.631
10.2648
1609.95
-3.67259
1732.5
216.705
3.30167
1307.68
228.935
8.37169
1491.03
191.805
9.82916
1391.74
151.596
5.82346
1112.16
128.936
-7.16274
961.273
99.6265
-13.9521
793.87
76.9657
-20.6161
692.56
52.2045
-5.08613
540.743
15.7045
8.20476
318.045
-19.3517
31.9514
140.7
-70.1027
-3.8078
387.023
-137.32
0.436065
831.114
-205.47
4.38348
1480.45
-221.856
8.80986
1630.77
-2.82913
1771.21
218.247
1306.65
230.503
1491.6
192.507
1382.62
151.636
1090.56
128.804
940.734
98.8812
783.288
76.6778
708.495
53.2292
581.998
15.9606
334.645
-18.0634
119.471
-66.8906
409.008
-136.076
838.483
-205.285
1473.5
-220.472
1644.73
1788.76
371.909
-4.48252
1145.67
387.279
-12.0843
1479.91
343.09
-16.3385
1433.78
265.593
-12.4038
1174.96
218.748
7.98614
988.467
168.207
20.2501
829.695
127.099
32.1751
745.033
83.5031
11.4592
625.465
24.8683
-8.02817
408.352
-31.6021
-10.0263
217.008
-111.234
2.41753
503.429
-231.704
0.998484
952.776
-325.602
-11.6991
1565.28
-377.076
-14.622
1700.1
1.4198
1737.4
369.232
-5.72094
1147.95
384.203
-16.0343
1479.69
341.497
-19.8536
1440.31
265.277
-12.3499
1192.5
218.993
11.2782
1008.5
168.969
23.7651
842.39
126.56
37.5777
734.859
81.7776
11.3238
597.694
25.196
-11.5009
393.782
-31.0842
-9.02208
217.434
-114.42
2.71972
491.398
-234.54
-6.86268
950.527
-327.31
-13.2849
1568.24
-379.782
-17.6619
1684.08
1.31184
1720.1
366.851
-6.0856
1150.23
381.235
-19.0348
1482.81
339.963
-22.3087
1450.03
265.13
-11.6742
1207.76
219.378
12.8063
1019.21
170.901
24.1395
849.44
128.233
35.7175
714.151
80.6653
13.6625
568.642
23.5258
-6.66099
397.778
-34.7435
-2.34454
224.978
-119.919
-1.94418
482.458
-237.846
-20.8503
950.909
-333.409
-9.18629
1562.22
-389.468
-15.2284
1660.63
-3.84701
1681.05
364.607
-5.51441
1148.6
378.958
-21.3663
1481.4
339.949
-24.1992
1456.93
266.942
-10.9903
1221.49
221.195
12.8922
1028.81
172.278
22.8734
852.262
125.934
34.6964
700.664
74.2919
23.5628
556.739
21.4814
3.71915
417.671
-33.7047
6.1174
241.013
-117.332
-8.01922
500.264
-236.907
-23.6261
979.191
-330.527
-7.78711
1567.15
-383.94
-13.5277
1675.71
-6.04663
1695.04
363.36
-3.88338
1141.27
377.182
-21.0508
1477.9
339.522
-23.7943
1465.6
267.767
-9.90974
1237.64
222.405
10.6623
1039.35
173.188
19.5465
852.158
124.765
35.2795
692.853
75.7022
30.0615
551.293
23.2603
1.86107
376.748
-31.7794
8.8785
233.832
-111.152
-9.28009
559.973
-234.346
3.48308
1035.59
-329.285
-5.87385
1557.07
-380.329
-13.6763
1683.47
-6.29601
1702.81
363.856
-1.48635
1125.65
376.689
-16.0313
1468.31
339.047
-18.7143
1472.44
268.147
-7.6532
1254.37
223.428
6.19423
1051.27
175.536
13.2613
856.008
130.719
28.1487
688.549
82.1064
18.2695
503.097
26.7333
-4.56297
324.434
-28.9972
6.51122
203.055
-113.754
-5.8195
535.979
-236.395
19.5751
1013.21
-329.44
-6.23854
1565.44
-379.349
-12.8095
1687.49
-5.22189
1701.87
367.388
0.543912
1099.75
378.834
-4.62938
1449.76
338.763
-5.90613
1473.4
267.65
-2.56037
1268.69
222.596
1.44442
1063.5
176.823
4.36933
867.06
132.433
12.1325
672.712
81.9827
10.9389
481.077
31.8256
-7.2949
331.825
-25.9447
-5.33582
175.346
-123.143
-3.24287
483.945
-239.338
10.3432
980.27
-331.487
-5.44998
1575.19
-382.614
-8.39485
1678.66
-5.03642
1686.18
369.525
1.97497
1088.52
380.527
8.88644
1440.3
339.178
9.96884
1470.45
267.806
3.86487
1271.43
222.278
-2.71353
1066.5
177.505
-4.7318
873.191
135.738
-9.42458
671.059
84.0843
-2.45389
461.592
25.5473
-0.941571
310.932
-34.3516
-6.0995
178.394
-127.833
-7.45687
467.905
-243.59
-13.3402
953.634
-337.206
-1.06112
1572.88
-390.687
-0.131926
1658.62
-10.1486
1656.7
366.573
3.97868
1106.66
378.094
18.698
1454.16
338.658
21.0748
1473.28
267.665
8.54623
1265.99
222.804
-7.10778
1061.58
177.774
-13.5533
868.021
137.098
-30.2193
673.386
89.6212
-23.752
462.981
26.6521
0.514148
293.867
-34.4316
3.68007
194.513
-121.217
-6.94025
494.284
-240.801
-26.6154
963.019
-331.057
-1.58728
1580.92
-381.295
4.22407
1680.68
-11.1028
1690.34
363.571
6.08693
1131.25
376.293
22.5035
1471.23
338.816
25.0489
1471.32
267.981
10.5635
1250.89
223.604
-11.0762
1049.28
176.965
-20.7595
856.305
131.915
-39.7344
679.065
83.3489
-33.5172
498.505
24.8468
-3.40244
313.933
-29.749
4.48687
209.885
-109.735
8.13073
571.123
-237.588
-7.47176
1002.51
-329.585
-2.19092
1566.75
-377.266
4.59898
1688.4
-9.50498
1704.98
363.282
7.31044
1146.38
376.896
21.9677
1480.19
339.134
24.7212
1464.22
267.437
11.4544
1234
222.775
-13.3478
1036.66
174.291
-24.5891
849.241
125.942
-38.9038
688.349
76.309
-25.8772
544.796
26.0678
-4.90425
370.15
-29.3768
0.269934
203.637
-113.215
10.5612
560.11
-236.616
21.7418
1045.81
-330.616
0.926321
1558.63
-378.785
5.08475
1683.02
-7.81002
1699.52
364.714
7.35055
1153.07
378.843
19.0602
1482.91
339.56
22.3871
1455.14
266.585
11.9841
1217.56
221.496
-13.3619
1025.15
172.904
-25.8187
847.903
126.388
-37.9304
696.513
76.0049
-15.1526
556.473
23.2517
4.35968
397.218
-34.6639
9.36077
218.651
-118.409
6.98048
515.191
-239.278
27.1431
1000.82
-332.444
4.66944
1566.92
-382.574
8.21599
1674.43
-7.12742
1687.95
367.082
6.50424
1153.9
381.209
15.788
1483.82
339.531
19.7323
1448.22
264.688
12.5379
1203.88
219.446
-11.8047
1014.76
171.686
-25.2161
846.042
129.19
-38.986
707.786
83.2226
-11.415
566.385
25.5987
9.79883
378.483
-38.3693
24.8149
208.005
-124.507
-0.245684
479.805
-242.875
13.885
963.87
-335.964
9.93729
1564.87
-388.148
12.1738
1658.18
-10.1549
1673.57
369.523
4.93223
1150.92
384.212
11.7629
1480.37
341.054
16.1228
1438.52
264.771
12.471
1188.52
218.995
-8.42191
1003.67
169.877
-21.3448
839.12
128.796
-34.1458
728.805
85.6647
-13.2016
585.666
28.4912
9.84567
375.181
-36.2103
35.0247
195.207
-122.155
-5.23256
477.96
-240.788
2.72311
960.912
-330.485
8.9737
1571.11
-378.844
10.509
1680.8
-7.92853
1710.8
372.208
1148.11
387.258
1480.5
342.568
1432.3
264.918
1171.29
218.507
983.692
168.879
826.302
128.672
738.097
87.6657
620.471
30.2549
394.515
-34.092
183.723
-117.782
492.215
-238.787
962.463
-329.487
1567.51
-376.133
1695.12
1726.71
516.991
-4.74675
923.108
558.732
-12.2193
1441.72
515.888
-20.4763
1482.37
403.627
-20.4811
1291.89
318.765
3.54786
1071
244.158
23.1216
897.946
181.113
41.4764
796.791
116.946
21.0733
685.359
36.2909
-7.91851
492.893
-52.6915
-10.8405
308.222
-175.03
1.61804
626.316
-344.414
-3.50604
1126.03
-462.678
-20.2841
1691.04
-538.486
-15.9161
1781
3.39263
1632.5
513.718
-5.617
927.088
553.88
-15.7381
1443.05
512.812
-25.5353
1486.44
402.481
-21.9105
1304.26
319.03
6.91714
1088.59
244.98
27.3918
912.171
180.362
47.9304
793.024
114.344
21.8268
662.96
35.6483
-12.2115
476.772
-53.1301
-10.8112
306.186
-179.702
0.00235072
619.587
-348.769
-11.8984
1127.99
-466.736
-23.6479
1689.57
-542.548
-19.6749
1763.65
3.50609
1615.92
510.98
-5.15701
930.342
549.468
-17.8929
1446.48
509.832
-29.5249
1493.66
401.094
-21.9232
1316.51
318.893
8.83053
1099.5
246.813
28.0969
920.815
182.894
45.3193
780.682
113.994
22.6992
636.67
32.4461
-6.47229
473.59
-58.8848
-5.1382
310.639
-186.407
-7.69944
617.684
-353.778
-24.6777
1131.06
-480.056
-15.334
1680.18
-557.345
-18.8615
1737.11
-5.70104
1577.39
507.958
-3.32691
930.811
545.535
-19.3307
1445.27
508.669
-33.3165
1497.59
402.719
-21.8204
1327.34
321.398
9.19833
1109.77
248.974
26.7592
926.025
181.033
42.7395
771.185
106.318
31.6767
622.479
29.2215
4.50159
483.796
-56.3807
-0.209868
321.69
-182.521
-14.2864
632.992
-351.914
-26.0887
1150
-473.061
-12.6046
1685.56
-548.561
-18.0201
1750.37
-9.70261
1591.96
505.951
-0.292503
926.011
542.747
-18.3227
1440.1
507.198
-33.9669
1501.8
402.858
-20.18
1340.34
322.65
7.28478
1121.47
250.198
22.349
929.02
179.829
41.1535
764.81
107.482
37.9164
617.402
32.4169
2.55858
453.759
-52.3601
-0.931381
319.335
-174.674
-11.0524
679.054
-348.075
0.435017
1182.46
-469.084
-11.5408
1677.02
-542.854
-18.4873
1757.7
-10.2804
1600.15
506.409
2.20877
913.275
542.766
-13.2877
1426.92
506.198
-27.4717
1502.52
402.613
-15.495
1353.27
323.578
3.4137
1134.18
252.546
14.4645
934.925
186.117
32.0125
764.121
115.771
25.3552
586.007
38.4304
-6.59171
410.929
-49.7668
-3.72298
294.048
-178.713
-4.51884
658.393
-351.273
15.899
1170.31
-468.511
-13.4932
1684.63
-540.975
-17.5136
1758.98
-8.41548
1598.6
510.732
1.7422
890.329
547.877
-3.41911
1402.75
506.405
-8.70359
1496.11
401.613
-5.06079
1363.05
322.089
0.294995
1146.14
253.133
4.14788
946.334
188.728
12.5262
756.605
116.98
12.6801
565.503
42.0295
-9.93505
410.122
-51.1756
-9.43515
274.268
-189.936
-4.02187
622.21
-355.679
7.69049
1154.22
-473.264
-11.4954
1690.78
-545.825
-13.0823
1746.79
-8.20682
1581.9
513.092
0.102593
880.043
551.192
7.63947
1391.15
507.374
14.954
1490.61
401.89
7.76087
1364.1
321.627
-1.691
1148.75
253.42
-5.91855
951.466
192.063
-12.4227
757.366
120.366
-6.84711
552.818
34.7662
-4.18937
390.79
-62.1673
-7.16032
273.057
-197.137
-13.065
611.919
-362.261
-13.4101
1139.86
-485.23
-1.1313
1685.49
-558.431
-5.97851
1724.71
-17.9207
1553.06
509.606
1.04882
896.043
546.465
16.2041
1408.74
506.124
30.8826
1497.7
401.602
17.1686
1361.1
322.231
-4.53559
1143.8
253.872
-15.7605
946.223
193.209
-35.917
757.545
126.666
-33.4601
556.139
39.7504
-5.26904
381.866
-58.268
3.60204
281.774
-189.673
-13.7488
626.375
-358.056
-25.8898
1143.88
-472.474
-1.00475
1695.21
-544.356
-1.54757
1748.13
-20.6633
1586.62
506.441
3.9643
917.274
542.36
20.2879
1431.23
505.941
35.6688
1502.96
402.344
21.198
1350.46
323.522
-7.85639
1131.43
253.813
-24.2043
934.458
187.643
-47.6473
756.967
117.505
-44.8113
579.996
37.6552
-12.0135
400.53
-49.8109
4.08185
296.875
-176.326
5.42438
678.466
-353.83
-8.08391
1162.21
-468.498
-3.55312
1683.97
-537.939
-0.761257
1757.06
-18.7069
1600.04
506.555
6.51822
929.58
542.711
20.6751
1443.64
506.8
34.0033
1501.8
402.297
22.4169
1337.28
322.71
-9.79518
1118.18
251.172
-29.0754
925.65
181.055
-48.9401
759.761
108.078
-37.1743
610.138
35.7595
-13.6476
444.106
-50.7127
-1.2969
295.493
-178.061
13.0245
679.86
-352.159
21.2544
1190.57
-471.219
-0.481156
1674.62
-540.074
0.139857
1750.97
-16.1597
1592.45
508.454
7.55177
934.472
545.559
18.6316
1447.85
508.263
29.5023
1496.94
402.124
22.2085
1323.91
321.353
-9.51583
1105.64
249.396
-30.39
921.174
181.134
-49.3261
765.16
107.671
-26.6757
619.439
31.1528
-3.4493
463.537
-57.8823
4.36588
302.022
-185.133
10.238
645.228
-356.339
27.965
1165.31
-476.328
5.85955
1680.57
-545.842
3.56487
1740.52
-15.0145
1577.95
511.433
7.15064
933.671
549.595
16.0643
1448.22
509.398
25.1865
1492.74
400.387
22.0114
1313.09
318.512
-7.5423
1094.66
247.218
-29.3562
916.304
183.425
-50.8502
773.103
116.163
-23.9923
630.966
33.6521
4.62303
452.924
-64.0107
17.958
292.08
-193.901
1.09855
618.836
-362.253
16.9272
1143.26
-484.423
16.3495
1676.55
-554.912
7.15401
1725.08
-20.4653
1562.27
514.197
5.61807
929.79
554.133
12.3134
1444.19
512.399
20.0581
1485.38
401.7
20.4556
1300.77
318.521
-4.05874
1083.37
245.377
-24.5474
907.457
182.055
-44.4375
785.716
117.997
-24.7035
650.439
37.0509
6.08807
454.666
-61.2189
27.7457
283.695
-190.906
-5.77154
614.52
-359.114
6.22838
1139.82
-472.29
14.4459
1686.19
-540.894
6.11433
1750.44
-15.894
1596.98
517.436
925.26
558.955
1442.61
515.37
1481.49
402.616
1288.69
317.9
1065.81
244.195
893.035
182.03
788.208
120.655
677.207
40.7932
475.192
-57.0953
278.379
-185.655
620.6
-356.534
1137.33
-469.531
1686.13
-536.931
1764.34
1610.48
628.091
-3.85429
705.329
721.133
-10.4979
1351.43
700.319
-20.5465
1508.59
569.317
-27.0781
1428.93
437.045
-6.2688
1203.1
327.968
19.7767
1001.63
238.025
45.3259
875.876
150.793
31.02
766.993
43.8238
-5.854
604.053
-79.9046
-11.4843
434.932
-250.59
-1.7511
799.429
-463.312
-10.5726
1344.83
-613.258
-29.2808
1851.94
-691.497
-13.5785
1862.7
3.92716
1517.26
625.477
-3.8024
709.409
715.261
-12.1778
1354.95
695.39
-26.0765
1511.85
566.451
-30.5812
1436.7
436.567
-4.22332
1216.43
328.664
24.1567
1015.69
237.269
52.105
877.641
147.632
32.8018
750.816
41.6451
-10.568
587.474
-82.3664
-12.9431
431.658
-256.681
-5.54948
797.701
-469.242
-18.6257
1348.6
-620.245
-34.6318
1845.92
-695.895
-17.7805
1843.5
4.21017
1501.54
622.948
-1.48399
712.625
709.891
-11.6977
1359.06
690.728
-30.756
1517.51
563.148
-32.2194
1445.73
435.091
-2.65514
1225.99
329.694
25.4026
1024.97
240.169
49.4102
872.902
148.281
31.7446
729.616
37.1366
-5.05144
579.219
-90.1044
-9.56872
434.508
-264.5
-14.9989
801.53
-477.475
-27.4021
1352.81
-642.547
-22.0161
1832.64
-713.205
-22.0719
1812.06
-9.31729
1465.89
620.082
2.39835
714.595
704.638
-9.99265
1359.01
687.655
-35.5845
1519.41
563.508
-33.788
1453.05
437.671
-2.45401
1235.4
332.56
24.4778
1032.06
239.404
45.6887
868.063
140.403
37.8803
715.344
33.3177
4.49816
581.333
-86.52
-9.40039
441.361
-260.042
-21.4787
812.995
-474.185
-27.3173
1364.05
-629.962
-18.4065
1837.73
-702.497
-23.666
1824.5
-15.7646
1479.74
618.787
5.62994
712.482
701.507
-6.27524
1353.67
684.944
-36.7798
1519.56
562.244
-32.3812
1461.64
438.231
-3.44342
1246.48
333.889
19.9239
1037.92
238.433
41.7317
864.223
141.107
42.0906
710.519
38.0698
1.62663
559.67
-79.898
-13.352
441.256
-251.444
-14.7647
843.888
-469.602
-5.61978
1378.92
-622.308
-19.8242
1831.15
-695.545
-24.5633
1831.84
-17.2457
1487.11
619.021
6.28012
704.622
702.204
-1.59962
1339.07
683.815
-29.7512
1513.88
561.068
-25.2146
1468.86
438.389
-4.71105
1258.13
335.679
11.9517
1045.61
244.028
31.1039
866.4
150.436
29.3388
692.352
45.8485
-9.53529
526.679
-78.6053
-15.4311
420.583
-257.012
-6.26981
828.306
-473.443
6.54992
1374.57
-620.298
-24.6598
1836.33
-692.263
-23.6483
1830.03
-14.5262
1484.59
621.078
2.54071
689.602
709.17
0.9758
1312.08
685.816
-9.13187
1498.84
560.14
-8.12656
1471.64
435.981
-2.52134
1268.11
334.939
2.54558
1056.78
246.673
10.4403
865.536
152.9
12.1758
676.44
46.7366
-13.9314
520.683
-84.8805
-15.9416
406.398
-269.182
-6.612
806.854
-479.333
0.970692
1369.95
-628.692
-21.5964
1837.07
-697.444
-21.536
1813.44
-13.9275
1467.48
622.017
-2.8538
682.824
713.208
1.54399
1299.39
687.869
16.6569
1490.16
560.912
12.8301
1470.1
435.461
1.80417
1269.87
334.581
-5.90383
1060.8
249.285
-14.6007
867.703
157.004
-11.8831
669.16
39.1948
-9.61245
504.282
-98.0392
-10.3278
404.679
-278.866
-17.3867
803.522
-489.398
-12.7066
1364.07
-648.778
-4.46903
1827.74
-713.294
-20.5933
1788.29
-28.5474
1440.66
620.181
-4.55825
693.151
707.177
4.56896
1318.72
685.037
33.9563
1502.54
559.947
27.8539
1471.17
436.01
3.73689
1265.8
335.259
-14.53
1055.6
250.1
-37.7782
865.883
163.048
-41.0986
672.408
47.6538
-13.0105
500.66
-90.5927
1.59304
408.102
-271.067
-18.9587
808.422
-482.739
-21.9267
1364.77
-627.977
-3.10122
1839.08
-698.103
-16.8365
1814.5
-34.2024
1470.83
618.388
-1.40261
706.681
701.542
8.85954
1343.79
683.472
38.8078
1516.18
560.682
33.6641
1467.44
437.979
2.73216
1255.14
336.344
-22.5563
1044.12
245.352
-50.5516
860.734
152.106
-53.3919
685.537
45.9948
-22.0939
515.728
-78.2782
2.56434
420.179
-257.897
0.827741
838.3
-478.338
-8.39059
1369.12
-620.221
-8.92115
1831.67
-689.819
-14.0343
1823.86
-31.676
1480.82
619.059
3.2176
714.012
701.822
12.039
1357.71
684.736
36.4356
1521.26
561.49
34.332
1459.86
437.716
1.63977
1243.05
334.205
-27.3967
1034
239.084
-54.0862
858.417
140.985
-47.4527
702.299
40.2522
-24.0785
546.825
-80.3564
-3.29836
421.966
-258.233
12.903
845.662
-477.359
16.3284
1384.98
-625.234
-8.13087
1821.7
-691.624
-12.7091
1816.04
-28.0007
1471.43
621.432
5.9127
716.544
705.439
13.5199
1362.37
687.536
30.9965
1520.29
562.705
32.3179
1450.75
437.001
1.73917
1231.24
332.303
-28.2671
1026.74
238.632
-55.6127
860.361
140.482
-39.0726
709.213
34.0939
-14.3285
560.181
-90.0108
-0.971499
423.808
-266.962
12.0485
823.037
-483.586
24.1505
1374.12
-635.489
0.671608
1823.67
-698.343
-10.9042
1801.57
-27.0149
1454.92
624.247
6.31128
714.967
710.665
13.8114
1361.52
690.548
26.0622
1517.79
562.209
30.4714
1443.28
433.99
3.39999
1221.22
329.137
-26.5696
1019.46
239.553
-56.8759
863.953
148.893
-37.9095
720.467
36.2437
-4.69054
555.94
-98.5064
9.58626
416.277
-277.709
2.79305
807.297
-492.121
18.4486
1363.38
-649.864
17.6803
1817.29
-709.932
-10.842
1785.09
-36.1634
1438.54
626.182
5.21412
711.606
715.838
11.6982
1356.65
695.17
20.3902
1511.73
565.44
26.87
1434.11
435.279
5.60641
1211.32
327.902
-21.4827
1009.75
237.412
-49.3615
868.694
149.611
-36.8197
737.153
39.7281
-1.61046
561.474
-95.3252
17.413
410.927
-274.319
-5.6919
802.001
-486.525
9.38598
1361.09
-629.004
15.8191
1830.53
-692.959
-9.16019
1812.72
-27.8303
1465.67
628.555
707.1
721.588
1352.75
699.941
1508.49
568.014
1426.55
435.277
1198.01
326.683
995.438
237.258
865.437
152.416
755.336
45.1689
581.204
-89.4731
407.979
-269.512
801.117
-484.105
1356.83
-624.212
1833.25
-688.585
1824.72
1474.62
699.439
-2.21084
562.481
837.003
-9.03928
1216.09
867.346
-17.5388
1482.63
752.665
-29.5925
1550.27
581.83
-17.8891
1376.44
426.267
9.74853
1153.91
300.45
42.377
992.398
187.658
38.7921
873.529
51.313
-2.83198
745.074
-105.849
-13.4442
596.802
-325.359
-7.16419
1023.89
-573.658
-18.4488
1601.55
-756.129
-36.0608
2047.73
-815.365
-11.3259
1923.2
-0.961977
1455.23
697.74
-0.600284
565.046
831.594
-8.81327
1220.87
861.231
-22.0443
1486.72
747.576
-34.7152
1555.48
579.46
-18.3802
1385.03
426.163
13.1642
1165.57
299.683
48.7944
997.703
184.291
41.4024
863.599
47.835
-8.02167
729.121
-109.98
-17.1561
593.186
-332.695
-13.3064
1026.56
-581.514
-26.6293
1605.6
-764.963
-43.425
2036.74
-817.582
-16.0417
1900.84
0.191122
1440.15
696.628
2.57011
566.964
826.945
-5.1746
1225.11
855.625
-25.1592
1491.94
742.185
-37.8315
1562.28
575.769
-18.2872
1392.31
425.492
14.5864
1173.82
302.163
46.6185
998.408
185.731
38.7144
848.736
42.6969
-3.93833
718.171
-118.93
-16.5968
595.576
-342.275
-23.1349
1034.7
-594.768
-30.907
1609.58
-793.169
-30.0658
2017.68
-833.492
-29.1093
1865.45
-15.6515
1410.46
695.859
5.65365
568.465
822.375
0.918088
1226.41
851.025
-27.7847
1493.39
740.352
-40.8253
1566.72
577.26
-19.2796
1399.49
428.545
13.9764
1181.39
302.674
42.6207
997.931
178.423
41.7185
836.592
38.1923
3.13608
714.49
-115.37
-20.6202
598.947
-337.342
-29.4566
1041.29
-589.076
-29.8312
1614.71
-776.475
-27.0502
2022.11
-825.018
-33.981
1877.91
-24.9976
1419.23
695.902
7.08532
567.88
819.986
8.26489
1222.24
847.703
-26.9238
1490.99
737.493
-39.6763
1570.7
576.233
-19.5341
1407.99
429.354
10.1558
1188.62
301.994
37.0831
997.12
178.635
43.134
832.464
43.8094
-0.915591
698.548
-107.042
-27.0021
598.491
-329.118
-21.9559
1058.46
-584.087
-14.395
1618.46
-766.136
-31.1646
2017.31
-818.996
-34.4587
1885.17
-28.775
1422.85
695.528
6.10424
565.021
820.476
12.5575
1209.83
846.947
-20.1498
1480.64
735.817
-30.7702
1571.08
575.126
-16.9813
1416.27
429.967
4.09068
1196.83
306.191
25.9203
1001.34
188.042
30.0234
823.613
52.8295
-13.2101
674.188
-107.011
-27.9609
581.384
-335.868
-12.9783
1048.19
-587.925
-6.39038
1618.62
-762.528
-38.5259
2018.29
-814.406
-32.8214
1880.27
-26.9309
1418.7
694.022
1.99085
559.789
825.651
6.25733
1186.76
850.661
-5.21048
1458.9
736.384
-9.5698
1564.71
572.329
-6.58219
1421.77
427.427
-0.820604
1206.6
307.715
6.38799
1004.78
191.159
9.67664
813.344
52.3301
-19.6394
665.943
-116.141
-24.5968
571.506
-348.482
-12.0809
1038.3
-595.798
-8.97689
1619.86
-773.176
-35.6296
2011.55
-817.142
-34.1775
1858.76
-25.5431
1402.13
692.947
-3.21884
557.636
828.411
-5.86728
1176.05
853.377
12.2187
1447.77
738.19
16.0892
1559.63
572.204
7.43209
1421.84