/*--------------------------------*- C++ -*----------------------------------*\
| =========                 |                                                 |
| \\      /  F ield         | OpenFOAM: The Open Source CFD Toolbox           |
|  \\    /   O peration     | Version:  4.1                                   |
|   \\  /    A nd           | Web:      www.OpenFOAM.org                      |
|    \\/     M anipulation  |                                                 |
\*---------------------------------------------------------------------------*/
FoamFile
{
    version     2.0;
    format      ascii;
    class       volVectorField;
    location    "29";
    object      U;
}
// * * * * * * * * * * * * * * * * * * * * * * * * * * * * * * * * * * * * * //

dimensions      [0 1 -1 0 0 0 0];

internalField   nonuniform List<vector> 
6750
(
(1.78514 -0.00405804 15.6805)
(0.417568 -0.0111036 16.8959)
(1.04153 -0.0121219 14.9219)
(0.49165 -0.00658257 11.6904)
(0.575709 0.00955979 10.3331)
(0.404381 0.01724 8.45075)
(0.316307 0.0233496 7.81407)
(0.24598 0.00464569 6.21638)
(0.104661 -0.0062804 3.27718)
(0.0461559 -0.010438 1.34052)
(-0.278689 0.00239505 4.09226)
(-0.101545 0.00708534 8.30319)
(-1.08975 -0.00553759 15.3812)
(-0.0765642 -0.0127777 18.153)
(-2.49346 -0.00144962 20.1165)
(1.77806 -0.00808736 15.6724)
(0.41413 -0.0221486 16.8971)
(1.03489 -0.0215742 15.0684)
(0.491364 -0.0089499 11.9796)
(0.574093 0.0185359 10.5573)
(0.405114 0.031403 8.54117)
(0.319516 0.0443235 7.55824)
(0.24511 0.00528703 5.82598)
(0.101561 -0.0133 3.1628)
(0.0537567 -0.0151168 1.4298)
(-0.284478 0.00671209 3.88284)
(-0.109574 0.0053449 8.13588)
(-1.09081 -0.0101791 15.4971)
(-0.0754491 -0.0259166 18.0077)
(-2.51438 -0.00226743 19.8988)
(1.77003 -0.0091955 15.6734)
(0.410599 -0.0257569 16.9455)
(1.02876 -0.0218387 15.2322)
(0.492889 -0.00589189 12.1871)
(0.576665 0.0202491 10.644)
(0.406186 0.0309343 8.58757)
(0.329052 0.0425287 7.16145)
(0.243144 0.00423385 5.51374)
(0.0930768 -0.015214 3.38982)
(0.059763 -0.006653 1.5991)
(-0.305748 0.00878435 3.62957)
(-0.116451 -0.0132049 8.04041)
(-1.0985 -0.00762798 15.487)
(-0.0742509 -0.0218938 17.7916)
(-2.56823 -0.00401335 19.4341)
(1.76509 -0.0102745 15.6242)
(0.40737 -0.0312799 16.9505)
(1.02605 -0.0241597 15.3724)
(0.497796 -0.00558937 12.375)
(0.581527 0.0218358 10.7153)
(0.408759 0.0315144 8.5758)
(0.330245 0.04133 6.95286)
(0.228393 0.0166676 5.46693)
(0.078604 -0.000158756 3.84804)
(0.062461 0.0154552 1.88936)
(-0.303412 0.00128035 3.80489)
(-0.112619 -0.0445388 8.57423)
(-1.09799 -0.00756162 15.5245)
(-0.0741219 -0.0155542 17.9996)
(-2.54183 -0.00639877 19.5924)
(1.76579 -0.00968516 15.5167)
(0.404053 -0.0333147 16.9614)
(1.02259 -0.0231944 15.5461)
(0.501416 -0.00455719 12.5836)
(0.584888 0.0201286 10.7874)
(0.412195 0.0289354 8.52909)
(0.330552 0.0470269 6.8597)
(0.222262 0.0382979 5.38142)
(0.0919284 0.00716811 3.09831)
(0.0584491 0.032955 1.68232)
(-0.283312 -0.0104151 4.64102)
(-0.101036 -0.019424 9.83326)
(-1.10171 -0.00499666 15.3982)
(-0.0736726 -0.0152045 18.0964)
(-2.52621 -0.0066979 19.676)
(1.77665 -0.00756191 15.3227)
(0.401345 -0.030852 16.9357)
(1.01929 -0.020369 15.7187)
(0.503658 -0.00471859 12.8057)
(0.586761 0.0150036 10.8818)
(0.41674 0.0246362 8.53963)
(0.339513 0.0464054 6.70767)
(0.249627 0.0293749 4.41721)
(0.0967287 -0.0057069 2.35582)
(0.0701091 0.0438319 1.19684)
(-0.291328 -0.0194916 4.38214)
(-0.104697 0.0332124 9.34207)
(-1.10431 -0.00161674 15.4758)
(-0.0750609 -0.0160514 18.1855)
(-2.52098 -0.0067812 19.6736)
(1.8024 -0.00340184 15.0262)
(0.400677 -0.0182199 16.8336)
(1.01808 -0.01184 15.8362)
(0.503461 -0.00335623 13.0135)
(0.585944 0.00707325 11.0012)
(0.41488 0.0141088 8.65315)
(0.352156 0.0302232 6.33533)
(0.241781 0.0101644 4.28261)
(0.0926253 -0.00891159 2.63751)
(0.124983 0.0171413 0.544295)
(-0.337934 -0.0103547 3.51437)
(-0.113345 0.0361549 8.52523)
(-1.10522 -0.00238947 15.6218)
(-0.0763029 -0.0147348 18.1364)
(-2.53769 -0.00549812 19.5037)
(1.81497 0.00168671 14.9016)
(0.401174 0.00349365 16.7623)
(1.01959 0.00181805 15.8394)
(0.503821 0.000557298 13.0648)
(0.586103 -0.000683654 11.0361)
(0.413729 0.000791134 8.73896)
(0.358981 0.00616176 6.24496)
(0.255795 0.0153043 3.88868)
(0.0851854 -0.00233072 2.44983)
(0.089507 -0.0311369 0.864411)
(-0.34269 0.00276322 3.29711)
(-0.124522 -1.10221e-05 7.8914)
(-1.11142 -0.00227276 15.6341)
(-0.077363 -0.00262244 17.949)
(-2.58028 -0.00619221 19.1498)
(1.79561 0.00635766 15.106)
(0.400454 0.0231176 16.8521)
(1.01786 0.0146551 15.8149)
(0.503394 0.00422309 12.9788)
(0.586383 -0.00818225 10.9923)
(0.416237 -0.0122939 8.67978)
(0.357847 -0.0271059 6.30997)
(0.267624 -0.00943242 3.8)
(0.0994354 0.00999175 2.03146)
(0.0535993 -0.00400532 1.28602)
(-0.304079 -0.0052249 3.85306)
(-0.121309 -0.047531 8.15576)
(-1.10154 -0.00375481 15.6954)
(-0.0784728 0.0103082 18.1741)
(-2.52781 -0.00715998 19.546)
(1.77305 0.00985441 15.3898)
(0.401248 0.0332226 16.9417)
(1.01899 0.0221928 15.6885)
(0.503046 0.00541578 12.7648)
(0.587127 -0.0153834 10.8782)
(0.418334 -0.0246239 8.5464)
(0.347788 -0.0513874 6.53959)
(0.246424 -0.0362753 4.42259)
(0.101925 0.00881639 2.21692)
(0.0409698 0.00804137 1.3746)
(-0.25427 0.0105719 5.16674)
(-0.108713 -0.0369537 9.18018)
(-1.10234 -0.00535585 15.5044)
(-0.0791311 0.0107899 18.2236)
(-2.50485 -0.00585623 19.7333)
(1.76401 0.0114738 15.5777)
(0.403812 0.034466 16.9653)
(1.02201 0.024433 15.5144)
(0.500357 0.00519324 12.5417)
(0.585311 -0.020345 10.7716)
(0.415144 -0.030883 8.4993)
(0.334355 -0.0514579 6.81432)
(0.223613 -0.0352677 5.31887)
(0.093463 0.000118163 3.08292)
(0.0746167 0.000295136 1.17347)
(-0.291955 0.0188589 4.61821)
(-0.105521 0.0192413 9.98853)
(-1.10124 -0.0011184 15.4567)
(-0.0796646 0.00927742 18.1529)
(-2.51054 -0.00484189 19.6953)
(1.76484 0.0115628 15.6761)
(0.40704 0.0313011 16.9502)
(1.02564 0.0248061 15.3379)
(0.496491 0.00604458 12.3301)
(0.582182 -0.0224505 10.6865)
(0.411184 -0.0333284 8.53334)
(0.332353 -0.0444766 6.9475)
(0.22919 -0.0166856 5.50477)
(0.0890086 0.00805178 3.58556)
(0.0619109 0.0109859 1.60539)
(-0.304112 0.0056356 4.02134)
(-0.11697 0.0507209 8.98154)
(-1.09787 0.00351951 15.5762)
(-0.0817237 0.0111026 18.0683)
(-2.52424 -0.00334839 19.5958)
(1.77098 0.00998547 15.716)
(0.410143 0.0253036 16.9448)
(1.02843 0.0221917 15.1996)
(0.491265 0.00620885 12.1425)
(0.577351 -0.0209197 10.6064)
(0.407628 -0.0324506 8.56872)
(0.333862 -0.0421219 7.11046)
(0.244647 -0.00138036 5.55245)
(0.108812 0.0183948 3.15788)
(0.056375 0.0440912 1.49478)
(-0.321184 0.000267163 3.51925)
(-0.127164 0.0332514 8.18883)
(-1.10021 0.00561495 15.5846)
(-0.0837967 0.0188468 17.8601)
(-2.54705 -0.00342158 19.4397)
(1.7798 0.00855844 15.708)
(0.413568 0.0214307 16.8964)
(1.03466 0.0216868 15.037)
(0.489608 0.00910732 11.9328)
(0.5746 -0.019196 10.5171)
(0.406649 -0.0328322 8.53056)
(0.325491 -0.045597 7.50334)
(0.253571 -0.00394006 5.68685)
(0.11862 0.0171423 3.01344)
(0.0612205 0.0764624 1.19333)
(-0.315561 -0.0103306 3.55159)
(-0.122777 0.0030816 8.21137)
(-1.09429 0.00798225 15.598)
(-0.0861456 0.023773 18.0675)
(-2.49226 -0.00388935 19.8997)
(1.78736 0.00425127 15.7106)
(0.416843 0.0106462 16.8969)
(1.04119 0.0121093 14.8961)
(0.489578 0.00663304 11.6473)
(0.575822 -0.0099137 10.2944)
(0.405321 -0.0180204 8.44136)
(0.321974 -0.0251175 7.76186)
(0.250328 -0.00556058 6.21235)
(0.127162 0.0106471 3.15077)
(0.055221 0.0676147 0.787994)
(-0.299072 -0.00752352 3.88085)
(-0.114497 -0.00395581 8.37475)
(-1.09464 0.00432121 15.4833)
(-0.0884042 0.0116755 18.2083)
(-2.46961 -0.00164158 20.1171)
(5.23179 -0.0113537 15.2316)
(1.31448 -0.0322773 16.8422)
(3.08023 -0.0389666 15.2972)
(1.59715 -0.0254689 11.9753)
(1.6981 0.0253081 10.4683)
(1.24668 0.0522694 8.64244)
(0.953709 0.0748533 7.91257)
(0.748872 0.0207813 6.39609)
(0.320291 -0.0191985 3.60147)
(0.135622 -0.0310939 1.54473)
(-0.775139 0.00684919 4.43149)
(-0.382499 0.0170353 8.81135)
(-3.16002 -0.0208634 15.996)
(-0.142034 -0.0370644 18.2978)
(-7.39868 -0.0011975 20.2026)
(5.21246 -0.0220408 15.2301)
(1.29888 -0.0619542 16.8379)
(3.06309 -0.0674331 15.4216)
(1.59432 -0.0354935 12.2434)
(1.69677 0.0492748 10.6993)
(1.24894 0.0910375 8.74871)
(0.960835 0.135874 7.69621)
(0.742873 0.0272361 6.0217)
(0.308963 -0.0407782 3.47257)
(0.156665 -0.0429436 1.60751)
(-0.787341 0.0167027 4.23617)
(-0.410231 0.00753106 8.68939)
(-3.16345 -0.0390532 16.0911)
(-0.146369 -0.0730571 18.1395)
(-7.44895 0.00169537 19.9931)
(5.19237 -0.0244782 15.2368)
(1.28381 -0.0704062 16.8803)
(3.04646 -0.0678471 15.5715)
(1.59441 -0.0257145 12.4455)
(1.70352 0.054317 10.7973)
(1.25184 0.0879083 8.8024)
(0.986593 0.127577 7.34092)
(0.7409 0.0221269 5.69584)
(0.285859 -0.046394 3.6472)
(0.163482 -0.0236009 1.7535)
(-0.837558 0.0189705 4.02369)
(-0.437178 -0.0402198 8.62553)
(-3.1792 -0.0283487 16.0694)
(-0.169656 -0.0626061 17.9068)
(-7.58071 -0.00643961 19.5415)
(5.17921 -0.0269163 15.1941)
(1.27013 -0.0858015 16.8768)
(3.03813 -0.0771888 15.6954)
(1.60692 -0.0257522 12.628)
(1.71866 0.058813 10.8802)
(1.26045 0.0901299 8.80069)
(0.991301 0.122025 7.1446)
(0.699426 0.0517644 5.62195)
(0.240157 -0.000617095 4.03628)
(0.175193 0.0280132 2.01416)
(-0.830903 -0.00680733 4.21905)
(-0.421545 -0.122487 9.10138)
(-3.18038 -0.0246981 16.1122)
(-0.154291 -0.047377 18.1071)
(-7.5153 -0.0187018 19.6971)
(5.18062 -0.0242527 15.0923)
(1.25913 -0.0908278 16.873)
(3.0277 -0.0759109 15.8512)
(1.6148 -0.021495 12.8341)
(1.72823 0.0542666 10.966)
(1.27031 0.0812069 8.76287)
(0.992537 0.133396 7.05092)
(0.682241 0.11299 5.54593)
(0.274899 0.0229406 3.37567)
(0.169817 0.0629395 1.84156)
(-0.79201 -0.0312028 5.02898)
(-0.382086 -0.0540942 10.1768)
(-3.18999 -0.0181759 15.9874)
(-0.143333 -0.0460706 18.2027)
(-7.47598 -0.0194195 19.7803)
(5.20743 -0.0174868 14.9017)
(1.25533 -0.0840095 16.8258)
(3.01788 -0.0690072 16.0023)
(1.61938 -0.0205477 13.0521)
(1.73357 0.0397974 11.0723)
(1.2827 0.067686 8.78033)
(1.01685 0.131731 6.93238)
(0.754967 0.0908194 4.70497)
(0.292601 -0.00900642 2.66816)
(0.204547 0.0844385 1.39867)
(-0.807853 -0.0426155 4.75534)
(-0.397546 0.087017 9.75144)
(-3.19761 -0.00997154 16.0727)
(-0.145548 -0.0471708 18.2817)
(-7.46179 -0.0194505 19.7762)
(5.27059 -0.00644764 14.6056)
(1.26517 -0.0491602 16.6976)
(3.01386 -0.0409936 16.0967)
(1.61815 -0.0134791 13.2528)
(1.73107 0.017927 11.1982)
(1.27624 0.03736 8.89666)
(1.0479 0.0846402 6.61392)
(0.745957 0.033978 4.51364)
(0.282252 -0.0290081 2.89866)
(0.339981 0.0311466 0.882836)
(-0.907137 -0.0220757 3.95645)
(-0.431269 0.0920487 9.06446)
(-3.19828 -0.0137989 16.213)
(-0.158932 -0.0421455 18.2197)
(-7.50176 -0.0134809 19.6074)
(5.30148 0.00494628 14.4813)
(1.27233 0.00976575 16.6178)
(3.01735 0.00655464 16.0921)
(1.61978 0.00183203 13.3004)
(1.73146 -0.00227717 11.2335)
(1.2723 0.000726209 8.97848)
(1.0656 0.014124 6.54588)
(0.78234 0.0410656 4.17229)
(0.269424 -0.0144387 2.68233)
(0.237646 -0.0640148 1.08071)
(-0.916877 -0.00154161 3.73322)
(-0.472437 0.0027959 8.52895)
(-3.21163 -0.0075707 16.2197)
(-0.185142 -0.00972862 18.0192)
(-7.60388 -0.0205526 19.2627)
(5.25438 0.0154204 14.6864)
(1.2606 0.06278 16.7227)
(3.01347 0.0503827 16.0791)
(1.61768 0.0162265 13.2183)
(1.7321 -0.0218735 11.1858)
(1.27953 -0.0344589 8.92024)
(1.06253 -0.0788168 6.6018)
(0.81093 -0.0378673 4.12133)
(0.31755 0.0191526 2.33271)
(0.154798 -0.00335293 1.42353)
(-0.836446 -0.0319402 4.2168)
(-0.453981 -0.121191 8.7461)
(-3.19103 -0.00587537 16.2855)
(-0.162272 0.0248855 18.2549)
(-7.47549 -0.0295125 19.648)
(5.19901 0.0247852 14.9688)
(1.25276 0.090546 16.8378)
(3.0174 0.0742077 15.9755)
(1.6173 0.0226096 13.0109)
(1.7342 -0.0414601 11.0638)
(1.28641 -0.0686837 8.78807)
(1.03837 -0.146534 6.7819)
(0.749221 -0.113677 4.68985)
(0.31036 0.0152949 2.5382)
(0.131167 0.0283206 1.54827)
(-0.724066 0.0203537 5.42471)
(-0.40845 -0.101104 9.5972)
(-3.1951 -0.0128355 16.099)
(-0.153649 0.0273959 18.3169)
(-7.4182 -0.0240527 19.828)
(5.17689 0.0298739 15.1528)
(1.25729 0.0941281 16.8823)
(3.0266 0.079301 15.8229)
(1.61129 0.0233618 12.7915)
(1.72864 -0.0552117 10.9465)
(1.27799 -0.0872039 8.73331)
(1.00366 -0.148108 7.00513)
(0.686787 -0.108563 5.48172)
(0.281091 -0.00909868 3.34283)
(0.216783 0.0013256 1.37797)
(-0.810908 0.054116 5.01609)
(-0.396228 0.0481446 10.322)
(-3.19222 -0.00230433 16.0374)
(-0.160103 0.0248353 18.2496)
(-7.43144 -0.0199716 19.7862)
(5.17935 0.0309247 15.2458)
(1.26844 0.0861036 16.8811)
(3.03734 0.0786798 15.6639)
(1.60269 0.0270733 12.5824)
(1.71956 -0.0608405 10.8483)
(1.26666 -0.0959104 8.75726)
(0.997384 -0.132646 7.1281)
(0.701198 -0.0576157 5.65181)
(0.26935 0.0149165 3.78701)
(0.175012 0.0180249 1.73116)
(-0.836555 0.0247593 4.42473)
(-0.434232 0.134833 9.4595)
(-3.18337 0.0109173 16.152)
(-0.17697 0.030632 18.1623)
(-7.46444 -0.0136797 19.6821)
(5.19557 0.0270588 15.2791)
(1.28201 0.06939 16.883)
(3.04576 0.0684181 15.5415)
(1.58927 0.0266109 12.4003)
(1.70433 -0.0563673 10.7563)
(1.25525 -0.0930111 8.7793)
(0.999274 -0.128104 7.28513)
(0.745282 -0.016276 5.71923)
(0.328033 0.0496497 3.42948)
(0.152138 0.0944135 1.61917)
(-0.870573 0.0108778 3.93678)
(-0.472663 0.0900254 8.77411)
(-3.18789 0.0208444 16.1536)
(-0.198062 0.0505363 17.959)
(-7.5198 -0.0173846 19.5271)
(5.21766 0.0236605 15.2653)
(1.29713 0.0601108 16.8397)
(3.0626 0.0672626 15.3928)
(1.58887 0.0359181 12.1962)
(1.69701 -0.0513031 10.6551)
(1.25243 -0.0956335 8.73225)
(0.976517 -0.140956 7.6398)
(0.766034 -0.026269 5.88561)
(0.355979 0.0525727 3.31223)
(0.167985 0.176534 1.3727)
(-0.855158 -0.0228273 3.95618)
(-0.455932 0.0139586 8.77516)
(-3.17629 0.0313799 16.1785)
(-0.179207 0.0639343 18.1829)
(-7.38495 -0.0218724 19.9724)
(5.23821 0.0120385 15.2612)
(1.31237 0.0310421 16.845)
(3.07944 0.0386541 15.2733)
(1.59074 0.0256047 11.9318)
(1.6971 -0.0264023 10.4253)
(1.2483 -0.0547586 8.62625)
(0.968497 -0.0805595 7.85478)
(0.762564 -0.0253095 6.38034)
(0.381693 0.0340166 3.48043)
(0.161028 0.170686 1.07066)
(-0.819937 -0.0185253 4.24112)
(-0.429332 -0.00679585 8.89195)
(-3.17791 0.0165873 16.0828)
(-0.178506 0.0322132 18.3345)
(-7.3292 -0.00918171 20.1785)
(8.46916 -0.0169652 14.0446)
(2.44754 -0.0470805 16.7627)
(5.13091 -0.0667721 15.8417)
(3.01001 -0.0555496 12.657)
(2.82489 0.0285429 10.7904)
(2.15288 0.0832703 9.03037)
(1.61609 0.129967 8.15806)
(1.26258 0.0519667 6.75848)
(0.548109 -0.0275424 4.19097)
(0.22579 -0.0463192 2.03114)
(-1.25367 0.0102278 5.11117)
(-0.857614 0.0166137 9.88715)
(-5.17877 -0.0442069 16.9941)
(-0.18655 -0.0557638 18.7284)
(-12.3261 0.00223984 20.0468)
(8.4441 -0.0316529 14.0585)
(2.40915 -0.0862427 16.7551)
(5.10376 -0.112273 15.9323)
(2.99909 -0.0790254 12.8828)
(2.82702 0.0590869 11.0237)
(2.15737 0.138402 9.16153)
(1.62447 0.222171 8.00694)
(1.24757 0.0720027 6.41927)
(0.524543 -0.0606399 4.03825)
(0.253069 -0.0630602 2.05369)
(-1.27115 0.0180389 4.94828)
(-0.909888 -0.0080751 9.83202)
(-5.1841 -0.0855513 17.0516)
(-0.215686 -0.105179 18.5545)
(-12.3871 0.0148714 19.8482)
(8.42108 -0.0333689 14.0766)
(2.3742 -0.0958378 16.7902)
(5.07681 -0.11407 16.0569)
(2.9883 -0.0628765 13.0689)
(2.83389 0.0685091 11.1386)
(2.16042 0.132227 9.2306)
(1.661 0.204866 7.72697)
(1.25402 0.059595 6.08447)
(0.493118 -0.069792 4.12804)
(0.239734 -0.0412237 2.15991)
(-1.33963 0.0126344 4.80616)
(-0.963998 -0.0665063 9.81627)
(-5.20033 -0.0609715 17.0025)
(-0.325314 -0.0934092 18.3022)
(-12.5506 -0.00507208 19.409)
(8.40491 -0.0344067 14.0476)
(2.34301 -0.117537 16.7762)
(5.05985 -0.135409 16.1522)
(3.00199 -0.066694 13.2368)
(2.85955 0.0749964 11.2394)
(2.17698 0.137201 9.24892)
(1.67234 0.194176 7.55581)
(1.19506 0.0920903 5.9689)
(0.412779 -0.00115086 4.40905)
(0.260526 0.017804 2.3696)
(-1.32439 -0.0355883 5.01481)
(-0.932086 -0.173411 10.191)
(-5.20539 -0.0459553 17.0537)
(-0.260159 -0.0777321 18.4837)
(-12.4674 -0.0341334 19.5634)
(8.40764 -0.027628 13.9559)
(2.32383 -0.123002 16.7493)
(5.04141 -0.13738 16.2741)
(3.00676 -0.0578398 13.4318)
(2.87304 0.0698978 11.3477)
(2.19214 0.121091 9.23167)
(1.67576 0.199276 7.46339)
(1.16872 0.176966 5.90438)
(0.461289 0.0358465 3.88171)
(0.264496 0.0472257 2.2561)
(-1.27601 -0.0558203 5.75322)
(-0.860485 -0.0796174 10.975)
(-5.2195 -0.0387282 16.9341)
(-0.216062 -0.0756139 18.5746)
(-12.4168 -0.0345917 19.648)
(8.44035 -0.0158001 13.7712)
(2.3269 -0.113482 16.664)
(5.02553 -0.129655 16.3822)
(3.00784 -0.0531942 13.6356)
(2.88045 0.0495241 11.4733)
(2.20923 0.0979503 9.26387)
(1.70916 0.194543 7.39255)
(1.26871 0.151568 5.25954)
(0.503669 -0.00846929 3.2433)
(0.32245 0.0579974 1.87729)
(-1.29342 -0.0460897 5.47189)
(-0.895681 0.110391 10.6613)
(-5.22989 -0.0296646 17.0281)
(-0.213595 -0.0774088 18.6338)
(-12.3952 -0.0358014 19.6402)
(8.51633 -0.00139354 13.4754)
(2.37057 -0.0656275 16.4878)
(5.02169 -0.078892 16.4288)
(3.00277 -0.032744 13.8161)
(2.8753 0.0202566 11.6087)
(2.1963 0.0510537 9.38531)
(1.74687 0.122117 7.16449)
(1.27689 0.0634615 5.01479)
(0.492291 -0.0486095 3.37959)
(0.471924 0.0111026 1.51143)
(-1.41687 -0.020894 4.79923)
(-0.963858 0.110325 10.1836)
(-5.22676 -0.0408876 17.1533)
(-0.262022 -0.0671708 18.5499)
(-12.4411 -0.0211786 19.4688)
(8.55404 0.00710292 13.3503)
(2.39773 0.0138398 16.3933)
(5.02784 0.013414 16.4078)
(3.00596 0.00424726 13.8548)
(2.87601 -0.00369335 11.6438)
(2.18873 -0.00183946 9.45956)
(1.76885 0.0137489 7.12999)
(1.32802 0.053518 4.7544)
(0.490929 -0.0257725 3.14163)
(0.317552 -0.0687766 1.58301)
(-1.43747 -0.0122356 4.59218)
(-1.04614 0.00387656 9.80566)
(-5.24123 -0.0168324 17.1432)
(-0.364278 -0.0245642 18.334)
(-12.5636 -0.0412925 19.1351)
(8.4989 0.015783 13.5571)
(2.35725 0.0854836 16.5274)
(5.02085 0.0971453 16.4197)
(3.00179 0.0388573 13.7832)
(2.87644 -0.0271499 11.5903)
(2.19977 -0.0512833 9.40169)
(1.76497 -0.120117 7.1679)
(1.36133 -0.0788316 4.7527)
(0.576336 0.0105643 2.89659)
(0.246416 -0.00143377 1.81255)
(-1.34207 -0.0768136 4.95929)
(-1.00381 -0.15459 9.9468)
(-5.2195 0.000609931 17.2228)
(-0.257762 0.0205453 18.5785)
(-12.403 -0.0681643 19.5111)
(8.43216 0.0292053 13.8387)
(2.31912 0.12397 16.6878)
(5.02509 0.138589 16.3626)
(3.00417 0.0572294 13.5946)
(2.88041 -0.0527271 11.456)
(2.21249 -0.101489 9.2703)
(1.73816 -0.21868 7.2708)
(1.26656 -0.191082 5.21795)
(0.534123 -0.00349075 3.12264)
(0.235632 0.0443305 1.97774)
(-1.19458 0.0062977 5.96217)
(-0.919735 -0.139787 10.5264)
(-5.23134 -0.0171844 17.0494)
(-0.214724 0.027 18.6581)
(-12.328 -0.0570853 19.6814)
(8.4047 0.0389872 14.0163)
(2.31795 0.12873 16.7674)
(5.04038 0.142361 16.2525)
(3.00052 0.0610644 13.3893)
(2.87174 -0.0716444 11.3213)
(2.20118 -0.130816 9.2008)
(1.6925 -0.225858 7.4151)
(1.1762 -0.181068 5.83515)
(0.472494 -0.0406645 3.82339)
(0.328649 0.00117472 1.87562)
(-1.29864 0.0758457 5.75181)
(-0.893143 0.0588262 11.1024)
(-5.22998 -0.00540504 16.9673)
(-0.23858 0.0243601 18.5964)
(-12.3406 -0.0501639 19.6294)
(8.40682 0.0431662 14.0989)
(2.33911 0.118679 16.7878)
(5.05976 0.136474 16.1271)
(2.99489 0.0687419 13.1912)
(2.85862 -0.0782409 11.2014)
(2.18382 -0.146932 9.2024)
(1.68112 -0.213924 7.51991)
(1.19378 -0.111738 5.97997)
(0.455446 -0.00633228 4.17473)
(0.258296 0.00803788 2.1034)
(-1.33633 0.0485317 5.19932)
(-0.961899 0.179666 10.4743)
(-5.2185 0.0138943 17.0718)
(-0.295914 0.0336791 18.5056)
(-12.377 -0.0362995 19.512)
(8.42694 0.03884 14.1184)
(2.37145 0.0950234 16.7982)
(5.07707 0.113905 16.0325)
(2.97987 0.0643042 13.0239)
(2.83242 -0.0715075 11.0915)
(2.1627 -0.141156 9.19848)
(1.67757 -0.210397 7.66155)
(1.25627 -0.0564924 6.07788)
(0.552385 0.0511339 3.91528)
(0.215443 0.0945806 1.98245)
(-1.38268 0.0285553 4.75499)
(-1.03929 0.124732 9.96583)
(-5.22276 0.0414894 17.0601)
(-0.370398 0.0593057 18.3162)
(-12.4425 -0.0484877 19.3556)
(8.45251 0.0351073 14.0929)
(2.40685 0.0842087 16.7608)
(5.10415 0.111021 15.9085)
(2.99026 0.0796714 12.8363)
(2.8246 -0.0621203 10.9726)
(2.15915 -0.146106 9.13287)
(1.64436 -0.233248 7.94447)
(1.27439 -0.0780703 6.28488)
(0.59267 0.0624848 3.8476)
(0.240293 0.188128 1.8073)
(-1.35883 -0.030894 4.74936)
(-1.00729 0.0324375 9.93968)
(-5.21143 0.0668794 17.112)
(-0.27221 0.0764723 18.5609)
(-12.2711 -0.0616118 19.7836)
(8.47917 0.0185149 14.0732)
(2.44488 0.045632 16.768)
(5.13083 0.0657461 15.8218)
(2.99964 0.0557631 12.6141)
(2.82027 -0.0301265 10.74)
(2.15129 -0.0873383 9.00072)
(1.63419 -0.13978 8.08822)
(1.277 -0.0633088 6.71841)
(0.634116 0.0435843 4.05286)
(0.244979 0.200151 1.6327)
(-1.31217 -0.0274241 4.95937)
(-0.962469 -0.00114779 9.98803)
(-5.21635 0.0333816 17.0507)
(-0.250439 0.0399451 18.7224)
(-12.1986 -0.0260112 19.9729)
(11.0948 -0.0185694 11.7725)
(4.07232 -0.0494995 16.5719)
(7.13435 -0.0851926 16.4265)
(4.89287 -0.091804 13.7863)
(4.07159 0.00781333 11.4537)
(3.1489 0.0972536 9.64093)
(2.32729 0.174923 8.60881)
(1.77554 0.0965813 7.31915)
(0.784007 -0.0243896 5.00838)
(0.23954 -0.0497665 2.86397)
(-1.74907 0.0109744 6.22369)
(-1.73613 0.00202876 11.5634)
(-7.0265 -0.0750725 18.2346)
(-0.810537 -0.0635517 19.5509)
(-16.8855 0.00670435 19.0872)
(11.0792 -0.0328386 11.81)
(4.00752 -0.0864447 16.5742)
(7.0929 -0.141733 16.4827)
(4.86466 -0.13378 13.9553)
(4.07204 0.0311424 11.6716)
(3.15506 0.15812 9.79576)
(2.33636 0.283441 8.53155)
(1.75369 0.135529 7.03373)
(0.747885 -0.0630715 4.83318)
(0.258415 -0.0705212 2.85067)
(-1.77827 0.00870009 6.11574)
(-1.8148 -0.0423946 11.5681)
(-7.0358 -0.151743 18.2439)
(-0.890201 -0.112627 19.3645)
(-16.9299 0.0338598 18.8963)
(11.0674 -0.0308744 11.8427)
(3.95169 -0.0916764 16.6086)
(7.0539 -0.148095 16.5764)
(4.83429 -0.11577 14.1122)
(4.07037 0.0467942 11.7974)
(3.15452 0.15291 9.88512)
(2.37559 0.260169 8.34558)
(1.77507 0.11441 6.7148)
(0.71776 -0.0742362 4.83329)
(0.212402 -0.0521094 2.91406)
(-1.85758 -0.00845152 6.05626)
(-1.89365 -0.0902331 11.5919)
(-7.06021 -0.108065 18.1577)
(-1.15921 -0.108398 19.0893)
(-17.0554 -0.00242652 18.4565)
(11.0577 -0.0263539 11.835)
(3.89769 -0.109036 16.5903)
(7.02198 -0.182851 16.6364)
(4.83782 -0.128861 14.2533)
(4.10203 0.0524013 11.9128)
(3.18003 0.161229 9.93033)
(2.39655 0.246745 8.21345)
(1.71531 0.138282 6.56261)
(0.606606 0.00258304 4.99949)
(0.245832 -0.00570515 3.06534)
(-1.82729 -0.0788706 6.24801)
(-1.84625 -0.190669 11.853)
(-7.06343 -0.0706631 18.2174)
(-1.00033 -0.103492 19.2463)
(-16.9876 -0.0552186 18.6166)
(11.0614 -0.0110913 11.7626)
(3.86577 -0.108976 16.5382)
(6.99298 -0.192525 16.7101)
(4.82997 -0.117665 14.4222)
(4.11293 0.0507723 12.0421)
(3.19818 0.140777 9.94556)
(2.4046 0.236543 8.13047)
(1.6828 0.221273 6.50473)
(0.659185 0.0434081 4.60647)
(0.274174 0.00167321 3.01744)
(-1.76054 -0.0835451 6.85302)
(-1.74803 -0.0954868 12.3375)
(-7.07776 -0.0678748 18.111)
(-0.894713 -0.100545 19.3301)
(-16.9464 -0.0552045 18.7068)
(11.087 0.00770305 11.5954)
(3.88043 -0.0970162 16.4071)
(6.97563 -0.188991 16.7556)
(4.82085 -0.10873 14.5944)
(4.11679 0.030965 12.1844)
(3.2157 0.109846 9.99971)
(2.43858 0.224425 8.10445)
(1.79015 0.199585 6.06541)
(0.73773 -0.00946788 4.06763)
(0.342293 -0.00820558 2.70301)
(-1.78405 -0.038088 6.59431)
(-1.80953 0.094905 12.1478)
(-7.08627 -0.0643749 18.2048)
(-0.877853 -0.10692 19.3607)
(-16.9201 -0.0596946 18.6926)
(11.1394 0.0155651 11.3084)
(3.97396 -0.0520905 16.1662)
(6.98685 -0.11767 16.7309)
(4.81183 -0.0657172 14.736)
(4.1047 0.00758749 12.3242)
(3.19432 0.0529365 10.127)
(2.47064 0.135742 7.97639)
(1.82144 0.0912153 5.8147)
(0.733245 -0.0683686 4.0981)
(0.433871 -0.0338041 2.4437)
(-1.9253 -0.0144703 6.09603)
(-1.90932 0.0862989 11.8848)
(-7.08194 -0.0884119 18.2988)
(-0.987951 -0.0905201 19.2463)
(-16.945 -0.0317624 18.5106)
(11.1618 0.00359249 11.1815)
(4.02816 0.0133513 16.0486)
(7.00234 0.0211181 16.6862)
(4.818 0.00906243 14.7594)
(4.10547 -0.00380374 12.3568)
(3.18311 -0.00626377 10.1909)
(2.48802 0.00501071 7.97402)
(1.87822 0.0479916 5.63715)
(0.754743 -0.0372935 3.86622)
(0.240652 -0.0726062 2.44161)
(-1.96852 -0.0272872 5.942)
(-2.03264 -0.00259608 11.6639)
(-7.10328 -0.0337613 18.2578)
(-1.22603 -0.0540298 19.012)
(-17.033 -0.0699335 18.1812)
(11.1267 -0.00106838 11.3825)
(3.94989 0.0725027 16.2255)
(6.98274 0.144951 16.7373)
(4.81008 0.0779261 14.7081)
(4.10589 -0.01574 12.2994)
(3.19629 -0.0601773 10.1322)
(2.48569 -0.145034 7.98814)
(1.90544 -0.123034 5.66973)
(0.867059 -0.0131782 3.72669)
(0.237182 -0.00829411 2.57617)
(-1.86739 -0.123723 6.16839)
(-1.96982 -0.14689 11.7336)
(-7.0755 0.0131239 18.3581)
(-0.968055 -0.0151102 19.2626)
(-16.907 -0.124366 18.5612)
(11.0837 0.0137542 11.6538)
(3.87255 0.109775 16.4493)
(6.97578 0.200958 16.75)
(4.81613 0.115432 14.5571)
(4.11528 -0.0352195 12.1569)
(3.21539 -0.117517 9.99998)
(2.46805 -0.258541 8.01279)
(1.79389 -0.256146 6.00357)
(0.77618 -0.0469044 3.95173)
(0.272422 0.0470649 2.75673)
(-1.69334 -0.0262932 6.89432)
(-1.8594 -0.143522 12.0419)
(-7.09257 -0.0226292 18.2128)
(-0.860375 -0.00265664 19.3564)
(-16.8413 -0.108774 18.7197)
(11.0644 0.0308245 11.8167)
(3.86349 0.118427 16.5721)
(6.99412 0.199424 16.7007)
(4.8217 0.122313 14.3826)
(4.10827 -0.0532089 12.0077)
(3.20364 -0.153726 9.91081)
(2.42239 -0.275729 8.0774)
(1.68973 -0.244514 6.42788)
(0.672382 -0.0922646 4.51604)
(0.334442 -0.00168326 2.71839)
(-1.78385 0.0806927 6.85705)
(-1.81118 0.0548266 12.4401)
(-7.09829 -0.0147761 18.1127)
(-0.914924 -0.00623526 19.2977)
(-16.8401 -0.102142 18.6493)
(11.0632 0.0423534 11.8841)
(3.89452 0.114649 16.613)
(7.02389 0.183856 16.6211)
(4.82887 0.130992 14.2105)
(4.0974 -0.0565419 11.8683)
(3.18282 -0.174481 9.87878)
(2.40511 -0.276832 8.15589)
(1.70536 -0.175706 6.54551)
(0.653241 -0.0559245 4.77361)
(0.236972 -0.0120662 2.82895)
(-1.8422 0.0701495 6.39866)
(-1.90776 0.18058 12.0559)
(-7.09062 0.00689293 18.1942)
(-1.04307 0.00840653 19.1949)
(-16.854 -0.0769985 18.5058)
(11.0753 0.0416238 11.8834)
(3.94921 0.0943881 16.6234)
(7.05648 0.14686 16.56)
(4.82405 0.116843 14.07)
(4.0646 -0.050345 11.7443)
(3.15092 -0.165192 9.84078)
(2.39008 -0.275183 8.26776)
(1.76839 -0.121386 6.67055)
(0.78059 0.0163432 4.61219)
(0.165961 0.0621515 2.7107)
(-1.9127 0.0445977 6.04688)
(-2.02693 0.133965 11.7336)
(-7.10079 0.0648734 18.1596)
(-1.21935 0.0330514 19.0192)
(-16.8937 -0.0994904 18.3383)
(11.0889 0.0395914 11.8424)
(4.00692 0.08734 16.5843)
(7.0961 0.139006 16.4662)
(4.85419 0.133768 13.9124)
(4.06497 -0.0347772 11.614)
(3.14981 -0.168336 9.75092)
(2.35255 -0.302036 8.45787)
(1.77068 -0.154431 6.89756)
(0.823101 0.0366776 4.60578)
(0.197885 0.140116 2.59784)
(-1.88259 -0.0323521 6.01139)
(-1.98235 0.0574769 11.694)
(-7.08203 0.111805 18.2479)
(-0.976968 0.0448692 19.2835)
(-16.751 -0.123895 18.7479)
(11.1059 0.0215378 11.7986)
(4.07159 0.0496076 16.5801)
(7.13685 0.0833987 16.4128)
(4.88044 0.0916959 13.7466)
(4.06133 -0.00953152 11.3966)
(3.13867 -0.102364 9.59413)
(2.34049 -0.188254 8.52244)
(1.77838 -0.116321 7.2467)
(0.874735 0.029875 4.83538)
(0.232801 0.172803 2.51409)
(-1.82247 -0.0321936 6.12184)
(-1.9249 0.0125997 11.6801)
(-7.08901 0.0512659 18.2275)
(-0.912937 0.0245709 19.4434)
(-16.6858 -0.0523256 18.9156)
(13.0288 -0.0154285 9.01999)
(5.81135 -0.0443483 15.8745)
(8.93662 -0.0864344 16.9361)
(7.15581 -0.120729 15.285)
(5.59247 -0.0360831 12.6464)
(4.26728 0.0827474 10.5655)
(3.09621 0.197242 9.32344)
(2.29454 0.144343 8.10632)
(1.02187 -0.0114097 6.09462)
(0.160901 -0.0492869 4.08333)
(-2.2597 0.00181531 7.88022)
(-2.92311 -0.0253591 13.7832)
(-8.62232 -0.106634 19.8325)
(-2.0729 -0.059184 20.5404)
(-20.8174 0.00538154 17.6823)
(13.0344 -0.0258604 9.07191)
(5.73747 -0.0721289 15.9023)
(8.87942 -0.142842 16.9714)
(7.10344 -0.179907 15.3944)
(5.5783 -0.0342373 12.8246)
(4.27101 0.136649 10.731)
(3.10602 0.306797 9.31629)
(2.27056 0.200761 7.8881)
(0.975396 -0.0527145 5.90723)
(0.155368 -0.0788689 4.0507)
(-2.30579 -0.0193024 7.83656)
(-3.02181 -0.0933133 13.8224)
(-8.64499 -0.221839 19.7904)
(-2.20597 -0.0908403 20.3365)
(-20.8179 0.0442896 17.4994)
(13.0402 -0.0170109 9.11226)
(5.67101 -0.0657852 15.9448)
(8.82707 -0.152223 17.0397)
(7.04993 -0.1667 15.5127)
(5.55636 -0.0138218 12.9442)
(4.26036 0.137073 10.8359)
(3.13842 0.282923 9.22438)
(2.30556 0.171925 7.61541)
(0.954012 -0.065274 5.83576)
(0.0723988 -0.0661535 4.08749)
(-2.38983 -0.0428233 7.85266)
(-3.12636 -0.117394 13.8669)
(-8.7117 -0.158825 19.6652)
(-2.64214 -0.110152 20.014)
(-20.832 -0.00828546 17.0712)
(13.0475 0.00143713 9.13032)
(5.60299 -0.0652636 15.9357)
(8.7762 -0.19312 17.068)
(7.0309 -0.194001 15.6151)
(5.58227 -0.0156994 13.0599)
(4.29276 0.147386 10.9079)
(3.1693 0.27057 9.14291)
(2.25962 0.183022 7.44846)
(0.822998 0.00750439 5.89927)
(0.114683 -0.0434097 4.18474)
(-2.3465 -0.126436 8.00509)
(-3.07453 -0.191411 14.0318)
(-8.69298 -0.097263 19.726)
(-2.37614 -0.136333 20.1545)
(-20.8168 -0.0880211 17.2384)
(13.0635 0.024427 9.09379)
(5.56838 -0.0472262 15.8722)
(8.73857 -0.207566 17.0895)
(7.00515 -0.187049 15.7393)
(5.57971 -0.0124235 13.1945)
(4.30823 0.128628 10.9604)
(3.18315 0.245171 9.08276)
(2.2254 0.244871 7.39231)
(0.87016 0.0401725 5.61644)
(0.177564 -0.0627487 4.17905)
(-2.2575 -0.117563 8.43661)
(-2.97424 -0.112566 14.2783)
(-8.69441 -0.106641 19.6403)
(-2.20144 -0.131292 20.2361)
(-20.8084 -0.0910677 17.3323)
(13.0767 0.0383788 8.97325)
(5.58909 -0.0230367 15.7062)
(8.72752 -0.205741 17.0597)
(6.98765 -0.176645 15.8575)
(5.57128 -0.0261943 13.3377)
(4.31978 0.0949572 11.0388)
(3.21125 0.223015 9.09305)
(2.32306 0.225915 7.12502)
(0.983459 -0.0175658 5.19112)
(0.241757 -0.084507 3.92314)
(-2.29766 -0.0456609 8.23034)
(-3.05599 0.0469746 14.1942)
(-8.69582 -0.118493 19.717)
(-2.15804 -0.145112 20.2335)
(-20.7789 -0.101464 17.3109)
(13.0736 0.030792 8.74403)
(5.69595 0.00323376 15.4022)
(8.76795 -0.12665 16.9403)
(6.98973 -0.107293 15.9358)
(5.54993 -0.026666 13.4672)
(4.28642 0.0395826 11.1682)
(3.22676 0.127021 9.05204)
(2.36948 0.107022 6.91451)
(0.993312 -0.0917093 5.14299)
(0.252052 -0.0887269 3.73633)
(-2.45444 -0.0257168 7.91456)
(-3.17061 0.0287834 14.0949)
(-8.70758 -0.160444 19.761)
(-2.33452 -0.121623 20.0737)
(-20.7495 -0.0571905 17.1163)
(13.0652 -0.00289097 8.63976)
(5.75329 0.00641278 15.2587)
(8.79768 0.0252509 16.8619)