/*--------------------------------*- C++ -*----------------------------------*\
| =========                 |                                                 |
| \\      /  F ield         | OpenFOAM: The Open Source CFD Toolbox           |
|  \\    /   O peration     | Version:  4.1                                   |
|   \\  /    A nd           | Web:      www.OpenFOAM.org                      |
|    \\/     M anipulation  |                                                 |
\*---------------------------------------------------------------------------*/
FoamFile
{
    version     2.0;
    format      ascii;
    class       volScalarField;
    location    "933";
    object      p;
}
// * * * * * * * * * * * * * * * * * * * * * * * * * * * * * * * * * * * * * //

dimensions      [0 2 -2 0 0 0 0];

internalField   nonuniform List<scalar> 
204246
(
136.727
-7.22788
45.6315
26.1112
24.2183
31.0472
20.0413
31.7181
18.9691
31.7643
18.3593
32.4081
16.7113
32.6346
17.7828
29.9066
24.0467
18.382
30.5678
15.7501
31.6152
15.9466
30.0826
16.5467
29.8162
16.2143
30.5789
14.3236
31.3945
13.9612
31.314
14.337
30.3491
16.8265
26.4676
23.0404
16.2041
28.7458
14.9209
28.4205
15.3249
28.5518
15.07
29.5036
13.3207
30.4025
13.2179
30.1518
14.4351
27.9388
16.7368
25.3694
22.5113
15.3292
28.0051
14.037
27.5601
14.3667
27.5789
13.9963
28.4002
12.0968
29.1403
11.8307
28.6858
12.8998
26.2201
14.9158
23.5365
20.0203
14.0549
23.7521
12.3196
24.2399
11.324
23.9522
10.0716
24.0098
7.22681
23.5414
6.0333
21.0847
6.43908
16.7658
5.52887
12.2757
7.31572
0.30587
6.04343
-3.47059
2.43383
-8.98728
-1.61511
-16.316
-6.34969
-22.3698
-11.6341
-28.101
-16.895
-32.1637
-22.0466
-35.6024
-24.7498
-35.7007
-26.7028
-30.8951
-34.6117
-23.083
-34.1369
-18.0631
-32.5099
-14.7677
-28.405
-11.4923
-25.946
-9.40462
-24.3145
-8.11237
-23.2028
-7.9117
-21.413
-10.2094
-15.4285
-20.5033
-9.07817
-22.9821
-7.53153
-23.4591
-7.02227
-23.4062
-6.70205
-23.1741
-6.40012
-22.8659
-6.10065
-22.1075
-6.3534
-20.205
-8.61624
-13.8372
-18.7236
-7.17141
-20.7957
-5.35856
-20.8846
-4.49807
-20.6419
-3.92615
-20.1518
-3.36832
-19.4546
-2.78691
-18.3321
-2.44471
-15.7684
-3.94678
-8.5637
-12.6806
-0.660922
-13.2353
2.8089
-11.1879
5.23131
-7.53094
7.89645
-2.86755
11.774
2.88831
16.8833
9.87491
23.1924
18.8554
31.1772
30.4124
40.6701
47.1932
49.435
63.2909
67.8293
81.1367
90.8853
104.256
118.598
133.499
153.44
171.268
199.558
222.213
266.118
295.059
382.793
398.716
605.757
45.1181
24.5743
24.4701
29.4736
23.1025
28.2857
22.9939
27.5874
22.9216
27.3748
22.6416
27.4679
22.5278
26.4707
23.7857
24.1738
26.8017
21.1287
26.4528
21.157
25.9317
21.5148
25.3766
21.2057
25.4081
20.6965
25.7592
20.1566
25.4725
20.1641
25.0193
20.599
23.9211
22.0722
21.8825
24.8878
19.3991
24.3617
19.8803
23.9367
19.7865
24.126
19.4655
24.6097
19.1127
24.3801
19.3823
23.8246
20.2252
22.7344
21.2995
20.9561
24.1188
18.5908
23.5686
19.0547
23.0866
18.8902
23.1902
18.4654
23.5588
17.9799
23.1821
18.0873
22.4562
18.7099
21.2485
19.4825
19.4005
21.7939
17.0297
20.8702
16.5727
20.4424
15.9762
20.0073
14.9712
19.6367
13.7251
18.1796
12.8203
16.0616
11.9132
13.8125
10.8082
9.50119
10.802
5.16713
5.51604
1.14593
1.6923
-3.79237
-2.69938
-9.55117
-8.26733
-15.2703
-14.1544
-20.887
-20.0976
-25.7066
-25.1792
-29.6544
-29.2986
-30.9441
-31.9557
-28.9185
-33.7037
-27.6039
-31.3792
-24.6187
-27.8995
-21.5357
-24.6531
-18.6551
-21.3351
-16.1512
-19.3314
-14.564
-17.9144
-14.2913
-16.1948
-15.7912
-13.1879
-18.3473
-13.0887
-18.2923
-13.0144
-18.149
-12.8558
-17.9564
-12.6294
-17.6868
-12.3784
-17.3009
-12.2639
-16.5324
-12.6194
-14.8686
-14.1961
-11.6158
-16.5322
-11.2283
-16.1805
-10.8478
-15.7698
-10.387
-15.3359
-9.96463
-14.8424
-9.51862
-14.1927
-9.1118
-13.1319
-9.04343
-10.9503
-9.92153
-7.08438
-11.2516
-5.5787
-9.57477
-3.76411
-7.24915
-1.47756
-4.51357
1.43462
-1.08528
5.13726
3.42996
9.87455
9.24189
15.2747
16.988
22.2221
26.7576
30.3973
39.1467
42.8392
51.9125
58.4767
67.9967
77.6829
88.1405
101.18
112.763
129.944
142.755
165.967
179.388
214.647
221.285
296.009
261.449
396.129
20.5327
31.4091
27.0173
28.9359
25.2455
27.9402
24.0068
27.617
23.3638
27.4004
22.9613
27.1968
22.8334
26.4376
23.5634
24.7372
25.17
22.5546
25.7067
21.6423
25.7748
21.3915
25.5055
21.1362
25.3832
20.7775
25.4243
20.3699
25.3037
20.2768
24.9631
20.6186
24.1043
21.674
22.4156
23.2709
20.6133
23.7784
20.0624
23.9291
19.8089
24.0669
19.5748
24.272
19.3341
24.2315
19.4513
23.87
20.0045
23.0186
20.9677
21.5455
22.5488
19.8114
23.0195
19.2464
23.108
18.9259
23.1563
18.5881
23.2445
18.213
23.059
18.1678
22.5273
18.5222
21.4845
19.201
19.86
20.37
17.9871
20.4536
16.9013
20.3152
16.0865
19.9423
15.1319
19.3795
14.0107
18.226
12.9695
16.4183
12.3078
13.4635
11.4456
9.87354
9.42792
6.03498
6.08338
2.24981
1.58643
-2.36991
-3.32236
-7.74357
-8.9488
-13.4092
-14.9623
-19.1873
-20.9168
-24.5023
-26.1362
-28.968
-29.9354
-31.0134
-32.4598
-30.3847
-33.1154
-28.7317
-31.2276
-25.6507
-27.8153
-22.3316
-23.6879
-18.91
-20.6544
-15.9675
-18.6875
-14.1552
-17.3421
-13.7683
-15.9654
-14.8836
-14.2554
-16.7876
-13.51
-17.6478
-13.0569
-17.8982
-12.7809
-17.8359
-12.5361
-17.6017
-12.3026
-17.2047
-12.1865
-16.4854
-12.4643
-15.141
-13.5723
-12.9854
-15.2163
-11.7755
-15.6669
-10.9199
-15.5633
-10.328
-15.2198
-9.84557
-14.7408
-9.38394
-14.0775
-8.97858
-13.0354
-8.8532
-11.1602
-9.34603
-8.26054
-9.98857
-6.06502
-9.15574
-3.78529
-7.30211
-1.54302
-4.39514
1.0216
-0.508224
4.50074
4.2689
9.14646
10.2311
15.1785
17.6875
22.6847
27.2026
32.3
38.8141
43.8401
52.8421
59.4565
69.6895
79.362
90.6177
104.167
116.689
135.274
149.147
174.808
189.482
229.191
237.112
313.272
292.002
380.782
6.73216
23.0479
18.9898
26.0167
22.4493
26.3109
23.7047
26.0777
24.1933
25.8726
24.3124
25.612
24.5501
24.8261
25.1871
23.719
25.8469
23.11
25.0934
23.1183
24.4608
23.1116
24.1109
22.8102
23.9806
22.4718
23.8907
22.2723
23.5357
22.2752
23.074
22.5414
22.3675
23.1807
21.5255
23.7392
21.1872
23.0631
21.3635
22.7164
21.2944
22.6693
21.1665
22.6934
21.1632
22.4293
21.3685
22.0301
21.7787
21.4811
22.3048
20.7381
22.9284
20.4323
22.2753
20.5884
21.9079
20.4602
21.7963
20.242
21.7187
20.1177
21.325
20.1664
20.7787
20.3827
20.119
20.6463
19.2229
20.9924
18.6827
20.1661
18.333
19.5366
17.8635
18.9874
17.2015
18.3187
16.4968
17.0998
15.652
15.5537
14.4962
13.7525
13.255
11.069
11.2777
8.16619
7.58237
4.57062
3.53628
0.237586
-1.3779
-4.80983
-7.20952
-10.5562
-13.4778
-16.6444
-19.9071
-22.5723
-25.7877
-27.716
-30.6075
-30.8811
-33.2998
-31.964
-33.8625
-31.2516
-31.7887
-28.8902
-27.7353
-25.4278
-23.782
-21.7674
-20.2355
-18.6621
-17.7075
-16.8031
-16.1294
-16.0977
-15.0082
-16.3976
-14.1198
-16.6757
-14.5619
-16.623
-14.841
-16.5245
-14.8472
-16.3413
-14.6894
-16.0523
-14.4818
-15.6231
-14.3622
-14.9499
-14.5054
-13.8905
-15.0005
-12.7386
-15.0884
-12.8038
-14.6782
-12.7068
-14.2491
-12.4562
-13.8191
-12.1378
-13.357
-11.7868
-12.7726
-11.4705
-11.9085
-11.3597
-10.4512
-11.2775
-8.92825
-10.5538
-8.11471
-9.1325
-6.83484
-7.27487
-4.95238
-5.05358
-2.60648
-2.21067
0.509681
1.42391
4.54185
6.08392
9.47154
12.2642
15.7358
19.9873
23.5673
29.7723
33.9144
40.8472
46.9671
54.3
62.9664
70.7925
82.3819
90.6874
105.903
114.682
135.254
142.338
175.389
170.272
227.761
214.625
285.722
9.09692
24.558
20.048
25.3204
23.4757
25.8161
24.3617
25.8905
24.5729
25.7858
24.54
25.4804
24.6436
24.8632
24.9001
24.0888
24.9963
23.7633
24.5576
23.471
24.2547
23.1527
24.0673
22.8015
23.8944
22.5183
23.6985
22.3698
23.4027
22.3296
23.0257
22.4657
22.4677
22.7677
21.8938
22.9194
21.7412
22.6066
21.594
22.5483
21.3831
22.54
21.2534
22.4948
21.2705
22.3114
21.3868
22.0417
21.622
21.6553
21.9324
21.1402
22.1617
21.0068
21.8717
20.8408
21.7834
20.5737
21.7033
20.3528
21.5561
20.2439
21.2432
20.2016
20.812
20.2525
20.2364
20.3558
19.5093
20.2863
19.1323
19.8148
18.6025
19.3772
18.0047
18.9111
17.328
18.2531
16.6646
17.2214
15.8972
15.7496
14.8402
13.8264
13.3599
11.5758
11.2061
8.91489
8.2803
5.45502
4.39572
1.31231
-0.343279
-3.64179
-5.93475
-9.39087
-12.2272
-15.6487
-18.8719
-21.9409
-25.2328
-27.4978
-30.5288
-31.4639
-33.8121
-33.1532
-34.6555
-32.6412
-32.6415
-29.9082
-28.7224
-25.6698
-24.0439
-21.4006
-19.8302
-17.9755
-16.8251
-15.8097
-15.2458
-14.995
-14.4915
-15.1733
-14.3279
-15.5616
-14.6802
-15.9268
-14.8093
-16.1222
-14.7464
-16.0874
-14.5871
-15.861
-14.4011
-15.4659
-14.282
-14.8615
-14.3311
-14.0729
-14.4854
-13.334
-14.3415
-13.1219
-14.1339
-12.7459
-13.8749
-12.3542
-13.5268
-11.9699
-13.0918
-11.5917
-12.511
-11.2483
-11.6781
-11.1295
-10.5364
-10.7026
-9.24079
-9.97126
-8.23387
-8.71933
-6.81432
-7.03321
-4.92848
-4.74766
-2.40693
-1.83903
0.861515
1.89896
5.02568
6.76959
10.2487
12.9819
16.871
20.8819
25.2062
30.637
35.867
42.5937
49.473
57.2145
66.5031
75.1341
87.5875
96.9524
113.398
123.043
145.558
153.299
187.657
184.592
233.882
222.52
267.619
7.70564
20.0798
17.1303
22.5709
21.554
24.3364
23.5703
25.0794
24.5925
25.1984
24.9573
25.0302
25.1909
24.6283
25.3388
24.1466
25.2287
24.0354
24.5916
24.0262
24.0266
23.8038
23.7245
23.5153
23.4759
23.2672
23.2067
23.1351
22.8572
23.0872
22.4961
23.1289
22.1108
23.213
21.8017
23.0814
21.9041
22.5373
21.9995
22.2551
21.9408
22.1047
21.8911
21.9732
21.9428
21.759
22.0571
21.521
22.2161
21.2818
22.3503
21.0689
22.2854
21.2057
21.7869
21.2799
21.5129
21.1747
21.3139
21.0483
21.0903
20.9905
20.7616
20.952
20.4044
20.8923
20.0565
20.8573
19.6448
20.6124
19.4757
20.0177
19.2914
19.404
18.8835
18.9101
18.3642
18.2936
17.781
17.4206
17.0209
16.3151
16.0244
14.8689
14.6831
12.9249
12.7448
10.468
9.90723
7.38956
6.25971
3.46446
1.70726
-1.36831
-3.84532
-7.13936
-10.2853
-13.6737
-17.3307
-20.5595
-24.4077
-27.0675
-30.6648
-32.1456
-34.9627
-34.9345
-36.4203
-35.0789
-34.7994
-32.4698
-30.9037
-28.1489
-25.9235
-23.3621
-21.1937
-19.3307
-17.6422
-16.7421
-15.527
-15.5564
-14.6828
-15.3537
-14.633
-15.6066
-15.1784
-15.8335
-15.6641
-16.0152
-15.7209
-15.9182
-15.5858
-15.6264
-15.3747
-15.1896
-15.1656
-14.6569
-15.0392
-14.0426
-14.9833
-13.602
-14.5188
-13.64
-14.1332
-13.555
-13.7659
-13.3683
-13.3936
-13.1173
-12.9934
-12.8294
-12.5209
-12.4915
-11.9276
-12.2361
-11.1068
-11.8111
-10.3916
-10.8673
-9.65644
-9.83856
-8.60201
-8.49073
-7.18485
-6.7787
-5.25838
-4.60415
-2.75242
-1.75541
0.450677
2.00744
4.52027
6.87943
9.68406
13.0725
16.3123
20.7587
24.9022
30.023
35.7248
41.3041
49.1542
55.0984
65.5781
71.8312
85.6284
91.5916
110.436
113.654
144.083
137.632
178.815
176.306
216.899
11.192
22.6201
18.5407
23.3812
22.2147
24.3756
23.8697
24.9805
24.6925
25.0954
25.009
24.9543
25.1467
24.6556
25.0822
24.2614
24.8698
24.2279
24.3813
24.1025
23.9283
23.8131
23.6494
23.5066
23.3915
23.2731
23.1047
23.1283
22.802
23.0401
22.4927
23.0048
22.1685
22.9561
21.9309
22.7017
22.0909
22.2732
22.1074
22.1018
21.9926
21.9969
21.9183
21.8723
21.9468
21.696
22.0034
21.5411
22.0787
21.3719
22.1024
21.2658
21.962
21.4125
21.6129
21.4041
21.4167
21.2554
21.246
21.1069
21.0371
21.0052
20.7628
20.9229
20.437
20.8058
20.0964
20.6221
19.7394
20.3353
19.6063
19.8618
19.3743
19.356
18.9458
18.8854
18.4587
18.3002
17.9002
17.525
17.186
16.4877
16.2204
15.1665
14.957
13.4959
13.1692
11.3736
10.695
8.53857
7.40921
4.89481
3.175
0.313318
-2.10473
-5.33237
-8.46129
-11.9734
-15.6904
-19.2423
-23.2571
-26.4098
-30.2731
-32.4388
-35.4669
-36.1647
-37.7554
-36.7998
-36.6366
-34.1396
-32.4012
-29.0061
-26.5089
-23.1625
-20.7921
-18.2885
-16.5969
-15.2449
-14.345
-14.0477
-13.6353
-14.1407
-13.9215
-14.7063
-14.709
-15.2672
-15.3378
-15.6779
-15.4937
-15.6888
-15.4349
-15.4549
-15.2758
-15.0876
-15.0768
-14.6188
-14.8742
-14.0608
-14.6275
-13.6983
-14.1438
-13.6307
-13.7175
-13.4213
-13.3776
-13.1366
-13.0539
-12.83
-12.6886
-12.5112
-12.2593
-12.1905
-11.6806
-11.8427
-10.9639
-11.3312
-10.2031
-10.6529
-9.40451
-9.59746
-8.32102
-8.2128
-6.81069
-6.43752
-4.77227
-4.15387
-2.12449
-1.1752
1.21193
2.74809
5.46833
7.78401
10.9168
14.1492
17.8856
22.0778
26.8331
31.8458
38.1914
43.8497
52.302
58.4986
69.5998
76.0956
90.5579
96.6551
116.297
118.508
146.449
143.103
174.314
170.473
199.274
10.9578
21.4749
17.4036
22.5876
21.2584
23.8224
23.3756
24.679
24.5661
25.0037
25.1863
24.9475
25.4029
24.7641
25.3847
24.5285
25.0603
24.5087
24.554
24.3803
24.1114
24.0954
23.7217
23.8249
23.3951
23.6049
23.0591
23.4451
22.7448
23.3111
22.4545
23.2291
22.1574
23.1493
22.0028
22.7962
22.1889
22.3373
22.2765
22.0739
22.2305
21.8879
22.1942
21.7298
22.2248
21.5801
22.2491
21.4575
22.2802
21.3579
22.2675
21.3169
22.053
21.5224
21.6817
21.5865
21.4469
21.517
21.2269
21.4057
21.0055
21.3177
20.7282
21.2284
20.4395
21.1205
20.1784
20.956
19.9207
20.5944
19.9031
20.0955
19.7433
19.6684
19.4296
19.2088
19.0631
18.678
18.5944
18.0433
17.9662
17.2479
17.163
16.1277
16.0461
14.651
14.4459
12.7219
12.1703
10.1671
9.11238
6.79468
5.10094
2.41881
-0.024599
-3.12012
-6.3613
-9.84893
-13.8469
-17.5862
-22.0996
-25.7243
-30.2433
-33.1365
-36.8678
-38.3056
-40.4076
-39.966
-39.841
-37.698
-35.6954
-32.4035
-29.3248
-25.8179
-22.6787
-19.9259
-17.4913
-15.9832
-14.4857
-14.2097
-13.4909
-14.0199
-13.9007
-14.7226
-14.8831
-15.5577
-15.715
-16.1091
-16.1556
-16.0744
-16.1083
-15.7335
-15.8469
-15.2705
-15.5325
-14.7705
-15.2546
-14.314
-14.9158
-14.0963
-14.3964
-14.0936
-14.0281
-13.9999
-13.6984
-13.8079
-13.3962
-13.5687
-13.0604
-13.3071
-12.6913
-13.0282
-12.2547
-12.7381
-11.7454
-12.3218
-11.243
-11.5771
-10.7727
-10.7833
-9.98696
-9.82737
-8.88041
-8.60548
-7.42167
-6.96346
-5.53607
-4.75407
-3.08296
-1.84178
0.113007
1.94245
4.26615
6.77797
9.67023
12.8363
16.687
20.3659
25.5894
29.6568
36.768
41.109
50.5789
55.0819
67.5659
71.3783
89.0693
89.7704
114.358
112.448
140.896
140.807
167.829
14.5144
23.5684
19.0603
23.8523
22.0372
24.3215
23.6885
24.7764
24.6293
24.9724
25.1127
24.9282
25.2703
24.7595
25.1521
24.5883
24.8469
24.5374
24.4446
24.3394
24.0657
24.0549
23.694
23.7732
23.3613
23.5625
23.0218
23.3973
22.7052
23.262
22.4156
23.138
22.1617
22.9647
22.0579
22.6097
22.2107
22.212
22.2529
22.007
22.1975
21.8283
22.1637
21.6877
22.1501
21.5583
22.1769
21.4476
22.1916
21.3654
22.1223
21.4066
21.9042
21.5941
21.5889
21.6337
21.41
21.5537
21.2118
21.4365
20.994
21.3303
20.7253
21.2121
20.4383
21.0435
20.1794
20.8132
19.9736
20.4331
19.937
19.9914
19.7481
19.617
19.4537
19.1958
19.1113
18.7149
18.6822
18.1389
18.1253
17.4056
17.416
16.4823
16.449
15.2765
15.0594
13.6878
13.122
11.4755
10.4561
8.47606
6.8633
4.47756
2.12589
-0.778877
-3.98597
-7.47564
-11.5469
-15.5126
-20.2362
-24.3563
-29.2589
-32.9089
-37.1345
-39.4923
-42.014
-42.3303
-42.5906
-40.6078
-38.4872
-34.5764
-30.919
-26.4287
-22.6747
-19.0922
-16.4079
-14.403
-13.0598
-12.4879
-12.156
-12.5258
-12.7972
-13.6118
-14.0995
-14.873
-15.2045
-15.6886
-15.832
-15.9066
-15.9008
-15.7256
-15.7268
-15.3531
-15.4678
-14.8632
-15.1296
-14.3373
-14.6708
-13.9903
-14.1689
-13.8647
-13.724
-13.6882
-13.3645
-13.4667
-13.0535
-13.2395
-12.7194
-12.9771
-12.3717
-12.6737
-11.9696
-12.359
-11.5007
-11.9423
-11.0345
-11.3207
-10.47
-10.5584
-9.6335
-9.56613
-8.51932
-8.25423
-7.02961
-6.53762
-5.06198
-4.28598
-2.53622
-1.31764
0.740111
2.51379
4.99219
7.38238
10.4968
13.509
17.5908
21.1126
26.6385
30.5133
37.8983
42.0316
51.6762
55.8578
68.4696
71.6712
88.6001
88.9332
110.603
108.25
131.031
129.883
151.309
14.4695
23.9711
18.994
24.0027
21.7517
24.6135
23.5565
25.0651
24.6764
25.261
25.2944
25.2288
25.5204
25.0811
25.41
24.9106
25.0844
24.804
24.6905
24.5872
24.2818
24.2882
23.8646
24.0006
23.4718
23.7646
23.1096
23.5676
22.7884
23.401
22.5127
23.2605
22.2551
23.0778
22.1537
22.7041
22.3
22.2933
22.3561
22.0665
22.3049
21.8715
22.2677
21.6983
22.2761
21.5718
22.2827
21.4582
22.3072
21.424
22.203
21.4894
21.9858
21.69
21.6669
21.7567
21.4898
21.6996
21.2941
21.6077
21.075
21.5108
20.8294
21.404
20.5589
21.2637
20.3384
21.0368
20.1724
20.6579
20.1834
20.2365
20.0423
19.9027
19.8003
19.541
19.5264
19.1359
19.1854
18.6582
18.7375
18.0568
18.1319
17.2639
17.2848
16.2172
16.0617
14.7887
14.3367
12.8245
11.9259
10.1183
8.61856
6.42005
4.16996
1.44269
-1.69848
-5.06518
-9.18862
-13.247
-18.3026
-22.8758
-28.4752
-33.0003
-38.2448
-41.657
-45.2963
-46.3541
-46.9417
-45.1245
-42.9165
-38.9721
-34.8485
-29.9026
-25.1824
-20.8509
-17.0945
-14.5061
-12.4711
-11.8093
-11.2162
-11.8453
-12.0734
-13.3509
-13.9163
-15.1616
-15.6496
-16.3575
-16.6367
-16.4899
-16.6352
-16.0774
-16.2099
-15.5282
-15.7715
-15.02
-15.3678
-14.6188
-14.9454
-14.3491
-14.4525
-14.3121
-14.0934
-14.2171
-13.7976
-14.0149
-13.5049
-13.8238
-13.1963
-13.583
-12.8948
-13.3283
-12.5616
-13.0591
-12.2316
-12.6861
-11.9523
-12.1688
-11.5746
-11.649
-11.0078
-10.9793
-10.2508
-10.0899
-9.22052
-8.89808
-7.83914
-7.29243
-6.02339
-5.15011
-3.60622
-2.32921
-0.399674
1.31631
3.823
5.95591
9.35087
11.831
16.4612
19.1914
25.4948
28.392
36.8043
39.6831
50.9335
53.0825
68.6128
68.4245
87.8866
88.3089
108.723
109.21
129.266
17.4247
25.6932
20.7761
25.1865
22.6295
25.2458
23.9204
25.2979
24.7542
25.2961
25.2207
25.2079
25.3897
25.0678
25.2742
24.8941
24.9927
24.767
24.6178
24.5516
24.2224
24.2619
23.8103
23.975
23.4183
23.7249
23.062
23.5286
22.735
23.3566
22.4513
23.203
22.2085
22.9801
22.1426
22.6012
22.2726
22.2033
22.3147
21.9873
22.2629
21.8071
22.2182
21.6521
22.2034
21.5221
22.2231
21.4188
22.2271
21.4079
22.1237
21.4984
21.915
21.7104
21.6086
21.7914
21.4713
21.7237
21.2997
21.6337
21.0859
21.5267
20.8367
21.4035
20.5594
21.2257
20.3276
20.9747
20.1701
20.577
20.1678
20.1517
20.0452
19.8325
19.8165
19.501
19.5674
19.1507
19.2681
18.7476
18.9002
18.2492
18.4207
17.6438
17.7418
16.8539
16.7689
15.7654
15.3716
14.1837
13.3624
11.912
10.5375
8.70474
6.60448
4.18361
1.13815
-2.08281
-6.22426
-10.3713
-15.6325
-20.6439
-26.7127
-32.0832
-38.1229
-42.7333
-47.1915
-49.6024
-51.1262
-50.2455
-48.2535
-43.8998
-39.0499
-32.817
-26.8163
-21.2998
-16.7711
-13.5235
-11.1514
-10.1342
-9.52863
-10.0662
-10.4555
-11.7932
-12.6967
-14.081
-14.8822
-15.817
-16.3048
-16.4763
-16.5892
-16.2974
-16.329
-15.8055
-15.982
-15.2256
-15.461
-14.601
-14.8548
-14.0989
-14.2048
-14.0254
-13.7724
-13.8751
-13.4289
-13.6948
-13.1286
-13.5119
-12.876
-13.3023
-12.5946
-13.0684
-12.2923
-12.8126
-11.9955
-12.4625
-11.7593
-11.9784
-11.4087
-11.476
-10.867
-10.8111
-10.1428
-9.94338
-9.14889
-8.79357
-7.80903
-7.25166
-6.04799
-5.2029
-3.72598
-2.52257
-0.64734
0.933384
3.41868
5.34395
8.72947
10.8958
15.5622
17.8801
24.1548
26.5811
34.8529
37.0898
48.1067
49.1777
63.6579
63.5659
79.8826
79.788
97.0226
97.1175
114.15
18.2422
26.5846
21.277
25.9634
23.0598
25.9131
24.3115
25.8806
25.1464
25.7908
25.6135
25.6302
25.7612
25.4595
25.6365
25.2348
25.3288
25.0497
24.9002
24.8243
24.452
24.5181
23.9901
24.1982
23.5568
23.9151
23.161
23.6902
22.8306
23.5004
22.5503
23.319
22.3192
23.072
22.2486
22.6942
22.3637
22.2867
22.4085
22.0501
22.3612
21.8496
22.3114
21.6691
22.3072
21.5409
22.3055
21.4486
22.2977
21.4671
22.1858
21.5704
21.9835
21.7899
21.682
21.8911
21.5493
21.8457
21.3868
21.7722
21.1861
21.6824
20.9507
21.5704
20.6967
21.4069
20.4815
21.1598
20.3509
20.7734
20.3786
20.3567
20.2948
20.0719
20.093
19.7777
19.889
19.4737
19.6555
19.1297
19.3531
18.737
18.9149
18.2375
18.3355
17.5623
17.4975
16.6196
16.3098
15.2747
14.5749
13.3035
12.0755
10.4527
8.54516
6.37096
3.55564
0.556694
-3.41929
-7.46889
-12.722
-17.9148
-24.4447
-30.5458
-37.7366
-43.8206
-50.1144
-53.8934
-56.6683
-55.999
-54.135
-49.63
-44.2767
-37.498
-30.2228
-23.1228
-16.7663
-12.2707
-9.13187
-7.98957
-7.36187
-8.34464
-8.89463
-10.9091
-12.1511
-14.2539
-15.4829
-16.6432
-17.4418
-17.2452
-17.4833
-16.6316
-16.659
-15.8311
-16.0273
-15.321
-15.5899
-14.8895
-15.116
-14.4752
-14.5146
-14.4826
-14.1756
-14.3801
-13.8941
-14.1911
-13.5772
-14.0004
-13.2957
-13.7918
-13.016
-13.577
-12.7349
-13.3298
-12.5375
-13.0006
-12.4333
-12.6258
-12.1831
-12.302
-11.8176
-11.8754
-11.3173
-11.3063
-10.6382
-10.5179
-9.71412
-9.43462
-8.46945
-7.96025
-6.75549
-5.98636
-4.42167
-3.39487
-1.30175
-0.0294602
2.81131
4.28018
8.22207
9.75047
15.1755
16.6864
24.0396
25.3504
35.2663
35.8552
48.2637
49.361
63.5907
65.055
80.2352
81.3297
97.2124
20.8833
28.3893
22.8458
27.1058
23.9285
26.458
24.721
26.0487
25.2663
25.7997
25.5729
25.5946
25.6699
25.3858
25.5839
25.1902
25.3127
25.0198
24.8578
24.809
24.399
24.5224
23.9393
24.1946
23.5019
23.8948
23.1152
23.6502
22.7772
23.449
22.5063
23.2669
22.2722
23.0121
22.2106
22.636
22.3178
22.2234
22.3565
21.9749
22.3196
21.7796
22.2644
21.6072
22.2464
21.4857
22.244
21.3919
22.2372
21.4246
22.1432
21.5425
21.9559
21.7784
21.6726
21.8985
21.5332
21.8741
21.3935
21.8091
21.2001
21.7144
20.969
21.5887
20.7088
21.4233
20.4675
21.1494
20.3306
20.736
20.3498
20.2772
20.2955
19.9991
20.1148
19.72
19.9297
19.4718
19.7407
19.1946
19.5162
18.9008
19.198
18.5688
18.7684
18.1253
18.1621
17.4819
17.2611
16.505
15.9099
14.9853
13.9215
12.6895
10.9949
9.21517
6.62129
3.96646
0.148399
-3.76168
-9.1045
-14.5655
-21.5901
-28.6493
-36.8933
-44.3707
-52.0785
-57.9434
-62.4122
-63.8662
-63.1119
-58.8557
-53.1972
-45.2792
-36.057
-27.1332
-18.9499
-12.8289
-8.09479
-6.27893
-4.94854
-5.95165
-6.32614
-8.42011
-10.0192
-12.367
-14.1913
-15.987
-17.2028
-17.7385
-17.887
-17.4768
-17.1492
-16.5131
-16.5557
-15.6742
-15.8257
-14.8427
-15.0656
-14.1007
-14.2185
-14.0823
-13.8348
-13.9907
-13.5045
-13.8494
-13.2205
-13.7372
-13.0152
-13.5957
-12.7695
-13.4339
-12.5237
-13.2297
-12.336
-12.9201
-12.2795
-12.5318
-12.1545
-12.2404
-11.8695
-11.8474
-11.4853
-11.348
-10.9081
-10.6827
-10.0838
-9.7601
-8.98166
-8.5052
-7.50803
-6.8205
-5.47792
-4.58463
-2.69061
-1.65513
1.0571
2.05737
5.92626
6.88602
12.0703
13.0388
19.8204
20.6463
29.4078
30.3551
40.703
41.9654
53.6372
55.1346
68.2082
69.2724
83.4053
22.1291
29.7326
23.8494
28.2707
24.9099
27.3839
25.6373
26.8151
26.061
26.4046
26.2416
26.0824
26.2383
25.8029
26.0524
25.5432
25.7115
25.3662
25.1584
25.1354
24.6435
24.805
24.1275
24.428
23.6498
24.088
23.2066
23.8183
22.861
23.5968
22.5829
23.3975
22.3635
23.1278
22.3066
22.7401
22.4138
22.2963
22.4595
22.0346
22.4163
21.8167
22.3545
21.6202
22.3387
21.4851
22.3226
21.3942
22.311
21.4431
22.2067
21.58
22.0188
21.84
21.7369
21.9917
21.5863
21.983
21.4659
21.9361
21.2887
21.8571
21.0651
21.7554
20.8119
21.604
20.5905
21.3198
20.4857
20.9137
20.5329
20.4548
20.4864
20.1879
20.3334
19.9265
20.1861
19.6679
20.0556
19.4016
19.8829
19.1648
19.5876
18.923
19.1936
18.598
18.6743
18.119
17.9522
17.367
16.8684
16.1276
15.2084
14.2172
12.7673
11.3201
9.07624
6.79362
3.36714
-0.213781
-5.25472
-10.5864
-17.6448
-24.9785
-34.03
-42.9742
-52.8196
-60.9127
-68.1644
-71.0161
-71.0848
-66.406
-60.0862
-51.6059
-40.8293
-29.4896
-18.3884
-10.2619
-4.55862
-2.42847
-1.61453
-3.11296
-4.04003
-6.85586
-9.05018
-12.3485
-14.826
-16.7497
-18.5854
-18.7916
-19.1068
-17.8465
-17.3119
-16.0532
-16.3532
-15.6901
-16.0285
-15.3105
-15.4506
-14.5337
-14.4849
-14.571
-14.2382
-14.5693
-13.9817
-14.3485
-13.5983
-14.1209
-13.3564
-13.9658
-13.08
-13.7912
-12.8191
-13.5767
-12.6975
-13.2873
-12.722
-12.9341
-12.6573
-12.7708
-12.4826
-12.5419
-12.2471
-12.21
-11.8963
-11.7518
-11.3678
-11.1455
-10.6024
-10.3346
-9.50411
-9.18509
-7.99862
-7.62359
-5.92406
-5.56841
-3.12118
-2.75747
0.517766
0.902849
5.27192
5.63386
11.6115
11.9524
19.5511
20.2338
29.3858
30.5526
41.1706
42.5705
54.6545
55.7436
69.3069
24.137
31.5509
25.256
29.2563
25.7768
27.6669
26.1429
26.7764
26.3059
26.2993
26.3085
25.984
26.2292
25.7401
26.0268
25.5011
25.7099
25.3615
25.1385
25.1315
24.6147
24.831
24.093
24.4419
23.5873
24.0984
23.1234
23.8351
22.7754
23.6039
22.5061
23.3905
22.3002
23.1048
22.2555
22.7131
22.3629
22.2553
22.4088
21.9653
22.3813
21.7258
22.34
21.5307
22.314
21.3929
22.2963
21.3044
22.2833
21.3658
22.1891
21.5241
22.0091
21.8115
21.7369
22.0021
21.5807
22.0282
21.4651
22.003
21.292
21.9383
21.0648
21.8416
20.7997
21.6678
20.5782
21.3463
20.4655
20.9035
20.5058
20.4165
20.4713
20.1071
20.382
19.8349
20.2571
19.6309
20.1313
19.4384
20.038
19.2417
19.871
19.1084
19.5819
18.9937
19.1871
18.7666
18.6662
18.3193
17.9242
17.4947
16.7251
16.0822
14.8369
13.784
11.8488
10.0437
7.02212
3.94568
-0.71726
-5.73128
-12.8036
-20.5737
-30.6428
-41.2697
-53.616
-64.9649
-75.2585
-81.7949
-84.3343
-80.9369
-75.2698
-67.582
-56.5855
-42.3963
-26.1705
-14.1574
-3.81134
-0.27035
2.37482
0.209104
-0.0454997
-2.705
-5.21756
-8.82384
-12.6693
-15.9098
-18.7218
-20.3185
-20.6067
-20.0579
-18.545
-17.5453
-16.8272
-15.9865
-16.2405
-15.0051
-15.3815
-14.0116
-14.1449
-13.8877
-13.8909
-14.0248
-13.5923
-13.9925
-13.2909
-13.8961
-13.109
-13.822
-12.8963
-13.722
-12.6889
-13.5319
-12.5708
-13.2788
-12.5908
-12.9207
-12.6491
-12.7841
-12.5895
-12.5974
-12.4923
-12.3837
-12.2503
-12.0865
-11.8293
-11.6036
-11.2685
-10.9747
-10.4799
-10.1311
-9.2987
-8.94037
-7.52592
-7.23578
-5.1981
-5.01981
-1.97528
-1.97716
1.97692
1.89843
7.20778
6.97666
13.7856
13.7364
21.8864
22.2092
31.5361
32.1595
43.0594
43.57
56.3021
25.4785
32.8462
26.7798
30.3244
27.3336
28.6049
27.4572
27.6196
27.3453
26.9854
27.1345
26.5345
26.8807
26.196
26.5881
25.8554
26.1338
25.7295
25.4648
25.4933
24.8578
25.1497
24.2879
24.7043
23.7276
24.316
23.204
24.0236
22.8468
23.7576
22.5821
23.5297
22.3774
23.2424
22.341
22.8279
22.4667
22.3315
22.5308
22.0187
22.4928
21.7465
22.4484
21.5128
22.4268
21.3412
22.4057
21.2768
22.3514
21.3528
22.2398
21.5373
22.0493
21.8634
21.7621
22.1017
21.5984
22.1661
21.4783
22.1632
21.3118
22.1115
21.0925
22.0224
20.8538
21.8345
20.6773
21.4965
20.6052
21.0581
20.6589
20.5567
20.6518
20.2223
20.5744
19.9575
20.4546
19.7258
20.3535
19.5594
20.2578
19.4138
20.1164
19.3083
19.8744
19.2666
19.5275
19.1865
19.1113
18.9202
18.5831
18.3258
17.68
17.2642
16.2462
15.5032
13.9161
12.5085
9.96435
7.37695
3.28327
-1.18478
-7.70992
-15.1237
-25.316
-36.6332
-50.5256
-64.4475
-79.0599
-89.0594
-95.9296
-92.4408
-84.8827
-76.41
-61.8293
-46.5245
-28.4149
-12.2476
-0.303942
5.21972
6.54717
4.29817
2.38299
-1.27419
-4.23501
-8.48485
-12.4959
-16.1193
-19.6843
-21.5357
-22.5274
-20.8746
-18.9412
-16.0709
-16.5766
-15.9577
-16.7617
-16.1557
-16.1411
-14.6288
-14.1445
-14.4034
-14.259
-14.9796
-14.0554
-14.507
-13.5017
-14.2004
-13.4142
-14.1426
-13.1316
-13.9648
-12.8486
-13.7853
-12.7855
-13.5358
-12.8681
-13.1549
-12.9755
-13.0874
-13.0072
-12.9998
-13.0031
-12.8664
-12.917
-12.6867
-12.7258
-12.46
-12.3866
-12.1667
-11.8496
-11.6712
-11.1134
-10.9411
-9.90012
-9.907
-8.26158
-8.43206
-5.98029
-6.32777
-3.2688
-3.66688
0.690578
0.0968632
5.7526
5.51542
12.3899
12.9536
20.7592
21.4821
31.0991
31.6007
43.6609
27.803
33.9795
28.4842
30.7067
28.3464
28.5984
27.8865
27.4966
27.4994
26.9098
27.134
26.4975
26.8374
26.1527
26.601
25.8301
26.1578
25.7462
25.4561
25.5457
24.8588
25.2227
24.2897
24.765
23.6811
24.3813
23.1283
24.0633
22.7801
23.7703
22.4954
23.5511
22.2985
23.2648
22.2722
22.8331
22.4245
22.3069
22.5064
21.9639
22.481
21.6748
22.4461
21.4299
22.4249
21.246
22.4062
21.169
22.3559
21.2454
22.2417
21.4549
22.047
21.8276
21.7511
22.1139
21.5796
22.2515
21.4505
22.2716
21.3017
22.2437
21.0785
22.157
20.8367
21.9418
20.6603
21.5659
20.5771
21.0841
20.6428
20.5346
20.6501
20.1583
20.6141
19.8738
20.565
19.6344
20.5169
19.4644
20.4271
19.4023
20.3268
19.3785
20.1675
19.4588
19.8933
19.5969
19.5451
19.5519
19.2769
19.2822
18.7455
18.6232
17.7829
17.3877
16.1226
15.2064
13.1681
11.2506
7.825
4.12603
-1.70353
-8.48143
-18.2611
-30.0124
-45.3917
-61.8169
-80.578
-97.1031
-108.097
-107.754
-101.289
-97.4097
-89.8335
-72.0047
-46.9755
-25.0718
-1.58979
7.77279
13.1752
8.48311
7.87951
5.49856
2.00396
-2.54171
-9.34427
-14.7705
-20.3381
-24.221
-26.0709
-25.798
-22.1077
-18.9632
-16.1474
-15.3535
-16.2591
-15.1786
-16.4656
-14.3226
-13.9149
-13.1211
-13.4328
-13.9012
-14.0293
-14.3005
-13.4179
-13.9012
-13.128
-13.9867
-13.0229
-13.9523
-12.8314
-13.7173
-12.7028
-13.5093
-12.7619
-13.1414
-12.8959
-13.1032
-13.0604
-13.0519
-13.2027
-13.052
-13.1857
-13.0269
-13.0619
-12.7699
-12.9183
-12.6071
-12.6911
-12.441
-12.2597
-12.0926
-11.3002
-11.2028
-10.136
-10.4486
-8.09956
-8.76976
-6.22241
-6.98189
-3.05261
-4.46848
0.561831
-0.524124
5.47127
4.99166
11.9125
11.1872
19.9519
19.0311
30.9136
29.6873
34.4459
30.7805
31.7173
30.1087
29.8264
29.0616
28.5343
28.4048
27.6767
27.9059
27.0379
27.5287
26.5374
27.1605
26.1827
26.5465
26.1235
25.7282
25.9371
25.0584
25.5493
24.4797
25.0642
23.7983
24.6131
23.1929
24.2235
22.8284
23.9235
22.5286
23.7283
22.3543
23.4132
22.358
22.9338
22.5539
22.349
22.6751
21.9603
22.6466
21.6578
22.5838
21.3883
22.5458
21.177
22.5101
21.1042
22.4323
21.2024
22.2747
21.4558
22.0401
21.8943
21.7016
22.2608
21.5113
22.403
21.399
22.4548
21.2483
22.4254
21.0514
22.3132
20.8708
22.0851
20.7541
21.7079
20.7033
21.207
20.796
20.62
20.8125
20.2125
20.7728
19.9243
20.6924
19.6783
20.6509
19.513
20.5871
19.4492
20.47
19.4471
20.3171
19.6284
20.0577
19.8481
19.7706
19.9082
19.6386
19.7822
19.3278
19.366
18.6971
18.5066
17.5079
16.8932
15.2777
13.8331
11.0591
8.08924
3.20328
-2.55668
-11.3501
-21.8946
-36.9523
-54.196
-75.6407
-95.8671
-116.411
-117.496
-106.02
-99.8377
-89.5429
-82.0209
-57.9042
-32.1398
-7.34608
9.62164
16.6139
14.1273
7.63079
3.65028
1.7168
-1.84953
-6.89508
-13.6586
-19.3921
-24.8124
-28.513
-28.0034
-23.7886
-16.3078
-16.5454
-15.3844
-17.3063
-17.2982
-17.4654
-15.6029
-13.5809
-13.517
-13.8198
-15.22
-14.4259
-14.6501
-13.4129
-14.1836
-13.4076
-14.317
-13.133
-14.0528
-12.8803
-13.8977
-12.8585
-13.6342
-12.8916
-13.2413
-13.0775
-13.1637
-13.2961
-13.1603
-13.4316
-13.1989
-13.5069
-13.2788
-13.5407
-13.2617
-13.4417
-13.2153
-13.3034
-13.1798
-13.2326
-13.1457
-12.5627
-12.7387
-11.9209
-12.3397
-10.5498
-11.2016
-9.77334
-10.5102
-7.39945
-9.3307
-5.42314
-6.87233
-2.06796
-1.7072
2.60468
3.32339
8.48925
8.78449
18.0344
32.2922
35.182
31.8991
32.0286
30.5047
29.9099
29.2026
28.3729
28.5242
27.5649
27.9441
26.9494
27.5435
26.4748
27.2093
26.1428
26.6105
26.1555
25.7075
26.0271
25.0998
25.6677
24.5206
25.1937
23.8095
24.7328
23.1462
24.3126
22.719
24.0316
22.3837
23.8271
22.2457
23.4861
22.279
22.966
22.5422
22.3146
22.694
21.8928
22.6942
21.58
22.6482
21.3004
22.6045