/*--------------------------------*- C++ -*----------------------------------*\
| =========                 |                                                 |
| \\      /  F ield         | OpenFOAM: The Open Source CFD Toolbox           |
|  \\    /   O peration     | Version:  4.1                                   |
|   \\  /    A nd           | Web:      www.OpenFOAM.org                      |
|    \\/     M anipulation  |                                                 |
\*---------------------------------------------------------------------------*/
FoamFile
{
    version     2.0;
    format      ascii;
    class       volScalarField;
    location    "13.5";
    object      p;
}
// * * * * * * * * * * * * * * * * * * * * * * * * * * * * * * * * * * * * * //

dimensions      [0 2 -2 0 0 0 0];

internalField   nonuniform List<scalar> 
204246
(
14.1739
-12.4293
-12.2488
-11.1742
-11.1965
-10.9295
-11.6017
-11.8097
-12.0694
-12.1936
-12.2154
-12.1818
-12.8755
-12.3065
-13.0229
-11.7814
-13.7253
-14.599
-13.3352
-14.4063
-13.2134
-14.1567
-14.2173
-14.2788
-14.2937
-14.2815
-14.1952
-14.9158
-14.3723
-14.9878
-14.447
-15.0871
-14.7118
-14.9045
-14.2031
-15.6051
-16.4677
-15.5129
-15.9131
-16.0276
-15.931
-15.6446
-16.0986
-15.8571
-16.5186
-15.9453
-16.5299
-15.9365
-16.6243
-16.3615
-16.0956
-15.8061
-17.0403
-17.8887
-16.9395
-17.2222
-17.0432
-17.6855
-16.8792
-17.4553
-17.2023
-17.8458
-17.3489
-18.3128
-17.1658
-18.0671
-17.8713
-17.6168
-17.2824
-18.4468
-19.2368
-19.0234
-18.7504
-18.4001
-18.9906
-18.1578
-18.7252
-18.3618
-18.9396
-18.2593
-19.1407
-18.2479
-18.5616
-18.6517
-18.6754
-17.8206
-19.1155
-19.9633
-19.8321
-19.6263
-19.296
-19.7623
-19.4987
-20.1364
-19.6306
-20.584
-19.4309
-20.4545
-20.511
-20.442
-20.1183
-20.5906
-20.4223
-20.4897
-19.8294
-21.3468
-21.893
-21.3646
-21.4855
-21.3919
-22.0797
-21.5118
-22.1755
-21.8688
-22.5858
-22.3189
-23.0838
-22.8587
-23.7679
-23.8756
-24.0563
-24.2655
-26.0738
-27.2272
-27.5483
-28.7692
-29.174
-30.7114
-31.3934
-33.4101
-34.8256
-36.2548
-37.6307
-39.9714
-41.4269
-44.0355
-45.917
-47.8454
-49.7962
-53.3199
-55.759
-57.1655
-59.317
-60.6979
-61.9697
-63.0032
-63.8292
-64.2767
-64.3327
-63.8886
-63.0825
-62.0687
-61.2313
-60.5881
-59.882
-58.2405
-57.7205
-56.8052
-54.8242
-53.6573
-51.4555
-50.1465
-47.7745
-46.2113
-43.5444
-41.5245
-38.3956
-35.8741
-32.2249
-28.9217
-24.5544
-20.1628
-15.2402
-9.82611
-3.82308
2.71271
10.0278
18.2006
27.1062
37.2763
48.7211
61.7832
76.4963
93.1873
111.847
132.708
155.751
181.592
211.005
250.026
308.989
402.241
527.194
4.42722
-1.73125
-6.48975
-9.20596
-10.2455
-10.7664
-11.1711
-11.5923
-11.8543
-12.1144
-12.1922
-12.3695
-12.5728
-12.6702
-12.6754
-12.6189
-13.0215
-13.5753
-13.6803
-13.7761
-13.7298
-13.8436
-14.1087
-14.1645
-14.277
-14.2487
-14.3597
-14.5144
-14.599
-14.6902
-14.775
-14.8577
-14.908
-14.8398
-14.8007
-15.1066
-15.5573
-15.6648
-15.7504
-15.932
-15.8717
-15.8569
-15.9028
-16.0206
-16.1523
-16.2015
-16.2553
-16.3206
-16.4417
-16.4922
-16.2666
-16.2462
-16.5593
-16.9961
-17.0799
-17.0668
-17.159
-17.2537
-17.2477
-17.265
-17.3583
-17.4859
-17.5994
-17.7604
-17.8027
-17.9173
-18.0084
-17.7795
-17.7682
-18.1129
-18.5599
-18.7846
-18.7065
-18.6648
-18.6796
-18.6159
-18.5744
-18.6045
-18.6482
-18.6404
-18.7023
-18.6826
-18.6316
-18.7348
-18.6189
-18.5128
-18.8061
-19.2738
-19.5417
-19.5263
-19.521
-19.5699
-19.6825
-19.8089
-19.926
-20.0537
-20.072
-20.2144
-20.465
-20.4238
-20.5182
-20.5576
-20.634
-20.5308
-20.5282
-20.8802
-21.2863
-21.3956
-21.4012
-21.5475
-21.6968
-21.7874
-21.8919
-22.0734
-22.2569
-22.508
-22.7447
-23.0485
-23.407
-23.7828
-23.9386
-24.3749
-25.1486
-26.0075
-26.837
-27.7034
-28.5883
-29.5539
-30.695
-32.0413
-33.4961
-34.9604
-36.571
-38.3482
-40.2465
-42.2637
-44.3457
-46.5197
-48.9025
-51.443
-53.9159
-56.1616
-58.215
-60.048
-61.5486
-62.8711
-63.8188
-64.7578
-65.0605
-65.1116
-64.7304
-64.1219
-63.3404
-62.5001
-61.6834
-60.5381
-59.7324
-58.6185
-57.3681
-56.001
-54.4396
-52.8768
-51.1573
-49.4206
-47.4792
-45.4406
-43.1268
-40.6317
-37.808
-34.6904
-31.1606
-27.2541
-22.9039
-18.1279
-12.8477
-7.03077
-0.51386
6.69097
14.6289
23.4813
33.3132
44.4166
56.895
71.0386
86.862
104.45
123.569
144.18
166.214
191.747
227.594
293.788
391.723
-8.95386
-5.88095
-6.92282
-8.3248
-9.53897
-10.4062
-10.9549
-11.3921
-11.6957
-11.9858
-12.1422
-12.362
-12.501
-12.7011
-12.7335
-12.8855
-13.0171
-13.2818
-13.5
-13.5942
-13.7235
-13.7737
-13.9639
-14.0468
-14.1821
-14.2188
-14.3404
-14.4067
-14.5594
-14.6047
-14.758
-14.7935
-14.9206
-14.9173
-15.0233
-15.1184
-15.3143
-15.4991
-15.5974
-15.7635
-15.7793
-15.8481
-15.8663
-15.9791
-16.0262
-16.1472
-16.1641
-16.3081
-16.3608
-16.4594
-16.4112
-16.4691
-16.5525
-16.741
-16.9029
-16.9381
-17.0608
-17.0879
-17.179
-17.2014
-17.3066
-17.3665
-17.5179
-17.5713
-17.7404
-17.8217
-17.9504
-17.9174
-17.981
-18.0864
-18.3032
-18.4873
-18.5294
-18.585
-18.5524
-18.567
-18.5147
-18.547
-18.5251
-18.5749
-18.5424
-18.6072
-18.5889
-18.6518
-18.595
-18.6433
-18.7507
-18.9795
-19.1842
-19.2786
-19.3815
-19.424
-19.5422
-19.6236
-19.7789
-19.821
-19.9543
-20.0315
-20.2064
-20.2363
-20.3441
-20.3834
-20.4653
-20.4654
-20.5502
-20.6724
-20.882
-21.0418
-21.1236
-21.2505
-21.3441
-21.4984
-21.5859
-21.7706
-21.8967
-22.1064
-22.3116
-22.5862
-22.8965
-23.247
-23.6031
-24.0883
-24.7032
-25.3945
-26.1388
-26.9485
-27.8283
-28.8223
-29.9295
-31.1645
-32.5159
-33.9869
-35.5703
-37.2706
-39.0992
-41.0613
-43.1706
-45.4328
-47.8199
-50.2725
-52.7231
-55.051
-57.2015
-59.0873
-60.6885
-62.0132
-63.0904
-63.8147
-64.1929
-64.1519
-63.779
-63.1419
-62.3314
-61.5065
-60.4829
-59.4106
-58.1186
-56.8265
-55.5353
-54.1313
-52.6166
-50.9713
-49.2069
-47.2863
-45.2469
-43.006
-40.6103
-37.9677
-35.0981
-31.9231
-28.4437
-24.5898
-20.3379
-15.6121
-10.3724
-4.54485
1.94033
9.05387
16.9706
25.7351
35.5014
46.3432
58.5122
72.1233
87.4372
104.416
123.04
142.619
163.127
184.971
214.017
257.45
315.08
-11.2097
-8.62468
-8.52822
-9.03354
-9.63457
-10.2531
-10.7955
-11.2618
-11.6074
-11.9049
-12.1108
-12.3337
-12.4831
-12.6772
-12.7685
-12.9513
-13.0736
-13.258
-13.4103
-13.5408
-13.7015
-13.7797
-13.944
-14.0322
-14.1703
-14.2361
-14.3581
-14.4225
-14.5554
-14.614
-14.7512
-14.8013
-14.9223
-14.9648
-15.1026
-15.1934
-15.3238
-15.4429
-15.5564
-15.7207
-15.7761
-15.8767
-15.9198
-16.019
-16.061
-16.1657
-16.1984
-16.3185
-16.3632
-16.4721
-16.4891
-16.5755
-16.6438
-16.7787
-16.8843
-16.9353
-17.0623
-17.1091
-17.2078
-17.2538
-17.3592
-17.4185
-17.5489
-17.6115
-17.7596
-17.8369
-17.9825
-18.0233
-18.1313
-18.221
-18.3837
-18.5081
-18.5659
-18.6593
-18.6632
-18.6949
-18.6748
-18.6963
-18.6649
-18.6859
-18.6538
-18.6991
-18.689
-18.7509
-18.7461
-18.8233
-18.9149
-19.0591
-19.1959
-19.3141
-19.4716
-19.5565
-19.6972
-19.7712
-19.9174
-19.9786
-20.1214
-20.1959
-20.3459
-20.4
-20.5503
-20.6099
-20.7191
-20.7541
-20.8653
-20.9465
-21.1059
-21.2335
-21.3581
-21.5188
-21.5909
-21.7408
-21.8204
-22.0016
-22.1319
-22.4103
-22.6205
-22.913
-23.1894
-23.5351
-23.8883
-24.356
-24.8261
-25.3998
-26.0637
-26.818
-27.666
-28.6115
-29.6687
-30.8281
-32.1219
-33.5213
-35.0497
-36.6909
-38.4783
-40.4123
-42.5203
-44.7801
-47.1805
-49.6613
-52.2028
-54.6973
-57.0448
-59.1565
-60.9853
-62.5585
-63.8686
-64.9323
-65.68
-66.1493
-66.1385
-65.8523
-65.4446
-64.7054
-63.8882
-62.8479
-61.7981
-60.623
-59.3494
-58.0378
-56.6568
-55.2444
-53.7282
-52.1683
-50.4497
-48.6147
-46.5569
-44.3078
-41.7802
-38.9956
-35.8816
-32.4522
-28.6352
-24.4308
-19.7411
-14.5441
-8.67484
-2.17408
5.05546
13.0813
21.9821
31.8675
42.8309
55.0034
68.4233
83.1104
98.997
116.138
134.922
157.023
185.161
220.485
259.286
-12.0443
-9.95237
-9.63771
-9.73123
-10.0069
-10.3872
-10.7835
-11.1741
-11.4994
-11.7744
-12.0021
-12.1983
-12.3728
-12.5501
-12.6655
-12.827
-12.9466
-13.1229
-13.2735
-13.3945
-13.5373
-13.6236
-13.7616
-13.8596
-13.9857
-14.075
-14.1911
-14.2841
-14.4136
-14.4918
-14.6177
-14.6846
-14.7975
-14.8536
-14.9631
-15.0517
-15.1896
-15.3154
-15.4118
-15.5368
-15.6016
-15.6978
-15.7564
-15.8492
-15.9178
-16.0238
-16.0803
-16.1904
-16.2429
-16.3346
-16.3704
-16.4458
-16.5046
-16.618
-16.7175
-16.7667
-16.8645
-16.909
-16.9923
-17.046
-17.1387
-17.225
-17.3514
-17.4415
-17.5815
-17.6731
-17.7968
-17.8718
-17.977
-18.0767
-18.2166
-18.3189
-18.376
-18.452
-18.4647
-18.4971
-18.4797
-18.4971
-18.4821
-18.5075
-18.4809
-18.5161
-18.5007
-18.5264
-18.5119
-18.5598
-18.6308
-18.7712
-18.8928
-18.9908
-19.1103
-19.1983
-19.3142
-19.4302
-19.5715
-19.6649
-19.7976
-19.8908
-20.0229
-20.0915
-20.1872
-20.2454
-20.3179
-20.3598
-20.4364
-20.5255
-20.6518
-20.7486
-20.8258
-20.9211
-21.024
-21.1572
-21.2553
-21.3932
-21.5025
-21.6302
-21.8267
-22.0051
-22.2577
-22.404
-22.7336
-23.1074
-23.5982
-24.1507
-24.7613
-25.4377
-26.2013
-27.06
-28.0319
-29.13
-30.3473
-31.6866
-33.1443
-34.7321
-36.4635
-38.3546
-40.4166
-42.6488
-45.0434
-47.5693
-50.1922
-52.7928
-55.3036
-57.6254
-59.7151
-61.534
-63.0651
-64.2221
-64.933
-65.0871
-64.8461
-64.3097
-63.5479
-62.7156
-61.719
-60.6851
-59.4697
-58.2452
-57.0016
-55.6771
-54.2874
-52.8116
-51.257
-49.606
-47.8651
-46.0034
-44.0221
-41.8505
-39.4892
-36.8787
-34.0075
-30.8225
-27.3103
-23.4144
-19.12
-14.3577
-9.06793
-3.22081
3.30465
10.6197
18.819
27.9815
38.1291
49.2217
61.1868
73.8532
87.2137
101.355
117.065
135.872
159.425
187.768
215.941
-12.2723
-10.7218
-10.4153
-10.3697
-10.4716
-10.6942
-10.9611
-11.2709
-11.5512
-11.8315
-12.0609
-12.2908
-12.4603
-12.6493
-12.7763
-12.9481
-13.0388
-13.1725
-13.3059
-13.4345
-13.5862
-13.6791
-13.8382
-13.9302
-14.0737
-14.1585
-14.2901
-14.3659
-14.4945
-14.5696
-14.7002
-14.7694
-14.8922
-14.9658
-15.1055
-15.1656
-15.2549
-15.3573
-15.4639
-15.6123
-15.6908
-15.8058
-15.8679
-15.9701
-16.0188
-16.1196
-16.1732
-16.2822
-16.3441
-16.465
-16.5192
-16.6084
-16.6526
-16.7418
-16.8131
-16.8629
-16.9678
-17.0219
-17.1154
-17.1703
-17.2709
-17.332
-17.4536
-17.5367
-17.682
-17.7838
-17.9542
-18.0455
-18.179
-18.2562
-18.3487
-18.4495
-18.5315
-18.6233
-18.6537
-18.7055
-18.7102
-18.7281
-18.7015
-18.7046
-18.6798
-18.6994
-18.6928
-18.747
-18.7671
-18.8304
-18.8719
-18.9567
-19.0725
-19.1852
-19.3423
-19.451
-19.6091
-19.69
-19.835
-19.9193
-20.0688
-20.1497
-20.2922
-20.3759
-20.5393
-20.6192
-20.7525
-20.8173
-20.926
-20.9566
-21.0606
-21.1784
-21.2956
-21.4408
-21.5014
-21.6228
-21.6965
-21.8536
-21.9677
-22.2324
-22.4381
-22.7185
-22.9933
-23.32
-23.6021
-23.9639
-24.3033
-24.7425
-25.271
-25.8798
-26.5666
-27.3466
-28.2322
-29.2383
-30.3703
-31.6221
-33.0044
-34.513
-36.1692
-37.9846
-39.9864
-42.1805
-44.5693
-47.1114
-49.7829
-52.484
-55.1614
-57.7479
-60.1479
-62.2597
-64.0046
-65.4128
-66.5416
-67.3889
-67.8266
-67.8973
-67.6489
-66.8951
-65.8783
-64.6676
-63.4104
-62.1021
-60.7734
-59.4622
-58.14
-56.7876
-55.3762
-53.9113
-52.3487
-50.6975
-48.8898
-46.9283
-44.7382
-42.3302
-39.6363
-36.6615
-33.3412
-29.6797
-25.6201
-21.1641
-16.2051
-10.7405
-4.65036
2.19081
9.86202
18.4192
27.8609
38.1448
49.1672
60.8215
73.0929
86.0696
100.283
116.939
136.694
159.476
180.97
-12.2014
-11.0292
-10.7886
-10.7301
-10.7758
-10.9012
-11.0781
-11.2928
-11.5162
-11.7357
-11.9431
-12.123
-12.3021
-12.4555
-12.607
-12.7419
-12.8734
-13.0145
-13.1422
-13.2678
-13.39
-13.4786
-13.583
-13.7012
-13.8153
-13.9309
-14.0434
-14.1557
-14.275
-14.3751
-14.4905
-14.5804
-14.688
-14.7667
-14.8601
-14.968
-15.0848
-15.1929
-15.2886
-15.3858
-15.4656
-15.5554
-15.6313
-15.7144
-15.8004
-15.9001
-15.9775
-16.0778
-16.1512
-16.2395
-16.3111
-16.3894
-16.4588
-16.5554
-16.6302
-16.6805
-16.7419
-16.7782
-16.8384
-16.8953
-16.9706
-17.0641
-17.1764
-17.2844
-17.4131
-17.5287
-17.6445
-17.779
-17.9171
-18.0536
-18.1825
-18.2785
-18.3456
-18.4016
-18.4313
-18.464
-18.4621
-18.4743
-18.463
-18.4718
-18.4428
-18.4533
-18.4271
-18.4318
-18.4262
-18.4606
-18.5133
-18.6051
-18.6865
-18.7913
-18.8946
-18.9969
-19.1074
-19.251
-19.3922
-19.5172
-19.6452
-19.7634
-19.8849
-19.9763
-20.0554
-20.1345
-20.2052
-20.2778
-20.3428
-20.4346
-20.5267
-20.5844
-20.6442
-20.7018
-20.8011
-20.8991
-20.9923
-21.0892
-21.1798
-21.223
-21.3542
-21.4203
-21.5819
-21.77
-22.0413
-22.3719
-22.7745
-23.2321
-23.7456
-24.3153
-24.9505
-25.6652
-26.4816
-27.418
-28.4864
-29.6936
-31.0354
-32.5092
-34.1182
-35.887
-37.8455
-40.0233
-42.4171
-44.9963
-47.7276
-50.5231
-53.3337
-56.0852
-58.7078
-61.1219
-63.266
-65.0289
-66.2891
-66.8748
-66.8753
-66.448
-65.7049
-64.928
-63.9954
-62.918
-61.7015
-60.4326
-59.1446
-57.8404
-56.5217
-55.1865
-53.8272
-52.4218
-50.9652
-49.4354
-47.8241
-46.0833
-44.1921
-42.1018
-39.7929
-37.2242
-34.3616
-31.1673
-27.6097
-23.6528
-19.2493
-14.3828
-8.95635
-2.88419
3.88777
11.3998
19.6551
28.6473
38.3411
48.7153
59.7568
71.5561
84.5106
99.3451
116.254
134.997
152.102
-12.5304
-11.3569
-11.1967
-11.1371
-11.145
-11.2282
-11.3492
-11.5167
-11.6969
-11.8965
-12.0817
-12.2781
-12.4443
-12.6199
-12.7659
-12.9426
-13.0243
-13.1266
-13.2465
-13.357
-13.4931
-13.586
-13.7453
-13.8352
-13.9618
-14.0676
-14.1947
-14.284
-14.4122
-14.4958
-14.6272
-14.7025
-14.8236
-14.9144
-15.0785
-15.1245
-15.1898
-15.2853
-15.3934
-15.5394
-15.6131
-15.7281
-15.7958
-15.9048
-15.952
-16.0495
-16.1087
-16.2151
-16.2901
-16.4267
-16.504
-16.6072
-16.6459
-16.6949
-16.7531
-16.8114
-16.9017
-16.9444
-17.0185
-17.0655
-17.145
-17.2047
-17.3108
-17.4029
-17.5526
-17.6849
-17.8439
-17.975
-18.1174
-18.2315
-18.3477
-18.4476
-18.54
-18.6166
-18.6654
-18.7091
-18.7226
-18.7382
-18.7171
-18.7102
-18.684
-18.6799
-18.6663
-18.6997
-18.7178
-18.7624
-18.783
-18.8381
-18.9357
-19.0424
-19.1793
-19.3092
-19.4577
-19.5577
-19.7046
-19.8066
-19.976
-20.0642
-20.2134
-20.3078
-20.4981
-20.5907
-20.7266
-20.7883
-20.9116
-20.9219
-20.9967
-21.1039
-21.2065
-21.342
-21.3812
-21.4782
-21.5286
-21.672
-21.7886
-22.0212
-22.1871
-22.4274
-22.6072
-22.871
-23.048
-23.2838
-23.5072
-23.8255
-24.2294
-24.7069
-25.2488
-25.8587
-26.548
-27.3425
-28.2648
-29.3286
-30.5448
-31.899
-33.3957
-35.0459
-36.8909
-38.9666
-41.303
-43.8858
-46.6981
-49.626
-52.604
-55.58
-58.5177
-61.3497
-63.9194
-66.068
-67.7257
-68.9999
-69.9153
-70.3578
-70.1407
-69.2267
-67.9691
-66.5226
-65.0335
-63.5247
-62.0659
-60.6626
-59.3046
-57.9743
-56.6464
-55.3098
-53.927
-52.4822
-50.9569
-49.3182
-47.5435
-45.5838
-43.4205
-41.0276
-38.3691
-35.4111
-32.1028
-28.4156
-24.2722
-19.7033
-14.6231
-8.99522
-2.77652
4.03414
11.4394
19.4538
28.068
37.3111
47.2069
57.8944
69.6763
82.914
97.6268
113.496
127.562
-12.5996
-11.428
-11.2689
-11.2281
-11.2377
-11.2868
-11.3816
-11.5074
-11.6482
-11.7982
-11.9594
-12.1175
-12.2736
-12.4091
-12.5534
-12.6675
-12.8128
-12.9414
-13.0638
-13.176
-13.2883
-13.3816
-13.4458
-13.5507
-13.6588
-13.781
-13.9072
-14.0321
-14.1537
-14.2738
-14.3854
-14.4945
-14.5909
-14.6807
-14.7463
-14.8709
-14.992
-15.104
-15.2005
-15.2756
-15.3644
-15.4484
-15.5306
-15.6001
-15.6983
-15.7928
-15.8842
-15.9794
-16.066
-16.1438
-16.2463
-16.3474
-16.4456
-16.5394
-16.6064
-16.6484
-16.6842
-16.707
-16.7409
-16.7829
-16.8318
-16.9113
-17.0007
-17.1292
-17.2427
-17.3739
-17.5044
-17.6621
-17.8294
-18.003
-18.1553
-18.2792
-18.3724
-18.4407
-18.4752
-18.5027
-18.5037
-18.5075
-18.4905
-18.4862
-18.4485
-18.4371
-18.388
-18.3742
-18.3565
-18.3745
-18.4174
-18.4771
-18.534
-18.6175
-18.6911
-18.8072
-18.9188
-19.0744
-19.223
-19.3776
-19.5122
-19.6619
-19.7832
-19.8977
-19.9669
-20.0832
-20.1495
-20.2454
-20.2982
-20.4133
-20.496
-20.5209
-20.56
-20.5845
-20.6716
-20.7343
-20.8136
-20.8684
-20.9296
-20.93
-21.0016
-21.0642
-21.2149
-21.4115
-21.657
-21.9259
-22.2362
-22.5862
-22.991
-23.4528
-23.9766
-24.5635
-25.2235
-25.9699
-26.827
-27.8218
-28.9683
-30.2702
-31.7236
-33.3313
-35.1107
-37.103
-39.3547
-41.9022
-44.7414
-47.7612
-50.8827
-54.041
-57.1772
-60.2042
-63.0468
-65.6244
-67.8116
-69.3252
-69.942
-69.7145
-69.1371
-68.437
-67.4109
-66.091
-64.5868
-63.0458
-61.5519
-60.1325
-58.7784
-57.459
-56.191
-54.9425
-53.6968
-52.4177
-51.0815
-49.6833
-48.192
-46.5726
-44.7919
-42.8136
-40.6172
-38.1449
-35.356
-32.1779
-28.5571
-24.5019
-19.9598
-14.8983
-9.30926
-3.20973
3.41174
10.5586
18.236
26.4891
35.3798
45.0558
55.7201
67.5523
80.5339
94.2835
106.221
-12.7873
-11.8197
-11.6343
-11.5669
-11.5364
-11.5634
-11.6335
-11.7411
-11.8661
-12.0114
-12.1569
-12.3194
-12.4689
-12.6312
-12.7666
-12.9053
-12.9926
-13.0906
-13.1965
-13.3091
-13.4241
-13.5238
-13.6539
-13.7263
-13.8283
-13.9263
-14.0491
-14.1545
-14.2873
-14.3921
-14.5214
-14.6292
-14.7542
-14.8455
-14.9884
-15.0415
-15.1266
-15.2154
-15.32
-15.4648
-15.5246
-15.652
-15.7066
-15.8243
-15.8573
-15.9501
-16.0065
-16.1202
-16.1956
-16.335
-16.4151
-16.5345
-16.5923
-16.654
-16.7261
-16.7848
-16.8561
-16.8841
-16.9265
-16.9466
-17.0012
-17.0361
-17.1258
-17.221
-17.3943
-17.5085
-17.6856
-17.8338
-17.9987
-18.1413
-18.2878
-18.4235
-18.5431
-18.6339
-18.7056
-18.7481
-18.7557
-18.7565
-18.7291
-18.7111
-18.6782
-18.6611
-18.6296
-18.6327
-18.6332
-18.6511
-18.6541
-18.6886
-18.7718
-18.8766
-19.0101
-19.1082
-19.2536
-19.3623
-19.5358
-19.6486
-19.8409
-19.9557
-20.1401
-20.241
-20.4116
-20.4977
-20.6241
-20.7223
-20.8223
-20.8421
-20.9143
-21.0248
-21.1208
-21.2271
-21.246
-21.3287
-21.3564
-21.4733
-21.5475
-21.7585
-21.8415
-22.0137
-22.0902
-22.254
-22.362
-22.5181
-22.6694
-22.8881
-23.1714
-23.5176
-23.9284
-24.4073
-24.9583
-25.5913
-26.3119
-27.1514
-28.1392
-29.296
-30.6298
-32.1374
-33.8227
-35.7093
-37.8403
-40.2774
-43.0744
-46.1735
-49.4922
-52.9242
-56.3561
-59.7204
-62.9782
-66.0755
-68.8102
-70.9804
-72.5348
-73.503
-73.535
-72.4881
-70.9366
-69.1549
-67.2639
-65.3878
-63.6119
-62.0086
-60.5332
-59.172
-57.8747
-56.6209
-55.3954
-54.1467
-52.8599
-51.5144
-50.0988
-48.5966
-46.9572
-45.1698
-43.2006
-41.012
-38.5606
-35.7922
-32.6285
-29.052
-25.0414
-20.566
-15.621
-10.2107
-4.33792
2.00804
8.83238
16.1871
24.1676
32.9112
42.5514
53.1612
64.7428
76.847
87.2678
-12.4326
-11.7042
-11.5653
-11.5079
-11.5116
-11.5372
-11.588
-11.6725
-11.7778
-11.8832
-12.005
-12.1353
-12.2685
-12.3927
-12.531
-12.6596
-12.785
-12.9071
-13.0093
-13.104
-13.1856
-13.2832
-13.3623
-13.4666
-13.5616
-13.6788
-13.8027
-13.9287
-14.0529
-14.1809
-14.2815
-14.3959
-14.4557
-14.5771
-14.6757
-14.8012
-14.9157
-15.0202
-15.1174
-15.1941
-15.2917
-15.36
-15.4571
-15.5123
-15.6147
-15.6991
-15.7891
-15.8719
-15.9743
-16.0623
-16.1864
-16.3002
-16.4172
-16.529
-16.6162
-16.6664
-16.6894
-16.6923
-16.7041
-16.7147
-16.7184
-16.767
-16.8288
-16.9152
-16.9771
-17.1366
-17.3191
-17.5151
-17.7144
-17.9155
-18.117
-18.2913
-18.4255
-18.513
-18.5689
-18.6
-18.6027
-18.6017
-18.5674
-18.5448
-18.485
-18.4553
-18.3911
-18.3565
-18.3206
-18.313
-18.3269
-18.3526
-18.3831
-18.4425
-18.4927
-18.616
-18.7578
-18.9074
-19.0518
-19.2096
-19.3641
-19.5274
-19.6378
-19.8022
-19.9242
-20.0642
-20.1419
-20.2588
-20.2955
-20.4225
-20.5033
-20.4986
-20.5432
-20.5453
-20.6187
-20.6583
-20.7169
-20.7434
-20.7791
-20.7845
-20.8442
-20.917
-21.0443
-21.2107
-21.4063
-21.6144
-21.8466
-22.1024
-22.3904
-22.7163
-23.091
-23.5224
-24.0242
-24.596
-25.2449
-25.9858
-26.8497
-27.8701
-29.0749
-30.4715
-32.0687
-33.8688
-35.898
-38.2112
-40.9036
-43.9888
-47.427
-51.086
-54.822
-58.5345
-62.1516
-65.5761
-68.7105
-71.4356
-73.5177
-74.5434
-74.4844
-73.7383
-72.3265
-70.3716
-68.231
-66.0733
-64.0899
-62.3302
-60.788
-59.4451
-58.2145
-57.0762
-55.9752
-54.8935
-53.8095
-52.6829
-51.5038
-50.2336
-48.8573
-47.3336
-45.6369
-43.7469
-41.6245
-39.2377
-36.4922
-33.3759
-29.8702
-25.9666
-21.6481
-16.9035
-11.7408
-6.15599
-0.137893
6.3661
13.486
21.3622
30.0634
39.6207
50.0316
60.8697
70.1174
-12.3905
-11.9133
-11.7751
-11.6844
-11.6765
-11.7284
-11.7866
-11.8706
-11.9801
-12.1169
-12.2362
-12.3665
-12.4879
-12.6356
-12.7595
-12.8966
-12.9836
-13.0846
-13.1954
-13.2661
-13.3817
-13.4359
-13.5526
-13.6004
-13.688
-13.7773
-13.8966
-14.0184
-14.1612
-14.2882
-14.4197
-14.5376
-14.6669
-14.7514
-14.8541
-14.9371
-15.0449
-15.1574
-15.2666
-15.3991
-15.462
-15.5689
-15.6157
-15.722
-15.7505
-15.8405
-15.8975
-16.0184
-16.0888
-16.2167
-16.3123
-16.4235
-16.5205
-16.6217
-16.7015
-16.7845
-16.8435
-16.867
-16.8841
-16.8749
-16.885
-16.8936
-16.9433
-17.0275
-17.1555
-17.266
-17.4282
-17.5997
-17.7926
-17.9906
-18.2006
-18.3989
-18.5724
-18.7077
-18.7777
-18.818
-18.8368
-18.8214
-18.7848
-18.7426
-18.6906
-18.6454
-18.5978
-18.5665
-18.5529
-18.5452
-18.5274
-18.5431
-18.612
-18.686
-18.7925
-18.8786
-19.0138
-19.1467
-19.3302
-19.4788
-19.678
-19.8234
-19.9974
-20.1172
-20.2577
-20.3796
-20.5177
-20.6224
-20.7341
-20.7805
-20.8546
-20.9457
-21.0307
-21.1096
-21.1266
-21.1857
-21.1872
-21.2617
-21.2893
-21.4397
-21.461
-21.5677
-21.5667
-21.6462
-21.7025
-21.7995
-21.9107
-22.0673
-22.2679
-22.5069
-22.7855
-23.1215
-23.5244
-24.0022
-24.5572
-25.1956
-25.9324
-26.8025
-27.8449
-29.0865
-30.5536
-32.2495
-34.184
-36.3815
-38.9383
-41.9197
-45.3722
-49.2248
-53.3166
-57.4831
-61.5701
-65.4714
-69.1407
-72.4907
-75.2745
-77.1966
-78.0716
-77.7316
-76.1484
-73.7832
-71.0261
-68.1761
-65.5903
-63.4052
-61.6442
-60.2024
-58.9482
-57.7969
-56.7007
-55.6701
-54.6812
-53.703
-52.7032
-51.6557
-50.5304
-49.2775
-47.8691
-46.293
-44.5016
-42.4679
-40.1426
-37.4728
-34.45
-31.0856
-27.3627
-23.2573
-18.7801
-13.9179
-8.66399
-2.97526
3.31522
10.3345
18.1489
26.7929
36.2454
46.0592
54.3934
-12.1121
-11.678
-11.6118
-11.5382
-11.5482
-11.5898
-11.6598
-11.726
-11.8143
-11.907
-12.0133
-12.1274
-12.2403
-12.3494
-12.4945
-12.6408
-12.7536
-12.8668
-12.981
-13.0704
-13.1515
-13.2337
-13.3056
-13.3969
-13.4741
-13.5695
-13.6812
-13.8038
-13.9339
-14.0659
-14.1883
-14.3041
-14.3837
-14.4889
-14.5749
-14.6888
-14.7971
-14.9019
-15.0134
-15.1194
-15.2219
-15.3102
-15.4047
-15.4824
-15.5622
-15.6165
-15.6828
-15.7258
-15.8439
-15.9683
-16.0993
-16.2329
-16.3703
-16.5164
-16.643
-16.7193
-16.7543
-16.7436
-16.737
-16.7006
-16.6727
-16.6567
-16.6685
-16.7351
-16.7794
-16.9074
-17.0884
-17.2943
-17.5188
-17.7512
-17.998
-18.2375
-18.4493
-18.6139
-18.7242
-18.7564
-18.7555
-18.7531
-18.7105
-18.6614
-18.584
-18.5201
-18.4439
-18.3791
-18.316
-18.2706
-18.2534
-18.2424
-18.2351
-18.2685
-18.3072
-18.4029
-18.5267
-18.6679
-18.8321
-19.0187
-19.215
-19.4108
-19.5864
-19.7602
-19.9006
-20.0385
-20.1429
-20.2574
-20.3439
-20.4677
-20.5437
-20.5498
-20.587
-20.5836
-20.6374
-20.6643
-20.7024
-20.716
-20.7382
-20.7458
-20.7968
-20.8719
-20.9717
-21.0903
-21.2187
-21.3633
-21.5219
-21.6971
-21.8872
-22.1029
-22.3536
-22.6415
-22.9799
-23.3779
-23.8434
-24.3819
-25.0041
-25.7343
-26.6085
-27.6692
-28.9569
-30.4906
-32.2822
-34.3449
-36.7472
-39.5648
-42.8987
-46.7768
-51.09
-55.648
-60.2441
-64.7266
-68.9722
-72.8756
-76.3271
-79.0875
-80.7456
-80.8472
-79.5207
-77.1254
-73.9796
-70.4454
-67.136
-64.4013
-62.3354
-60.7415
-59.467
-58.3551
-57.3115
-56.3323
-55.4241
-54.5646
-53.7311
-52.8795
-51.9771
-50.991
-49.8751
-48.6098
-47.1468
-45.4575
-43.5418
-41.3187
-38.7662
-35.9058
-32.7407
-29.2403
-25.4205
-21.2485
-16.7256
-11.8123
-6.35235
-0.205131
6.74801
14.5781
23.2283
32.1753
39.7767
-12.2408
-11.7017
-11.6206
-11.6315
-11.6594
-11.7213
-11.8167
-11.9208
-12.0305
-12.1557
-12.2671
-12.3928
-12.4962
-12.6008
-12.7157
-12.8792
-12.9832
-13.0711
-13.1606
-13.2392
-13.3339
-13.3771
-13.4469
-13.4964
-13.562
-13.6277
-13.7398
-13.8668
-14.0048
-14.1427
-14.2977
-14.4313
-14.5599
-14.6587
-14.7544
-14.8417
-14.9588
-15.0789
-15.1977
-15.3153
-15.3949
-15.4902
-15.5355
-15.6139
-15.6602
-15.7604
-15.7949
-15.8799
-15.9317
-16.0325
-16.1455
-16.2706
-16.4025
-16.5556
-16.7077
-16.8147
-16.8829
-16.9169
-16.9003
-16.8739
-16.8344
-16.7932
-16.7793
-16.8039
-16.9249
-16.9888
-17.1139
-17.286
-17.4999
-17.7408
-18.0108
-18.2827
-18.5397
-18.7528
-18.8923
-18.971
-18.9759
-18.9396
-18.8892
-18.8231
-18.7542
-18.6721
-18.5954
-18.5317
-18.4846
-18.4554
-18.4241
-18.4144
-18.4419
-18.4789
-18.568
-18.6461
-18.7514
-18.8792
-19.0523
-19.223
-19.4283
-19.61
-19.7998
-19.9593
-20.1207
-20.2633
-20.4028
-20.5197
-20.6357
-20.7092
-20.7913
-20.8812
-20.9554
-21.0131
-21.0289
-21.068
-21.0483
-21.0826
-21.0785
-21.1477
-21.1258
-21.1663
-21.1469
-21.154
-21.1726
-21.2251
-21.3098
-21.421
-21.5622
-21.7292
-21.9256
-22.1519
-22.4211
-22.7372
-23.1107
-23.5527
-24.0648
-24.6646
-25.3783
-26.2482
-27.3234
-28.6439
-30.2469
-32.1444
-34.3811
-37.0044
-40.1516
-43.9445
-48.3983
-53.3602
-58.556
-63.7282
-68.6735
-73.2764
-77.4677
-81.0474
-83.5911
-84.6189
-83.9552
-81.7205
-78.095
-73.6913
-69.2936
-65.5808
-62.8926
-61.0072
-59.6557
-58.6249
-57.7392
-56.8793
-56.045
-55.2775
-54.5812
-53.9044
-53.2082
-52.4682
-51.6335
-50.6696
-49.5452
-48.193
-46.64
-44.8701
-42.7765
-40.3993
-37.7603
-34.8086
-31.6023
-28.1042
-24.2798
-20.1225
-15.52
-10.2403
-4.13824
2.9053
10.7991
19.0113
26.0065
-11.7154
-11.3863
-11.3893
-11.4145
-11.4587
-11.5086
-11.5869
-11.6647
-11.7443
-11.8463
-11.9451
-12.0677
-12.1782
-12.2934
-12.4265
-12.5607
-12.717
-12.8657
-12.9727
-13.0676
-13.1317
-13.1968
-13.2591
-13.3347
-13.4096
-13.4781
-13.5725
-13.6861
-13.823
-13.9443
-14.0683
-14.1954
-14.2999
-14.3944
-14.4662
-14.5599
-14.6761
-14.7835
-14.9059
-15.033
-15.157
-15.2799
-15.3774
-15.4457
-15.5083
-15.5492
-15.6126
-15.6693
-15.7533
-15.851
-15.9661
-16.1062
-16.2561
-16.4309
-16.6161
-16.7628
-16.8447
-16.8737
-16.8432
-16.7464
-16.6941
-16.6258
-16.5701
-16.5663
-16.5665
-16.6777
-16.8227
-17.0114
-17.2414
-17.4977
-17.7859
-18.0908
-18.3895
-18.6522
-18.8503
-18.9693
-19.0043
-18.9771
-18.9119
-18.8411
-18.7399
-18.6406
-18.53
-18.4385
-18.3488
-18.2651
-18.2
-18.167
-18.1307
-18.1317
-18.1385
-18.1963
-18.2937
-18.4239
-18.5928
-18.8016
-19.0375
-19.2715
-19.4933
-19.6904
-19.8546
-20.0069
-20.1332
-20.2598
-20.3718
-20.4878
-20.5794
-20.6251
-20.6786
-20.6749
-20.7183
-20.7338
-20.7531
-20.7573
-20.7663
-20.7702
-20.8009
-20.8518
-20.9232
-20.9941
-21.0522
-21.1079
-21.1666
-21.2489
-21.3568
-21.4907
-21.6455
-21.8263
-22.0398
-22.2846
-22.5728
-22.9177
-23.3303
-23.8166
-24.3985
-25.1044
-25.9774
-27.0682
-28.4416
-30.1375
-32.2015
-34.6575
-37.6116
-41.2185
-45.6035
-50.7718
-56.4744
-62.3731
-68.1424
-73.548
-78.4648
-82.812
-86.3818
-88.8295
-89.5224
-87.4935
-83.3805
-78.0341
-72.208
-67.0006
-63.215
-60.8904
-59.4398
-58.576
-58.0125
-57.3608
-56.5901
-55.8508
-55.2273
-54.7033
-54.2012
-53.6965
-53.135
-52.4581
-51.6552
-50.6227
-49.3945
-48.0419
-46.4204
-44.5209
-42.3776
-39.9577
-37.3001
-34.444
-31.2823
-27.8479
-24.1079
-19.7083
-14.4912
-8.32938
-1.22186
6.37372
12.9114
-11.7763
-11.4835
-11.4184
-11.44
-11.5201
-11.6123
-11.7106
-11.8381
-11.9429
-12.0697
-12.2009
-12.302
-12.4335
-12.5402
-12.6615
-12.792
-12.8981
-13.0205
-13.1074
-13.2062
-13.277
-13.3181
-13.3567
-13.403
-13.4495
-13.5101
-13.5867
-13.6936
-13.8656
-14.016
-14.1652
-14.306
-14.4674
-14.5625
-14.6557
-14.7494
-14.8504
-14.9641
-15.098
-15.2266
-15.3218
-15.4245
-15.4876
-15.5392
-15.5899
-15.6591
-15.6819
-15.7521
-15.7793
-15.8485
-15.9454
-16.0638
-16.2122
-16.3993
-16.605
-16.7931
-16.9314
-17.0165
-17.0294
-17.0029
-16.9031
-16.7881
-16.6921
-16.6201
-16.6216
-16.6448
-16.7467
-16.9108
-17.126
-17.3882
-17.7099
-18.07
-18.4275
-18.7511
-18.9892
-19.1236
-19.1596
-19.1165
-19.0598
-18.9734
-18.87
-18.7678
-18.662
-18.5559
-18.4599
-18.3853
-18.3567
-18.3149
-18.3061
-18.3036
-18.3499
-18.3858
-18.4591
-18.5657
-18.7109
-18.8975
-19.1277
-19.3586
-19.5902
-19.7961
-19.9879
-20.152
-20.3036
-20.4323
-20.5597
-20.6556
-20.7496
-20.8325
-20.8996
-20.9533
-20.9719
-20.9893
-20.9684
-20.966
-20.9341
-20.9483
-20.9026
-20.8871
-20.8803
-20.8891
-20.9208
-20.9604
-21.0061
-21.0664
-21.1422
-21.2386
-21.3546
-21.4931
-21.6513
-21.8339
-22.0545
-22.3141
-22.6281
-23.0059
-23.457
-24.0044
-24.6783
-25.5269
-26.6206
-28.0294
-29.8147
-32.0027
-34.6698
-37.9715
-42.0949
-47.1798
-53.125
-59.6426
-66.3442
-72.8083
-78.7293
-84.0285
-88.6708
-92.2006
-93.7994
-92.9726
-89.6882
-84.1092
-77.0824
-69.8624
-63.9082
-60.4863
-58.8905
-58.2374
-57.9987
-57.6104
-57.0995
-56.3742
-55.6553
-55.2174
-54.9397
-54.6871
-54.3773
-53.9476
-53.4299
-52.7171
-51.7991
-50.8012
-49.6455
-48.208
-46.5508
-44.6749
-42.5216
-40.2206
-37.6763
-34.9006
-31.9461
-28.5154
-24.2794
-19.151
-12.9324
-5.94588
0.338371
-11.1454
-11.0987
-11.1572
-11.236
-11.3072
-11.4055
-11.4957
-11.5901
-11.6953
-11.7882
-11.9176
-12.013
-12.139
-12.2627
-12.384
-12.5391
-12.6716
-12.7989
-12.9112
-13.016
-13.0997
-13.1707
-13.2303
-13.2892
-13.3523
-13.4224
-13.4977
-13.5708
-13.6874
-13.8177
-13.9412
-14.0707
-14.1682
-14.2461
-14.3192
-14.4115
-14.5201
-14.6309
-14.774
-14.9392
-15.1037
-15.2288
-15.3291
-15.4155
-15.4705
-15.5282
-15.5598
-15.62
-15.6809
-15.7438
-15.8224
-15.9389
-16.0816
-16.2666
-16.4895
-16.7081
-16.8904
-17.0143
-17.0298
-16.9287
-16.8131
-16.7125
-16.6104
-16.51
-16.4467
-16.4831
-16.5599
-16.6824
-16.8781
-17.1184
-17.4195
-17.7769
-18.1748
-18.563
-18.9048
-19.151
-19.2669
-19.2502
-19.1535
-19.0566
-18.9397
-18.8122
-18.6832
-18.5525
-18.4188
-18.3059
-18.209
-18.1346
-18.0809
-18.0489
-18.005
-18.0295
-18.0763
-18.1594
-18.3089
-18.5073
-18.7649
-19.0546
-19.3523
-19.5952
-19.7823
-19.9558
-20.1045
-20.2388
-20.3675
-20.4986
-20.6163
-20.7017
-20.7665
-20.8026
-20.8326
-20.8385
-20.8333
-20.8255
-20.814
-20.8082
-20.8091
-20.8062
-20.796
-20.7948
-20.8034
-20.8216
-20.8535
-20.8949
-20.9471
-21.0155
-21.1047
-21.2058
-21.3222
-21.4601
-21.6155
-21.7972
-22.0176
-22.2883
-22.6164
-23.0148
-23.5078
-24.1387
-24.9612
-26.0661
-27.5341
-29.4268
-31.827
-34.8705
-38.7194
-43.6088
-49.6325
-56.6299
-64.1955
-71.8372
-78.9781
-85.3298
-90.8985
-95.5439
-99.0127
-100.828
-99.3688
-93.3508
-84.2612
-74.1172
-65.0706
-59.2135
-56.5951
-56.0401
-56.7539
-57.6044
-57.784
-56.985
-55.9578
-55.4685
-55.4129
-55.3703
-55.2982
-55.1167
-54.8719
-54.4887
-53.8473
-53.1683
-52.3727
-51.3736
-50.2109
-48.8614
-47.2743
-45.4204
-43.4318
-41.2314
-38.9075
-36.4722
-33.418
-29.5057
-24.3939
-18.19
-12.2086
-10.7018
-10.8792
-10.9901
-11.1214
-11.2494
-11.3638
-11.4982
-11.6185
-11.7375
-11.8672
-11.9867
-12.1219
-12.2288
-12.3669
-12.48
-12.5996