/*--------------------------------*- C++ -*----------------------------------*\
| =========                 |                                                 |
| \\      /  F ield         | OpenFOAM: The Open Source CFD Toolbox           |
|  \\    /   O peration     | Version:  4.1                                   |
|   \\  /    A nd           | Web:      www.OpenFOAM.org                      |
|    \\/     M anipulation  |                                                 |
\*---------------------------------------------------------------------------*/
FoamFile
{
    version     2.0;
    format      ascii;
    class       volScalarField;
    location    "1.5";
    object      epsilon;
}
// * * * * * * * * * * * * * * * * * * * * * * * * * * * * * * * * * * * * * //

dimensions      [0 2 -3 0 0 0 0];

internalField   nonuniform List<scalar> 
204246
(
1.70091
1.87953
1.90197
1.91276
1.93254
1.93358
1.9419
1.94284
1.94885
1.95011
1.95498
1.95634
1.9591
1.96093
1.96522
1.9667
1.96857
1.96087
1.96419
1.96354
1.9617
1.96093
1.95724
1.9566
1.95497
1.95561
1.95599
1.95724
1.95972
1.96436
1.96703
1.97102
1.97248
1.97293
1.9715
1.97098
1.96355
1.96604
1.96439
1.96016
1.95835
1.95465
1.95429
1.95454
1.95582
1.95839
1.96343
1.96646
1.97304
1.97495
1.97627
1.97599
1.97489
1.96743
1.96987
1.9678
1.96355
1.96163
1.95669
1.95565
1.95564
1.95675
1.95928
1.96433
1.96705
1.97214
1.97374
1.97599
1.97761
1.97841
1.97293
1.97586
1.9749
1.97309
1.97154
1.96738
1.96472
1.95788
1.95422
1.95405
1.95599
1.95754
1.9631
1.96542
1.97225
1.97535
1.97919
1.97409
1.97676
1.9736
1.9706
1.96883
1.96392
1.9602
1.9543
1.95193
1.95111
1.95301
1.95464
1.9609
1.96342
1.97084
1.97398
1.97585
1.97573
1.97367
1.96712
1.96893
1.96542
1.96038
1.95712
1.956
1.95681
1.95716
1.96117
1.96206
1.96649
1.96913
1.97445
1.97753
1.98017
1.98115
1.98072
1.9739
1.97627
1.97196
1.96974
1.96993
1.971
1.97329
1.97558
1.98134
1.98526
1.9953
2.00119
2.01506
2.02275
2.03589
2.04371
2.05448
2.05643
2.07614
2.08312
2.10238
2.11635
2.1428
2.16441
2.20123
2.24
2.30054
2.37629
2.49309
2.65158
2.87129
2.96329
2.97327
2.82805
2.43707
1.93905
1.7206
1.63328
1.55392
1.42557
1.24106
1.05711
0.896958
0.772065
0.675257
0.613202
0.57516
0.526401
0.466345
0.401946
0.363296
0.316069
0.283464
0.240414
0.221634
0.195441
0.180751
0.158365
0.143041
0.128956
0.113547
0.105728
0.0927764
0.0869308
0.0772795
0.0728925
0.0659712
0.0628325
0.0590867
0.057747
0.00662702
0.146007
0.132982
0.137339
0.143186
0.139685
0.144323
0.142933
0.148005
0.147974
0.154372
0.15494
0.162465
0.161115
0.168685
0.165524
0.172605
0.169218
0.168417
0.170833
0.163694
0.167195
0.160804
0.165009
0.162122
0.167009
0.164827
0.171021
0.168068
0.176162
0.172696
0.178996
0.173682
0.178599
0.172552
0.176565
0.172853
0.169129
0.172351
0.164255
0.16684
0.162317
0.166582
0.164051
0.170115
0.166993
0.17569
0.172648
0.181044
0.176542
0.180888
0.176426
0.17939
0.174293
0.169998
0.173277
0.165052
0.167435
0.16131
0.164846
0.161962
0.168011
0.165111
0.174139
0.171074
0.178947
0.174298
0.179104
0.175462
0.179388
0.17563
0.173028
0.176662
0.172167
0.175014
0.168941
0.170998
0.163004
0.164796
0.158573
0.164762
0.161204
0.170998
0.169045
0.180351
0.179399
0.185966
0.181917
0.176086
0.179064
0.173135
0.17569
0.168932
0.170884
0.160173
0.163214
0.157509
0.163998
0.160685
0.171229
0.16946
0.180007
0.178403
0.183038
0.178444
0.181413
0.174804
0.173474
0.175016
0.169046
0.171386
0.163655
0.168817
0.164114
0.171177
0.167918
0.176588
0.174518
0.182898
0.179365
0.184109
0.17888
0.182913
0.177649
0.175608
0.177951
0.171324
0.175208
0.170697
0.176634
0.173364
0.182506
0.180466
0.19373
0.19283
0.208082
0.206788
0.22209
0.22033
0.239381
0.240067
0.252015
0.278706
0.28446
0.323291
0.333927
0.389114
0.411443
0.496663
0.548933
0.693843
0.825772
1.10752
1.43558
1.9552
2.15782
2.16303
1.83818
1.11435
0.502549
0.286264
0.20797
0.168519
0.157077
0.143687
0.142765
0.125581
0.119655
0.0994439
0.0942816
0.0881635
0.0879821
0.0867179
0.0872203
0.0854079
0.0853806
0.082506
0.0809412
0.0802692
0.0795586
0.0797085
0.0794635
0.0803229
0.080435
0.0818736
0.0822959
0.0843151
0.0851907
0.0886678
0.0915235
0.0984315
0.101828
0.103012
0.0202796
0.0231146
0.0231731
0.0230135
0.0231947
0.0229397
0.0230986
0.0229058
0.0231193
0.0230745
0.0233557
0.0233476
0.0236171
0.0236183
0.023955
0.0239112
0.0242462
0.0241336
0.0241113
0.0242471
0.0238052
0.0240604
0.0236685
0.0239463
0.0237372
0.0240229
0.0238901
0.0242273
0.0240739
0.024578
0.0243356
0.0247875
0.0244248
0.0248117
0.0243971
0.0246861
0.0243887
0.0241918
0.0242513
0.0237449
0.0239641
0.0236995
0.0239705
0.0238201
0.024164
0.0240067
0.0245216
0.0243581
0.0249102
0.0245766
0.024915
0.0246041
0.0248419
0.0245141
0.0243042
0.0243936
0.0238378
0.0239902
0.0236371
0.0238708
0.0236882
0.0240188
0.0238819
0.0244097
0.0242057
0.0246541
0.0243061
0.0246836
0.0244695
0.0248244
0.0246155
0.0244998
0.0247063
0.0243713
0.0245408
0.0241336
0.024245
0.0237094
0.023817
0.0234401
0.0238011
0.0236252
0.0241277
0.0240522
0.0248309
0.0248082
0.0252546
0.0249442
0.0247017
0.024814
0.0243918
0.0245486
0.0240674
0.0241663
0.0235382
0.0237902
0.0234376
0.0238255
0.023675
0.0242131
0.0241588
0.024882
0.0247764
0.0251117
0.0247581
0.0249671
0.0245238
0.0244374
0.0244538
0.0240136
0.024144
0.0237297
0.0240848
0.0237674
0.0242008
0.0240003
0.0244778
0.0243922
0.0250011
0.0248032
0.0252105
0.0248404
0.0251394
0.0247222
0.0245576
0.02459
0.0241162
0.0244098
0.0241137
0.0245236
0.0243224
0.0248886
0.0247834
0.0257758
0.0257544
0.0271161
0.0271163
0.02861
0.0285893
0.030455
0.0306759
0.0326251
0.0355756
0.0376003
0.0435917
0.0465773
0.0566873
0.0641474
0.0841799
0.105568
0.15294
0.21896
0.351374
0.559235
0.92745
1.41604
1.62445
1.58493
1.16271
0.448706
0.142047
0.0657952
0.0486059
0.0462148
0.0460984
0.0478757
0.0478505
0.0470221
0.0436865
0.0419862
0.0415047
0.041936
0.0432619
0.0451673
0.0454056
0.0454046
0.044603
0.0443524
0.0446479
0.0451776
0.0466019
0.047382
0.0484664
0.0486351
0.0492439
0.0492754
0.0504516
0.050792
0.0526696
0.0532597
0.0541253
0.0520287
0.0512951
0.0224814
0.0222232
0.0220043
0.0219417
0.0219059
0.0218813
0.0218736
0.0218601
0.0218564
0.0218525
0.0218548
0.0218512
0.0218468
0.0218463
0.0218518
0.0218476
0.0218445
0.0218419
0.0218421
0.0218398
0.0218392
0.021849
0.0218481
0.0218515
0.021848
0.021849
0.0218456
0.0218495
0.0218447
0.0218473
0.0218442
0.0218517
0.0218456
0.0218537
0.021847
0.0218516
0.021847
0.0218457
0.0218477
0.0218454
0.0218516
0.0218497
0.0218544
0.0218536
0.0218606
0.0218571
0.021865
0.0218603
0.0218668
0.0218589
0.0218647
0.021859
0.0218639
0.0218583
0.0218528
0.0218534
0.0218421
0.0218441
0.0218372
0.0218364
0.0218339
0.0218374
0.0218348
0.0218449
0.021849
0.0218656
0.0218617
0.0218671
0.0218625
0.0218698
0.0218655
0.0218609
0.0218628
0.0218546
0.0218567
0.0218464
0.0218465
0.0218365
0.0218364
0.0218277
0.0218309
0.0218273
0.0218324
0.0218348
0.0218552
0.0218603
0.0218695
0.0218651
0.021859
0.0218616
0.0218522
0.0218534
0.0218434
0.0218455
0.021837
0.0218362
0.0218333
0.0218395
0.0218346
0.0218363
0.0218419
0.0218637
0.0218718
0.0218805
0.0218748
0.0218799
0.0218716
0.0218696
0.0218693
0.0218596
0.0218597
0.021851
0.021855
0.0218507
0.0218559
0.0218532
0.0218603
0.0218577
0.0218636
0.0218577
0.0218647
0.0218577
0.0218641
0.0218563
0.0218525
0.0218529
0.0218397
0.0218397
0.021831
0.0218358
0.0218318
0.021839
0.0218354
0.0218548
0.0218655
0.0219318
0.0219642
0.0220306
0.022037
0.0221239
0.0221465
0.0222724
0.0224938
0.0227125
0.0232292
0.0236867
0.0248213
0.0261519
0.0292864
0.0341142
0.0449233
0.0647331
0.107281
0.187372
0.342612
0.596981
0.952645
1.09435
1.0682
0.768674
0.315992
0.105378
0.0503354
0.0362658
0.0328549
0.0320095
0.0316948
0.0316451
0.0315528
0.0315603
0.0317157
0.0319904
0.0320287
0.0319752
0.03168
0.0314984
0.0314282
0.0314402
0.0314938
0.0314602
0.031443
0.0314296
0.0315077
0.0315521
0.0317027
0.0318149
0.0322755
0.0328384
0.0338882
0.0349963
0.0366363
0.0374307
0.0378093
0.0225071
0.0222778
0.0221033
0.0220422
0.0219743
0.0219427
0.021913
0.0218943
0.0218828
0.021875
0.0218718
0.0218694
0.0218633
0.0218602
0.02186
0.0218553
0.0218524
0.0218513
0.0218467
0.0218452
0.0218433
0.0218399
0.0218395
0.0218393
0.0218377
0.0218377
0.0218369
0.0218356
0.0218387
0.0218523
0.0218569
0.0218566
0.0218565
0.0218541
0.0218517
0.0218512
0.0218503
0.0218496
0.0218486
0.0218487
0.0218474
0.0218475
0.0218472
0.0218454
0.0218448
0.0218415
0.0218425
0.0218515
0.0218578
0.0218605
0.021862
0.0218624
0.0218621
0.0218599
0.0218605
0.0218604
0.0218569
0.0218571
0.0218564
0.0218521
0.021852
0.0218496
0.021846
0.0218461
0.0218439
0.0218406
0.0218406
0.0218395
0.0218366
0.0218367
0.0218364
0.0218354
0.021835
0.0218338
0.0218335
0.021833
0.0218359
0.0218494
0.0218647
0.021868
0.0218678
0.0218673
0.0218646
0.0218626
0.021861
0.0218571
0.0218567
0.0218553
0.0218515
0.0218516
0.0218497
0.021846
0.0218461
0.0218443
0.0218405
0.0218404
0.0218376
0.0218341
0.0218339
0.0218318
0.0218304
0.0218289
0.0218289
0.0218281
0.0218272
0.021833
0.0218471
0.0218517
0.0218515
0.0218489
0.0218487
0.0218476
0.021847
0.0218464
0.0218462
0.0218458
0.0218445
0.021847
0.0218569
0.0218638
0.0218658
0.0218659
0.0218643
0.0218643
0.0218636
0.0218591
0.0218592
0.0218582
0.0218574
0.0218576
0.0218551
0.0218551
0.0218546
0.0218513
0.0218522
0.0218522
0.0218499
0.0218517
0.0218513
0.02185
0.0218494
0.0218494
0.021855
0.0218708
0.0219125
0.0219792
0.0221208
0.0223628
0.0228841
0.0238817
0.0261647
0.0310649
0.0424184
0.0666594
0.117982
0.21323
0.373025
0.554284
0.615035
0.598582
0.40765
0.160028
0.0604412
0.0362611
0.0307701
0.0297742
0.029768
0.0306632
0.0314305
0.0314916
0.0309392
0.0297076
0.028906
0.0287538
0.0287495
0.0290792
0.029547
0.0297117
0.0297449
0.0296959
0.029693
0.0297234
0.0299264
0.030103
0.0303858
0.0305699
0.0310646
0.0315559
0.0324557
0.0331437
0.0341569
0.0347311
0.0350155
0.0224655
0.0222102
0.0220759
0.0220046
0.0219257
0.0218954
0.0218652
0.0218512
0.0218413
0.0218349
0.0218333
0.0218305
0.0218301
0.0218384
0.0218494
0.0218501
0.02185
0.0218483
0.021845
0.0218445
0.0218406
0.0218384
0.0218369
0.0218335
0.0218332
0.0218313
0.021828
0.0218277
0.0218259
0.0218241
0.021823
0.0218229
0.0218221
0.0218216
0.0218209
0.0218198
0.0218243
0.0218404
0.0218476
0.0218479
0.0218458
0.0218464
0.0218462
0.0218426
0.0218428
0.0218426
0.0218393
0.0218397
0.0218398
0.0218371
0.0218376
0.0218375
0.021835
0.021835
0.0218327
0.0218327
0.0218392
0.0218441
0.0218471
0.0218486
0.0218491
0.0218493
0.0218461
0.0218468
0.0218464
0.0218424
0.0218425
0.0218404
0.021837
0.0218368
0.0218345
0.0218333
0.0218329
0.0218322
0.0218319
0.0218306
0.0218319
0.0218437
0.0218525
0.021854
0.0218536
0.0218505
0.0218506
0.0218491
0.0218461
0.021846
0.0218429
0.0218414
0.0218413
0.0218411
0.0218402
0.02184
0.0218393
0.021839
0.0218442
0.0218493
0.0218506
0.0218508
0.0218498
0.0218498
0.0218478
0.021844
0.0218437
0.0218431
0.0218409
0.021839
0.0218391
0.0218375
0.021835
0.0218351
0.0218346
0.0218335
0.0218333
0.0218327
0.0218321
0.0218309
0.021835
0.0218516
0.0218617
0.0218622
0.0218623
0.0218616
0.0218606
0.0218609
0.0218584
0.0218584
0.0218645
0.0218692
0.0218703
0.0218698
0.0218668
0.0218676
0.0218678
0.0218664
0.0218669
0.0218668
0.0218666
0.0218667
0.0218658
0.0218648
0.0218696
0.0218856
0.0219091
0.0219231
0.0219314
0.0219474
0.0219783
0.0220367
0.0221513
0.0223866
0.0229021
0.0240623
0.0268252
0.0331541
0.0475324
0.0768778
0.131985
0.216415
0.287026
0.303328
0.287755
0.201438
0.0920229
0.0470125
0.0331577
0.0289308
0.0277917
0.0274781
0.0272725
0.0269131
0.0263128
0.0257427
0.0254727
0.0253956
0.0253771
0.0253973
0.02546
0.0256191
0.0258939
0.0261627
0.0263818
0.0266156
0.0270836
0.0276999
0.0284005
0.0291711
0.0300949
0.0312008
0.0323887
0.0335005
0.0345382
0.0352747
0.0355596
0.0224517
0.0222306
0.0221235
0.0220265
0.0219794
0.0219496
0.0219152
0.0219007
0.0218841
0.0218783
0.0218702
0.0218648
0.0218592
0.0218573
0.0218534
0.0218501
0.0218497
0.0218456
0.0218426
0.0218424
0.0218393
0.0218359
0.0218359
0.0218328
0.0218299
0.0218299
0.0218269
0.0218247
0.0218245
0.0218211
0.0218209
0.0218206
0.02182
0.0218197
0.0218184
0.0218207
0.0218352
0.0218551
0.0218603
0.0218597
0.0218578
0.0218571
0.0218538
0.0218521
0.0218499
0.0218463
0.0218463
0.0218442
0.0218408
0.0218408
0.0218389
0.0218356
0.0218357
0.0218349
0.0218325
0.0218323
0.0218316
0.0218314
0.0218307
0.0218295
0.0218354
0.0218505
0.0218549
0.0218558
0.0218553
0.0218512
0.0218512
0.0218491
0.0218476
0.0218474
0.0218475
0.0218466
0.0218459
0.0218506
0.0218566
0.021858
0.0218583
0.0218559
0.0218559
0.0218552
0.0218515
0.0218514
0.0218493
0.0218463
0.0218455
0.0218454
0.0218449
0.021844
0.0218435
0.021842
0.0218441
0.0218506
0.0218526
0.0218524
0.0218498
0.0218497
0.0218463
0.0218435
0.0218434
0.0218405
0.0218391
0.021839
0.0218376
0.021838
0.0218364
0.0218366
0.0218469
0.0218554
0.0218569
0.021857
0.0218529
0.0218529
0.0218522
0.0218483
0.0218485
0.0218472
0.0218429
0.0218429
0.0218422
0.021839
0.0218395
0.0218395
0.0218367
0.0218368
0.0218358
0.0218355
0.0218441
0.0218575
0.0218604
0.0218592
0.021857
0.0218573
0.0218563
0.0218563
0.0218542
0.0218522
0.0218518
0.0218509
0.0218511
0.0218498
0.0218492
0.0218558
0.0218671
0.0218769
0.0218905
0.021904
0.0219211
0.0219494
0.0220034
0.0220979
0.0222775
0.0226219
0.0233638
0.0249882
0.0286873
0.0365876
0.0525954
0.0799714
0.117554
0.138577
0.140434
0.131673
0.0921844
0.0496697
0.034098
0.0291151
0.0272021
0.0264197
0.0261516
0.0260924
0.0261089
0.0261206
0.025917
0.025441
0.0250643
0.0249907
0.0249946
0.0251833
0.025624
0.0261331
0.026496
0.0269237
0.0277038
0.0288209
0.0301053
0.0316508
0.0334463
0.0357111
0.0380616
0.0405827
0.0425668
0.0441771
0.0447266
0.022434
0.0222438
0.0221276
0.0220346
0.02199
0.0219448
0.0219106
0.0218948
0.0218743
0.0218654
0.0218553
0.021852
0.0218499
0.0218471
0.0218463
0.0218444
0.021846
0.0218577
0.0218634
0.0218635
0.0218636
0.0218634
0.0218605
0.0218617
0.0218617
0.0218602
0.021861
0.0218608
0.0218568
0.0218568
0.021856
0.0218543
0.021854
0.0218519
0.021852
0.0218494
0.0218465
0.0218459
0.0218424
0.0218415
0.0218411
0.0218369
0.0218358
0.0218358
0.0218358
0.0218355
0.0218333
0.0218328
0.021833
0.0218321
0.0218314
0.0218372
0.0218469
0.0218482
0.0218467
0.0218467
0.0218442
0.0218415
0.0218411
0.02184
0.0218397
0.0218393
0.0218386
0.0218377
0.0218407
0.0218564
0.0218715
0.0218738
0.0218727
0.0218729
0.021871
0.0218673
0.0218669
0.0218634
0.0218616
0.0218608
0.0218574
0.0218574
0.021856
0.0218525
0.0218521
0.021849
0.0218475
0.0218462
0.0218432
0.0218434
0.0218426
0.0218388
0.0218391
0.0218391
0.0218361
0.0218367
0.0218365
0.0218333
0.0218338
0.0218337
0.0218295
0.0218295
0.021828
0.0218272
0.0218304
0.0218335
0.0218433
0.0218584
0.0218642
0.0218657
0.0218659
0.0218635
0.0218634
0.021861
0.0218573
0.0218569
0.0218531
0.0218513
0.0218502
0.0218475
0.0218475
0.0218456
0.0218426
0.0218422
0.0218423
0.0218412
0.0218388
0.0218389
0.0218383
0.0218371
0.0218365
0.0218345
0.0218371
0.0218497
0.0218565
0.0218581
0.0218581
0.0218564
0.0218564
0.0218547
0.0218543
0.0218542
0.0218527
0.0218524
0.0218518
0.0218522
0.0218608
0.0218789
0.021902
0.0219216
0.021933
0.0219476
0.0219774
0.0220291
0.0221156
0.0222651
0.0225331
0.0230292
0.0240249
0.0260618
0.03026
0.037985
0.0502827
0.0643371
0.0687845
0.0687146
0.0619646
0.0477653
0.0351754
0.0315583
0.0300197
0.0284248
0.026223
0.0252428
0.0248747
0.0246867
0.024531
0.0243723
0.0242947
0.0242915
0.0244146
0.0248404
0.0255754
0.026547
0.0276743
0.0292155
0.0313478
0.0343225
0.0377689
0.0418976
0.0461184
0.0512769
0.0561322
0.061474
0.0652017
0.06836
0.069357
0.0223631
0.0222337
0.0221289
0.0220273
0.021983
0.0219528
0.0219214
0.0219073
0.0218897
0.0218827
0.0218725
0.021868
0.0218652
0.0218578
0.0218553
0.0218546
0.0218504
0.0218463
0.0218462
0.0218421
0.0218379
0.0218379
0.0218354
0.0218308
0.0218309
0.0218296
0.0218265
0.0218259
0.0218258
0.021825
0.0218239
0.0218282
0.0218453
0.0218609
0.0218641
0.0218641
0.0218643
0.0218634
0.0218592
0.0218591
0.0218583
0.0218569
0.0218563
0.0218544
0.0218539
0.021851
0.0218496
0.0218489
0.0218456
0.0218453
0.0218432
0.0218415
0.0218405
0.0218383
0.0218376
0.0218363
0.0218338
0.0218325
0.0218324
0.021832
0.0218316
0.021831
0.0218296
0.0218326
0.0218483
0.0218592
0.0218603
0.0218584
0.0218585
0.0218569
0.0218531
0.0218531
0.0218499
0.0218471
0.0218469
0.0218443
0.0218435
0.021843
0.0218419
0.0218417
0.0218408
0.0218423
0.0218538
0.0218626
0.0218642
0.0218637
0.0218617
0.0218617
0.0218606
0.0218606
0.0218602
0.0218556
0.0218559
0.0218553
0.0218513
0.0218511
0.0218509
0.0218504
0.0218501
0.0218465
0.0218466
0.0218454
0.0218424
0.0218433
0.0218432
0.0218404
0.0218402
0.0218442
0.0218466
0.0218474
0.0218478
0.0218472
0.0218473
0.0218447
0.0218448
0.0218441
0.0218441
0.0218526
0.0218609
0.0218634
0.021864
0.0218645
0.0218642
0.0218603
0.0218603
0.0218584
0.0218562
0.0218562
0.0218564
0.0218566
0.0218566
0.0218541
0.0218543
0.0218543
0.0218507
0.0218508
0.0218503
0.0218493
0.0218506
0.0218515
0.0218512
0.0218496
0.0218495
0.0218491
0.0218501
0.0218577
0.0218754
0.021903
0.0219409
0.0219872
0.0220523
0.0221481
0.0223004
0.0225351
0.0229135
0.0235388
0.0246807
0.02674
0.030215
0.0353528
0.0392647
0.0402332
0.039362
0.0363218
0.0321072
0.0306945
0.030162
0.0296752
0.0280263
0.0257002
0.0248226
0.0245891
0.0245356
0.0245331
0.0245656
0.0246963
0.0251357
0.0262093
0.0280144
0.0305921
0.0337101
0.0377621
0.042882
0.0499582
0.058018
0.0674062
0.0762469
0.0865475
0.0956887
0.105893
0.112252
0.11772
0.119353
0.0223686
0.0222401
0.0221553
0.0220415
0.0219889
0.02196
0.021925
0.0219078
0.0218873
0.0218799
0.0218718
0.0218641
0.0218625
0.0218616
0.021858
0.021855
0.0218547
0.0218535
0.0218536
0.0218528
0.0218532
0.0218532
0.0218494
0.0218495
0.0218491
0.0218448
0.0218447
0.0218427
0.0218391
0.0218389
0.0218348
0.0218326
0.0218318
0.021828
0.0218271
0.0218262
0.0218243
0.0218239
0.0218226
0.0218223
0.0218218
0.0218215
0.0218316
0.0218542
0.0218631
0.0218641
0.0218643
0.0218644
0.0218613
0.0218619
0.0218615
0.0218575
0.0218577
0.0218564
0.0218526
0.0218525
0.0218504
0.0218482
0.0218478
0.0218481
0.021848
0.0218481
0.0218544
0.0218606
0.0218605
0.0218604
0.0218582
0.0218556
0.0218552
0.021851
0.0218501
0.0218497
0.0218472
0.0218477
0.0218475
0.0218451
0.0218451
0.0218437
0.0218428
0.0218439
0.0218438
0.0218435
0.0218441
0.0218531
0.0218625
0.0218645
0.0218634
0.0218607
0.0218605
0.0218597
0.0218598
0.0218588
0.0218553
0.0218552
0.0218521
0.0218494
0.0218483
0.0218449
0.0218446
0.021844
0.0218405
0.0218404
0.0218383
0.0218366
0.0218361
0.0218341
0.021834
0.0218336
0.0218329
0.0218313
0.0218284
0.0218306
0.0218422
0.0218545
0.0218636
0.0218695
0.0218707
0.0218711
0.021871
0.0218671
0.0218672
0.0218674
0.0218652
0.0218652
0.0218649
0.0218635
0.0218641
0.0218633
0.0218617
0.0218617
0.0218617
0.0218611
0.0218597
0.0218598
0.0218589
0.0218577
0.0218606
0.0218663
0.0218691
0.0218718
0.0218734
0.0218737
0.0218724
0.0218729
0.0218727
0.0218728
0.0218811
0.0219046
0.021941
0.0219861
0.0220402
0.0221148
0.0222225
0.0223805
0.0226011
0.0229033
0.0233422
0.0239969
0.0250126
0.0265339
0.0283463
0.0293026
0.0293693
0.0289045
0.0282812
0.0283702
0.0295895
0.030479
0.0301794
0.0276881
0.0253199
0.0247864
0.0247251
0.0248468
0.0253488
0.0263188
0.0280246
0.030851
0.0352388
0.041588
0.0493016
0.0589002
0.0701304
0.0850204
0.10153
0.120424
0.137084
0.155531
0.171147
0.18851
0.19809
0.206669
0.209092
0.0223365
0.022215
0.0221463
0.0220491
0.0219785
0.0219474
0.0219201
0.0218955
0.021876
0.0218634
0.0218549
0.0218443
0.0218396
0.0218357
0.0218344
0.0218333
0.0218335
0.0218326
0.0218308
0.0218338
0.0218452
0.0218491
0.0218489
0.0218491
0.0218483
0.0218439
0.0218439
0.0218417
0.0218379
0.0218378
0.0218345
0.0218313
0.0218312
0.0218297
0.0218278
0.0218273
0.0218269
0.0218269
0.0218262
0.0218255
0.0218314
0.0218529
0.0218689
0.021871
0.0218696
0.0218699
0.0218694
0.0218658
0.0218658
0.021864
0.0218606
0.0218605
0.0218575
0.0218548
0.0218547
0.0218509
0.0218491
0.0218488
0.0218444
0.0218436
0.0218434
0.0218427
0.0218424
0.0218409
0.0218426
0.0218552
0.0218639
0.0218659
0.0218659
0.0218659
0.0218655
0.0218612
0.0218614
0.0218603
0.0218561
0.0218561
0.0218544
0.0218506
0.0218506
0.0218484
0.0218446
0.0218446
0.0218437
0.0218411
0.0218412
0.0218405
0.021839
0.0218382
0.0218366
0.0218389
0.0218484
0.0218545
0.0218567
0.0218577
0.0218573
0.0218552
0.021856
0.0218559
0.0218529
0.0218528
0.0218524
0.0218524
0.0218519
0.0218483
0.0218484
0.0218462
0.0218435
0.0218428
0.0218389
0.0218379
0.0218365
0.0218333
0.0218333
0.0218317
0.0218294
0.0218289
0.0218282
0.0218281
0.0218272
0.0218268
0.0218373
0.0218618
0.0218739
0.0218769
0.0218776
0.0218771
0.0218756
0.0218764
0.0218763
0.021873
0.0218734
0.0218733
0.0218694
0.0218698
0.0218694
0.0218666
0.0218674
0.0218676
0.0218659
0.0218667
0.0218658
0.0218644
0.021864
0.0218624
0.0218648
0.0218752
0.0218848
0.0218924
0.0219055
0.0219297
0.0219683
0.0220236
0.0221008
0.0222121
0.0223679
0.022572
0.0228347
0.0231623
0.0235802
0.0241292
0.0247792
0.0254294
0.0256861
0.0257518
0.0257639
0.0262005
0.0276291
0.0299977
0.030637
0.0299608
0.0271989
0.0260419
0.0259756
0.0265102
0.0282303
0.0312267
0.0358036
0.042456
0.052279
0.0665263
0.0837265
0.104048
0.125821
0.153092
0.182592
0.216041
0.243784
0.272623
0.295517
0.32111
0.333842
0.345317
0.348369
0.0223556
0.022229
0.022149
0.0220812
0.0220063
0.0219745
0.0219463
0.0219204
0.0219071
0.0218882
0.0218803
0.0218702
0.0218665
0.0218586
0.0218522
0.0218498
0.0218498
0.0218492
0.0218476
0.0218471
0.0218467
0.0218477
0.0218523
0.0218524
0.0218524
0.0218509
0.0218485
0.0218483
0.0218482
0.0218477
0.0218473
0.0218508
0.0218522
0.0218523
0.0218515
0.0218515
0.0218509
0.0218511
0.0218596
0.0218681
0.0218687
0.0218669
0.0218669
0.0218658
0.0218631
0.0218631
0.0218608
0.0218576
0.0218577
0.0218542
0.0218515
0.0218516
0.0218488
0.0218456
0.0218457
0.0218438
0.0218399
0.02184
0.0218382
0.0218361
0.0218357
0.0218346
0.0218344
0.0218326
0.0218337
0.0218434
0.0218472
0.0218472
0.021846
0.0218452
0.0218452
0.0218441
0.0218435
0.0218431
0.0218421
0.0218452
0.0218569
0.0218616
0.0218615
0.0218613
0.0218591
0.021857
0.0218556
0.0218525
0.021852
0.0218507
0.0218471
0.0218459
0.0218459
0.0218422
0.0218409
0.0218407
0.0218395
0.0218397
0.0218388
0.0218378
0.0218446
0.0218565
0.0218594
0.0218589
0.021859
0.0218582
0.0218544
0.0218543
0.0218512
0.0218482
0.0218483
0.0218453
0.0218423
0.0218423
0.0218393
0.0218378
0.0218379
0.0218375
0.021837
0.0218359
0.0218367
0.0218469
0.0218524
0.0218529
0.0218526
0.0218523
0.0218517
0.0218491
0.0218483
0.0218469
0.0218429
0.0218429
0.0218424
0.0218423
0.0218419
0.0218383
0.0218383
0.0218385
0.0218364
0.0218355
0.0218355
0.0218349
0.0218337
0.0218331
0.0218314
0.0218333
0.0218465
0.0218667
0.0218793
0.0218853
0.0218903
0.0218974
0.0219081
0.0219248
0.0219516
0.0219957
0.0220645
0.0221676
0.0223047
0.0224744
0.0226808
0.0229112
0.02317
0.0234678
0.0237961
0.0241369
0.0244051
0.0245667
0.0246631
0.0249852
0.0259909
0.0283225
0.0307076
0.0312214
0.0301376
0.0287442
0.0288283
0.0306108
0.0350917
0.0423647
0.0528676
0.067097
0.0869256
0.115186
0.149037
0.187212
0.224386
0.267167
0.311581
0.36163
0.401126
0.439454
0.467528
0.499171
0.513305
0.525923
0.529124
0.0222811
0.022202
0.0221242
0.0220776
0.0220066
0.0219673
0.0219393
0.0219135
0.021901
0.0218862
0.0218803
0.0218741
0.02187
0.0218621
0.0218599
0.0218583
0.0218547
0.0218536
0.0218514
0.0218482
0.0218482
0.0218445
0.0218423
0.0218423
0.021838
0.0218356
0.0218355
0.0218321
0.0218298
0.0218298
0.0218292
0.0218278
0.0218272
0.0218261
0.0218303
0.021849
0.0218644
0.0218671
0.0218662
0.0218633
0.021863
0.0218595
0.0218573
0.0218562
0.0218526
0.0218518
0.0218499
0.0218464
0.0218464
0.0218441
0.0218415
0.0218421
0.0218421
0.0218397
0.0218398
0.0218388
0.0218384
0.0218432
0.0218458
0.0218461
0.0218456
0.0218445
0.0218441
0.0218434
0.0218436
0.02184
0.02184
0.0218394
0.0218378
0.0218376
0.0218373
0.0218365
0.0218349
0.0218373
0.0218493
0.021855
0.0218553
0.021853
0.0218529
0.0218501
0.0218475
0.0218473
0.0218464
0.0218459
0.0218451
0.0218437
0.021848
0.0218597
0.0218626
0.0218624
0.0218606
0.0218597
0.021858
0.0218547
0.0218546
0.0218513
0.021848
0.0218481
0.0218454
0.0218418
0.0218418
0.0218412
0.0218389
0.0218389
0.0218388
0.021838
0.0218375
0.0218364
0.0218387
0.0218522
0.0218702
0.0218738
0.021874
0.0218733
0.0218726
0.0218726
0.0218704
0.0218704
0.0218685
0.0218686
0.0218676
0.0218633
0.0218633
0.0218609
0.0218574
0.0218572
0.0218541
0.021852
0.0218518
0.021851
0.0218506
0.0218499
0.0218489
0.0218473
0.0218512
0.0218604
0.0218625
0.021863
0.0218628
0.0218612
0.0218611
0.0218606
0.0218623
0.0218731
0.0218916
0.0218989
0.0219006
0.0219005
0.0219007
0.0219083
0.0219233
0.021952
0.0220003
0.0220789
0.0221864
0.0223297
0.0225037
0.0227073
0.0229288
0.0231719
0.0234294
0.0237104
0.0239464
0.0241372
0.02424
0.0244007
0.0248844
0.0262801
0.0289652
0.0317304
0.0325167
0.0324164
0.0331308
0.0374941
0.0476262
0.0638469
0.0860504
0.113501
0.148389
0.196319
0.253451
0.315776
0.371094
0.427174
0.481002
0.542075
0.588451
0.630047
0.657109
0.687894
0.701151
0.711729
0.714324
0.0223183
0.0222283
0.0221574
0.022109
0.0220385
0.0219848
0.0219597
0.0219269
0.0219141
0.0218949
0.021887
0.0218757
0.0218704
0.0218624
0.0218591
0.0218568
0.0218566
0.0218553
0.021854
0.0218578
0.0218656
0.0218675
0.0218674
0.0218636
0.0218635
0.0218624
0.0218586
0.0218587
0.0218568
0.0218535
0.0218534
0.0218518
0.0218494
0.0218497
0.0218494
0.0218475
0.021847
0.0218458
0.0218482
0.0218598
0.0218671
0.0218666
0.0218649
0.0218645
0.0218615
0.0218601
0.0218582
0.0218543
0.021854
0.021851
0.0218472
0.0218472
0.0218444
0.0218412
0.0218411
0.0218408
0.0218398
0.0218399
0.0218397
0.021839
0.0218411
0.0218531
0.0218622
0.0218627
0.0218609
0.0218609
0.0218591
0.0218557
0.0218557
0.0218542
0.0218505
0.0218505
0.0218488
0.0218462
0.021846
0.0218454
0.0218455
0.0218444
0.0218433
0.0218486
0.0218586
0.0218613
0.0218609
0.0218591
0.0218591
0.0218555
0.0218531
0.0218528
0.0218483
0.021847
0.0218466
0.0218434
0.0218426
0.0218426
0.0218405
0.0218407
0.0218397
0.0218388
0.0218437
0.021852
0.0218536
0.0218531
0.0218532
0.0218509
0.021848
0.0218481
0.0218446
0.0218438
0.0218436
0.021842
0.0218418
0.0218399
0.0218393
0.0218379
0.0218392
0.0218482
0.0218521
0.0218523
0.0218519
0.0218512
0.0218509
0.0218498
0.0218525
0.0218624
0.0218661
0.021865
0.021865
0.0218643
0.021861
0.0218609
0.0218577
0.0218557
0.0218551
0.0218513
0.0218506
0.02185
0.0218477
0.0218474
0.0218466
0.021846
0.0218455
0.0218454
0.0218447
0.0218439
0.0218495
0.0218613
0.0218695
0.0218738
0.0218817
0.021895
0.0219153
0.0219424
0.021981
0.0220365
0.0221194
0.0222342
0.0223871
0.0225689
0.0227779
0.0230061
0.023258
0.023516
0.0237608
0.0239785
0.0241561
0.0242955
0.0245226
0.0252235
0.0269212
0.0299475
0.0333914
0.036828
0.0404297
0.0485053
0.0669624
0.0978442
0.139652
0.188174
0.243108
0.311544
0.390751
0.476
0.546451
0.606421
0.654763
0.710419
0.752374
0.78823
0.807466
0.830632
0.840547
0.847548
0.849345
0.0222607
0.0221901
0.0221079
0.0220697
0.0220064
0.0219557
0.0219314
0.0219122
0.0219031
0.0218926
0.021885
0.0218773
0.0218746
0.0218715
0.0218634
0.0218608
0.0218608
0.0218574
0.0218539
0.0218541
0.021854
0.0218509
0.0218515
0.0218515
0.0218476
0.0218475
0.0218472
0.0218458
0.021845
0.0218455
0.0218451
0.0218428
0.021843
0.021842
0.0218415
0.0218469
0.0218521
0.0218548
0.0218554
0.0218557
0.0218558
0.0218523
0.0218528
0.0218519
0.021848
0.0218481
0.0218483
0.0218475
0.0218471
0.0218445
0.0218443
0.0218436
0.0218437
0.0218435
0.0218418
0.0218417
0.0218375
0.0218375
0.0218453
0.0218519
0.0218571
0.02186
0.02186
0.0218579
0.0218579
0.0218559
0.0218522
0.0218523
0.0218489
0.0218475
0.0218476
0.0218445
0.0218441
0.0218437
0.0218416
0.0218418
0.0218415
0.0218389
0.0218392
0.0218395
0.0218391
0.0218427
0.021843
0.0218435
0.0218435
0.0218427
0.0218452
0.0218454
0.0218452
0.0218423
0.0218398
0.0218387
0.0218355
0.0218348
0.0218346
0.0218328
0.0218317
0.021832
0.0218311
0.0218311
0.0218398
0.0218458
0.021846
0.0218462
0.0218447
0.0218422
0.0218424
0.0218402
0.0218371
0.0218371
0.0218336
0.0218314
0.0218312
0.021831
0.0218306
0.0218298
0.0218292
0.0218277
0.0218304
0.0218412
0.0218475
0.0218481
0.0218484
0.0218485
0.0218445
0.0218445
0.0218435
0.0218394
0.0218393
0.0218376
0.021834
0.021834
0.0218317
0.0218286
0.0218291
0.0218293
0.0218271
0.0218273
0.0218266
0.0218255
0.021825
0.0218238
0.0218269
0.0218422
0.0218635
0.0218748
0.0218801
0.0218846
0.021891
0.0219033
0.0219202
0.0219434
0.021971
0.0220137
0.0220695
0.0221554
0.0222738
0.0224283
0.0226173
0.0228525
0.0231157
0.0234084
0.0236842
0.0239493
0.0241793
0.0243642
0.0245265
0.0248764
0.0256992
0.0275593
0.031119
0.0367984
0.0454711
0.0603145
0.0889723
0.138598
0.209441
0.291479
0.372545
0.452306
0.534799
0.625241
0.698598
0.750009
0.779269
0.816226
0.848658
0.877119
0.890958
0.908397
0.916944
0.921989
0.923521
0.0222681
0.0222124
0.0221415
0.0221085
0.0220538
0.021999
0.0219668
0.0219434
0.0219322
0.0219174
0.0219082
0.0218963
0.021891
0.0218808
0.0218761
0.0218674
0.0218623
0.0218573
0.0218561
0.021854
0.021848
0.0218461
0.0218457
0.02184
0.0218375
0.0218363
0.0218363
0.021836
0.0218345
0.0218341
0.0218328
0.0218333
0.0218422
0.0218503
0.0218527
0.0218531
0.0218532
0.0218535
0.0218539
0.0218536
0.0218535
0.0218508
0.021851
0.0218504
0.0218465
0.0218464
0.0218443
0.0218413
0.0218412
0.0218394
0.0218376
0.0218373
0.0218374
0.0218364
0.0218352
0.0218405
0.0218567
0.0218624
0.0218634
0.0218634
0.021859
0.021859
0.0218584
0.0218542
0.0218543
0.0218524
0.0218487
0.0218487
0.0218464
0.0218453
0.0218453
0.0218434
0.0218429
0.0218412
0.0218417
0.02185
0.0218527
0.0218531
0.0218525
0.0218513
0.0218516
0.0218506
0.0218508
0.0218498
0.0218488
0.0218544
0.0218697
0.0218746
0.0218747
0.0218727
0.0218729
0.0218729
0.0218696
0.0218697
0.0218694
0.0218676
0.0218679
0.0218658
0.021866
0.0218655
0.021861
0.021861
0.0218588
0.0218549
0.021855
0.0218519
0.0218488
0.0218488
0.0218452
0.0218427
0.0218429
0.0218411
0.0218399
0.0218401
0.0218379
0.0218379
0.0218367