/*--------------------------------*- C++ -*----------------------------------*\
| =========                 |                                                 |
| \\      /  F ield         | OpenFOAM: The Open Source CFD Toolbox           |
|  \\    /   O peration     | Version:  4.1                                   |
|   \\  /    A nd           | Web:      www.OpenFOAM.org                      |
|    \\/     M anipulation  |                                                 |
\*---------------------------------------------------------------------------*/
FoamFile
{
    version     2.0;
    format      ascii;
    class       volScalarField;
    location    "1.5";
    object      k;
}
// * * * * * * * * * * * * * * * * * * * * * * * * * * * * * * * * * * * * * //

dimensions      [0 2 -2 0 0 0 0];

internalField   nonuniform List<scalar> 
204246
(
1.50118
1.60037
1.61633
1.61852
1.63329
1.63073
1.63809
1.63606
1.6421
1.64021
1.64558
1.64374
1.64847
1.6458
1.65189
1.64898
1.65366
1.64931
1.64744
1.65075
1.646
1.64926
1.64405
1.64632
1.6429
1.64589
1.64352
1.64741
1.64512
1.65146
1.64926
1.65512
1.65217
1.65609
1.6521
1.65441
1.65076
1.64843
1.6512
1.64564
1.64723
1.64267
1.64514
1.6427
1.64662
1.64438
1.65097
1.64898
1.65637
1.65419
1.65745
1.65462
1.6566
1.65293
1.65056
1.65311
1.64752
1.64904
1.64377
1.64587
1.64331
1.64714
1.64488
1.65144
1.64926
1.6558
1.65353
1.65738
1.65563
1.65865
1.6561
1.65454
1.65661
1.65295
1.65468
1.64966
1.65075
1.64431
1.64549
1.64183
1.64668
1.64389
1.65081
1.64898
1.65541
1.65451
1.65912
1.65672
1.65497
1.65584
1.65152
1.65313
1.6477
1.64873
1.64172
1.64421
1.64019
1.64502
1.64228
1.64959
1.64789
1.65463
1.65374
1.65722
1.65446
1.65645
1.6522
1.65057
1.65121
1.64575
1.6471
1.64289
1.64709
1.64395
1.64923
1.64677
1.65246
1.65079
1.65693
1.65548
1.66002
1.65732
1.6602
1.65628
1.65445
1.65519
1.65091
1.65427
1.65174
1.65625
1.6544
1.6609
1.65995
1.66884
1.66892
1.67995
1.68103
1.69149
1.69258
1.70176
1.7029
1.71061
1.71781
1.72528
1.73638
1.74778
1.76318
1.78023
1.8052
1.83515
1.88035
1.94006
2.02836
2.13325
2.17412
2.17115
2.09145
1.87851
1.61458
1.50773
1.45646
1.40858
1.32136
1.20276
1.07776
0.968751
0.8766
0.805954
0.756913
0.72704
0.681494
0.628491
0.56864
0.53325
0.484489
0.451177
0.404939
0.383445
0.353386
0.334658
0.306741
0.286411
0.26759
0.24558
0.234619
0.21472
0.206034
0.190165
0.18328
0.171195
0.166055
0.159103
0.156995
0.421401
0.205674
0.185255
0.191722
0.198055
0.195869
0.200842
0.199782
0.205739
0.206061
0.214059
0.215023
0.222865
0.221663
0.229228
0.226681
0.232972
0.229677
0.228625
0.230952
0.224604
0.227545
0.221453
0.224968
0.222434
0.226885
0.225097
0.231085
0.228778
0.236746
0.234133
0.24031
0.235765
0.239704
0.234202
0.237184
0.233584
0.229699
0.232644
0.224985
0.226959
0.222438
0.226063
0.223938
0.229929
0.227612
0.236469
0.23428
0.24255
0.238848
0.242409
0.23839
0.240759
0.235262
0.230906
0.233723
0.225703
0.227448
0.221172
0.223916
0.221376
0.227299
0.225191
0.234331
0.232034
0.239947
0.236556
0.240974
0.237948
0.241146
0.237696
0.235258
0.238192
0.234024
0.236235
0.230004
0.231353
0.223144
0.224284
0.218403
0.223957
0.221186
0.231578
0.230731
0.242671
0.242248
0.247968
0.244243
0.238629
0.240855
0.234636
0.236404
0.22918
0.230368
0.21991
0.22211
0.216767
0.22275
0.220298
0.231696
0.231076
0.242228
0.24113
0.24517
0.240952
0.243241
0.236354
0.234646
0.235653
0.229453
0.231146
0.224011
0.228478
0.224537
0.231459
0.229046
0.237905
0.236607
0.244992
0.242271
0.24621
0.241463
0.244577
0.239564
0.23747
0.239401
0.232957
0.235812
0.231707
0.237101
0.234616
0.244097
0.243134
0.257251
0.257654
0.273496
0.273414
0.288629
0.287956
0.306317
0.308294
0.322336
0.348551
0.356193
0.39506
0.407828
0.462553
0.486882
0.569586
0.623488
0.761302
0.887118
1.14027
1.42429
1.80346
1.91002
1.89495
1.63163
1.08578
0.531302
0.309585
0.229859
0.190765
0.17904
0.164768
0.162706
0.140959
0.133184
0.10925
0.1033
0.0956511
0.0952369
0.0930604
0.0935116
0.0898803
0.089487
0.0846825
0.0825747
0.0800595
0.0780966
0.0767029
0.0742508
0.0738029
0.0719809
0.0718254
0.0707934
0.0709175
0.0707322
0.0715792
0.0726841
0.0754369
0.0767313
0.0774094
0.00330678
0.0326343
0.0326015
0.0326447
0.0328005
0.0325702
0.0327211
0.0324892
0.0328009
0.032775
0.0331854
0.0331865
0.033602
0.0336035
0.034109
0.0340359
0.0345344
0.0343708
0.0343434
0.0345227
0.0339158
0.0342271
0.0336754
0.0340492
0.0337619
0.0341569
0.0339889
0.0344668
0.0342756
0.03499
0.0346781
0.0352959
0.0348087
0.0353252
0.0347563
0.0351322
0.0347179
0.0344438
0.0345259
0.033797
0.0340712
0.0336981
0.0340693
0.0338762
0.0343665
0.0341678
0.0349052
0.0346962
0.0354772
0.0350361
0.0354872
0.0350567
0.0353579
0.0348969
0.0345992
0.0347125
0.03393
0.034127
0.0336028
0.0339144
0.0336804
0.0341493
0.0339775
0.0347323
0.0344708
0.0350873
0.0346307
0.0351535
0.0348771
0.0353619
0.0350798
0.0349194
0.0351798
0.034718
0.0349419
0.0343606
0.0344973
0.0337223
0.033852
0.0333213
0.0338296
0.0336061
0.0343328
0.0342541
0.035393
0.0353719
0.0359682
0.0355459
0.0352026
0.0353444
0.0347448
0.0349468
0.0342467
0.0343716
0.0334619
0.0337906
0.0333127
0.033861
0.0336694
0.0344576
0.0344104
0.0354568
0.0353261
0.0357724
0.0352831
0.0355464
0.0349345
0.034806
0.0348168
0.0341748
0.0343396
0.0337442
0.0342322
0.033815
0.0344229
0.0341582
0.0348537
0.0347516
0.0356131
0.035363
0.0359161
0.0354107
0.0357985
0.0352261
0.0349945
0.0350293
0.0343389
0.0347221
0.0343245
0.0348886
0.0346258
0.0354412
0.0353284
0.0367555
0.036758
0.0386892
0.0387518
0.0408199
0.0408433
0.0434327
0.0438191
0.0465721
0.0505159
0.0534906
0.0614017
0.0655504
0.0787621
0.0885057
0.11387
0.140435
0.19763
0.274472
0.422607
0.642794
1.01567
1.46014
1.61442
1.55497
1.16017
0.502134
0.163795
0.0780971
0.0577839
0.0544796
0.0539567
0.0550197
0.0548377
0.0541056
0.051043
0.0494879
0.0490017
0.049321
0.0503209
0.0519603
0.0521828
0.0522088
0.0516468
0.0515015
0.0518828
0.0525834
0.0541988
0.0551936
0.05621
0.0564453
0.056957
0.0570207
0.0577658
0.0579643
0.0588683
0.0590537
0.0592069
0.0569697
0.0563223
0.031255
0.0309517
0.0307538
0.0306897
0.0306545
0.0306282
0.0306213
0.0306046
0.0306032
0.0305992
0.0306023
0.0306
0.0306012
0.0305977
0.0306014
0.0305938
0.0305946
0.0305935
0.0305936
0.0305955
0.0306
0.0306098
0.0306008
0.0306056
0.0305996
0.030604
0.0305991
0.0306061
0.0306002
0.0306101
0.0306014
0.0306132
0.0306026
0.0306135
0.0306024
0.0306119
0.0306061
0.0306054
0.0306184
0.0306154
0.0306302
0.030625
0.0306266
0.0306183
0.0306194
0.030613
0.0306253
0.0306228
0.0306378
0.0306256
0.0306333
0.0306226
0.0306291
0.03062
0.0306142
0.0306171
0.0306033
0.0306071
0.030597
0.0305985
0.0305918
0.0305993
0.0306068
0.0306385
0.0306381
0.0306495
0.0306373
0.0306441
0.0306344
0.0306414
0.0306323
0.030626
0.0306293
0.0306178
0.0306217
0.0306064
0.0306072
0.0305896
0.0305895
0.0305753
0.0305801
0.0305765
0.0305892
0.0305969
0.0306308
0.0306353
0.0306478
0.0306384
0.0306284
0.0306317
0.0306151
0.0306175
0.0305978
0.030598
0.0305861
0.0305945
0.0305923
0.0306119
0.0306146
0.0306256
0.0306216
0.0306409
0.0306436
0.0306566
0.0306457
0.0306516
0.0306375
0.0306344
0.0306354
0.0306236
0.0306256
0.0306147
0.0306216
0.0306128
0.0306214
0.0306148
0.030624
0.0306218
0.0306381
0.0306326
0.030643
0.0306285
0.0306356
0.0306209
0.0306145
0.0306154
0.0305937
0.0305945
0.0305773
0.0305845
0.0305786
0.0305932
0.0305917
0.030633
0.0306538
0.030755
0.0307872
0.0308795
0.030887
0.0310226
0.0310575
0.0312475
0.0315683
0.0318858
0.0326271
0.0332759
0.0348803
0.0367186
0.0410241
0.0474954
0.0617327
0.0869765
0.139519
0.234256
0.410408
0.685973
1.05242
1.19193
1.14788
0.830655
0.357922
0.123388
0.0618452
0.0457736
0.0417911
0.0407864
0.0404282
0.0403517
0.0402531
0.0402528
0.0403694
0.0405853
0.0406091
0.0405513
0.0402738
0.0401009
0.0400337
0.04004
0.0400804
0.0400468
0.0400356
0.040031
0.0401215
0.0401898
0.0403758
0.0405427
0.0410297
0.0416055
0.0426775
0.0437808
0.0453008
0.0460746
0.0464324
0.0312236
0.0310224
0.0308552
0.0307951
0.0307269
0.0306953
0.0306648
0.0306474
0.0306382
0.0306278
0.0306215
0.0306175
0.0306121
0.0306082
0.0306073
0.0306026
0.0306
0.0305997
0.030596
0.030593
0.0305931
0.0305904
0.0305869
0.0305868
0.030586
0.0305854
0.0305848
0.030584
0.0305882
0.0306028
0.0306091
0.0306096
0.0306096
0.0306074
0.0306051
0.0306045
0.0306025
0.0306021
0.0306007
0.030598
0.030598
0.0305952
0.0305945
0.0305945
0.030593
0.0305929
0.0305904
0.0305896
0.0305962
0.0306068
0.0306107
0.0306109
0.0306108
0.0306098
0.0306081
0.0306071
0.0306031
0.0306019
0.0306001
0.0305969
0.0305958
0.0305932
0.0305907
0.0305899
0.0305875
0.0305871
0.0305845
0.030582
0.0305818
0.0305815
0.0305798
0.0305799
0.0305795
0.0305787
0.0305834
0.0306019
0.0306164
0.030618
0.0306168
0.0306148
0.0306129
0.0306082
0.0306069
0.0306068
0.0306024
0.0306004
0.0306004
0.0305976
0.0305951
0.030595
0.0305909
0.0305893
0.0305893
0.0305853
0.0305835
0.0305835
0.0305797
0.030578
0.0305779
0.030575
0.0305734
0.0305739
0.0305738
0.0305724
0.0305725
0.030571
0.0305713
0.0305835
0.030601
0.0306048
0.0306051
0.0306033
0.0306034
0.0306026
0.0306025
0.0306074
0.0306125
0.030613
0.0306121
0.0306121
0.0306118
0.0306087
0.0306093
0.0306092
0.0306054
0.0306054
0.0306036
0.0306012
0.0306012
0.0306001
0.0306007
0.0306006
0.0305974
0.0305975
0.0305976
0.0305951
0.0305951
0.030595
0.0305942
0.0305948
0.030594
0.0305975
0.0306138
0.0306426
0.0307061
0.0307969
0.0309909
0.0313194
0.0320338
0.0333834
0.0364563
0.0429386
0.0576524
0.0882079
0.151073
0.264145
0.448868
0.656715
0.727811
0.697137
0.476028
0.193843
0.0755447
0.0466031
0.0399595
0.0386923
0.0386174
0.0393223
0.0400271
0.0400866
0.0395821
0.0384408
0.0376633
0.0375103
0.0374981
0.0377696
0.0381821
0.0383441
0.0383767
0.0383602
0.0383971
0.0384752
0.0387435
0.0390059
0.0393983
0.039726
0.0403711
0.0410116
0.041923
0.0426596
0.0437321
0.0443392
0.0446241
0.0311688
0.0309894
0.0308189
0.0307472
0.030668
0.0306381
0.0306082
0.0305938
0.030586
0.0305812
0.0305778
0.0305792
0.0305921
0.0305958
0.0305961
0.0305947
0.0305916
0.0305917
0.0305895
0.0305871
0.0305864
0.0305838
0.0305831
0.0305822
0.030579
0.0305791
0.0305775
0.0305746
0.0305745
0.0305726
0.0305702
0.0305702
0.0305687
0.0305685
0.0305677
0.0305682
0.0305768
0.0305894
0.0305924
0.0305924
0.0305916
0.0305914
0.0305893
0.0305878
0.0305871
0.0305848
0.0305848
0.0305828
0.0305803
0.0305802
0.0305779
0.0305735
0.0305727
0.0305723
0.0305709
0.030569
0.0305657
0.0305642
0.0305619
0.0305607
0.0305602
0.0305595
0.0305634
0.0305775
0.0305891
0.0305912
0.0305907
0.0305891
0.0305891
0.0305865
0.030585
0.0305845
0.0305825
0.0305822
0.0305818
0.0305814
0.0305805
0.0305826
0.0305922
0.030596
0.0305957
0.0305948
0.0305949
0.0305931
0.0305916
0.0305916
0.0305877
0.0305862
0.0305861
0.0305838
0.0305826
0.0305821
0.0305811
0.0305835
0.0305921
0.0305949
0.0305946
0.0305919
0.030592
0.0305908
0.0305885
0.0305883
0.0305848
0.0305837
0.0305833
0.030579
0.0305782
0.0305777
0.0305763
0.0305761
0.0305753
0.0305766
0.0305861
0.0305907
0.0305908
0.0305903
0.030589
0.0305859
0.0305809
0.0305786
0.0305787
0.0305786
0.0305765
0.0305765
0.0305756
0.0305755
0.0305834
0.0305997
0.0306099
0.0306142
0.0306184
0.0306234
0.0306248
0.0306251
0.0306249
0.0306242
0.0306241
0.0306236
0.0306231
0.0306221
0.0306245
0.030634
0.0306501
0.0306633
0.0306755
0.0306979
0.0307413
0.0308187
0.0309673
0.0312692
0.0319413
0.0334617
0.0370863
0.0453151
0.0637515
0.100694
0.168939
0.27252
0.358821
0.378018
0.357622
0.249484
0.115165
0.0594371
0.0428503
0.0380066
0.0367123
0.0363392
0.0361103
0.0357482
0.0351494
0.0345912
0.0343486
0.0342844
0.0342725
0.0343033
0.034389
0.0345823
0.0349003
0.0352272
0.0354935
0.03579
0.0363395
0.03708
0.0379273
0.038889
0.040027
0.0414533
0.0429936
0.0445381
0.0458784
0.0469551
0.0473493
0.0312023
0.0309735
0.0308699
0.0307736
0.030727
0.0306986
0.0306656
0.0306512
0.0306309
0.0306226
0.0306127
0.0306089
0.0306031
0.0305964
0.0305938
0.0305916
0.0305871
0.0305846
0.0305829
0.0305801
0.030579
0.0305737
0.0305724
0.0305724
0.0305684
0.0305645
0.0305643
0.0305627
0.0305603
0.0305596
0.0305593
0.030559
0.0305585
0.0305591
0.0305706
0.0305926
0.0305988
0.0305991
0.0305981
0.0305958
0.0305959
0.0305947
0.030592
0.030592
0.0305902
0.0305875
0.0305871
0.0305843
0.0305831
0.030582
0.0305798
0.0305793
0.0305786
0.0305772
0.030576
0.0305759
0.0305747
0.0305736
0.0305733
0.0305724
0.0305759
0.0305911
0.0306036
0.0306062
0.0306065
0.0306066
0.0306061
0.0306044
0.0306046
0.0306033
0.0306033
0.0306025
0.0306018
0.0306056
0.0306097
0.0306115
0.0306119
0.0306122
0.0306117
0.0306084
0.0306085
0.0306072
0.030604
0.030604
0.0306026
0.0305993
0.0305994
0.0305993
0.030598
0.0305992
0.0305988
0.0305988
0.0305984
0.0305951
0.0305951
0.0305935
0.0305904
0.0305904
0.0305876
0.0305855
0.0305852
0.030583
0.0305824
0.030582
0.030581
0.0305848
0.0305983
0.0306044
0.0306044
0.0306042
0.0306022
0.0306005
0.0305996
0.030597
0.0305966
0.0305956
0.0305915
0.0305909
0.0305907
0.0305874
0.0305865
0.0305864
0.0305863
0.0305858
0.030585
0.0305885
0.0306033
0.0306135
0.0306152
0.0306144
0.0306121
0.0306119
0.0306086
0.0306073
0.0306069
0.0306058
0.030606
0.0306051
0.0306053
0.0306149
0.0306371
0.0306542
0.0306596
0.0306622
0.0306651
0.0306717
0.0306863
0.0307136
0.0307694
0.0308764
0.0310867
0.031506
0.0324366
0.0345241
0.0393278
0.0495859
0.0702483
0.105411
0.153754
0.181097
0.183561
0.171866
0.119277
0.0641548
0.0443152
0.0383148
0.0361844
0.0353283
0.0350159
0.0349314
0.0349303
0.0349324
0.034728
0.0342864
0.0339857
0.0339405
0.0339788
0.0342584
0.0347978
0.0353885
0.0358839
0.0365607
0.0377016
0.039348
0.0412713
0.0436451
0.0463273
0.0497448
0.0532031
0.0570167
0.059943
0.0623964
0.0632112
0.0311703
0.0309847
0.030872
0.0307824
0.0307397
0.0306965
0.0306631
0.0306473
0.0306272
0.0306196
0.0306113
0.0306059
0.0306017
0.0305989
0.0305986
0.0305976
0.0305969
0.0306019
0.0306088
0.0306094
0.030609
0.030609
0.0306085
0.0306073
0.0306054
0.0306036
0.030601
0.0306002
0.0305993
0.0305977
0.0305977
0.0305974
0.0305958
0.030596
0.030596
0.0305931
0.0305934
0.0305929
0.0305894
0.0305893
0.0305872
0.0305844
0.0305844
0.0305818
0.0305796
0.0305796
0.0305797
0.0305781
0.0305781
0.0305772
0.0305772
0.0305851
0.0305955
0.0305968
0.0305968
0.030595
0.0305926
0.0305926
0.0305907
0.0305897
0.0305897
0.030589
0.0305881
0.0305924
0.0306079
0.0306185
0.0306193
0.0306188
0.0306181
0.0306173
0.0306166
0.0306151
0.0306115
0.0306097
0.0306082
0.0306044
0.030603
0.0306003
0.0305963
0.0305952
0.0305932
0.0305892
0.0305881
0.0305874
0.0305858
0.0305833
0.0305813
0.0305801
0.0305771
0.0305731
0.0305722
0.0305712
0.0305688
0.0305681
0.0305673
0.0305669
0.0305663
0.0305692
0.0305866
0.0306087
0.0306131
0.0306128
0.0306097
0.0306029
0.0305976
0.0305959
0.030593
0.0305908
0.0305907
0.0305895
0.0305892
0.0305883
0.030589
0.0305944
0.0305962
0.0305959
0.0305949
0.0305944
0.0305921
0.0305914
0.0305905
0.0305882
0.0305879
0.0305879
0.0305866
0.0305866
0.0305859
0.0305855
0.0305907
0.0306019
0.0306047
0.0306053
0.0306054
0.0306041
0.0306038
0.0306039
0.030604
0.0306029
0.0306029
0.0306024
0.0306025
0.0306082
0.0306214
0.0306379
0.0306556
0.0306692
0.0306829
0.030701
0.0307358
0.0307931
0.0308877
0.0310512
0.0313571
0.0319507
0.0331984
0.0358273
0.041327
0.0515033
0.0677572
0.0865614
0.0926256
0.0925358
0.0835173
0.0632482
0.0458032
0.0407972
0.0388031
0.0372707
0.0352911
0.0341908
0.0337937
0.0335969
0.0334438
0.0333212
0.0332866
0.0333192
0.0335597
0.0341854
0.0352128
0.0366284
0.0383518
0.04074
0.0439816
0.0485421
0.053857
0.060279
0.0667694
0.0747008
0.0820784
0.0902961
0.0959511
0.100823
0.102334
0.0311054
0.0309698
0.0308693
0.030768
0.0307244
0.0306944
0.0306629
0.0306489
0.0306321
0.030626
0.0306162
0.0306074
0.0306039
0.0306
0.0305955
0.0305933
0.0305904
0.0305863
0.0305855
0.030582
0.0305795
0.030579
0.0305765
0.0305728
0.0305723
0.0305722
0.0305703
0.0305703
0.0305694
0.0305694
0.030579
0.0306003
0.0306063
0.0306061
0.0306048
0.0306031
0.0306008
0.0305979
0.0305969
0.0305946
0.0305918
0.0305916
0.030591
0.0305879
0.0305879
0.0305865
0.0305837
0.0305833
0.0305813
0.0305799
0.030579
0.0305761
0.0305761
0.0305751
0.0305719
0.0305718
0.03057
0.0305683
0.030568
0.0305678
0.0305674
0.0305665
0.0305696
0.0305855
0.030601
0.0306032
0.030603
0.0306028
0.0306026
0.0306005
0.0305989
0.0305982
0.0305958
0.0305957
0.0305954
0.030594
0.0305941
0.0305939
0.0305931
0.0305943
0.0306024
0.0306073
0.0306067
0.0306056
0.0306047
0.0306014
0.0306005
0.0305993
0.0305961
0.0305954
0.0305933
0.0305907
0.0305907
0.030588
0.0305861
0.0305857
0.030582
0.0305801
0.0305795
0.030576
0.0305734
0.0305727
0.0305725
0.0305711
0.030571
0.0305706
0.0305699
0.0305754
0.0305912
0.0305988
0.0305993
0.0305993
0.0305985
0.0305978
0.030603
0.0306139
0.0306168
0.0306164
0.0306135
0.0306136
0.0306123
0.0306107
0.0306108
0.0306097
0.0306097
0.0306089
0.030606
0.030606
0.0306045
0.0306017
0.0306016
0.0306001
0.0305976
0.0305976
0.0305968
0.030594
0.0305944
0.0305944
0.0305917
0.0305916
0.0305914
0.0305912
0.030591
0.030591
0.0305965
0.0306102
0.0306349
0.0306686
0.0307109
0.030762
0.0308317
0.0309294
0.0310864
0.0313367
0.0317653
0.0325204
0.0339682
0.0366605
0.041284
0.048204
0.0535658
0.0548974
0.0536969
0.0494697
0.0426454
0.0399909
0.0390894
0.038522
0.0369835
0.0347488
0.033802
0.033575
0.03354
0.0335714
0.0337238
0.0340822
0.0349049
0.0365893
0.0393281
0.0432866
0.0481446
0.0545235
0.062548
0.0736401
0.086297
0.101137
0.115027
0.131218
0.145492
0.161467
0.171368
0.179994
0.182527
0.0311233
0.0309913
0.0309092
0.0307933
0.0307392
0.0307083
0.030669
0.0306497
0.0306257
0.0306165
0.0306062
0.030601
0.0306003
0.0305981
0.0305969
0.0305969
0.0305956
0.0305939
0.0305938
0.030593
0.0305917
0.0305886
0.0305881
0.0305874
0.030586
0.0305859
0.0305815
0.0305794
0.0305794
0.0305764
0.030574
0.0305741
0.0305726
0.03057
0.03057
0.0305685
0.0305667
0.0305664
0.0305656
0.0305652
0.0305646
0.0305653
0.0305749
0.0305846
0.0305856
0.0305855
0.0305849
0.0305845
0.0305835
0.0305825
0.0305794
0.0305788
0.0305777
0.0305765
0.0305762
0.0305749
0.0305745
0.0305737
0.0305768
0.0305912
0.0306005
0.0306009
0.0306008
0.0305986
0.0305973
0.0305973
0.030595
0.0305912
0.0305906
0.0305904
0.0305856
0.0305843
0.0305842
0.0305808
0.0305788
0.0305784
0.0305781
0.0305778
0.0305771
0.0305816
0.0305997
0.0306131
0.0306148
0.0306138
0.0306109
0.0306093
0.0306069
0.0306037
0.0306029
0.0306008
0.0305983
0.0305973
0.0305955
0.0305947
0.0305934
0.0305909
0.030591
0.0305888
0.0305869
0.0305868
0.0305839
0.0305823
0.0305822
0.0305782
0.0305768
0.0305765
0.0305754
0.0305754
0.0305744
0.0305743
0.0305738
0.030574
0.0305861
0.0306163
0.0306279
0.0306292
0.0306289
0.0306268
0.0306268
0.0306238
0.030622
0.0306221
0.030621
0.0306183
0.0306183
0.0306181
0.0306151
0.0306152
0.0306151
0.0306127
0.0306136
0.0306123
0.0306101
0.0306099
0.0306094
0.0306088
0.030607
0.0306047
0.0306083
0.0306185
0.0306253
0.030628
0.030629
0.0306298
0.0306303
0.0306331
0.0306432
0.0306666
0.0307017
0.0307486
0.0308114
0.0308949
0.0310037
0.0311586
0.0313847
0.0317143
0.0322201
0.0330174
0.0343178
0.036328
0.0387713
0.0400706
0.0401559
0.0394424
0.0380215
0.037797
0.0384735
0.0392713
0.039005
0.036701
0.0344818
0.0340123
0.0339918
0.0342775
0.0351753
0.0367974
0.0395599
0.0440389
0.0509493
0.0610038
0.0733055
0.0887057
0.106675
0.130475
0.156898
0.187224
0.213797
0.243215
0.267901
0.295369
0.310505
0.32414
0.327922
0.031086
0.0309676
0.0309005
0.0308036
0.0307328
0.0307014
0.0306726
0.0306459
0.0306246
0.030611
0.030602
0.030591
0.0305862
0.0305803
0.0305776
0.0305755
0.0305751
0.030575
0.030574
0.030574
0.0305818
0.0305888
0.0305892
0.0305878
0.0305878
0.0305861
0.030584
0.0305839
0.0305805
0.030578
0.030578
0.0305742
0.0305728
0.0305729
0.0305729
0.0305714
0.0305715
0.030571
0.0305704
0.0305775
0.0306014
0.0306233
0.0306267
0.0306265
0.0306263
0.0306241
0.0306222
0.0306212
0.0306182
0.0306179
0.0306161
0.0306136
0.0306136
0.030611
0.0306092
0.0306091
0.0306051
0.0306035
0.0306033
0.0306
0.0305986
0.030598
0.0305968
0.0306008
0.0306097
0.0306113
0.0306103
0.0306102
0.0306081
0.0306062
0.0306058
0.0306024
0.0306007
0.0305997
0.0305956
0.0305944
0.030593
0.0305891
0.0305879
0.0305862
0.0305808
0.0305794
0.0305788
0.0305782
0.0305781
0.0305781
0.0305781
0.0305774
0.030577
0.0305757
0.0305765
0.030589
0.0306044
0.0306068
0.0306059
0.0306059
0.0306035
0.0306011
0.0306004
0.0305964
0.0305954
0.0305941
0.0305907
0.0305904
0.0305893
0.0305862
0.0305861
0.0305849
0.0305815
0.0305815
0.0305812
0.0305775
0.030577
0.0305766
0.0305752
0.0305748
0.0305739
0.030574
0.0305728
0.0305722
0.0305787
0.0305955
0.0306201
0.0306363
0.0306401
0.0306403
0.0306403
0.0306391
0.0306378
0.0306379
0.0306355
0.0306355
0.0306338
0.0306317
0.0306314
0.03063
0.0306298
0.0306295
0.0306279
0.0306288
0.0306287
0.0306261
0.0306262
0.0306251
0.0306239
0.0306234
0.0306227
0.0306287
0.030646
0.0306759
0.0307254
0.0307937
0.0308797
0.0309959
0.0311597
0.0313745
0.0316503
0.0320023
0.0324771
0.0331368
0.033957
0.0347996
0.035105
0.0351407
0.0350563
0.0353237
0.0365344
0.0387953
0.0394459
0.038872
0.0365398
0.035763
0.0358652
0.0370032
0.0398972
0.0446673
0.0519344
0.0626286
0.0785167
0.101613
0.129567
0.162695
0.198123
0.242349
0.290056
0.344126
0.388626
0.434826
0.47107
0.511673
0.531764
0.550098
0.554871
0.0311054
0.0309795
0.0309043
0.030836
0.0307615
0.0307289
0.0306986
0.0306699
0.0306554
0.0306355
0.0306268
0.0306151
0.0306107
0.0306039
0.0305982
0.0305935
0.0305926
0.0305915
0.0305889
0.0305885
0.0305876
0.0305871
0.0305923
0.0305971
0.0305973
0.0305963
0.0305963
0.0305962
0.0305943
0.0305943
0.0305934
0.0305931
0.0305971
0.0306031
0.030603
0.0306026
0.0306065
0.0306154
0.0306178
0.0306172
0.0306152
0.0306152
0.0306133
0.0306117
0.030611
0.0306074
0.0306067
0.0306059
0.0306003
0.0305988
0.0305988
0.0305938
0.0305904
0.0305903
0.0305881
0.0305845
0.0305842
0.030582
0.0305788
0.0305788
0.030578
0.0305766
0.030576
0.0305761
0.0305751
0.0305747
0.0305827
0.0305945
0.0305968
0.0305969
0.030597
0.0305962
0.0305957
0.0306003
0.0306098
0.0306115
0.0306114
0.030609
0.0306068
0.0306064
0.0306031
0.0306017
0.0306008
0.0305983
0.0305979
0.0305963
0.0305937
0.0305938
0.0305919
0.0305896
0.0305899
0.0305895
0.0305879
0.0305878
0.0305868
0.0305879
0.0305953
0.0305993
0.0305989
0.0305988
0.0305969
0.030595
0.0305946
0.0305907
0.0305899
0.0305897
0.0305853
0.0305837
0.0305836
0.0305809
0.0305789
0.0305789
0.0305769
0.030576
0.030576
0.0305757
0.0305752
0.0305736
0.0305745
0.0305846
0.0305939
0.0305974
0.0305982
0.0305978
0.0305979
0.0305975
0.030594
0.0305939
0.0305921
0.0305895
0.0305895
0.0305878
0.0305848
0.0305848
0.0305823
0.0305814
0.0305814
0.0305812
0.0305809
0.0305798
0.0305805
0.0305913
0.030614
0.0306347
0.0306424
0.030646
0.0306484
0.0306525
0.0306611
0.0306796
0.0307123
0.0307655
0.0308432
0.0309546
0.0310998
0.0312784
0.0314901
0.0317224
0.0319874
0.0323039
0.0326692
0.0330618
0.033372
0.0335575
0.0336512
0.0339503
0.034899
0.0371441
0.0395795
0.0401806
0.0395604
0.0389855
0.0397985
0.0434079
0.0509571
0.0626412
0.0794689
0.102671
0.135386
0.182089
0.237941
0.300802
0.361801
0.431631
0.503599
0.584605
0.647902
0.708884
0.752432
0.80309
0.825864
0.846413
0.851497
0.0310385
0.0309557
0.030882
0.0308338
0.0307626
0.0307228
0.0306953
0.0306685
0.0306557
0.0306382
0.03063
0.0306175
0.0306124
0.0306063
0.0306028
0.0305991
0.0305974
0.030596
0.0305959
0.0305927
0.0305892
0.0305887
0.0305862
0.0305827
0.0305828
0.0305797
0.0305765
0.0305765
0.0305753
0.0305734
0.0305732
0.0305734
0.0305727
0.0305728
0.0305825
0.030605
0.0306144
0.030615
0.0306149
0.0306136
0.0306125
0.0306115
0.0306083
0.030608
0.0306075
0.0306027
0.0306014
0.0306013
0.0305964
0.0305944
0.0305944
0.0305914
0.0305892
0.0305888
0.0305889
0.0305879
0.0305876
0.0305914
0.0305971
0.0305974
0.0305968
0.0305966
0.030594
0.0305924
0.0305915
0.0305885
0.0305887
0.0305885
0.0305859
0.0305859
0.0305853
0.0305838
0.0305834
0.0305822
0.0305846
0.0305966
0.0306027
0.0306033
0.0306031
0.030602
0.0306019
0.0306016
0.0306007
0.0306007
0.0305999
0.0305991
0.0306024
0.0306074
0.0306083
0.0306074
0.0306065
0.0306058
0.0306042
0.0306042
0.0306023
0.0305999
0.0305998
0.0305982
0.0305936
0.0305928
0.0305924
0.0305894
0.0305887
0.0305881
0.0305881
0.0305876
0.0305874
0.0305953
0.030617
0.0306259
0.0306261
0.0306253
0.0306242
0.0306234
0.0306216
0.0306184
0.030617
0.0306151
0.0306128
0.030612
0.0306104
0.0306102
0.0306087
0.0306065
0.0306064
0.0306036
0.0306018
0.0306012
0.0305984
0.0305967
0.0305958
0.0305928
0.030591
0.0305893
0.0305863
0.0305844
0.0305844
0.0305835
0.0305826
0.0305868
0.0306007
0.0306191
0.0306293
0.0306333
0.0306356
0.0306389
0.0306433
0.0306478
0.0306537
0.0306658
0.0306852
0.030719
0.030775
0.0308629
0.0309815
0.0311349
0.0313168
0.0315233
0.0317433
0.0319823
0.0322386
0.0325259
0.0327732
0.0329798
0.0330968
0.0332699
0.0337501
0.0350983
0.0375784
0.0405567
0.0425739
0.0433828
0.0459008
0.0543561
0.0714295
0.0975767
0.133478
0.178933
0.237529
0.317966
0.413193
0.516208
0.607094
0.698559
0.785559
0.884789
0.957397
1.01893
1.05424
1.09193
1.10725
1.11853
1.12118
0.0310816
0.0309853
0.0309166
0.0308655
0.0307916
0.0307364
0.030711
0.0306789
0.0306662
0.0306471
0.0306389
0.030627
0.030622
0.0306153
0.0306112
0.0306077
0.0306073
0.0306053
0.0306062
0.0306132
0.0306159
0.0306159
0.0306159
0.0306143
0.0306115
0.0306113
0.030608
0.0306063
0.0306055
0.0306022
0.0306013
0.0306007
0.0305988
0.0305978
0.0305978
0.0305974
0.0305974
0.0306044
0.0306164
0.030619
0.0306182
0.030617
0.0306162
0.0306133
0.0306131
0.0306109
0.0306078
0.0306073
0.0306047
0.0306004
0.0305999
0.0305991
0.0305944
0.0305936
0.0305931
0.0305917
0.0305916
0.0305908
0.0305913
0.0305989
0.0306039
0.0306039
0.0306031
0.0306028
0.0305994
0.0305978
0.0305976
0.0305936
0.0305918
0.0305919
0.0305885
0.0305863
0.0305862
0.030585
0.0305842
0.0305837
0.0305833
0.0305897
0.0306062
0.0306106
0.0306105
0.0306094
0.0306085
0.0306074
0.0306053
0.0306012
0.030601
0.0305996
0.0305966
0.0305967
0.0305949
0.0305931
0.0305931
0.0305927
0.0305914
0.0305914
0.0305909
0.0305897
0.0305913
0.0306008
0.0306048
0.0306056
0.0306052
0.0306026
0.0306026
0.0306003
0.0305981
0.0305976
0.0305947
0.030594
0.0305936
0.0305908
0.0305908
0.0305896
0.030589
0.0305942
0.0306025
0.030604
0.0306038
0.0306024
0.0306031
0.0306112
0.0306153
0.0306157
0.0306138
0.0306122
0.0306116
0.0306089
0.0306084
0.0306077
0.0306034
0.0306025
0.0306021
0.0305972
0.0305939
0.0305936
0.0305909
0.0305873
0.0305874
0.0305862
0.0305862
0.0305862
0.0305866
0.0305945
0.0306147
0.0306391
0.0306508
0.0306561
0.0306602
0.030667
0.0306786
0.0306991
0.0307374
0.0308033
0.0308994
0.0310238
0.0311873
0.0313781
0.0315904
0.0318154
0.0320597
0.0323098
0.032552
0.0327762
0.0329628
0.0331158
0.0333586
0.0340723
0.0357716
0.0388762
0.0429826
0.0480378
0.0556556
0.0715431
0.102807
0.152956
0.221652
0.30299
0.395674
0.511346
0.643623
0.783852
0.90011
0.992953
1.05309
1.11254
1.15253
1.18118
1.19587
1.21335
1.22062
1.22523
1.22643
0.0310275
0.0309522
0.0308699
0.0308307
0.0307644
0.0307115
0.0306868
0.0306673
0.0306574
0.0306443
0.0306366
0.0306277
0.0306191
0.0306073
0.0305952
0.0305824
0.0305729
0.0305689
0.0305676
0.0305666
0.0305663
0.030565
0.030565
0.0305643
0.0305642
0.0305714
0.0305863
0.0305901
0.03059
0.0305898
0.0305891
0.0305881
0.030585
0.0305836
0.0305823
0.0305779
0.0305758
0.030575
0.0305749
0.0305718
0.0305681
0.0305677
0.0305671
0.030566
0.0305656
0.0305646
0.0305687
0.030583
0.0305897
0.0305908
0.0305904
0.0305883
0.0305886
0.0305887
0.030589
0.0305891
0.0305878
0.0305882
0.0305883
0.0305861
0.0305869
0.0305867
0.0305834
0.0305835
0.0305831
0.0305792
0.0305794
0.0305788
0.0305774
0.0305775
0.0305758
0.0305757
0.0305746
0.0305733
0.0305732
0.0305722
0.0305707
0.0305686
0.0305669
0.0305648
0.030561
0.0305591
0.030556
0.0305551
0.0305545
0.0305539
0.0305593
0.030577
0.0305856
0.0305854
0.0305844
0.0305844
0.0305845
0.0305818
0.0305812
0.0305814
0.0305811
0.0305807
0.0305797
0.0305803
0.030589
0.0305944
0.0305945
0.0305942
0.0305921
0.0305906
0.0305894
0.0305862
0.0305859
0.0305849
0.0305825
0.0305824
0.0305813
0.0305786
0.0305787
0.0305778
0.0305772
0.0305818
0.0305849
0.0305847
0.0305842
0.0305839
0.0305834
0.0305826
0.0305826
0.0305812
0.0305797
0.0305796
0.0305767
0.030576
0.0305756
0.030571
0.0305697
0.0305696
0.0305694
0.0305686
0.0305684
0.0305682
0.0305662
0.0305664
0.0305658
0.0305659
0.030575
0.0305963
0.030625
0.0306489
0.0306596
0.0306649
0.030669
0.0306754
0.0306846
0.0307003
0.0307246
0.0307703
0.0308359
0.0309326
0.0310594
0.0312207
0.0314171
0.031654
0.0319165
0.032205
0.0324739
0.0327382
0.0329729
0.0331676
0.033345
0.0337077
0.0345634
0.0365264
0.0404909
0.0477392
0.061081
0.0871594
0.137145
0.22084
0.338266
0.473293
0.608526
0.741871
0.874816
1.01197
1.10167
1.14225
1.16423
1.19196
1.21797
1.23617
1.24638
1.25919
1.26476
1.26809
1.26915
0.0310356
0.0309749
0.0309041
0.0308704
0.0308139
0.0307566
0.0307253
0.0307028
0.0306917
0.0306759
0.0306657
0.0306548
0.03065
0.0306398
0.0306308
0.0306182
0.0306109
0.0306033
0.0306007
0.0305982
0.0305938
0.0305894
0.0305888
0.0305871
0.0305803
0.0305782
0.0305781
0.0305764
0.0305747
0.0305747
0.0305739
0.030573
0.0305772
0.0305931
0.0306007
0.0306009
0.0306009
0.0305989
0.0305972
0.030597
0.0305926
0.030591
0.0305909
0.0305878
0.0305859
0.0305859
0.0305826
0.0305813
0.0305811
0.0305805
0.0305798
0.0305793
0.0305788
0.0305778
0.0305798
0.0305933
0.0306084
0.0306112
0.0306112
0.0306099
0.0306103
0.0306103
0.0306075
0.0306077
0.0306077
0.0306049
0.0306055
0.0306052
0.0306021
0.030602
0.0306004
0.0305977
0.0305975
0.0305944
0.0305924
0.0305921
0.0305878
0.0305867
0.030587
0.030587
0.0305855
0.0305855
0.0305851
0.0305849
0.0305924
0.0306128
0.0306217
0.030622
0.0306212
0.0306209
0.0306199
0.0306187
0.030617
0.0306134
0.0306131
0.0306112
0.0306083
0.0306084
0.0306067
0.0306038
0.0306038
0.030602
0.0305992
0.0305992
0.0305964
0.0305941
0.0305942
0.0305923
0.0305898
0.0305899
0.0305889
0.0305864
0.0305864
0.0305854
0.0305841
0.0305837
0.0305838
0.030583
0.0305822
0.0305881
0.0306006
0.0306034
0.0306031
0.0306021
0.030602