/*--------------------------------*- C++ -*----------------------------------*\
| =========                 |                                                 |
| \\      /  F ield         | OpenFOAM: The Open Source CFD Toolbox           |
|  \\    /   O peration     | Version:  4.1                                   |
|   \\  /    A nd           | Web:      www.OpenFOAM.org                      |
|    \\/     M anipulation  |                                                 |
\*---------------------------------------------------------------------------*/
FoamFile
{
    version     2.0;
    format      ascii;
    class       volScalarField;
    location    "1.5";
    object      p;
}
// * * * * * * * * * * * * * * * * * * * * * * * * * * * * * * * * * * * * * //

dimensions      [0 2 -2 0 0 0 0];

internalField   nonuniform List<scalar> 
204246
(
-58.1375
-68.3995
-65.9707
-63.3675
-61.2737
-59.3591
-57.8654
-56.5121
-55.5768
-54.636
-54.0707
-53.3624
-52.8668
-52.3212
-51.9276
-51.7013
-51.7851
-51.7392
-51.2914
-51.1432
-50.9485
-50.7984
-50.6261
-50.4824
-50.3388
-50.2453
-50.1582
-50.1059
-50.0155
-49.9474
-49.839
-49.7298
-49.5626
-49.4647
-49.433
-49.5974
-49.7237
-49.595
-49.5219
-49.4198
-49.3566
-49.2832
-49.2416
-49.2061
-49.1575
-49.0833
-49.0791
-49.0319
-48.9572
-48.8083
-48.703
-48.6036
-48.8313
-48.9661
-48.8406
-48.7844
-48.6906
-48.6321
-48.5518
-48.4933
-48.4571
-48.4374
-48.3883
-48.3777
-48.3246
-48.2472
-48.0903
-47.9905
-47.8938
-48.1171
-48.2818
-48.1829
-48.0898
-47.9815
-47.9234
-47.8427
-47.7852
-47.736
-47.7185
-47.6786
-47.649
-47.5653
-47.5184
-47.4197
-47.2979
-47.1563
-47.4381
-47.5569
-47.4361
-47.3623
-47.2696
-47.2053
-47.1434
-47.1139
-47.0545
-47.0126
-46.9552
-46.9447
-46.9037
-46.8905
-46.8183
-46.7256
-46.5783
-46.4709
-46.3902
-46.7501
-46.7981
-46.5537
-46.5563
-46.5091
-46.4695
-46.368
-46.281
-46.2255
-46.2402
-46.2249
-46.2007
-46.106
-46.0081
-45.8803
-45.7783
-45.6523
-45.9814
-46.0452
-45.7962
-45.8651
-45.7328
-45.6444
-45.546
-45.4863
-45.3914
-45.3187
-45.2174
-45.2115
-45.0229
-45.0708
-44.7726
-44.749
-44.5085
-44.5496
-44.5535
-44.3152
-44.1063
-43.7981
-43.4569
-43.0447
-42.6033
-42.0751
-41.5253
-40.9086
-40.3261
-39.8569
-39.7412
-40.2057
-41.9158
-45.3606
-51.4051
-59.5004
-68.1166
-77.7721
-85.0987
-88.4909
-91.4554
-92.7628
-92.844
-92.2893
-91.2357
-90.3218
-88.6112
-86.1194
-82.9124
-79.7976
-76.0622
-72.0108
-67.6371
-62.4046
-55.6363
-47.9158
-39.8408
-30.4194
-19.5323
-7.00435
7.20624
23.5347
41.9665
62.6329
85.5437
111.326
140.792
179.719
238.776
332.182
457.502
-75.8933
-70.9596
-67.588
-64.7467
-62.3274
-60.3547
-58.7109
-57.3833
-56.2623
-55.3237
-54.5456
-53.8505
-53.2466
-52.7224
-52.2951
-51.9969
-51.8459
-51.6936
-51.5191
-51.3466
-51.175
-50.9984
-50.8262
-50.6791
-50.5495
-50.4599
-50.3725
-50.3002
-50.2104
-50.1386
-50.043
-49.9585
-49.7947
-49.6971
-49.6574
-49.7224
-49.7483
-49.7087
-49.6559
-49.6021
-49.5572
-49.5088
-49.47
-49.3995
-49.3314
-49.2832
-49.252
-49.2103
-49.1385
-49.0521
-48.9883
-48.9112
-48.9411
-48.966
-48.9584
-48.9377
-48.8682
-48.8343
-48.7726
-48.7197
-48.6544
-48.6117
-48.5747
-48.5383
-48.4894
-48.4252
-48.3294
-48.2512
-48.1879
-48.2294
-48.2716
-48.2723
-48.2376
-48.1908
-48.1621
-48.0823
-48.0258
-47.9559
-47.9159
-47.8791
-47.8259
-47.7449
-47.6816
-47.6315
-47.5689
-47.5174
-47.5075
-47.5193
-47.5348
-47.547
-47.4851
-47.4461
-47.3897
-47.3305
-47.2536
-47.1967
-47.1387
-47.1066
-47.0847
-47.0653
-47.0049
-46.9176
-46.8397
-46.7809
-46.7164
-46.7645
-46.8091
-46.7868
-46.7626
-46.7118
-46.6646
-46.598
-46.5154
-46.4232
-46.3869
-46.3733
-46.3635
-46.3208
-46.2438
-46.1678
-46.0922
-46.014
-46.0451
-46.0697
-46.0336
-46.0047
-45.9404
-45.8619
-45.7692
-45.698
-45.6285
-45.5503
-45.4991
-45.4288
-45.3654
-45.2424
-45.1286
-45.0149
-44.9389
-44.8635
-44.7493
-44.6487
-44.5191
-44.3634
-44.1435
-43.8314
-43.4812
-43.0823
-42.6507
-42.0875
-41.3526
-40.4306
-39.6477
-39.3283
-39.7579
-41.7336
-46.7237
-56.1174
-66.968
-77.725
-85.2043
-89.2767
-91.896
-93.6677
-94.7967
-94.2593
-93.6699
-93.2308
-91.8755
-90.0544
-88.0036
-85.5434
-82.4805
-79.3089
-75.642
-70.9986
-65.4514
-58.8762
-51.6492
-43.7199
-34.5716
-24.0482
-12.1322
1.59045
17.1075
34.5662
53.5425
74.0655
96.1129
121.534
157.28
223.457
321.631
-81.0846
-73.1365
-68.059
-64.8225
-62.2024
-60.2434
-58.6087
-57.3716
-56.18
-55.3049
-54.5095
-53.8432
-53.2555
-52.7664
-52.361
-52.0469
-51.7862
-51.6026
-51.4481
-51.2849
-51.1025
-50.9134
-50.7103
-50.5128
-50.3533
-50.2006
-50.0993
-50.0208
-49.9754
-49.9366
-49.8543
-49.7516
-49.646
-49.5609
-49.4972
-49.4624
-49.4588
-49.4557
-49.4177
-49.3529
-49.2771
-49.2199
-49.1629
-49.1131
-49.0684
-49.0513
-49.0375
-48.9913
-48.9248
-48.8212
-48.7571
-48.721
-48.6993
-48.7017
-48.6985
-48.6624
-48.6139
-48.5516
-48.4968
-48.4281
-48.3868
-48.3496
-48.3354
-48.3264
-48.2862
-48.2302
-48.1287
-48.0578
-48.0157
-47.9982
-48.002
-47.9802
-47.932
-47.8781
-47.8254
-47.7711
-47.7102
-47.6783
-47.6409
-47.6173
-47.5732
-47.55
-47.5077
-47.4193
-47.364
-47.3159
-47.3171
-47.2965
-47.2595
-47.1989
-47.1489
-47.0835
-47.0443
-47.0118
-46.9941
-46.9541
-46.9321
-46.8997
-46.8602
-46.8133
-46.7333
-46.6791
-46.5911
-46.5637
-46.5323
-46.491
-46.4614
-46.4399
-46.4046
-46.3767
-46.3469
-46.327
-46.2827
-46.2238
-46.1665
-46.1169
-46.0789
-46.0204
-45.9548
-45.8726
-45.8382
-45.8171
-45.7836
-45.7574
-45.7426
-45.7101
-45.6441
-45.5681
-45.5131
-45.4505
-45.3685
-45.292
-45.2183
-45.1566
-45.0322
-44.9789
-44.8853
-44.7993
-44.7386
-44.6384
-44.5249
-44.4153
-44.2593
-44.075
-43.8533
-43.6043
-43.2866
-42.9535
-42.614
-42.2729
-41.9257
-41.6742
-41.5502
-41.5928
-42.1364
-43.829
-47.7589
-55.2832
-65.2507
-75.1903
-83.0198
-88.2274
-91.3087
-93.2014
-93.7123
-93.4885
-91.4461
-89.9594
-89.2457
-87.5523
-85.7703
-82.9338
-79.5041
-76.2802
-72.2605
-67.6408
-62.3692
-56.243
-49.241
-41.3339
-32.3359
-22.0687
-10.3241
2.86508
17.8419
34.5306
52.8937
72.3297
92.8053
114.83
143.959
187.358
244.758
-79.1152
-73.2819
-68.6126
-65.2223
-62.615
-60.5681
-58.9403
-57.6178
-56.4818
-55.5321
-54.7367
-54.0644
-53.4839
-52.9823
-52.5821
-52.2542
-52.0068
-51.8101
-51.6226
-51.447
-51.2921
-51.1476
-51.0141
-50.9062
-50.7715
-50.7017
-50.5851
-50.5029
-50.4159
-50.3211
-50.2326
-50.1426
-50.0628
-50.0008
-49.9703
-49.944
-49.9065
-49.8599
-49.8243
-49.7934
-49.7689
-49.7283
-49.6952
-49.6276
-49.5568
-49.4964
-49.4296
-49.3757
-49.3233
-49.2996
-49.2583
-49.2268
-49.1919
-49.1464
-49.0979
-49.0713
-49.0452
-49.0267
-48.9868
-48.9545
-48.8932
-48.8327
-48.7763
-48.7125
-48.6568
-48.5842
-48.5515
-48.5129
-48.4877
-48.4813
-48.4679
-48.4422
-48.4192
-48.383
-48.3459
-48.3066
-48.2712
-48.1952
-48.1456
-48.0792
-48.0208
-47.9484
-47.8739
-47.8413
-47.8053
-47.8185
-47.7686
-47.7264
-47.7218
-47.7272
-47.7049
-47.6844
-47.6219
-47.5646
-47.4866
-47.4336
-47.3488
-47.3069
-47.2476
-47.2119
-47.1731
-47.0916
-47.0858
-47.0655
-47.0624
-47.0358
-46.9998
-46.9677
-46.9627
-46.9169
-46.8612
-46.791
-46.733
-46.6583
-46.6109
-46.579
-46.5546
-46.5223
-46.4443
-46.4112
-46.3806
-46.3563
-46.3134
-46.2756
-46.2443
-46.2068
-46.1636
-46.0972
-46.0372
-45.9614
-45.893
-45.8126
-45.7546
-45.6564
-45.5774
-45.4806
-45.4031
-45.3608
-45.2698
-45.1612
-45.0607
-44.9492
-44.8229
-44.6615
-44.4945
-44.3087
-44.0735
-43.7624
-43.4003
-43.0051
-42.6376
-42.4574
-42.4884
-42.8346
-43.8286
-45.9901
-50.0409
-56.7652
-65.6401
-75.4471
-84.2916
-90.2038
-93.9011
-95.8733
-97.8652
-97.743
-97.2077
-96.2019
-94.5385
-93.3698
-92.241
-90.684
-88.3832
-85.2997
-81.753
-77.7554
-72.9934
-67.4946
-61.1155
-53.8798
-45.791
-36.5833
-26.0515
-14.2008
-1.12489
13.2782
28.9393
45.9194
64.5523
86.727
114.928
150.295
189.015
-73.6491
-69.8567
-66.6683
-64.0732
-61.7418
-59.8839
-58.3715
-57.134
-56.0914
-55.1925
-54.4114
-53.7607
-53.2288
-52.8028
-52.4383
-52.1076
-51.7783
-51.518
-51.3409
-51.1684
-51.006
-50.8339
-50.6616
-50.4786
-50.3006
-50.141
-50.0166
-49.9167
-49.8625
-49.8266
-49.7657
-49.6859
-49.5776
-49.4828
-49.4005
-49.3354
-49.3044
-49.2979
-49.2553
-49.1977
-49.125
-49.0737
-48.9954
-48.9637
-48.9405
-48.929
-48.9258
-48.8747
-48.8203
-48.7397
-48.6697
-48.6077
-48.5757
-48.5773
-48.5722
-48.529
-48.475
-48.4014
-48.3524
-48.2803
-48.2592
-48.2269
-48.2209
-48.2227
-48.1867
-48.1392
-48.0415
-47.9704
-47.906
-47.8703
-47.8639
-47.8291
-47.7829
-47.7299
-47.6668
-47.6192
-47.5651
-47.5465
-47.4876
-47.4918
-47.4479
-47.4548
-47.4269
-47.3354
-47.2704
-47.1578
-47.1492
-47.135
-47.0815
-47.0153
-46.9648
-46.9044
-46.8931
-46.8655
-46.8611
-46.8254
-46.8329
-46.797
-46.7485
-46.7007
-46.6356
-46.6003
-46.4674
-46.4198
-46.3459
-46.3333
-46.312
-46.2866
-46.236
-46.2119
-46.18
-46.1797
-46.1565
-46.1526
-46.1078
-46.0225
-45.9504
-45.8614
-45.8336
-45.7527
-45.7142
-45.6707
-45.6453
-45.6219
-45.6015
-45.5616
-45.5132
-45.4597
-45.4252
-45.3593
-45.2873
-45.2289
-45.1548
-45.1281
-45.0375
-44.9684
-44.8893
-44.8368
-44.8475
-44.8038
-44.7064
-44.6197
-44.5163
-44.4004
-44.2778
-44.1923
-44.1017
-43.9718
-43.7975
-43.6195
-43.4774
-43.3905
-43.457
-43.8432
-44.7787
-46.6589
-50.019
-55.4601
-62.8593
-71.4504
-79.7126
-86.5039
-91.4062
-94.7637
-96.0406
-96.3851
-95.4158
-93.8206
-92.4478
-90.5085
-88.0549
-86.4596
-85.0147
-82.584
-79.5163
-76.0786
-72.111
-67.5356
-62.1135
-55.7722
-48.5379
-40.1918
-30.5691
-19.7997
-8.1611
4.15666
17.2493
31.2084
46.7451
65.5069
89.0748
117.457
145.676
-67.4584
-65.5319
-63.8957
-62.208
-60.518
-59.115
-57.8794
-56.8186
-55.9146
-55.1073
-54.4002
-53.7972
-53.3097
-52.8946
-52.5832
-52.3049
-52.0322
-51.804
-51.5983
-51.4326
-51.2943
-51.2004
-51.1018
-51.0033
-50.8779
-50.8573
-50.7217
-50.6567
-50.5646
-50.4739
-50.3998
-50.3259
-50.2513
-50.2
-50.1702
-50.1556
-50.1046
-50.0384
-49.9961
-49.9703
-49.9587
-49.9175
-49.9046
-49.824
-49.7498
-49.6815
-49.604
-49.5563
-49.5071
-49.4909
-49.4526
-49.4353
-49.3936
-49.3198
-49.2655
-49.2461
-49.2235
-49.2164
-49.182
-49.1678
-49.1001
-49.0307
-48.954
-48.8677
-48.8223
-48.7781
-48.7717
-48.7353
-48.7103
-48.6909
-48.6576
-48.616
-48.5873
-48.5587
-48.543
-48.5164
-48.5023
-48.422
-48.3669
-48.2612
-48.2162
-48.1105
-48.056
-48.0541
-48.032
-48.0665
-47.9947
-47.9308
-47.9323
-47.9256
-47.9028
-47.8872
-47.8232
-47.7761
-47.6961
-47.6467
-47.547
-47.527
-47.4279
-47.375
-47.3516
-47.2836
-47.3141
-47.3072
-47.3224
-47.2154
-47.1763
-47.1631
-47.1575
-47.1037
-47.0488
-46.9568
-46.9061
-46.8315
-46.7986
-46.7824
-46.7434
-46.7116
-46.6205
-46.6388
-46.6185
-46.5955
-46.5496
-46.5017
-46.4514
-46.3925
-46.3443
-46.2957
-46.2505
-46.189
-46.1061
-46.0238
-45.9745
-45.8763
-45.8307
-45.7369
-45.6496
-45.5808
-45.488
-45.4288
-45.3444
-45.2136
-45.1123
-44.9897
-44.8449
-44.6942
-44.5767
-44.4552
-44.3039
-44.1552
-44.0818
-44.1169
-44.3224
-44.8266
-45.8257
-47.5791
-50.4606
-54.9677
-61.2438
-69.0122
-77.4163
-85.3469
-91.8537
-96.9018
-99.6617
-100.028
-99.6096
-98.9639
-97.5304
-96.1805
-94.8842
-93.5481
-91.7328
-89.6365
-86.8474
-83.4011
-79.4449
-75.0706
-70.0743
-64.2494
-57.524
-49.7769
-40.8886
-30.9261
-20.203
-8.87904
3.09812
15.8905
29.956
46.5173
66.2642
89.065
110.658
-61.0432
-60.5286
-59.9794
-59.2591
-58.3272
-57.4395
-56.5638
-55.7604
-55.0437
-54.3789
-53.7895
-53.2172
-52.7632
-52.435
-52.1696
-51.9554
-51.6918
-51.3861
-51.1426
-50.935
-50.8316
-50.7473
-50.6194
-50.4502
-50.2713
-50.1039
-49.9561
-49.8295
-49.7578
-49.7269
-49.6786
-49.618
-49.5123
-49.4126
-49.3208
-49.226
-49.1926
-49.1937
-49.1551
-49.0946
-49.019
-48.9601
-48.8725
-48.8662
-48.8467
-48.8355
-48.8426
-48.805
-48.7615
-48.6745
-48.6001
-48.5165
-48.4826
-48.4922
-48.4836
-48.4371
-48.3789
-48.2938
-48.2487
-48.1784
-48.1652
-48.1392
-48.1414
-48.1469
-48.1054
-48.0623
-47.9752
-47.8954
-47.7991
-47.7778
-47.7868
-47.734
-47.6744
-47.6114
-47.5367
-47.4905
-47.4435
-47.4506
-47.4
-47.4082
-47.3683
-47.3798
-47.3491
-47.2488
-47.1781
-47.0496
-47.0464
-47.0407
-46.9705
-46.8914
-46.8358
-46.7895
-46.7899
-46.7547
-46.7561
-46.7206
-46.756
-46.7267
-46.6738
-46.6269
-46.5467
-46.5179
-46.3675
-46.3123
-46.2444
-46.2705
-46.2467
-46.1979
-46.1295
-46.1048
-46.0669
-46.0785
-46.0593
-46.0878
-46.0381
-45.9431
-45.8623
-45.7885
-45.7779
-45.6015
-45.5443
-45.5162
-45.5697
-45.5788
-45.512
-45.4682
-45.4304
-45.3793
-45.3494
-45.3073
-45.2796
-45.2253
-45.1367
-45.1107
-45.0354
-45.0174
-44.9924
-44.9564
-44.9852
-44.968
-44.9021
-44.8659
-44.8307
-44.8073
-44.7644
-44.7251
-44.6983
-44.7075
-44.7212
-44.6925
-44.6518
-44.7182
-44.9751
-45.5312
-46.5426
-48.1972
-50.7247
-54.4707
-59.5879
-65.9771
-73.1734
-80.427
-87.0014
-92.5859
-96.5369
-99.0332
-99.9297
-98.9974
-97.4919
-95.6433
-93.7088
-91.9131
-90.5059
-88.9159
-86.9568
-84.4052
-81.3735
-77.9495
-73.931
-68.9448
-63.0102
-56.3564
-48.8923
-40.3569
-30.9896
-21.0377
-10.3461
1.28638
14.134
28.8657
45.7416
64.5121
81.6899
-54.7916
-55.3958
-55.8523
-56.0507
-55.8685
-55.554
-55.1743
-54.6945
-54.2563
-53.8145
-53.3938
-52.9627
-52.6302
-52.3749
-52.1674
-52.017
-51.8436
-51.621
-51.4323
-51.2943
-51.1911
-51.1205
-51.0223
-50.977
-50.8842
-50.8315
-50.7109
-50.7433
-50.6449
-50.5704
-50.5042
-50.4427
-50.3841
-50.3487
-50.3057
-50.2752
-50.2227
-50.1414
-50.107
-50.0996
-50.1013
-50.0743
-50.036
-49.9527
-49.8748
-49.8003
-49.7242
-49.6983
-49.6647
-49.654
-49.6147
-49.5969
-49.5437
-49.4545
-49.4003
-49.3867
-49.3666
-49.3641
-49.3241
-49.3316
-49.2587
-49.1971
-49.0989
-48.998
-48.9613
-48.9275
-48.926
-48.8936
-48.874
-48.8112
-48.7647
-48.7616
-48.7486
-48.7242
-48.711
-48.683
-48.6688
-48.5782
-48.5313
-48.4175
-48.4001
-48.2801
-48.2327
-48.2276
-48.1964
-48.237
-48.1555
-48.0819
-48.0921
-48.0806
-48.0594
-48.0474
-47.9875
-47.9402
-47.8441
-47.7954
-47.6899
-47.6959
-47.5767
-47.5194
-47.5039
-47.4372
-47.4936
-47.4772
-47.4726
-47.3455
-47.3092
-47.3255
-47.3307
-47.2663
-47.199
-47.0863
-47.0478
-46.9686
-46.9843
-46.9227
-46.9043
-46.8893
-46.8087
-46.8682
-46.8007
-46.7684
-46.6762
-46.6264
-46.6005
-46.5747
-46.5454
-46.4673
-46.4179
-46.3769
-46.2784
-46.2004
-46.1491
-46.0435
-45.983
-45.8601
-45.776
-45.766
-45.7134
-45.6591
-45.5798
-45.4555
-45.3794
-45.3208
-45.225
-45.0918
-44.9976
-45.0042
-45.0705
-45.0964
-45.1029
-45.1957
-45.4821
-46.0316
-46.9763
-48.4804
-50.6959
-53.8707
-58.1591
-63.5635
-69.8892
-76.7417
-83.6385
-90.169
-95.7265
-99.8292
-102.091
-101.767
-100.952
-99.6271
-97.9465
-96.3057
-94.7318
-93.1595
-91.2621
-88.9389
-86.2046
-83.1403
-79.5348
-74.9337
-69.3707
-63.3308
-56.8362
-49.4741
-41.3012
-32.536
-23.01
-12.4835
-0.806387
12.3202
27.0145
42.9113
57.058
-49.0902
-50.3994
-51.5533
-52.4629
-52.9196
-53.1377
-53.2354
-53.0566
-52.8929
-52.682
-52.4182
-52.1265
-51.8598
-51.6901
-51.5469
-51.4217
-51.2701
-51.0689
-50.9212
-50.756
-50.6302
-50.5646
-50.4791
-50.3697
-50.219
-50.0435
-49.8923
-49.7704
-49.6944
-49.6605
-49.6066
-49.5541
-49.4592
-49.3693
-49.2775
-49.1764
-49.1435
-49.1446
-49.0964
-49.0264
-48.944
-48.895
-48.817
-48.8223
-48.7998
-48.7834
-48.7838
-48.7539
-48.7327
-48.6481
-48.5624
-48.4692
-48.4375
-48.4463
-48.4397
-48.3973
-48.3382
-48.2482
-48.1999
-48.1219
-48.1141
-48.1016
-48.1101
-48.104
-48.0551
-48.0367
-47.9541
-47.8669
-47.7649
-47.7356
-47.7229
-47.6731
-47.6142
-47.5497
-47.4741
-47.427
-47.3772
-47.3888
-47.337
-47.3601
-47.3093
-47.3166
-47.3023
-47.2114
-47.1409
-46.9989
-46.9985
-46.9952
-46.9124
-46.8319
-46.7699
-46.7304
-46.7428
-46.7044
-46.7014
-46.6573
-46.7024
-46.6744
-46.6355
-46.5917
-46.4977
-46.4665
-46.3084
-46.2536
-46.1775
-46.2212
-46.1947
-46.1299
-46.0685
-46.057
-46.0173
-46.0324
-46.0087
-46.0445
-45.9778
-45.9043
-45.8256
-45.7474
-45.7373
-45.5502
-45.5216
-45.4324
-45.5196
-45.5258
-45.4576
-45.3957
-45.3471
-45.3076
-45.309
-45.2961
-45.314
-45.2941
-45.2222
-45.1989
-45.1282
-45.0825
-45.0236
-44.9884
-45.0775
-45.1261
-45.11
-45.0985
-45.0998
-45.1403
-45.1553
-45.1343
-45.1267
-45.2066
-45.3221
-45.4081
-45.467
-45.6014
-45.9084
-46.4481
-47.3171
-48.6545
-50.5855
-53.2793
-56.8694
-61.4256
-66.8576
-72.9497
-79.3953
-85.7979
-91.6713
-96.5327
-100.048
-101.852
-100.694
-100.391
-99.1451
-97.6717
-96.2643
-94.9103
-93.3828
-91.6323
-89.7041
-87.4312
-84.6377
-80.6898
-75.6181
-70.1943
-64.6211
-58.3304
-51.1806
-43.4119
-34.9455
-25.4952
-14.9469
-3.20229
9.77829
23.5637
35.595
-43.9109
-45.7721
-47.4129
-48.8817
-49.9403
-50.6618
-51.2124
-51.4379
-51.5911
-51.6573
-51.6209
-51.551
-51.4546
-51.4069
-51.3596
-51.3156
-51.2751
-51.1864
-51.0957
-51.0101
-50.9522
-50.9329
-50.8799
-50.8464
-50.7898
-50.7261
-50.6819
-50.6572
-50.6359
-50.5706
-50.5308
-50.4708
-50.4461
-50.4354
-50.4188
-50.3846
-50.3226
-50.2387
-50.2087
-50.2024
-50.2025
-50.1632
-50.143
-50.0582
-49.9769
-49.9056
-49.8259
-49.7833
-49.7325
-49.736
-49.7319
-49.7277
-49.6617
-49.5761
-49.5018
-49.4744
-49.462
-49.4633
-49.4197
-49.428
-49.3558
-49.2991
-49.2043
-49.104
-49.0529
-49.0073
-49.0205
-49.0108
-49.0155
-48.9679
-48.9059
-48.887
-48.8669
-48.8409
-48.8266
-48.7958
-48.779
-48.6874
-48.6521
-48.5349
-48.5311
-48.3928
-48.3438
-48.3444
-48.3095
-48.3521
-48.2682
-48.1914
-48.2005
-48.1797
-48.1617
-48.1579
-48.102
-48.0508
-47.9436
-47.8942
-47.7853
-47.8116
-47.6881
-47.627
-47.6148
-47.5467
-47.6143
-47.587
-47.58
-47.4488
-47.4077
-47.4391
-47.4521
-47.3782
-47.3001
-47.1805
-47.1438
-47.0729
-47.0742
-47.0481
-47.0138
-46.9905
-46.899
-46.9812
-46.9154
-46.929
-46.7758
-46.7076
-46.7038
-46.696
-46.7246
-46.6157
-46.4979
-46.4297
-46.3574
-46.3195
-46.2744
-46.1701
-46.1408
-46.0043
-45.9207
-45.9177
-45.8558
-45.8062
-45.7451
-45.645
-45.5979
-45.5731
-45.5357
-45.4716
-45.4251
-45.4509
-45.5462
-45.6539
-45.7606
-45.9123
-46.2063
-46.7056
-47.487
-48.6632
-50.3401
-52.6473
-55.6904
-59.5527
-64.2197
-69.5988
-75.5245
-81.7398
-87.9123
-93.6513
-98.5555
-102.317
-104.54
-103.164
-102
-100.402
-98.893
-97.4494
-95.8924
-94.3864
-93.0299
-91.4195
-89.3287
-86.0773
-81.6462
-76.9266
-72.2153
-66.8279
-60.5441
-53.7696
-46.3743
-37.879
-28.3099
-17.7898
-6.21202
5.97504
16.4705
-39.2932
-41.5376
-43.5258
-45.3602
-46.8547
-48.0006
-48.9147
-49.4716
-49.9067
-50.2149
-50.3625
-50.4749
-50.4901
-50.5265
-50.5745
-50.5878
-50.6082
-50.55
-50.4594
-50.3714
-50.3143
-50.2872
-50.2767
-50.2234
-50.115
-49.9536
-49.8148
-49.6924
-49.6111
-49.5609
-49.5277
-49.5005
-49.4122
-49.3267
-49.2398
-49.1435
-49.1189
-49.135
-49.0898
-49.013
-48.9402
-48.8997
-48.8221
-48.8382
-48.82
-48.7872
-48.7897
-48.7613
-48.73
-48.6342
-48.5489
-48.461
-48.4399
-48.4496
-48.4464
-48.4009
-48.3377
-48.2569
-48.2165
-48.1252
-48.1159
-48.1036
-48.123
-48.1258
-48.0724
-48.0369
-47.949
-47.864
-47.7666
-47.7356
-47.7328
-47.6725
-47.6107
-47.5466
-47.4729
-47.4248
-47.369
-47.3792
-47.3284
-47.3626
-47.3004
-47.3204
-47.2991
-47.2134
-47.1519
-47.0028
-47
-46.9949
-46.9094
-46.8337
-46.7674
-46.7278
-46.741
-46.7045
-46.6997
-46.6523
-46.6951
-46.6616
-46.6492
-46.607
-46.5036
-46.4635
-46.2957
-46.2446
-46.1719
-46.2189
-46.1925
-46.1276
-46.0725
-46.059
-46.0171
-46.0386
-46.0088
-46.0477
-45.9847
-45.9231
-45.8488
-45.763
-45.7419
-45.5648
-45.5223
-45.4099
-45.5252
-45.5274
-45.4513
-45.3797
-45.3457
-45.3243
-45.3435
-45.3431
-45.387
-45.3788
-45.3299
-45.3064
-45.1856
-45.154
-45.0963
-45.0566
-45.1678
-45.245
-45.2436
-45.2472
-45.2609
-45.3078
-45.367
-45.4355
-45.5033
-45.5991
-45.7217
-45.8616
-45.9982
-46.161
-46.4379
-46.9031
-47.6105
-48.6371
-50.0705
-52.0272
-54.5836
-57.8349
-61.8275
-66.5126
-71.8174
-77.5964
-83.6242
-89.5832
-95.0937
-99.7776
-103.104
-103.692
-103.439
-102.382
-101.155
-99.9686
-98.6234
-97.2993
-96.1088
-94.9352
-93.4935
-91.1086
-87.5305
-83.5152
-79.4644
-74.8552
-69.5338
-63.772
-57.2667
-49.6071
-41.0153
-31.5941
-21.1752
-10.2498
-0.885504
-35.141
-37.71
-39.9847
-42.0842
-43.9176
-45.4096
-46.6651
-47.548
-48.2563
-48.8445
-49.2758
-49.6097
-49.8355
-50.0107
-50.1971
-50.3369
-50.4591
-50.527
-50.5412
-50.5509
-50.5578
-50.5898
-50.6058
-50.6229
-50.6125
-50.5821
-50.5667
-50.5574
-50.5638
-50.5373
-50.5075
-50.4386
-50.4382
-50.4454
-50.4365
-50.4022
-50.3447
-50.2632
-50.2359
-50.2288
-50.2262
-50.1947
-50.2091
-50.1093
-50.0345
-49.9565
-49.8653
-49.8249
-49.7875
-49.7946
-49.7889
-49.7868
-49.7214
-49.6342
-49.5569
-49.5246
-49.5069
-49.5101
-49.4774
-49.485
-49.4077
-49.3458
-49.2508
-49.159
-49.1154
-49.0693
-49.0808
-49.0689
-49.0712
-49.0221
-48.965
-48.9515
-48.9298
-48.906
-48.8904
-48.8572
-48.8341
-48.741
-48.7119
-48.5948
-48.6027
-48.4642
-48.4068
-48.4049
-48.3641
-48.4094
-48.327
-48.2489
-48.2544
-48.233
-48.2203
-48.2199
-48.1606
-48.101
-47.9898
-47.9429
-47.8419
-47.8436
-47.7342
-47.6731
-47.6717
-47.6061
-47.6773
-47.6415
-47.6293
-47.4924
-47.4519
-47.4858
-47.4979
-47.4263
-47.3452
-47.2304
-47.2024
-47.1281
-47.13
-47.0947
-47.0703
-47.054
-46.9648
-47.0324
-46.9653
-46.9715
-46.8197
-46.7567
-46.7714
-46.7727
-46.7296
-46.6541
-46.5313
-46.4504
-46.3742
-46.3524
-46.3347
-46.2694
-46.2377
-46.0689
-45.9865
-46.0187
-45.97
-45.9343
-45.8876
-45.791
-45.7387
-45.7377
-45.7703
-45.7856
-45.7852
-45.8089
-45.9036
-46.0355
-46.1716
-46.3191
-46.5701
-46.9904
-47.6299
-48.5409
-49.7748
-51.4297
-53.5934
-56.3403
-59.7289
-63.7558
-68.395
-73.6079
-79.2854
-85.2048
-91.0722
-96.5191
-100.976
-104.021
-104.615
-104.302
-103.382
-102.216
-100.989
-99.948
-98.9863
-98.2349
-97.3453
-95.7403
-92.9675
-89.6255
-86.3247
-82.6718
-78.2552
-73.2264
-67.5276
-60.8558
-53.2366
-44.7462
-35.3209
-25.4087
-16.8728
-31.4753
-34.2401
-36.76
-39.0843
-41.1154
-42.8368
-44.3635
-45.4977
-46.4157
-47.2177
-47.836
-48.3411
-48.6966
-48.9904
-49.2909
-49.5338
-49.7043
-49.7818
-49.8088
-49.8215
-49.8621
-49.895
-49.9794
-50.023
-49.9626
-49.8364
-49.7164
-49.6138
-49.5495
-49.503
-49.4549
-49.4461
-49.38
-49.3055
-49.2377
-49.1528
-49.1284
-49.1252
-49.079
-49.0289
-48.9682
-48.9239
-48.8424
-48.8477
-48.842
-48.8402
-48.8449
-48.805
-48.7618
-48.6705
-48.5911
-48.5063
-48.4918
-48.5094
-48.505
-48.4523
-48.3846
-48.3058
-48.2672
-48.182
-48.176
-48.1579
-48.1755
-48.1793
-48.1288
-48.0862
-47.9917
-47.9059
-47.8105
-47.7802
-47.7739
-47.7224
-47.6684
-47.6005
-47.528
-47.4801
-47.4266
-47.4338
-47.3803
-47.4126
-47.3289
-47.3577
-47.3407
-47.263
-47.207
-47.0596
-47.0556
-47.0496
-46.9569
-46.8863
-46.7997
-46.7803
-46.8
-46.7655
-46.7531
-46.7029
-46.7464
-46.7128
-46.7389
-46.6838
-46.5641
-46.5103
-46.3403
-46.293
-46.2326
-46.2829
-46.253
-46.1792
-46.1296
-46.119
-46.0739
-46.0909
-46.0678
-46.1074
-46.0464
-45.9894
-45.9127
-45.8255
-45.8055
-45.6398
-45.5882
-45.4788
-45.5759
-45.5792
-45.5126
-45.4519
-45.4244
-45.4034
-45.4317
-45.4507
-45.5041
-45.4951
-45.4518
-45.4203
-45.3115
-45.2927
-45.2153
-45.1258
-45.2257
-45.3368
-45.3591
-45.3532
-45.3447
-45.3877
-45.4707
-45.5741
-45.6666
-45.7741
-45.9109
-46.1003
-46.3128
-46.5164
-46.7547
-47.1016
-47.6261
-48.4072
-49.4572
-50.845
-52.6619
-54.9903
-57.8832
-61.332
-65.3494
-69.9516
-75.1302
-80.7575
-86.6288
-92.4616
-97.7658
-101.996
-104.306
-104.697
-104.676
-103.787
-103.031
-102.391
-101.777
-101.253
-100.81
-99.841
-97.8824
-95.3826
-92.9204
-90.0679
-86.3662
-82.1649
-77.4677
-71.724
-64.9332
-57.348
-48.8385
-39.7066
-31.7512
-28.4377
-31.2749
-33.915
-36.3896
-38.5846
-40.4763
-42.1971
-43.5901
-44.747
-45.7502
-46.5912
-47.2897
-47.8484
-48.3235
-48.786
-49.1562
-49.4372
-49.632
-49.78
-49.9098
-50.0215
-50.1341
-50.2348
-50.3207
-50.3496
-50.3692
-50.3841
-50.4043
-50.419
-50.4147
-50.4083
-50.3669
-50.3471
-50.3549
-50.3643
-50.3718
-50.3227
-50.2549
-50.2183
-50.1966
-50.1989
-50.1826
-50.1979
-50.0937
-50.0129
-49.9385
-49.8616
-49.8323
-49.7909
-49.7944
-49.7856
-49.7789
-49.7164
-49.6363
-49.5622
-49.5239
-49.5065
-49.5154
-49.4916
-49.4919
-49.4106
-49.3401
-49.2384
-49.1592
-49.1364
-49.0928
-49.0968
-49.0834
-49.0744
-49.019
-48.9719
-48.9524
-48.9306
-48.9123
-48.899
-48.8655
-48.8382
-48.747
-48.718
-48.6073
-48.6106
-48.4725
-48.4059
-48.4053
-48.3656
-48.4086
-48.3287
-48.2559
-48.2627
-48.2406
-48.2202
-48.2158
-48.1584
-48.0925
-47.98
-47.9329
-47.8383
-47.8398
-47.7621
-47.7
-47.6898
-47.6215
-47.6845
-47.6494
-47.6084
-47.4855
-47.4523
-47.4844
-47.4899
-47.4156
-47.336
-47.2302
-47.2097
-47.1358
-47.1311
-47.0929
-47.0731
-47.0613
-46.9786
-47.0296
-46.9603
-46.9566
-46.8034
-46.7402
-46.7562
-46.7493
-46.6831
-46.6092
-46.4999
-46.4482
-46.3735
-46.3546
-46.3415
-46.3019
-46.309
-46.1192
-46.012
-46.0364
-46.0266
-46.0218
-45.9874
-45.9156
-45.8677
-45.8669
-45.9058
-45.9507
-46.0038
-46.059
-46.1519
-46.2835
-46.4447
-46.6211
-46.839
-47.1219
-47.5575
-48.2412
-49.1591
-50.3097
-51.8018
-53.7537
-56.2044
-59.124
-62.5484
-66.5494
-71.1428
-76.2844
-81.8821
-87.7647
-93.5965
-98.878
-102.995
-105.361
-105.929
-105.539
-104.97
-104.415
-104.093
-103.799
-103.753
-103.529
-102.488
-100.781
-98.9587
-96.8286
-94.0269
-90.7569
-86.9231
-82.0571
-76.2103
-69.5374
-61.8307
-53.304
-45.7548
-25.7823
-28.6636
-31.3516
-33.9166
-36.2266
-38.2217
-40.0561
-41.6256
-42.9504
-44.1193
-45.0986
-45.9329
-46.641
-47.2407
-47.8039
-48.2514
-48.5856
-48.8372
-49.0356
-49.1876
-49.3305
-49.443
-49.5705
-49.6512
-49.6599
-49.6262
-49.582
-49.5286
-49.4872
-49.4566
-49.4281
-49.4211
-49.3775
-49.3136
-49.2517
-49.2047
-49.1856
-49.1847
-49.1471
-49.1009
-49.0439
-49.0111
-48.9521
-48.9756
-48.9583
-48.9359
-48.9315
-48.8875
-48.8433
-48.7608
-48.6856
-48.6083
-48.5934
-48.6068
-48.6023
-48.5532
-48.4798
-48.3992
-48.3632
-48.2998
-48.3011
-48.2814
-48.2819
-48.2657
-48.2143
-48.1765
-48.0859
-48.0007
-47.9174
-47.8883
-47.8659
-47.7983
-47.7608
-47.695
-47.6388
-47.5935
-47.5404
-47.5444
-47.4989
-47.5234
-47.4434
-47.4746
-47.4376
-47.3601
-47.3051
-47.1649
-47.1579
-47.1479
-47.0594
-46.9975
-46.9139
-46.8959
-46.9158
-46.8853
-46.8641
-46.8079
-46.839
-46.7699
-46.8253
-46.7843
-46.6784
-46.6189
-46.4494
-46.3979
-46.3426
-46.3825
-46.3429
-46.2668
-46.2388
-46.228
-46.1776
-46.189
-46.1822
-46.2263
-46.166
-46.104
-46.0199
-45.9319
-45.9163
-45.7691
-45.715
-45.645
-45.6831
-45.6764
-45.6381
-45.6006
-45.5798
-45.5393
-45.5639
-45.5923
-45.6614
-45.6304
-45.55
-45.503
-45.4149
-45.4413
-45.3323
-45.2487
-45.2825
-45.3635
-45.4093
-45.4322
-45.4426
-45.4757
-45.5231
-45.6002
-45.6937
-45.8115
-45.9506
-46.1212
-46.3138
-46.537
-46.814
-47.1541
-47.5764
-48.162
-48.9295
-49.8782
-51.0937
-52.7059
-54.7605
-57.2089
-60.0834
-63.4975
-67.5004
-72.0741
-77.2236
-82.8805
-88.8389
-94.6963
-99.8651
-103.655
-105.363
-106.079
-106.045
-105.815
-105.951
-106.139
-106.306
-106.606
-106.367
-105.518
-104.517
-103.243
-101.237
-98.6601
-95.6974
-91.9509
-87.1455
-81.3334
-74.3816
-66.4086
-59.2241
-23.6608
-26.4985
-29.1854
-31.7462
-34.1412
-36.247
-38.1924
-39.8988
-41.3882
-42.7171
-43.8761
-44.8741
-45.7342
-46.4903
-47.1958
-47.7709
-48.2346
-48.6069
-48.921
-49.1894
-49.4005
-49.5876
-49.7708
-49.92
-49.9846
-50.0481
-50.1044
-50.1603
-50.2111
-50.2466
-50.2579
-50.2447
-50.2331
-50.2376
-50.2431
-50.2599
-50.2242
-50.169
-50.1392
-50.1175
-50.1205
-50.1081
-50.1133
-50.0431
-49.9815
-49.8979
-49.8193
-49.7884
-49.7551
-49.7485
-49.729
-49.708
-49.6433
-49.5695
-49.5043
-49.4687
-49.4567
-49.4613
-49.4428
-49.4391
-49.3655
-49.2976
-49.2032
-49.1283
-49.1013
-49.0713
-49.082
-49.0614
-49.0165
-48.9551
-48.9015
-48.8979
-48.8791
-48.8627
-48.8465
-48.8157
-48.7879
-48.7028
-48.6705
-48.5692
-48.531
-48.4168
-48.349
-48.3462
-48.3102
-48.3485
-48.2686
-48.1979
-48.2005
-48.1684
-48.146
-48.1329
-48.0843
-48.0324
-47.9314
-47.8797
-47.7894
-47.7725
-47.7343
-47.6734
-47.6477
-47.5771
-47.6355
-47.5967
-47.5417
-47.4351
-47.4029
-47.4188
-47.4135
-47.3508
-47.2713
-47.1677
-47.1495
-47.1008
-47.0948
-47.0579
-47.0351
-47.0158
-46.94
-46.974
-46.9096
-46.8654
-46.7259
-46.6627
-46.6717
-46.6715
-46.6021
-46.5168
-46.4206
-46.4032
-46.3653
-46.3587
-46.3214
-46.2646
-46.2529
-46.1323
-46.0985
-46.0787
-46.0341
-46.0172
-45.9889
-45.9504
-45.9318
-45.9654
-46.0252
-46.0629
-46.1069
-46.1687
-46.2795
-46.4259
-46.5833
-46.7346
-46.9378
-47.1974
-47.5328
-48.0002
-48.6331
-49.4368
-50.4449
-51.7801
-53.5013
-55.5603
-57.9635
-60.8285
-64.2303
-68.1738
-72.7114
-77.8568
-83.5261
-89.4753
-95.2901
-100.415
-104.271
-106.348
-107.017
-107.192
-107.465
-107.825
-108.325
-108.996
-109.585
-109.741
-109.581
-109.019
-107.694
-105.888
-103.913
-101.323
-97.6259
-92.7673
-86.6232
-79.2714
-72.4689
-22.0093
-24.7966
-27.4105
-29.9048
-32.2944
-34.3989
-36.3628
-38.1449
-39.7315
-41.1749
-42.4493
-43.5554
-44.5432
-45.3983
-46.1749
-46.829
-47.3386
-47.7859
-48.1679
-48.4624
-48.7272
-48.9304
-49.0927
-49.2324
-49.3446
-49.3935
-49.4221
-49.4198
-49.4162
-49.4176
-49.4163
-49.4177
-49.3893
-49.3442
-49.3126
-49.288
-49.2843
-49.2905
-49.2651
-49.223
-49.1624
-49.1287
-49.0851
-49.0935
-49.0906
-49.083
-49.0718
-49.0223
-48.9737
-48.8957
-48.8342
-48.771
-48.7443
-48.745
-48.7328
-48.686
-48.618
-48.5401
-48.4989
-48.4595
-48.4697
-48.4572
-48.4401
-48.4117
-48.3573
-48.3117
-48.2238
-48.1504
-48.0842
-48.0499
-48.0184
-47.9607
-47.9039
-47.8507
-47.8069
-47.7622
-47.7128
-47.7182
-47.6917
-47.7071
-47.6299
-47.6435
-47.5874
-47.5018
-47.4463
-47.3168
-47.3006
-47.2944
-47.2298
-47.1641
-47.1071
-47.0803
-47.0707
-47.0496
-47.0324
-46.9767
-46.9904
-46.9355
-46.9752
-46.9356
-46.8405
-46.7734
-46.6178
-46.563
-46.4984
-46.5224
-46.4897
-46.4344
-46.4038
-46.3726
-46.3339
-46.3385
-46.3299
-46.3736
-46.3209
-46.2681
-46.1874
-46.098
-46.0679
-45.9357
-45.8931
-45.8669
-45.8717
-45.8414
-45.8001
-45.7688
-45.7566
-45.7133
-45.7155
-45.7328
-45.7989
-45.7716
-45.7109
-45.6643
-45.5824
-45.5961
-45.5197
-45.4277
-45.3778
-45.4577
-45.507
-45.523
-45.5353
-45.5422
-45.5484
-45.6025
-45.6836
-45.7749
-45.8834
-46.0465
-46.2382
-46.4299
-46.6606
-46.9621
-47.3332
-47.8133
-48.4172
-49.1275
-49.97
-51.0518
-52.4563
-54.1676
-56.1751
-58.5664
-61.431
-64.776
-68.6772
-73.203
-78.3712
-84.0781
-90.0593
-95.8906
-100.951
-104.485
-106.56
-107.851
-108.323
-108.82
-110.048
-111.286
-112.275
-113.063
-113.629
-113.908
-113.558
-112.625
-111.481
-109.946
-107.5
-103.792
-98.6927
-92.2529
-85.7629
-21.053
-23.726
-26.2543