/*--------------------------------*- C++ -*----------------------------------*\
| =========                 |                                                 |
| \\      /  F ield         | OpenFOAM: The Open Source CFD Toolbox           |
|  \\    /   O peration     | Version:  4.1                                   |
|   \\  /    A nd           | Web:      www.OpenFOAM.org                      |
|    \\/     M anipulation  |                                                 |
\*---------------------------------------------------------------------------*/
FoamFile
{
    version     2.0;
    format      ascii;
    class       volScalarField;
    location    "9.5";
    object      p;
}
// * * * * * * * * * * * * * * * * * * * * * * * * * * * * * * * * * * * * * //

dimensions      [0 2 -2 0 0 0 0];

internalField   nonuniform List<scalar> 
204246
(
-5.96029
-40.8807
-43.1007
-43.6331
-44.6146
-44.2462
-43.1787
-41.2521
-38.4495
-35.087
-31.2678
-27.3488
-23.7321
-20.5238
-18.0763
-15.9139
-15.2053
-14.4002
-13.3704
-13.1544
-13.1426
-13.302
-13.5081
-13.9625
-14.5501
-15.2648
-15.9782
-16.5969
-17.2216
-17.9001
-18.4
-18.8279
-19.2387
-19.6649
-19.952
-21.5844
-22.4842
-22.2002
-23.1384
-23.2918
-23.6176
-24.0023
-24.3734
-24.7478
-25.0955
-25.3611
-25.6488
-25.8707
-26.0792
-26.2058
-26.2803
-26.2919
-27.6246
-28.353
-27.7273
-28.5021
-28.5679
-28.6739
-28.7623
-28.8412
-28.8551
-29.6278
-29.1583
-29.8381
-29.3378
-30.1184
-29.9508
-29.7618
-29.5306
-30.7697
-31.6569
-31.5754
-31.4164
-31.1286
-31.5948
-31.2736
-31.9688
-32.0796
-32.0027
-31.6506
-32.477
-32.4543
-32.4466
-32.3441
-32.1834
-31.9453
-33.1058
-33.9577
-33.825
-33.6164
-33.283
-33.743
-33.4694
-34.0924
-33.5752
-34.5124
-33.3508
-34.3407
-34.364
-34.3191
-34.1072
-34.8131
-33.9393
-34.565
-33.7556
-35.2789
-35.8011
-35.2086
-35.255
-35.1064
-35.7569
-35.1342
-35.8651
-35.1294
-35.8103
-35.3892
-35.9795
-35.5426
-36.2133
-36.011
-35.8366
-35.6458
-37.1044
-37.7816
-37.3787
-37.9833
-37.6383
-38.332
-38.0794
-39.0764
-39.3773
-39.6077
-39.676
-40.6831
-40.6613
-41.8482
-42.2372
-42.707
-43.2113
-45.3514
-46.8664
-47.6044
-49.1999
-49.9916
-51.8523
-52.8898
-55.2491
-57.0206
-58.6924
-60.2986
-62.0524
-63.8068
-65.3208
-66.4661
-67.3562
-67.8588
-69.8918
-70.499
-70.0406
-69.7088
-68.2539
-67.5021
-65.5103
-64.128
-61.5724
-59.5186
-56.3383
-53.6833
-49.9027
-46.4047
-41.9185
-37.3409
-32.2483
-26.6795
-20.5307
-13.8696
-6.43583
1.84399
10.8415
21.0888
32.5963
45.7112
60.4669
77.1955
95.8848
116.771
139.834
165.686
195.106
234.119
293.075
386.341
511.334
-19.5431
-29.141
-36.4733
-41.4403
-44.1832
-45.2785
-45.2908
-44.1972
-41.7508
-38.4027
-34.5146
-30.3274
-26.2939
-22.7018
-19.55
-17.1591
-15.4414
-14.3843
-13.5117
-12.9871
-12.8814
-12.9181
-13.2003
-13.5523
-14.1494
-14.7998
-15.4919
-16.1249
-16.8514
-17.4588
-18.0944
-18.5924
-19.1117
-19.4873
-19.906
-20.6469
-21.3814
-21.9606
-22.4795
-22.984
-23.312
-23.7214
-24.06
-24.4776
-24.804
-25.1967
-25.4637
-25.7986
-26.0038
-26.2354
-26.3193
-26.5108
-26.9987
-27.5446
-27.7133
-28.0098
-28.3741
-28.5123
-28.7028
-28.7783
-28.9568
-29.1918
-29.3548
-29.5025
-29.6596
-29.8673
-30.0264
-29.8794
-29.935
-30.3675
-30.8924
-31.2136
-31.2687
-31.3054
-31.3715
-31.4737
-31.6928
-31.9527
-31.9225
-31.9819
-32.1803
-32.4612
-32.4814
-32.5354
-32.352
-32.3697
-32.7613
-33.2514
-33.5296
-33.523
-33.5152
-33.5548
-33.6568
-33.7688
-33.867
-33.9799
-33.9827
-34.1008
-34.3208
-34.2877
-34.4325
-34.5299
-34.5287
-34.4661
-34.4658
-34.8163
-35.217
-35.2823
-35.2318
-35.3432
-35.4449
-35.4934
-35.5574
-35.5977
-35.6201
-35.7162
-35.7978
-35.9495
-36.0967
-36.2077
-36.0557
-36.1949
-36.6313
-37.1219
-37.3716
-37.6175
-37.8443
-38.047
-38.3399
-38.7253
-39.1914
-39.4273
-39.8393
-40.2631
-40.8193
-41.4116
-42.0786
-42.4874
-43.2212
-44.2879
-45.4928
-46.7432
-48.0386
-49.3537
-50.6823
-52.2366
-53.9588
-55.8201
-57.6117
-59.497
-61.3435
-63.2071
-64.8272
-66.377
-67.5934
-68.7759
-69.8258
-70.7672
-71.2495
-71.2061
-70.7704
-70.1191
-68.9425
-67.549
-65.7805
-63.7817
-61.3939
-58.7527
-55.7463
-52.4252
-48.694
-44.588
-40.0492
-35.096
-29.6517
-23.6882
-17.0393
-9.72009
-1.68016
7.25817
17.1619
28.3252
40.853
55.0382
70.8911
88.5003
107.637
128.265
150.324
175.845
211.674
277.861
375.854
-33.7966
-34.4242
-37.4926
-40.9542
-43.8095
-45.382
-45.5678
-44.9418
-42.9812
-39.9539
-36.2065
-32.0869
-27.9929
-24.1416
-20.675
-17.8059
-15.7233
-14.3508
-13.3635
-12.7881
-12.6641
-12.6697
-12.8923
-13.2244
-13.6074
-14.3124
-15.0472
-15.751
-16.4879
-17.1813
-17.8598
-18.4683
-19.0733
-19.5714
-20.0968
-20.6173
-21.1773
-21.7349
-22.2595
-22.7497
-23.1764
-23.5874
-23.953
-24.3206
-24.6584
-25.04
-25.3244
-25.6784
-25.9162
-26.2076
-26.403
-26.6673
-26.9594
-27.2776
-27.5729
-27.8281
-28.1458
-28.326
-28.5504
-28.6771
-28.8781
-29.0289
-29.2558
-29.3714
-29.5991
-29.7346
-29.934
-29.9764
-30.1155
-30.3066
-30.5914
-30.8596
-31.0319
-31.1829
-31.2509
-31.4011
-31.5371
-31.7287
-31.7948
-31.9357
-32.0382
-32.2632
-32.3509
-32.4682
-32.4529
-32.5404
-32.6925
-32.9531
-33.1797
-33.2877
-33.3923
-33.426
-33.5351
-33.599
-33.7383
-33.7628
-33.8813
-33.9392
-34.0987
-34.1323
-34.2621
-34.3112
-34.4
-34.4163
-34.5134
-34.6383
-34.8532
-34.991
-35.028
-35.121
-35.1597
-35.2599
-35.2756
-35.3686
-35.3646
-35.4421
-35.4823
-35.6111
-35.7148
-35.8429
-35.8933
-36.0581
-36.2818
-36.5787
-36.8689
-37.112
-37.3601
-37.5493
-37.8187
-38.1291
-38.4733
-38.7711
-39.1173
-39.5286
-40.0068
-40.5534
-41.0964
-41.7583
-42.5325
-43.4524
-44.4616
-45.5576
-46.7487
-48.0407
-49.4475
-50.9575
-52.5942
-54.3029
-56.1052
-57.9802
-59.9067
-61.7649
-63.5202
-65.14
-66.6213
-67.9066
-68.9914
-69.6778
-69.8222
-69.4984
-68.8352
-67.833
-66.5444
-64.9327
-63.1013
-60.967
-58.6035
-55.9274
-52.9626
-49.6564
-46.0178
-41.995
-37.5703
-32.676
-27.2777
-21.3006
-14.6783
-7.43678
0.589778
9.45384
19.3023
30.2143
42.4414
56.0999
71.454
88.4628
107.103
126.696
147.216
169.072
198.122
241.548
299.177
-39.7171
-39.5674
-40.8726
-42.9942
-45.192
-46.792
-47.6026
-47.2824
-45.7064
-42.9079
-39.1862
-34.9254
-30.413
-26.0965
-22.241
-18.9616
-16.5105
-14.7774
-13.5999
-12.8804
-12.567
-12.5657
-12.8813
-13.149
-13.6393
-14.2125
-14.8754
-15.5796
-16.2808
-16.9385
-17.5843
-18.1931
-18.7754
-19.3224
-19.8536
-20.3989
-20.9376
-21.4629
-21.9776
-22.4763
-22.941
-23.3811
-23.7874
-24.1822
-24.534
-24.9091
-25.2262
-25.5404
-25.8116
-26.1005
-26.3696
-26.6657
-26.9306
-27.1993
-27.4709
-27.7506
-28.0719
-28.2798
-28.4987
-28.6703
-28.8982
-29.0512
-29.2693
-29.3962
-29.6106
-29.7413
-29.9506
-30.0554
-30.2468
-30.4009
-30.6012
-30.802
-30.9891
-31.1921
-31.3061
-31.4859
-31.617
-31.7971
-31.8735
-32.0255
-32.1193
-32.2985
-32.383
-32.5397
-32.5927
-32.7291
-32.851
-33.0257
-33.1877
-33.3235
-33.4821
-33.5588
-33.6848
-33.7421
-33.8685
-33.9099
-34.0305
-34.0859
-34.2192
-34.2744
-34.4302
-34.5013
-34.6194
-34.6699
-34.7915
-34.8818
-35.0437
-35.1587
-35.257
-35.3817
-35.4178
-35.5025
-35.5183
-35.6044
-35.6253
-35.7486
-35.8171
-35.9604
-36.0527
-36.2018
-36.2765
-36.4745
-36.6424
-36.8895
-37.1517
-37.4139
-37.7085
-37.9335
-38.2911
-38.5702
-38.9299
-39.2496
-39.6676
-40.0651
-40.5591
-41.0456
-41.6432
-42.2576
-43.0086
-43.7945
-44.7098
-45.7335
-46.8795
-48.139
-49.5212
-51.0169
-52.6143
-54.3067
-56.1026
-58.0188
-59.9919
-61.9727
-63.8933
-65.7421
-67.4357
-68.9863
-70.3197
-71.476
-72.3778
-72.913
-73.0751
-72.9286
-72.1198
-70.9253
-69.3079
-67.4123
-65.1966
-62.73
-59.9673
-56.935
-53.583
-49.9273
-45.8991
-41.5022
-36.6362
-31.2793
-25.2675
-18.6388
-11.3011
-3.17766
5.80312
15.7558
26.772
38.9883
52.4446
67.1637
83.0713
100.223
119.006
141.122
169.273
204.6
243.371
-40.9155
-40.9905
-42.4847
-44.459
-46.6512
-48.4707
-49.7847
-49.8418
-48.5954
-46.031
-42.4229
-38.0523
-33.267
-28.4446
-23.9898
-20.1415
-17.0722
-14.8844
-13.4049
-12.6369
-12.3499
-12.2258
-12.3992
-12.5609
-12.7973
-13.4873
-14.2006
-14.9519
-15.7233
-16.4553
-17.1623
-17.8333
-18.4833
-19.069
-19.6188
-20.1383
-20.6507
-21.1666
-21.6925
-22.2034
-22.6797
-23.1268
-23.5433
-23.9308
-24.3001
-24.6443
-24.988
-25.3076
-25.6056
-25.8917
-26.1669
-26.4277
-26.7097
-27.0017
-27.2822
-27.5366
-27.7877
-28.0149
-28.2207
-28.4172
-28.6112
-28.8081
-29.012
-29.1769
-29.3773
-29.5251
-29.69
-29.825
-29.9765
-30.1513
-30.358
-30.5495
-30.7236
-30.8892
-31.0231
-31.1794
-31.3264
-31.4836
-31.6166
-31.775
-31.8963
-32.0588
-32.1574
-32.2792
-32.3547
-32.4609
-32.582
-32.7609
-32.9111
-33.0299
-33.1528
-33.2325
-33.3406
-33.4325
-33.5554
-33.6211
-33.7332
-33.7997
-33.9157
-33.9795
-34.0836
-34.1582
-34.2506
-34.3197
-34.4192
-34.5268
-34.6705
-34.7751
-34.8435
-34.9297
-34.9867
-35.0807
-35.1105
-35.1832
-35.1925
-35.2399
-35.2731
-35.3522
-35.4279
-35.5174
-35.62
-35.7457
-35.9245
-36.1502
-36.3584
-36.5862
-36.7846
-37.0058
-37.2281
-37.5099
-37.7441
-38.0616
-38.2696
-38.6357
-38.9763
-39.4031
-39.8725
-40.4454
-41.0993
-41.8635
-42.7247
-43.6855
-44.7571
-45.9497
-47.2639
-48.7022
-50.2573
-51.9238
-53.7159
-55.6327
-57.6419
-59.6898
-61.7322
-63.7325
-65.655
-67.4499
-69.0452
-70.2023
-70.5821
-70.4748
-70.0272
-69.3179
-68.4913
-67.395
-66.02
-64.3555
-62.4301
-60.2139
-57.7332
-54.9553
-51.8929
-48.5067
-44.788
-40.6935
-36.2081
-31.2684
-25.8122
-19.8149
-13.1534
-5.723
2.57977
11.8257
22.0396
33.1861
45.1887
57.893
71.2827
85.4419
101.155
119.968
143.538
171.89
200.04
-43.1606
-43.3192
-44.4976
-46.0418
-48.0298
-49.8821
-51.4275
-52.0133
-51.4142
-49.4517
-46.2433
-41.8581
-36.808
-31.5572
-26.5158
-22.1955
-18.7627
-16.1049
-14.2672
-13.1438
-12.4067
-12.2387
-12.4303
-12.9686
-13.2617
-13.6699
-14.2823
-14.98
-15.7147
-16.4598
-17.1853
-17.8192
-18.3887
-18.9559
-19.5099
-20.0321
-20.5418
-21.0612
-21.5736
-22.0779
-22.562
-23.02
-23.4486
-23.8662
-24.2585
-24.6498
-24.9973
-25.3427
-25.6426
-25.9382
-26.2203
-26.5101
-26.7597
-27.0176
-27.2818
-27.5628
-27.8475
-28.088
-28.3196
-28.5232
-28.74
-28.933
-29.1465
-29.3136
-29.5299
-29.6712
-29.9085
-30.0406
-30.2143
-30.35
-30.5028
-30.6708
-30.8421
-31.0213
-31.183
-31.366
-31.5201
-31.6865
-31.7941
-31.9569
-32.0618
-32.2288
-32.335
-32.5185
-32.611
-32.7576
-32.8273
-32.9369
-33.0813
-33.2204
-33.3874
-33.4875
-33.6265
-33.69
-33.8084
-33.8679
-33.9843
-34.0413
-34.1557
-34.2262
-34.3769
-34.4705
-34.6184
-34.7086
-34.8442
-34.8969
-35.011
-35.1304
-35.2397
-35.3547
-35.3925
-35.4726
-35.4969
-35.5682
-35.5983
-35.7033
-35.7682
-35.8889
-35.9726
-36.142
-36.2803
-36.441
-36.5349
-36.7107
-36.9661
-37.2259
-37.5101
-37.7537
-38.0689
-38.341
-38.6948
-38.9986
-39.3953
-39.7234
-40.1772
-40.5741
-41.0847
-41.582
-42.1745
-42.7992
-43.5374
-44.3869
-45.3601
-46.4564
-47.6803
-49.0349
-50.5243
-52.148
-53.8992
-55.7941
-57.8032
-59.9308
-62.1343
-64.388
-66.5539
-68.5673
-70.3151
-71.9012
-73.3655
-74.5749
-75.3549
-75.4477
-74.7241
-73.4955
-71.9432
-70.1227
-68.0505
-65.7878
-63.2875
-60.5809
-57.603
-54.3625
-50.8063
-46.9216
-42.6698
-38.0324
-32.9112
-27.3013
-21.0809
-14.1297
-6.36144
2.27688
11.7816
22.1182
33.1736
44.8613
57.1599
70.163
84.3808
101.041
120.803
143.596
165.088
-43.4603
-43.1182
-44.5647
-46.655
-48.7541
-50.8476
-52.6633
-53.6719
-53.6281
-52.1657
-49.5893
-45.7998
-40.8932
-35.2885
-29.5797
-24.4889
-20.2163
-17.0292
-14.9248
-13.5266
-12.625
-12.2786
-12.1271
-12.0833
-12.5087
-13.1137
-13.6757
-14.3493
-15.0085
-15.731
-16.5064
-17.2602
-18.0083
-18.6118
-19.1208
-19.6151
-20.0968
-20.6067
-21.1351
-21.6718
-22.2025
-22.6886
-23.1183
-23.5078
-23.88
-24.2353
-24.5972
-24.9482
-25.2835
-25.5943
-25.8925
-26.1876
-26.4702
-26.7329
-26.9755
-27.2286
-27.472
-27.7073
-27.9306
-28.1566
-28.366
-28.573
-28.766
-28.9572
-29.1546
-29.3301
-29.4778
-29.6519
-29.8078
-29.9918
-30.1739
-30.3468
-30.503
-30.6507
-30.8029
-30.9497
-31.1087
-31.2721
-31.4412
-31.6017
-31.7447
-31.8836
-32.0024
-32.1101
-32.2331
-32.3464
-32.4793
-32.6189
-32.7444
-32.8674
-32.9794
-33.0828
-33.1866
-33.3006
-33.4177
-33.5056
-33.608
-33.683
-33.7786
-33.8461
-33.9242
-34.0148
-34.1043
-34.2126
-34.3132
-34.4472
-34.5763
-34.6759
-34.7615
-34.8372
-34.9037
-34.9812
-35.0146
-35.0683
-35.0745
-35.0901
-35.1028
-35.1432
-35.2068
-35.2634
-35.3595
-35.4366
-35.6477
-35.8449
-35.9964
-36.1686
-36.3357
-36.5421
-36.7208
-36.9483
-37.1448
-37.3923
-37.6271
-37.9262
-38.2398
-38.6189
-39.0335
-39.5244
-40.0788
-40.7236
-41.459
-42.2895
-43.2286
-44.2885
-45.4735
-46.7908
-48.2437
-49.8378
-51.5802
-53.4643
-55.4974
-57.6659
-59.9446
-62.2727
-64.5949
-66.8435
-68.9641
-70.8314
-72.1767
-72.7742
-72.641
-72.2538
-71.8751
-71.208
-70.1483
-68.7546
-67.0894
-65.1719
-63.0379
-60.6631
-58.0593
-55.1986
-52.0604
-48.6145
-44.8252
-40.6631
-36.0675
-31.0308
-25.4533
-19.2511
-12.3687
-4.766
3.56639
12.6204
22.356
32.7542
43.8253
55.6575
68.6162
83.4572
100.368
119.122
136.225
-44.408
-44.2948
-45.4282
-47.0278
-48.8867
-50.8567
-52.7555
-54.0818
-54.7048
-53.8221
-51.8773
-48.6667
-44.1402
-38.7218
-32.9051
-27.458
-22.7545
-19.122
-16.4619
-14.6407
-13.4649
-12.8539
-12.6367
-12.649
-13.1183
-13.4634
-14.0264
-14.6496
-15.3298
-16.0015
-16.6069
-17.2615
-17.9868
-18.6667
-19.2215
-19.6588
-20.1171
-20.6283
-21.1439
-21.6576
-22.1739
-22.6725
-23.1411
-23.572
-23.957
-24.3719
-24.7308
-25.0726
-25.3869
-25.6982
-25.9932
-26.2994
-26.5829
-26.8616
-27.1438
-27.4071
-27.6839
-27.918
-28.1352
-28.3426
-28.5554
-28.7608
-28.9887
-29.1894
-29.4046
-29.5861
-29.7676
-29.9244
-30.1075
-30.239
-30.3808
-30.5369
-30.7078
-30.8836
-31.046
-31.2187
-31.3604
-31.529
-31.6718
-31.8492
-31.9788
-32.1474
-32.2531
-32.4491
-32.5613
-32.6928
-32.753
-32.8434
-32.9903
-33.1272
-33.267
-33.3818
-33.5203
-33.5941
-33.7142
-33.7857
-33.9045
-33.9607
-34.065
-34.1334
-34.2761
-34.3656
-34.5248
-34.6409
-34.7827
-34.8393
-34.9488
-35.0908
-35.2084
-35.3026
-35.353
-35.4269
-35.4511
-35.5072
-35.5354
-35.6188
-35.6634
-35.756
-35.8303
-35.9804
-36.0996
-36.2458
-36.3339
-36.5089
-36.7488
-36.9819
-37.2458
-37.4704
-37.7809
-38.0045
-38.3261
-38.5519
-38.8879
-39.1386
-39.4934
-39.7945
-40.1836
-40.5499
-40.9897
-41.4676
-42.0462
-42.7253
-43.5204
-44.4404
-45.496
-46.6876
-48.0189
-49.5035
-51.1611
-53.0044
-55.0269
-57.2304
-59.581
-62.0665
-64.6407
-67.2633
-69.7899
-72.124
-74.1108
-75.7779
-77.1294
-77.786
-77.4003
-76.3045
-74.8336
-73.0663
-71.0872
-68.9677
-66.7316
-64.3695
-61.8461
-59.1194
-56.1461
-52.912
-49.3458
-45.4366
-41.1003
-36.3582
-31.1284
-25.368
-19.0398
-12.136
-4.65276
3.42675
12.0943
21.3586
31.2776
41.9962
53.8048
67.0447
81.7609
97.6249
111.688
-44.4086
-44.5597
-45.3967
-46.561
-48.1706
-49.9971
-51.7394
-53.114
-53.7561
-53.9695
-52.7699
-50.3053
-46.4849
-41.5494
-36.0285
-30.5783
-25.6595
-21.6093
-18.5134
-16.2747
-14.7715
-13.8205
-13.2741
-13.0181
-13.0535
-13.3347
-13.5945
-14.0273
-14.6644
-15.477
-16.3213
-16.9208
-17.5214
-18.1339
-18.619
-19.0637
-19.5483
-20.037
-20.5725
-21.1256
-21.7255
-22.2454
-22.6853
-23.1002
-23.4489
-23.8212
-24.2188
-24.5998
-24.9539
-25.3055
-25.6179
-25.9084
-26.1865
-26.4484
-26.7109
-26.9757
-27.2177
-27.4666
-27.6993
-27.9152
-28.1214
-28.3336
-28.5388
-28.7487
-28.9516
-29.1643
-29.3359
-29.5115
-29.6672
-29.8506
-30.0224
-30.1727
-30.315
-30.4549
-30.6076
-30.7735
-30.9532
-31.1332
-31.3047
-31.4418
-31.5986
-31.7385
-31.883
-31.9941
-32.1384
-32.2429
-32.3852
-32.5205
-32.6422
-32.7606
-32.8503
-32.9695
-33.0853
-33.2146
-33.3287
-33.4346
-33.5309
-33.6137
-33.6925
-33.7527
-33.8114
-33.9157
-33.986
-34.0993
-34.2191
-34.3779
-34.5221
-34.6424
-34.7444
-34.8367
-34.9113
-34.9697
-35.0028
-35.031
-35.0253
-35.0152
-35.006
-35.0156
-35.0586
-35.0792
-35.1497
-35.1981
-35.3647
-35.5276
-35.691
-35.8621
-36.0407
-36.2339
-36.4013
-36.6152
-36.8161
-37.0555
-37.2848
-37.5533
-37.8325
-38.1614
-38.5176
-38.9221
-39.3644
-39.8682
-40.4443
-41.1064
-41.8718
-42.7585
-43.7734
-44.921
-46.2052
-47.6412
-49.2466
-51.0446
-53.0451
-55.2438
-57.63
-60.1836
-62.8649
-65.6044
-68.3227
-70.9456
-73.3325
-75.2872
-76.461
-76.8223
-76.7246
-76.1804
-75.0724
-73.5944
-71.882
-69.9762
-67.9594
-65.8232
-63.5711
-61.1695
-58.5943
-55.7825
-52.6975
-49.264
-45.4238
-41.1829
-36.4784
-31.2784
-25.5805
-19.3852
-12.6864
-5.4643
2.2752
10.5559
19.4498
29.1636
39.8762
51.7113
64.6808
78.4266
90.3503
-46.0278
-44.8519
-45.4059
-46.4938
-47.9129
-49.5441
-51.1784
-52.7023
-54.0387
-53.7778
-52.9038
-50.8999
-47.6397
-43.2472
-38.19
-32.9877
-28.1556
-23.9837
-20.6744
-18.172
-16.394
-15.1848
-14.4458
-14.0542
-13.9826
-14.1797
-14.3393
-14.6975
-15.0616
-15.5322
-16.1359
-16.8113
-17.546
-18.2023
-18.7345
-19.2068
-19.6915
-20.1684
-20.6875
-21.1127
-21.6136
-22.2086
-22.8643
-23.3409
-23.6103
-23.991
-24.3638
-24.7045
-25.0467
-25.3844
-25.7152
-26.0457
-26.3511
-26.6351
-26.9233
-27.2102
-27.4737
-27.7096
-27.9462
-28.1463
-28.3406
-28.5492
-28.7652
-28.9782
-29.203
-29.4073
-29.6077
-29.7874
-29.9574
-30.0994
-30.249
-30.4102
-30.562
-30.7204
-30.8634
-31.0128
-31.1691
-31.3481
-31.5198
-31.7146
-31.8626
-32.0351
-32.165
-32.3171
-32.435
-32.5876
-32.6533
-32.7477
-32.8705
-33.001
-33.1295
-33.234
-33.3718
-33.4581
-33.6092
-33.6841
-33.8098
-33.8613
-33.9613
-34.0116
-34.1344
-34.215
-34.3635
-34.4817
-34.6548
-34.7225
-34.8461
-35.0054
-35.1447
-35.2685
-35.3357
-35.3938
-35.4159
-35.4585
-35.4738
-35.5294
-35.5442
-35.5931
-35.6354
-35.7622
-35.8583
-35.9901
-36.054
-36.2127
-36.4309
-36.6386
-36.8751
-37.0686
-37.357
-37.5354
-37.8092
-37.9858
-38.2338
-38.4277
-38.6861
-38.9113
-39.1979
-39.4796
-39.8111
-40.175
-40.6065
-41.1188
-41.7358
-42.4749
-43.3515
-44.3697
-45.5391
-46.8693
-48.3759
-50.0822
-52.0172
-54.1964
-56.6198
-59.2728
-62.113
-65.0979
-68.1682
-71.2619
-74.188
-76.7575
-78.8205
-80.212
-80.7366
-80.2719
-78.9461
-77.1111
-74.9733
-72.7399
-70.4818
-68.2545
-66.0269
-63.7351
-61.3352
-58.7567
-55.984
-52.9256
-49.5204
-45.7501
-41.5677
-36.9509
-31.8994
-26.3922
-20.4338
-14.0175
-7.12128
0.275312
8.26023
17.0262
26.7152
37.3452
48.9164
61.0151
71.4266
-46.1898
-44.9034
-45.1627
-46.0148
-47.2372
-48.5764
-49.9308
-51.0671
-51.5909
-52.2852
-51.7842
-50.2053
-47.517
-43.8326
-39.4629
-34.8508
-30.3974
-26.3923
-23.0527
-20.3539
-18.3224
-16.8015
-15.729
-15.0058
-14.5625
-14.2323
-14.3923
-14.7335
-15.0974
-15.5297
-16.0622
-16.6368
-17.2385
-17.817
-18.3268
-18.7721
-19.1916
-19.6865
-20.2878
-20.8015
-21.219
-21.6799
-22.1578
-22.6085
-23.0395
-23.4517
-23.8931
-24.2923
-24.6452
-24.9928
-25.3203
-25.6359
-25.9232
-26.1666
-26.4282
-26.7154
-26.9948
-27.2497
-27.5059
-27.7216
-27.9324
-28.1462
-28.3595
-28.5774
-28.7875
-29.003
-29.1936
-29.3797
-29.5456
-29.7225
-29.8853
-30.0294
-30.1717
-30.3121
-30.4615
-30.6136
-30.7801
-30.9496
-31.1296
-31.3089
-31.4893
-31.6265
-31.788
-31.9163
-32.0589
-32.1765
-32.3204
-32.4533
-32.5618
-32.683
-32.7681
-32.9035
-33.0106
-33.1434
-33.2581
-33.3858
-33.4961
-33.5905
-33.6442
-33.6851
-33.7164
-33.7884
-33.8386
-33.9575
-34.0991
-34.2733
-34.4691
-34.6412
-34.777
-34.8772
-34.9782
-35.0361
-35.0537
-35.0598
-35.0376
-35.0108
-34.9757
-34.9549
-34.9462
-34.9314
-34.9686
-35.0002
-35.1222
-35.2702
-35.4502
-35.646
-35.8511
-36.0581
-36.2559
-36.4772
-36.6837
-36.9184
-37.1364
-37.3641
-37.5923
-37.8455
-38.1205
-38.4258
-38.7569
-39.1239
-39.5391
-40.0152
-40.5704
-41.2272
-42.0066
-42.929
-44.0012
-45.2403
-46.6535
-48.2652
-50.1079
-52.215
-54.6003
-57.2686
-60.1949
-63.3545
-66.6886
-70.1172
-73.454
-76.5681
-79.2634
-81.2414
-82.1854
-82.1326
-81.287
-79.6713
-77.5333
-75.1749
-72.7963
-70.5107
-68.3022
-66.1285
-63.9168
-61.5961
-59.1088
-56.3996
-53.3941
-50.0687
-46.3908
-42.3505
-37.924
-33.0821
-27.8359
-22.184
-16.0924
-9.51228
-2.37022
5.48149
14.2143
23.8356
34.2643
45.0601
54.2851
-44.7344
-44.189
-44.5043
-45.2232
-46.2633
-47.3849
-48.5599
-49.5819
-50.1804
-50.4737
-50.096
-48.8687
-46.7186
-43.7122
-40.0599
-36.0671
-32.0824
-28.3395
-25.0831
-22.3411
-20.1617
-18.4877
-17.2975
-16.4847
-15.9865
-15.7264
-15.637
-15.4866
-15.6545
-15.9115
-16.2638
-16.7288
-17.244
-17.7946
-18.306
-18.7687
-19.1667
-19.525
-19.9462
-20.5256
-21.1315
-21.781
-22.3819
-22.8556
-23.2075
-23.5448
-23.8792
-24.2418
-24.6326
-25.0228
-25.4126
-25.8006
-26.1208
-26.3857
-26.6759
-26.9513
-27.2378
-27.478
-27.7132
-27.9016
-28.104
-28.2869
-28.501
-28.7224
-28.9568
-29.1738
-29.4224
-29.6239
-29.8178
-29.9639
-30.1142
-30.2636
-30.3971
-30.5505
-30.6683
-30.8146
-30.9582
-31.1336
-31.3105
-31.5155
-31.6921
-31.8686
-32.0181
-32.1783
-32.3079
-32.4402
-32.5331
-32.6406
-32.7505
-32.8568
-32.9919
-33.0844
-33.2137
-33.3188
-33.484
-33.5876
-33.7151
-33.7961
-33.8781
-33.9294
-33.9966
-34.0325
-34.1679
-34.273
-34.4001
-34.5333
-34.7071
-34.8904
-35.0657
-35.2151
-35.3185
-35.3893
-35.4263
-35.4434
-35.4389
-35.4542
-35.45
-35.4442
-35.4418
-35.5027
-35.5675
-35.6686
-35.7271
-35.8496
-36.0215
-36.2136
-36.4172
-36.6235
-36.848
-37.0422
-37.2556
-37.4306
-37.6268
-37.7988
-37.9885
-38.1547
-38.3498
-38.5534
-38.7842
-39.0512
-39.3627
-39.7234
-40.1539
-40.6735
-41.3062
-42.0786
-43.0079
-44.1117
-45.4062
-46.9135
-48.6593
-50.6788
-52.9976
-55.6445
-58.6261
-61.9419
-65.5369
-69.3299
-73.1349
-76.8357
-80.246
-83.0621
-84.9148
-85.4938
-84.7621
-83.0466
-80.6802
-77.9846
-75.2819
-72.7489
-70.4507
-68.3342
-66.2943
-64.2098
-62.0104
-59.6461
-57.0259
-54.1412
-50.9553
-47.4559
-43.6237
-39.4295
-34.8651
-29.9411
-24.619
-18.8216
-12.5016
-5.52683
2.30568
11.0452
20.5232
30.2685
38.5717
-42.5312
-42.7342
-43.2733
-43.9725
-44.8574
-45.7805
-46.7334
-47.5221
-48.0943
-48.3096
-47.9896
-47.004
-45.2909
-42.8764
-39.8944
-36.5581
-33.1326
-29.8172
-26.8139
-24.1938
-22.0008
-20.2169
-18.8222
-17.7739
-17.0265
-16.5113
-16.2099
-16.0972
-16.1508
-16.2708
-16.4994
-16.811
-17.1972
-17.6165
-18.0618
-18.4942
-18.9196
-19.3345
-19.7695
-20.2323
-20.6998
-21.1901
-21.7176
-22.2377
-22.7484
-23.2051
-23.5942
-23.9413
-24.284
-24.6108
-24.9336
-25.2251
-25.5213
-25.835
-26.1463
-26.4373
-26.7436
-27.0824
-27.3488
-27.5691
-27.7632
-27.9706
-28.1758
-28.3852
-28.5983
-28.8003
-28.9818
-29.1874
-29.3951
-29.5877
-29.7527
-29.8954
-30.0338
-30.1777
-30.3213
-30.4672
-30.6248
-30.798
-30.9846
-31.1719
-31.3605
-31.5328
-31.7004
-31.8305
-31.974
-32.1042
-32.237
-32.3633
-32.4757
-32.5851
-32.6826
-32.7926
-32.8972
-33.0322
-33.1739
-33.3273
-33.4638
-33.5944
-33.6618
-33.6726
-33.6734
-33.6943
-33.7204
-33.7954
-33.9309
-34.0965
-34.318
-34.5589
-34.7815
-34.9728
-35.1214
-35.1924
-35.1903
-35.1828
-35.1388
-35.0902
-35.0251
-34.9759
-34.9223
-34.8686
-34.8434
-34.8257
-34.9192
-35.0599
-35.2405
-35.4545
-35.6861
-35.9226
-36.1589
-36.3933
-36.6125
-36.8325
-37.0408
-37.2462
-37.4389
-37.6264
-37.8214
-38.0421
-38.2753
-38.5217
-38.7956
-39.1123
-39.4844
-39.9297
-40.4614
-41.116
-41.9136
-42.8797
-44.0361
-45.407
-47.0196
-48.9074
-51.11
-53.6793
-56.6485
-60.0322
-63.794
-67.8811
-72.1349
-76.4327
-80.6
-84.3575
-87.2773
-88.8301
-88.6911
-87.1071
-84.5389
-81.379
-78.0774
-75.0518
-72.4825
-70.3247
-68.3979
-66.5354
-64.6258
-62.5949
-60.365
-57.9228
-55.2244
-52.2348
-48.9655
-45.3911
-41.4799
-37.2533
-32.6611
-27.6494
-22.1404
-16.0001
-9.05825
-1.18243
7.4951
16.4163
24.0052
-40.068
-40.8267
-41.6328
-42.4266
-43.3013
-44.1381
-44.9687
-45.6495
-46.1523
-46.2845
-46.0494
-45.2934
-43.961
-42.0685
-39.6748
-36.9304
-34.0098
-31.0856
-28.3141
-25.8041
-23.617
-21.7897
-20.3111
-19.1448
-18.2735
-17.6511
-17.2443
-17.0334
-16.8486
-16.8098
-16.8875
-17.07
-17.3412
-17.6761
-18.0509
-18.4251
-18.8043
-19.1872
-19.5945
-20.0421
-20.525
-21.0351
-21.5528
-22.0444
-22.4838
-22.8936
-23.3137
-23.7293
-24.1447
-24.5806
-25.0146
-25.4228
-25.7505
-26.068
-26.3685
-26.6388
-26.9103
-27.175
-27.3648
-27.5948
-27.8168
-28.0335
-28.273
-28.5137
-28.766
-28.9883
-29.2228
-29.443
-29.6557
-29.8428
-30.0191
-30.171
-30.2594
-30.3631
-30.4678
-30.5943
-30.7168
-30.8883
-31.0754
-31.2779
-31.4772
-31.699
-31.8785
-32.0345
-32.1827
-32.3311
-32.4352
-32.5395
-32.6473
-32.7339
-32.8597
-32.9442
-33.0443
-33.156
-33.3084
-33.4685
-33.6354
-33.7501
-33.8416
-33.8987
-33.9068
-33.8999
-33.9462
-34.009
-34.1028
-34.2408
-34.4425
-34.6723
-34.9142
-35.1424
-35.3253
-35.4536
-35.5057
-35.4943
-35.4635
-35.433
-35.4012
-35.3537
-35.3161
-35.2868
-35.2616
-35.2958
-35.3193
-35.4023
-35.545
-35.7279
-35.926
-36.1376
-36.3573
-36.5638
-36.772
-36.9528
-37.1309
-37.2893
-37.4394
-37.5623
-37.6938
-37.8312
-37.9691
-38.1369
-38.3401
-38.571
-38.8459
-39.183
-39.5906
-40.0993
-40.7394
-41.5332
-42.5155
-43.7121
-45.1503
-46.871
-48.9172
-51.3571
-54.2455
-57.6239
-61.4952
-65.8547
-70.5667
-75.4835
-80.4211
-85.1349
-89.2071
-91.9992
-92.895
-91.96
-89.4173
-85.6685
-81.4567
-77.5586
-74.4324
-72.0725
-70.156
-68.4925
-66.8703
-65.1824
-63.3531
-61.3533
-59.1352
-56.6606
-53.911
-50.9101
-47.6251
-44.0576
-40.1774
-35.9532
-31.2597
-25.9499
-19.9196
-12.9402
-4.96018
3.35538
10.3373
-37.6005
-38.734
-39.7858
-40.7194
-41.66
-42.4885
-43.2549
-43.8518
-44.295
-44.4191
-44.2769
-43.6939
-42.6278
-41.1093
-39.1526
-36.8704
-34.3858
-31.8392
-29.3686
-27.064
-24.9943
-23.1867
-21.6637
-20.4111
-19.4129
-18.6407
-18.066
-17.6688
-17.4252
-17.3482
-17.2964
-17.3646
-17.5261
-17.7599
-18.0452
-18.3617
-18.7007
-19.0514
-19.4173
-19.8078
-20.2285
-20.6819
-21.1539
-21.6301
-22.1055
-22.5567
-22.9886
-23.4013
-23.7838
-24.1495
-24.5065
-24.8692
-25.2147
-25.5568
-25.8801
-26.2233
-26.5538
-26.8562
-27.1147
-27.335
-27.539
-27.744
-27.9499
-28.1535
-28.3363
-28.5248
-28.7068
-28.9265
-29.1535
-29.3761
-29.6021
-29.7961
-29.9433
-30.0753
-30.2053
-30.3433
-30.4816
-30.6415
-30.8144
-31.0072
-31.1887
-31.3663
-31.5543
-31.7064
-31.8582
-32.0088
-32.1413
-32.2769
-32.3981
-32.5024
-32.5968
-32.6921
-32.7747
-32.9019
-33.0444
-33.2156
-33.4198
-33.597
-33.7168
-33.7637
-33.7296
-33.6402
-33.6107
-33.6433
-33.7096
-33.8278
-34.0637
-34.362
-34.6658
-34.96
-35.2102
-35.3607
-35.4227
-35.4033
-35.3181
-35.2477
-35.1563
-35.0788
-34.9976
-34.9019
-34.798
-34.7179
-34.7445
-34.8325
-34.9974
-35.2226
-35.4911
-35.76
-36.0249
-36.2781
-36.5201
-36.7493
-36.9583
-37.1406
-37.3168
-37.4629
-37.5934
-37.7104
-37.8275
-37.9472
-38.0868
-38.2597
-38.4657
-38.7203
-39.0357
-39.4268
-39.9277
-40.5648
-41.3729
-42.384
-43.6309
-45.161
-47.0207
-49.29
-52.0474
-55.3593
-59.2543
-63.7761
-68.8298
-74.275
-79.8959
-85.4786
-90.7151
-95.0742
-97.7969
-98.0439
-95.4943
-91.1036
-85.7914
-80.5645
-76.4729
-73.5383
-71.443
-69.9089
-68.6195
-67.3425
-65.9496
-64.3965
-62.665
-60.6909
-58.4255
-55.9582
-53.2616
-50.3105
-47.1407
-43.6545
-39.7801
-35.3676
-30.2663
-24.2069
-16.9317
-9.17737
-2.66867
-35.1972
-36.5489
-37.8296
-38.9421
-39.9798
-40.8795
-41.672
-42.2764
-42.6962
-42.6551
-42.7103
-42.312
-41.5047
-40.3128
-38.7404
-36.8659
-34.7675
-32.5564
-30.3418
-28.2135
-26.238
-24.4587
-22.9066
-21.5912
-20.5053
-19.6394
-18.9588
-18.4559
-18.1056
-17.9604
-17.7683
-17.7184
-17.7781
-17.9175
-18.1222
-18.3716
-18.6557
-18.9631
-19.2926
-19.6466
-20.0301
-20.4458
-20.8788
-21.3203
-21.7693
-22.2059
-22.6418
-23.0714
-23.4886
-23.9016
-24.3096
-24.7151
-25.1005
-25.4639
-25.7948
-26.0978
-26.398
-26.7024
-26.9935
-27.2611
-27.5119
-27.7478
-27.9947
-28.2455
-28.5124
-28.7498
-28.9861
-29.2125
-29.4416
-29.6338
-29.8361
-29.9792
-30.0636
-30.1714
-30.2685
-30.3803
-30.4969
-30.6525
-30.8494
-31.0737
-31.2799
-31.5073
-31.7088
-31.8954
-32.0637
-32.2437
-32.3528
-32.4625
-32.5637
-32.6382
-32.7264
-32.7954
-32.8829
-32.9646
-33.0831
-33.2489
-33.4592
-33.6631
-33.8317
-33.9445
-33.9737
-33.9306
-33.8047
-33.759
-33.7925
-33.875
-34.051
-34.324
-34.6503
-34.9958
-35.3225
-35.564
-35.6711
-35.6425
-35.584
-35.493
-35.4077
-35.3179
-35.2284
-35.1326
-35.0458
-34.9592
-34.888
-34.9047
-35.02
-35.1987
-35.4077
-35.653
-35.9121
-36.1647
-36.4
-36.6181
-36.8159
-36.9905
-37.1489
-37.2834
-37.3931
-37.4885
-37.5769
-37.6629
-37.7469
-37.8456
-37.9727
-38.1343
-38.3524
-38.6352
-39.0024
-39.4823
-40.1049
-40.9059
-41.9164
-43.1925
-44.7951
-46.7982
-49.3037
-52.4079
-56.1831
-60.7177
-65.9875
-71.895
-78.2049
-84.6608
-91.0755
-97.0647
-101.691
-103.459
-102.074
-98.168
-92.0721
-84.9053
-78.8032
-74.5423
-72.0187
-70.57
-69.72
-69.0074
-68.1272
-67.0609
-65.7726
-64.2313
-62.4689
-60.5125
-58.3778
-56.0092
-53.5068
-50.6737
-47.5901
-44.1306
-40.0307
-34.9206
-28.5671
-21.521
-15.1935
-32.8976
-34.4573
-35.918
-37.2244
-38.3954
-39.4121
-40.3066
-41.0165
-41.6372
-42.1209
-41.7905
-41.361
-40.6623
-39.6467
-38.3195
-36.7164
-34.9086
-32.9681
-30.9954
-29.0583
-27.2206
-25.5202
-23.9986
-22.6649
-21.5277
-20.5807
-19.8021
-19.1837
-18.6968
-18.288
-18.1632
-18.0613
-18.0416
-18.101
-18.2278
-18.412
-18.6405
-18.9014
-19.1924
-19.5075
-19.8511
-20.2278
-20.6257
-21.0411
-21.4641
-21.885
-22.3055
-22.7196
-23.124
-23.5245
-23.9208
-24.3089
-24.6851
-25.0494
-25.4001
-25.7436
-26.0765
-26.4028
-26.7082
-26.9921
-27.2504
-27.4887
-27.7039
-27.9121
-28.1141
-28.3226
-28.5264
-28.7458
-28.9782
-29.2146
-29.453
-29.6658
-29.8402
-29.9819
-30.105
-30.2275
-30.354
-30.478
-30.6196
-30.7934
-30.9843
-31.1394
-31.3037
-31.4691
-31.6443
-31.8231
-32.0346
-32.2338
-32.3458
-32.4378
-32.5151
-32.5875
-32.6745
-32.7821
-32.904
-33.0546
-33.2802
-33.517
-33.7279
-33.8733
-33.8805
-33.7309
-33.6043
-33.4696
-33.3713
-33.4852
-33.6957
-33.999
-34.3555
-34.7618
-35.1724
-35.4956
-35.6919
-35.7349
-35.5678
-35.4788
-35.379
-35.2697
-35.1489
-35.0248
-34.8863
-34.7364
-34.5999
-34.5818
-34.6723
-34.8925
-35.192
-35.4947
-35.7805
-36.0441
-36.2919
-36.5261
-36.7482
-36.9381
-37.1039
-37.2325
-37.3454
-37.4238
-37.4875
-37.5339
-37.5771
-37.6173
-37.6702
-37.7482
-37.8671
-38.0334
-38.272
-38.6091
-39.0714
-39.6879
-40.4868
-41.5157
-42.8373
-44.5313
-46.7156
-49.5456
-53.14
-57.6315
-63.0323
-69.3221
-76.3043
-83.6794
-91.181
-98.5242
-105.168
-110.21
-112.195
-108.949
-100.943
-90.8734
-81.36
-74.6798
-71.6059
-70.3595
-70.2093
-70.0957
-69.8993
-69.3441
-68.3438
-67.2207
-65.9426
-64.5473
-62.9749
-61.1703
-59.2007
-56.9865
-54.5357
-52.006
-49.0804
-45.1138
-39.9839
-33.8137
-27.7036
-30.4912
-32.2884
-33.9489
-35.4276
-36.7343
-37.8465
-38.7887
-39.5235
-40.076
-40.3694
-40.6185
-40.3558
-39.8297