/*--------------------------------*- C++ -*----------------------------------*\
| =========                 |                                                 |
| \\      /  F ield         | OpenFOAM: The Open Source CFD Toolbox           |
|  \\    /   O peration     | Version:  4.1                                   |
|   \\  /    A nd           | Web:      www.OpenFOAM.org                      |
|    \\/     M anipulation  |                                                 |
\*---------------------------------------------------------------------------*/
FoamFile
{
    version     2.0;
    format      ascii;
    class       volScalarField;
    location    "808";
    object      p;
}
// * * * * * * * * * * * * * * * * * * * * * * * * * * * * * * * * * * * * * //

dimensions      [0 2 -2 0 0 0 0];

internalField   nonuniform List<scalar> 
204246
(
106.457
-24.351
16.631
4.30479
0.80069
9.30956
6.01741
16.2596
15.2108
25.6429
23.517
35.9774
29.33
44.1696
36.1708
48.6869
46.3839
43.8703
55.4661
44.8764
59.3988
47.1465
60.2556
48.8948
61.6945
49.1584
63.337
47.735
64.6487
47.6228
64.7966
48.073
63.8645
50.5072
59.9496
56.4666
49.592
61.9214
48.0678
61.3469
48.1948
61.2111
47.6696
61.9007
45.6778
62.562
45.3653
62.111
46.4333
59.7334
48.5987
57.09
54.2443
47.0539
59.6957
45.7754
59.272
46.1498
59.3519
45.8617
60.2692
44.0807
61.1422
43.9502
60.8755
45.1339
58.6696
47.3705
56.1749
52.7873
47.0247
56.8234
45.6469
57.711
45.1106
57.9484
44.4601
58.7181
42.3856
59.302
41.971
58.5675
42.9782
55.7305
44.5213
52.8338
49.115
42.8533
52.3236
40.487
52.284
38.444
51.9012
34.88
50.742
32.9407
47.678
31.1729
43.5989
29.2447
38.2601
25.8844
33.275
22.3114
27.4962
21.1227
13.9181
18.5692
7.77407
15.542
0.0914341
11.9517
-4.03643
8.48198
-7.58673
7.00824
-8.96602
6.70252
-8.29988
7.00386
-4.79563
6.69299
3.06254
-0.217298
12.377
0.0416859
16.4635
2.02575
19.0467
3.9153
20.9053
5.3485
22.2535
6.39691
23.216
7.60169
23.3703
9.80739
21.3563
16.3418
11.4771
23.1417
9.52946
25.058
9.54461
26.0054
9.8754
26.6508
10.4392
27.269
11.196
27.8981
12.3692
28.2775
14.9743
26.8026
22.2006
18.0973
30.1193
17.5534
33.5979
19.6071
36.0241
23.266
38.6922
27.9287
42.5689
33.6835
47.677
40.669
53.9849
49.6479
61.9684
61.2032
71.4603
77.9825
80.2242
94.0799
98.6169
111.925
121.672
135.045
149.384
164.287
184.225
202.055
230.344
253.001
296.903
325.847
413.579
429.503
636.543
26.3736
1.06058
-1.33249
2.91847
-1.75274
4.54168
3.32557
10.8257
12.1485
19.9039
21.7031
29.5961
30.2269
36.7436
38.0047
40.8911
46.0107
44.078
51.3881
48.2134
53.6506
50.7681
55.2453
52.2515
56.7776
53.0283
58.1468
53.1481
58.4716
53.5078
58.3322
54.0924
57.3462
55.5526
55.3111
58.232
52.712
57.5264
52.9859
56.8833
52.6452
56.8204
52.0723
57.0505
51.4827
56.5879
51.5392
55.8357
52.196
54.6137
53.1257
52.7434
55.8474
50.3161
55.2582
50.7663
54.7827
50.6313
54.9327
50.2734
55.3842
49.89
55.1287
50.1274
54.5597
50.9286
53.4866
51.92
51.8324
54.4018
49.7903
53.7625
49.6545
53.6899
49.4484
53.7124
48.9474
53.9694
48.3539
53.4374
48.3154
52.5102
48.6602
51.2144
49.13
49.0327
51.1448
46.1826
49.7266
45.0915
48.8166
43.5977
47.8812
41.6896
45.7957
39.8085
43.4359
37.59
40.3919
35.1582
36.4689
31.6208
31.7876
28.1849
25.584
26.0335
19.3388
18.3567
12.2821
13.858
6.73421
8.67441
2.38897
4.48962
-1.07971
1.49261
-3.14033
0.364775
-3.16815
0.463351
-1.00071
0.675131
3.97001
0.747754
7.13783
3.82543
9.86054
6.61505
12.3358
8.80581
14.3693
10.4118
15.8497
11.646
16.7478
12.9333
16.8786
14.9297
15.6393
18.3801
13.5235
18.9471
14.0314
19.4582
14.5682
20.029
15.1111
20.5463
15.6979
21.0712
16.4237
21.5389
17.5465
21.655
19.7743
20.8186
23.6664
19.5169
25.1937
21.2073
27.0184
23.5409
29.3105
26.2795
32.2254
29.7084
35.9291
34.2223
40.6669
40.0338
46.0669
47.7791
53.0138
57.5474
61.1879
69.9361
73.6284
82.7017
89.2646
98.7855
108.47
118.929
131.967
143.55
160.729
173.543
196.751
210.177
245.431
252.074
326.795
292.235
426.915
-6.64103
4.52326
-1.48946
1.47572
-2.41053
3.31745
2.01647
10.1398
10.5254
19.2342
20.2721
28.4073
29.6386
36.2567
37.9261
41.988
44.57
45.9523
49.7391
49.4777
52.7829
51.6872
54.9394
53.0748
56.7787
53.5225
58.0657
53.7486
58.624
54.0109
58.6146
54.4832
57.8652
55.5005
56.1436
56.9204
54.2031
57.2194
53.3991
57.113
52.8606
56.9546
52.3354
56.8664
51.8134
56.5544
51.6796
55.963
52.0414
54.9086
52.8331
53.309
54.2922
51.5203
54.7089
50.9436
54.7955
50.6493
54.8869
50.3746
55.0577
50.0958
54.9932
50.178
54.6176
50.6876
53.7764
51.5649
52.3853
52.9705
50.7511
53.3425
49.9792
53.5624
49.5469
53.6295
49.0797
53.6538
48.5763
53.3451
48.3847
52.6421
48.5591
51.3099
48.9635
49.3951
49.7339
47.1224
49.3802
45.48
48.7298
43.8676
47.6915
42.0211
46.0087
40.1672
43.5343
38.2791
40.1557
35.9812
36.1441
32.6502
31.5731
29.1032
25.8373
24.568
20.151
19.4325
14.1936
13.1001
8.40502
7.88901
3.51466
3.66085
-0.530077
1.13027
-3.07398
0.0219664
-3.33517
-0.145606
-1.15976
0.161801
2.82497
1.64208
6.13815
4.29924
9.44727
6.87668
12.2808
9.04955
14.519
10.6854
16.0731
11.9519
16.9983
13.1772
17.1791
14.853
16.3943
17.1897
14.965
18.5252
14.6491
19.4792
14.8535
20.1534
15.2808
20.7066
15.8314
21.2304
16.5533
21.6831
17.6505
21.8503
19.5703
21.3936
22.4959
20.7864
24.7131
21.6335
27.0044
23.496
29.2521
26.4059
31.8196
30.2919
35.2985
35.0658
39.9421
41.0271
45.9726
48.4813
53.4772
57.9943
63.0905
69.6045
74.6291
83.632
90.2441
100.479
110.149
121.407
134.953
147.478
166.059
179.934
205.593
220.27
259.976
267.9
344.059
322.788
411.569
-20.2647
-10.8934
-13.125
-7.04518
-9.45814
-2.78426
-3.10645
4.61525
6.42952
14.3843
16.9917
24.5818
26.8821
33.1826
35.7926
39.5264
43.2984
44.5197
47.5933
49.3295
51.0586
51.8778
53.2227
53.4962
54.921
54.4935
55.9706
55.0056
56.351
55.4323
56.299
55.9119
55.7782
56.5946
54.9797
57.0994
54.5429
56.2901
54.5138
55.75
54.2149
55.4491
53.8351
55.2213
53.5905
54.7147
53.5684
54.0944
53.7964
53.4106
54.1555
52.5294
54.6594
52.1392
53.9525
52.2642
53.5728
52.1498
53.4934
51.9814
53.487
51.943
53.1972
52.1139
52.7847
52.4811
52.2476
52.9385
51.5483
53.4655
51.2518
52.8728
51.1674
52.5589
51.0217
52.3892
50.7648
52.222
50.5636
51.7066
50.4939
51.0118
50.5474
50.1989
50.5046
49.0745
50.6131
48.2395
49.2445
47.3103
48.191
46.2018
46.9622
44.8828
45.1783
43.159
43.1339
41.1542
40.4778
38.5391
37.242
35.2618
33.0532
31.566
28.0457
27.1048
22.3694
20.9944
16.6324
14.7612
10.8638
8.31758
5.62689
3.08226
1.12886
-0.747597
-1.78278
-2.70849
-2.51709
-2.78593
-1.28963
-1.79343
1.22543
0.802002
3.92015
4.50006
6.85259
7.70134
9.51551
10.189
11.7782
11.919
13.4343
13.2493
14.4561
14.4547
14.8226
15.7909
14.7348
17.178
14.8817
17.2926
15.4581
17.5303
16.0228
17.9059
16.5785
18.3347
17.1502
18.7789
17.8264
19.1556
18.7613
19.3163
20.2666
19.4612
21.8084
20.2136
22.6555
21.6473
23.9414
23.5154
25.8305
25.7402
28.1817
28.5831
31.3011
32.2141
35.3336
36.8751
40.264
43.0553
46.5279
50.7777
54.3581
60.5622
64.7039
71.637
77.7552
85.0892
93.7535
101.581
113.168
121.476
136.689
145.468
166.036
173.13
206.174
201.058
258.547
245.411
316.508
-24.8463
-14.7303
-16.831
-12.3815
-12.9996
-7.08278
-6.02971
1.66061
3.93486
12.3979
15.0299
23.2972
25.7201
32.4392
35.1627
39.5544
42.3409
45.4659
47.597
49.4252
51.2398
52.1445
53.5859
53.9931
55.2443
55.0435
56.34
55.7366
56.7867
56.1431
56.8092
56.4468
56.425
56.7449
55.8089
56.7368
55.5238
56.3114
55.0771
55.9768
54.5941
55.6324
54.1513
55.2605
53.8545
54.7709
53.6773
54.235
53.7131
53.5787
53.8385
52.9008
53.8944
52.6953
53.5342
52.4991
53.4223
52.2392
53.3721
52.0644
53.2936
52.039
53.0875
52.1158
52.8008
52.311
52.4079
52.5694
51.9064
52.7503
51.7286
52.5017
51.4429
52.3868
51.1619
52.262
50.8839
52.0515
50.6857
51.6424
50.4983
51.1013
50.4644
50.2815
50.3411
49.2906
49.9138
48.5941
49.1471
47.6331
48.1332
46.5041
46.9618
45.2358
45.4118
43.6477
43.3905
41.6358
40.8692
39.1519
37.666
36.0037
33.7417
32.1592
29.0627
27.5343
23.885
21.9852
17.9216
15.7044
11.9251
9.33549
6.17471
3.72707
1.39863
-0.626751
-1.87997
-3.1272
-3.15304
-3.59251
-2.27776
-2.32134
0.0381679
0.340713
3.12569
4.11394
6.58474
7.67743
9.71458
10.5004
12.1851
12.439
13.8752
13.7668
14.9173
14.8718
15.2953
15.9757
15.4571
16.8653
15.8464
17.1753
16.1653
17.637
16.5122
18.0967
16.9406
18.5472
17.4499
18.996
18.0965
19.3843
18.9955
19.5545
20.1772
20.0328
21.5202
20.7986
22.5419
22.0775
23.9766
23.7717
25.8668
26.0603
28.3909
28.9674
31.662
32.6986
35.8235
37.566
41.0443
43.7763
47.6646
51.6745
55.997
61.4282
66.6556
73.3845
80.2603
88.0045
97.2892
105.924
118.374
127.742
144.184
153.832
176.338
184.089
218.442
215.38
264.67
253.307
298.405
-31.954
-23.5244
-25.2993
-20.9878
-21.6916
-14.9852
-13.4931
-5.03984
-1.92019
6.91804
10.7769
19.2028
22.8498
29.6013
33.0665
37.8505
41.029
44.1074
46.5239
48.8755
50.4135
51.7282
52.8414
53.7388
54.4675
54.919
55.336
55.6497
55.7299
56.0894
55.7824
56.4145
55.5944
56.6041
55.408
56.4891
55.3248
55.9467
55.2115
55.4367
54.9781
54.9908
54.6643
54.6146
54.4701
54.1537
54.3127
53.7209
54.1809
53.3321
54.1735
52.8855
53.9846
52.8731
53.4326
52.9186
53.124
52.8078
52.9461
52.713
52.7836
52.725
52.538
52.8106
52.2777
52.9363
52.0402
53.0251
51.8179
52.95
51.91
52.4981
51.8916
52.2012
51.7836
51.9547
51.6316
51.6753
51.517
51.2756
51.3654
50.8307
51.147
50.3479
50.9339
49.7564
50.4291
49.2058
49.6173
48.5483
48.5936
47.6831
47.4126
46.5564
46.0051
45.0867
44.3037
43.2192
42.1227
40.8619
39.3005
37.884
35.6367
34.2011
31.1178
29.5673
25.7996
23.8665
19.906
17.3673
13.5391
10.5332
7.16402
4.13618
1.47866
-1.07995
-2.67168
-4.40431
-4.62256
-5.41673
-4.20952
-4.25046
-1.91057
-1.17968
1.45996
2.78177
5.23875
6.62452
8.58905
9.81349
11.1537
12.0876
12.9271
13.5648
14.0076
14.6677
14.5121
15.6152
14.7756
16.2438
15.4355
16.442
15.9547
16.6486
16.4527
16.965
16.9657
17.3359
17.4835
17.7376
18.0472
18.1416
18.7333
18.447
19.6128
18.9109
20.361
19.8887
21.1121
20.9396
22.1727
22.3033
23.6009
24.0144
25.5311
26.1897
28.0403
29.035
31.2439
32.7985
35.3134
37.6713
40.4768
43.8642
47.1034
51.5497
55.6915
60.8138
66.5128
72.0941
79.941
85.8882
96.364
102.621
116.413
122.383
141.215
144.444
174.866
168.418
209.6
207.093
247.685
-32.4435
-24.8913
-29.5033
-26.1711
-27.3419
-21.3804
-19.1144
-10.43
-6.00113
3.11241
7.80071
16.6705
20.6585
28.2128
31.7051
37.3151
40.2357
44.4505
46.3392
49.232
50.7029
52.1938
53.3112
54.3935
55.1014
55.7369
56.1299
56.6021
56.5992
57.0318
56.6911
57.1703
56.5022
57.139
56.2409
56.9038
56.0911
56.3816
55.7963
55.8452
55.3498
55.311
54.9366
54.7869
54.6306
54.2909
54.3668
53.8431
54.1519
53.4136
53.9458
53.0236
53.665
53.0702
53.2011
53.0419
52.9746
52.8679
52.8327
52.7472
52.6759
52.7296
52.4771
52.7395
52.304
52.7766
52.1059
52.7912
51.9771
52.6304
52.0849
52.3008
52.0013
52.0969
51.8573
51.8744
51.6768
51.6205
51.5192
51.288
51.33
50.8808
51.1035
50.358
50.7735
49.8133
50.2836
49.3342
49.5822
48.7161
48.6851
47.8978
47.6256
46.8512
46.3418
45.4944
44.7295
43.7536
42.7082
41.5732
40.0922
38.8324
36.7295
35.3283
32.5896
30.8752
27.6279
25.3421
21.7345
18.9067
15.1832
11.9415
8.38302
5.13469
2.11891
-0.725505
-2.73815
-4.78471
-5.41441
-6.42
-5.62776
-5.59267
-3.54657
-2.54978
0.273602
1.95616
4.76496
6.54193
8.80617
10.2221
11.8331
12.664
13.6711
14.238
14.6277
15.2694
15.1136
16.051
15.511
16.6318
16.0752
16.7401
16.5785
16.9655
16.9694
17.2687
17.3707
17.6365
17.8046
18.0287
18.3202
18.4229
18.9731
18.8394
19.7417
19.41
20.5497
20.1311
21.3743
21.214
22.4724
22.6075
23.9864
24.3856
26.026
26.6629
28.6812
29.629
32.013
33.546
36.2645
38.579
41.711
44.943
48.6769
52.8695
57.6215
62.6374
68.979
74.6407
83.0875
89.2889
100.385
106.887
121.341
127.449
147.08
149.294
177.236
173.89
205.1
201.262
230.061
-36.1642
-30.3712
-36.687
-34.9571
-36.9353
-31.0288
-28.5563
-19.5638
-14.2027
-3.75859
1.95249
12.3995
17.3649
25.4549
29.6872
35.7465
39.0577
43.4721
45.6919
48.6873
50.1929
51.8021
52.7159
53.9567
54.4158
55.2599
55.3508
56.0114
55.8181
56.4615
55.9207
56.7273
55.7927
56.8199
55.6298
56.5743
55.6681
56.05
55.5064
55.6417
55.2487
55.1799
54.9795
54.6872
54.7416
54.2053
54.5012
53.7869
54.2795
53.4221
54.0975
53.1102
53.7219
53.1716
53.2646
53.207
52.962
53.106
52.752
53.0204
52.5626
53.001
52.3837
53.0025
52.2135
53.0088
52.0876
52.9759
52.0474
52.7587
52.2184
52.4039
52.2346
52.1604
52.175
51.9117
52.0427
51.6533
51.9139
51.3307
51.7482
51.0011
51.5191
50.6567
51.2323
50.2229
50.7251
49.8515
50.0443
49.358
49.2537
48.6398
48.3334
47.7177
47.2156
46.5351
45.8042
45.0027
43.9632
43.0293
41.5551
40.4598
38.4282
37.101
34.4599
32.754
29.5499
27.299
23.6546
20.7371
16.8273
13.3405
9.4232
5.70903
2.19961
-1.22243
-3.7903
-6.35032
-7.45948
-8.73935
-8.12248
-8.06375
-6.00587
-4.75743
-1.90454
0.10511
3.08302
5.18911
7.66384
9.40653
11.0497
12.2983
13.1146
14.0211
14.1762
14.9627
14.6151
15.5604
14.9185
15.9338
15.5349
16.0115
16.0161
16.2174
16.4566
16.5461
16.9224
16.8979
17.3839
17.2488
17.88
17.5991
18.4097
17.9571
18.9741
18.4137
19.5151
19.1864
20.0078
19.9973
20.8044
20.9633
21.9132
22.1878
23.3752
23.827
25.263
26.0394
27.7144
28.9519
30.9076
32.7356
35.0595
37.5708
40.4615
43.6281
47.4758
51.1578
56.3768
60.4484
67.5538
71.9015
81.3629
85.8741
98.3479
102.172
119.853
120.553
145.138
143.234
171.68
171.595
198.616
-34.569
-32.0553
-40.8328
-41.2466
-44.8429
-40.5973
-38.0262
-28.6854
-21.9966
-10.4433
-3.55923
7.31072
13.5823
22.8333
27.3333
34.5689
37.9554
43.3893
45.3689
49.2053
50.4542
52.7151
53.2104
55.0185
55.1627
56.4608
56.3429
57.2695
56.9658
57.6497
57.0903
57.7559
56.9009
57.6176
56.6395
57.1618
56.4746
56.5957
56.1907
56.0548
55.7308
55.4695
55.3006
54.8867
54.9144
54.3509
54.5664
53.8702
54.2684
53.4503
53.9723
53.166
53.5746
53.1906
53.1487
53.192
52.9088
53.0672
52.7015
52.9773
52.515
52.9431
52.3417
52.9256
52.1933
52.9088
52.0842
52.8201
52.1019
52.599
52.2608
52.2977
52.2602
52.1065
52.1793
51.8922
52.0568
51.6366
51.915
51.3339
51.7172
51.0011
51.465
50.6423
51.1389
50.3012
50.6352
49.9831
50.0344
49.4999
49.3596
48.8386
48.5456
48.0145
47.5476
46.9691
46.2893
45.6297
44.6732
43.8961
42.5655
41.6235
39.8099
38.5947
36.2554
34.5692
31.71
29.3425
25.9906
22.8738
19.0937
15.3204
11.308
7.20921
3.38125
-0.525853
-3.55633
-6.66081
-8.28908
-10.0934
-10.0352
-10.3399
-8.63402
-7.31359
-4.18246
-1.66161
1.87676
4.61708
7.51393
9.74268
11.6355
12.9466
13.9284
14.7929
14.9617
15.7512
15.3387
16.3008
15.6254
16.6468
16.1393
16.6583
16.5794
16.761
16.8992
16.9759
17.2476
17.2507
17.6499
17.5668
18.1165
17.9423
18.6272
18.3213
19.2
18.8016
19.732
19.4722
20.3265
20.2694
21.1758
21.2738
22.2925
22.5786
23.7819
24.2804
25.7487
26.5226
28.2667
29.4836
31.5367
33.3103
35.7856
38.1784
41.2878
44.3034
48.3776
51.9059
57.4253
61.3052
68.6816
72.8224
82.4598
86.6497
99.2489
102.466
119.382
119.724
141.386
139.039
161.814
160.674
182.096
-33.3353
-35.0603
-46.1983
-49.8428
-55.6057
-53.2233
-50.6039
-40.6986
-32.8801
-19.4995
-10.6317
2.15802
9.29534
20.0151
25.386
32.5824
36.8996
42.4544
44.9132
48.8251
50.0845
52.3979
52.7693
54.3699
54.3917
55.8057
55.4067
56.435
55.9329
56.9141
56.0817
57.1297
56.0037
57.1272
55.911
56.8122
55.9694
56.2572
55.8391
55.8587
55.5905
55.3783
55.3045
54.861
54.9921
54.3556
54.6771
53.8975
54.3832
53.5033
54.0787
53.239
53.6505
53.2822
53.2299
53.2905
52.9828
53.1757
52.7634
53.0907
52.5568
53.053
52.3788
53.0481
52.2103
53.042
52.1404
52.9231
52.1971
52.7061
52.3819
52.4013
52.4293
52.2211
52.3727
52.0244
52.2748
51.7974
52.1522
51.5364
51.9996
51.2431
51.7863
50.9638
51.4767
50.6706
51.0109
50.4158
50.4621
50.0035
49.8635
49.4409
49.1448
48.7343
48.2684
47.8266
47.1576
46.6394
45.7051
45.0719
43.7889
42.9742
41.2602
40.1357
37.9369
36.3245
33.5971
31.3243
28.0242
24.9643
21.0856
17.2137
12.8613
8.38723
3.94382
-0.599114
-4.45433
-8.2569
-10.6567
-12.8763
-13.1702
-13.3635
-11.6206
-10.0335
-6.80349
-3.93386
-0.0816031
3.16071
6.5371
9.19724
11.3858
13.1021
13.9658
15.0314
14.969
15.6838
15.0885
15.7743
15.0654
15.9094
15.4915
15.8919
15.9594
16.0489
16.3944
16.3396
16.8213
16.6731
17.2357
16.9962
17.6527
17.32
18.0917
17.634
18.5096
18.0516
18.8276
18.604
19.2164
19.1464
19.7957
19.824
20.5644
20.7034
21.5912
21.8905
22.9676
23.5051
24.7792
25.6496
27.1909
28.4667
30.3943
32.1102
34.6151
36.7498
40.1397
42.6236
47.2479
49.9835
56.2802
59.1862
67.5857
70.4824
81.7156
83.8758
99.3978
99.209
118.663
119.089
139.514
139.99
160.06
-30.5125
-35.1497
-48.9817
-56.8782
-66.1439
-67.0161
-66.65
-56.7658
-47.7061
-32.31
-21.2811
-6.20754
2.86667
15.2766
21.8163
30.4013
35.0393
41.9334
44.72
49.3876
50.499
53.5313
53.4528
55.8029
55.533
57.2202
56.7445
58.0113
57.4387
58.367
57.5811
58.3572
57.3561
58.0679
57.0157
57.4841
56.7924
56.8382
56.5176
56.2483
56.0713
55.6371
55.6158
55.0368
55.1723
54.4685
54.7537
53.9521
54.3839
53.5103
54.0304
53.2183
53.558
53.2422
53.1313
53.2553
52.9043
53.1318
52.6936
53.0429
52.4935
52.9938
52.3122
52.981
52.1615
52.9479
52.1102
52.8227
52.1815
52.6122
52.3759
52.3196
52.4405
52.1774
52.3769
52.0068
52.2787
51.7901
52.1518
51.5296
51.994
51.2301
51.7619
50.9609
51.4443
50.7292
50.9852
50.5269
50.4788
50.1482
49.9586
49.6499
49.3435
49.0432
48.6049
48.286
47.681
47.3146
46.4863
46.0244
44.908
44.271
42.7929
41.8411
39.9328
38.4635
36.0465
33.8423
30.8121
27.6942
23.9349
19.8199
15.4019
10.4956
5.7292
0.527708
-3.88471
-8.52899
-11.6792
-14.8093
-15.9449
-16.9939
-15.9883
-14.7386
-11.344
-7.87669
-3.17556
1.15904
5.34442
8.82922
11.4872
13.6091
14.6727
15.913
15.854
16.7384
15.97
16.8796
15.8538
16.8829
16.1781
16.6248
16.5092
16.5417
16.757
16.6611
17.0641
16.8996
17.4213
17.1628
17.8351
17.4915
18.2947
17.8406
18.7135
18.2858
19.0319
18.8349
19.4086
19.3803
19.966
20.0541
20.694
20.9059
21.6829
22.0293
23.0059
23.5632
24.7554
25.6025
27.0726
28.2756
30.1456
31.7276
34.2068
36.1397
39.5143
41.6942
46.3499
48.6779
54.9357
57.3773
65.6363
67.8843
78.893
79.9695
94.4452
94.3448
110.706
110.535
127.836
127.88
144.942
-25.7569
-34.6124
-51.1789
-62.9031
-76.9723
-82.6371
-84.9295
-74.5709
-63.3258
-44.724
-31.4113
-14.2236
-3.00526
10.7941
19.0912
28.1011
33.7499
40.4424
44.2612
48.5637
50.8285
52.4138
53.3584
54.7254
54.7025
55.9599
55.5834
56.7437
56.1744
57.2515
56.4233
57.535
56.395
57.4824
56.2998
57.1225
56.3167
56.531
56.2354
56.1087
55.9996
55.5979
55.6745
55.0631
55.281
54.519
54.8804
54.011
54.5055
53.5716
54.1267
53.3001
53.6454
53.3279
53.221
53.3383
52.9774
53.233
52.7603
53.1433
52.5429
53.1013
52.3473
53.0856
52.2035
53.033
52.1792
52.9043
52.2657
52.7036
52.4717
52.4314
52.5636
52.29
52.5301
52.142
52.4645
51.9462
52.3663
51.7134
52.2291
51.4598
52.0282
51.2193
51.727
51.0256
51.3001
50.87
50.8338
50.5439
50.3621
50.1168
49.8075
49.5947
49.149
48.9324
48.3289
48.0692
47.2684
46.9138
45.8644
45.337
43.9811
43.1411
41.41
40.0678
37.86
35.8102
32.9695
30.0145
26.3856
22.3622
17.8246
12.7213
7.46024
1.68077
-3.71026
-9.22803
-13.5383
-17.465
-19.3785
-20.5985
-19.5036
-18.0073
-14.4339
-10.5564
-5.44726
-0.404617
4.63589
8.94744
12.1976
14.7385
15.668
16.9666
16.542
17.1549
15.95
16.4211
15.1834
15.9851
15.4126
15.9063
15.9553
15.9956
16.3488
16.2283
16.74
16.5447
17.1349
16.8052
17.4901
17.1004
17.878
17.4136
18.1768
17.7686
18.3365
18.1671
18.6148
18.5187
19.0028
18.9539
19.4946
19.5321
20.1593
20.3088
21.0909
21.3808
22.339
22.8493
24.0449
24.8119
26.3749
27.3966
29.4904
30.7689
33.5993
35.0636
39.013
40.5398
45.9593
47.4756
54.8156
56.1464
66.0298
66.6635
79.0644
80.1325
94.3929
95.8167
111.026
112.107
127.989
-18.2773
-28.8166
-48.8911
-65.536
-85.3982
-98.1374
-107.056
-99.9069
-88.3739
-65.9661
-48.2771
-27.2374
-13.237
2.97796
13.4222
24.5442
30.8344
38.6589
43.7517
49.371
51.2955
54.6076
54.4211
56.6195
56.4024
57.736
57.4289
58.6133
58.1249
59.0258
58.2308
58.9335
57.8075
58.502
57.3433
57.8202
57.0535
57.0837
56.7472
56.4158
56.3998
55.8173
55.9369
55.2239
55.4572
54.6241
54.9709
54.0545
54.5223
53.5678
54.0855
53.2628
53.5624
53.2738
53.1307
53.2884
52.9019
53.1829
52.6872
53.0973
52.4727
53.0483
52.2824
53.0184
52.1365
52.9568
52.1141
52.8389
52.2112
52.6493
52.43
52.3982
52.5478
52.2468
52.5436
52.1122
52.4854
51.9349
52.3795
51.7151
52.237
51.4591
52.0511
51.2177
51.7531
51.0468
51.3229
50.9548
50.8612
50.6848
50.4475
50.3221
49.9872
49.8887
49.4676
49.3685
48.8321
48.7114
48.0187
47.8276
46.9349
46.5884
45.4551
44.8215
43.3752
42.2562
40.3813
38.5462
36.043
33.212
29.7885
25.6674
21.0842
15.5563
9.84379
3.23698
-2.87338
-9.58222
-14.8594
-20.1246
-23.1526
-25.7543
-25.9936
-25.6376
-22.5675
-18.2769
-12.2159
-5.41022
1.21617
7.10859
11.6496
15.1418
16.5597
18.1184
17.8957
18.7822
17.5503
18.0885
16.3448
17.4123
16.1172
16.5735
16.3314
16.2734
16.5229
16.3195
16.8524
16.5694
17.2111
16.8068
17.5497
17.1065
18.008
17.4274
18.3762
17.8338
18.5549
18.311
18.6979
18.6577
18.9925
19.0627
19.3773
19.5304
19.9365
20.1606
20.7304
21.058
21.8229
22.3058
23.3021
23.9809
25.3191
26.2111
28.0842
29.1412
31.8544
32.8553
36.7031
37.7001
42.8368
43.8436
50.5927
51.462
60.146
61.1828
71.4404
72.7849
84.4279
85.9085
99.006
100.046
114.192
-11.5124
-23.1191
-44.1946
-63.9084
-89.8097
-111.024
-127.729
-124.071
-112.024
-85.8219
-63.7809
-39.3683
-21.4753
-3.46666
9.85446
20.8735
29.3097
35.798
41.8796
47.4611
51.2412
53.5557
54.8449
55.2039
55.3171
56.1578
55.8615
57.0016
56.4552
57.7017
56.9226
58.1688
56.9266
57.9571
56.7529
57.4294
56.7768
56.845
56.7062
56.3545
56.4701
55.8411
56.0721
55.2959
55.6221
54.717
55.1341
54.1435
54.6674
53.635
54.176
53.3617
53.6714
53.3536
53.2256
53.3539
52.9726
53.2825
52.7479
53.2019
52.5204
53.1554
52.3058
53.13
52.1546
53.0546
52.143
52.9179
52.2568
52.7323
52.5001
52.4838
52.6642
52.334
52.6902
52.2169
52.6555
52.0655
52.5743
51.8603
52.4647
51.6188
52.2973
51.402
52.0096
51.271
51.5857
51.2303
51.137
50.9984
50.7574
50.6837
50.3363
50.307
49.8627
49.8535
49.2998
49.2732
48.595
48.4962
47.6698
47.4254
46.419
45.9011
44.6533
43.6869
42.076
40.4526
38.2772
35.74
32.6775
28.8423
24.4745
19.0345
13.2227
6.3206
-0.605392
-8.21441
-15.0839
-21.5984
-26.0814
-29.2986
-29.897
-29.387
-26.1118
-21.6521
-15.2942
-7.81457
-0.023047
7.45927
12.8777
17.4761
18.459
20.2258
19.2038
19.7706
17.4123
17.6425
15.1051
15.927
15.5044
15.9223
16.1885
15.966
16.3152
16.0477
16.631
16.4646
17.0783
16.6616
17.29
16.8738
17.7193
17.1787
18.0068
17.4558
18.0536
17.8834
18.141
18.0917
18.3418
18.3471
18.5897
18.6698
18.9331
19.0868
19.4528
19.6753
20.2163
20.4884
21.2987
21.6184
22.8023
23.1719
24.8597
25.2228
27.6651
28.0371
31.2948
31.7009
36.0684
36.4285
42.3928
42.7569
50.3264
51.0302
60.1684
61.3184
71.9867
73.3201
85.4677
86.5108
100.098
-0.859383
-12.5284
-34.089
-55.5018
-84.7555
-113.385
-141.958
-149.273
-142.98
-115.255
-85.3152
-57.3612
-35.2504
-14.5847
1.53684
16.4842
25.0611
33.7715
39.6289
46.9514
51.3068
55.6962
56.1203
58.326
57.2266
58.3971
58.0572
59.2357
58.6116
59.6304
58.7486
59.6043
58.3366
58.8891
57.7156
58.0636
57.2779
57.2267
57.0211
56.5611
56.723
56.029
56.2624
55.4502
55.7627
54.8301
55.2215
54.1758
54.6885
53.5975
54.1485
53.2615
53.5838
53.292
53.1447
53.285
52.9028
53.2171
52.6699
53.1662
52.4304
53.1377
52.2159
53.1009
52.0649
53.0113
52.0587
52.8746
52.1775
52.6927
52.4447
52.4532
52.6339
52.3092
52.7274
52.1767
52.7104
52.0382
52.638
51.8345
52.5293
51.5931
52.3688
51.3701
52.0596
51.2613
51.6246
51.265
51.1574
51.1142
50.804
50.8603
50.4525
50.5788
50.0656
50.2416
49.6484
49.8123
49.1717
49.24
48.5473
48.4597
47.6525
47.3332
46.3514
45.6222
44.3648
43.0086
41.2388
38.9703
36.3191
32.7233
28.6548
23.1768
17.126
9.38107
1.36126
-7.97254
-16.1774
-24.7354
-30.754
-36.016
-38.441
-40.0948
-38.5341
-34.2737
-27.4222
-17.79
-6.99929
3.14943
11.5701
18.0315
20.2545
21.6815
21.4536
22.6375
20.8232
20.4959
17.3516
17.7136
15.5645
16.2972
16.0295
16.1194
16.1909
15.9921
16.5231
16.2887
17.0902
16.5352
17.3669
16.7337
17.798
17.0934
18.1881
17.5055
18.2515
17.9885
18.2368
18.1713
18.3081
18.3653
18.4265
18.5331
18.6295
18.7743
18.9749
19.2038
19.5468
19.8406
20.3391
20.6839
21.5105
21.8663
23.2314
23.5212
25.6233
25.7923
28.7866
28.8431
32.7438
32.6938
37.9886
37.7906
44.5233
44.5645
52.6286
53.0062
62.3076
62.9514
73.843
74.3572
87.086
6.91385
-4.14193
-24.7705
-44.345
-73.9616
-104.601
-138.323
-154.716
-156.729
-134.901
-100.403
-69.7767
-45.0707
-21.3402
-3.91899
12.5509
20.9861
29.1381
36.0547
43.9998
48.6801
54.1767
53.2809
56.5091
55.6512
56.366
55.9131
56.9684
56.4504
58.0056
57.3896
58.8589
57.7052
58.5603
57.2683
57.7752
57.2438
57.1251
57.187
56.5667
56.8948
56.0836
56.4704
55.5549
55.9978
54.9562
55.4563
54.3003
54.8666
53.713
54.2685
53.3728
53.694
53.3445
53.2364
53.3722
52.9662
53.3466
52.7039
53.3104
52.4657
53.2731
52.2313
53.2247
52.0582
53.1131
52.048
52.9473
52.1882
52.7493
52.4944
52.4988
52.7395
52.3569
52.853
52.25
52.8733
52.1196
52.8304
51.9254
52.7419
51.6933
52.5876
51.5055
52.2701
51.4361
51.8506
51.4723
51.3493
51.3797
51.0164
51.1782
50.6516
50.9399
50.2803
50.645
49.8994
50.2607
49.492
49.7396
49.0083
49.0364
48.3248
48.0874
47.2965
46.6971
45.7049
44.5833
43.1935
41.2934
39.1243
35.9761
32.4166
27.3728
21.714
14.1571
5.92173
-4.10066
-14.1114
-24.184
-32.4955
-38.4235
-41.6918
-44.1547
-43.3477
-39.915
-33.6245
-23.7686
-11.8663
1.41365
11.756
21.8401
23.7339
25.5359
23.0825
23.5083
20.268
19.864
15.4892
15.5167
15.2934
15.79
16.5872
15.9904
16.2079
15.4617
16.4039
16.3159
17.2492
16.4727
17.0382
16.4572
17.5935
17.0158
17.9235
17.211
17.829
17.6402
17.8413
17.8426
17.8483
17.932
17.8955
18.0677
17.9839
18.174
18.1084
18.3603
18.4247
18.6693
18.9524
19.1511
19.7146
19.857
20.8607
20.8733
22.5379
22.3583
24.7941
24.4565
27.5461
27.0966
31.4976
30.897
36.471
36.373
43.0944
43.784
51.4805
52.315
61.8864
62.3828
74.4515
17.6205
5.79266
-11.0849
-29.3982
-55.5804
-82.1125
-117.199
-140.152
-153.124
-138.517
-111.074
-83.9419
-58.144
-33.9069
-12.5217
6.39201
18.3922
26.6474
33.2208
41.9002
48.5437
54.7846
57.1254
57.7812
58.4951
58.6685
58.5463
59.5282
58.7236
59.7417
58.8972
59.8735
58.8478
59.3961
58.1401
58.2574
57.5013
57.2999
57.3216
56.774
57.0254
56.287
56.6046
55.7342
56.1341
55.1127
55.5671
54.3838
54.9439
53.6753
54.2722
53.2485
53.6295
53.2536
53.1695
53.2949
52.8959
53.3259
52.6118
53.332
52.3715
53.2884
52.1458
53.2143
51.9798
53.094
51.9555
52.928
52.0957
52.7194
52.442
52.4534
52.7386
52.309
52.9273
52.1884
52.9737
52.0784
52.9456
51.8885
52.8652
51.6523
52.691
51.4741
52.3415
51.4146
51.8907
51.503
51.3345
51.4949
50.9888
51.3767
50.6706
51.2028
50.3691
50.9783
50.101
50.6995
49.8608
50.3377
49.5945
49.842
49.2112
49.1872
48.6018
48.21
47.5396
46.6589
45.6844
44.1064
42.4814
39.801
36.86
32.277
26.9994
19.4251
10.7689
-0.476744
-11.7786
-24.9002
-35.4728
-44.481
-49.1816
-54.4176
-56.611
-54.6412
-49.6966
-39.2293
-24.492
-8.70933
6.65981
20.7539
27.1173
27.1042
26.6129
28.8152
27.0747
25.0275
19.4566
16.9423
13.1789
15.4414
15.5414
16.5151
16.2142
15.5803
15.565
15.9418
17.1865
16.6426
17.332
16.1364
17.4927
16.7998
18.2181
17.3796
18.1439
17.7079
18.0003
17.913
17.9002
17.9832
17.7657
17.9427
17.7576
17.865
17.7442
17.9717
17.9027
18.2233
18.1359
18.3981
18.5737
18.7625
19.412
19.4365
20.7634
20.4136
22.6201
22.0356
24.6242
23.733
27.7457
26.3747
31.2464
30.3392
36.2144
35.753
42.7306
41.9267
50.7527
49.8178
61.6777
23.741
12.0048
-2.10501
-16.8833
-40.0499
-61.8775
-91.3657
-113.031
-129.615
-127.509
-111.037
-86.3158
-63.0158
-38.6549
-18.3083
0.578892
12.7638
23.2894
29.8591
38.0171
43.9127
50.7772
53.3281
55.1849
54.2312
56.4476
55.3521
57.2689
56.1498
58.1628
57.6994
59.3107
58.2407
59.0637
57.9411
58.2798
57.5319
57.3007
57.4772
56.7728
57.1896
56.2769
56.8602
55.7964
56.3975
55.2458
55.8434
54.5551
55.1332
53.8738
54.402
53.3569
53.7599
53.2811
53.2354
53.3968
52.9096
53.4964
52.5846
53.5336
52.3287
53.5031
52.1016
53.3915
51.9297
53.2165
51.907
52.9879
52.08
52.7258
52.4826
52.4294
52.8337
52.2947
53.0436
52.2066
53.1368
52.092
53.1249
51.9215
53.0521
51.7061
52.8514
51.5878
52.5046
51.5625
52.0421
51.6904
51.4821
51.7122
51.0923
51.626
50.7652
51.5051
50.4504
51.2711
50.2266
50.989
50.0388
50.6276
49.8601
50.1612
49.6026
49.6092
49.1771
48.8605
48.4342
47.7333
47.1175
45.8588
44.7163
42.5433
40.2953
36.4657
32.0823
25.2789
17.2012
5.73823
-6.72007
-21.3518
-35.0044
-43.9109
-48.0922
-52.8218
-56.9096
-57.7169
-56.1141
-49.1497
-35.3518
-15.4396
1.23886
23.2485
33.8152
33.8624
25.0274
25.7315
24.8073
24.5072
17.8983
15.3261
13.4979
14.4122
16.9367
16.71
16.1742
14.6927
15.3119
15.9577
17.6716
16.6552
16.7598
15.9015
17.3276
16.9222
17.9633
17.1084
17.6385
17.5283
17.7577
17.8735
17.5888
17.7541
17.5835
17.8448
17.5113
17.6947
17.286
17.5053
17.3502
17.5787
17.5073
17.6699
17.6722
17.7102
18.1038
17.987
18.907
18.4719
20.2047
19.5433
21.2218
20.0796
23.4089
21.5558
25.2215
24.0253
28.6463
29.0906
33.3746
34.1266
39.2258
39.6605
48.8385
29.6565
20.4516
7.06472
-5.3261
-25.8941
-44.3895
-71.0991
-91.3201
-109.796
-113.37
-106.086
-88.7236
-67.7898
-45.0162
-24.0446
-4.95602
8.74496
19.2198
28.6581
37.8701
45.1808
52.2866
55.5439
58.6775
58.1801
59.2216
58.5097
59.374
58.2109
59.102
58.3629
59.6729
58.9575
59.5139
58.3378
58.6696
57.7008
57.5979
57.5657
56.9574
57.3461
56.4659
56.9468
55.996
56.5321
55.4133
55.9777
54.7024
55.2903
53.8693
54.4735
53.2307
53.764
53.2064
53.1601
53.3702
52.7724
53.5144
52.4776
53.5732
52.2451
53.5333
52.0367
53.423
51.8686
53.2447
51.8261
53.0061
51.9871
52.7078
52.4487
52.3663
52.8513
52.2257
53.1091
52.1578
53.2734
52.0401
53.2874
51.8641
53.2276
51.6521
52.9911
51.5329
52.6047
51.5145
52.0934
51.6794
51.4927
51.729
51.0842
51.7203
50.7849
51.6014
50.5758
51.4191
50.3726
51.2687
50.2498
51.0292
50.1996
50.6688
50.1217
50.2784
49.9645
49.7687
49.569
48.9776
48.6738
47.6476
46.9534
45.2286
43.6072
40.4811
36.996
31.1811
24.1895
13.4467
1.17214
-14.5263
-30.4076
-44.8543
-49.7901
-55.9892
-61.4434
-64.2152
-63.7876
-59.5748
-47.0593
-32.5983
-13.18
10.1636
27.5564
36.363
32.4975
33.9016
33.6398
32.3467
23.7574
15.9757
8.27989
10.7094
14.1661
18.8939
17.9676
15.4584
12.749
14.4465
17.4319
18.4107
17.7802
15.1735
16.271
16.6636
18.3127
17.9339
18.0304
17.3439
17.815
17.9241
17.8992
17.7065
17.5434
17.7129
17.424
17.4915
17.0676
17.3223
16.9911
17.3915
17.0027
17.1115