/*--------------------------------*- C++ -*----------------------------------*\
| =========                 |                                                 |
| \\      /  F ield         | OpenFOAM: The Open Source CFD Toolbox           |
|  \\    /   O peration     | Version:  4.1                                   |
|   \\  /    A nd           | Web:      www.OpenFOAM.org                      |
|    \\/     M anipulation  |                                                 |
\*---------------------------------------------------------------------------*/
FoamFile
{
    version     2.0;
    format      ascii;
    class       volScalarField;
    location    "1138";
    object      p;
}
// * * * * * * * * * * * * * * * * * * * * * * * * * * * * * * * * * * * * * //

dimensions      [0 2 -2 0 0 0 0];

internalField   nonuniform List<scalar> 
204246
(
137.416
-10.4511
42.8023
21.8111
19.871
26.2101
15.0739
26.6289
13.7392
26.6675
13.1303
27.4142
11.6157
27.8029
12.9339
25.2227
19.4456
13.9284
26.2802
11.4883
27.5762
11.9014
26.2413
12.7031
26.1442
12.5332
27.0465
10.7612
27.9687
10.4827
27.955
10.9064
27.0143
13.3986
23.1026
19.5982
12.6945
25.2027
11.2273
24.6573
11.341
24.4223
10.6339
24.7874
8.24582
24.696
7.48035
22.6162
8.27643
18.6414
7.74919
14.3598
9.87035
1.5459
10.2243
-1.18149
5.15615
-5.91477
-0.347859
-11.8262
-5.39295
-19.678
-10.4154
-25.8844
-15.4298
-29.8481
-20.2484
-31.0564
-23.6999
-24.8953
-29.7467
-19.6873
-25.5666
-14.3866
-19.2822
-7.65177
-13.1063
0.273237
-8.65535
6.3489
-4.22329
10.5271
-0.177277
11.4814
3.33393
11.1182
9.12137
2.58474
12.8569
0.649944
12.8534
-1.42279
12.2045
-5.30814
10.6193
-7.57199
7.17004
-9.82824
3.09304
-11.8052
-1.79721
-14.783
-5.67636
-17.0882
-9.77866
-15.956
-21.7911
-12.951
-25.7054
-12.2034
-29.0429
-11.9782
-29.0933
-12.5879
-28.8879
-12.3042
-28.4855
-11.7803
-27.5587
-11.5899
-25.2856
-13.4809
-18.6609
-23.1632
-11.5858
-25.1043
-9.49171
-25.168
-8.62394
-24.8479
-8.10292
-24.4723
-7.71077
-24.1106
-7.38913
-23.3567
-7.65927
-21.4952
-9.95989
-15.1769
-20.1161
-8.57911
-22.2422
-6.83
-22.3873
-6.02866
-22.1977
-5.50859
-21.7542
-4.99234
-21.0945
-4.44204
-19.9997
-4.12196
-17.4565
-5.63751
-10.263
-14.3842
-2.3683
-14.9441
1.09662
-12.9012
3.5171
-9.24836
6.17843
-4.58726
10.054
1.16667
15.1616
8.15146
21.4696
17.1298
29.4517
28.6857
38.9417
45.4656
47.7037
61.5626
66.0965
79.4072
89.1517
102.526
116.864
131.768
151.706
169.536
197.824
220.481
264.384
293.327
381.06
396.983
604.023
44.6875
21.555
21.4417
25.4747
18.8142
23.4627
18.1297
22.5156
17.6872
22.2003
17.3612
22.3379
17.3627
21.4753
18.8362
19.3709
22.0846
16.5329
22.0294
16.7933
21.7653
17.3917
21.4308
17.2973
21.6546
16.9651
22.1689
16.5605
22.0097
16.6734
21.6462
17.1804
20.5967
18.6897
18.5526
21.5345
15.9864
20.9406
16.3502
20.3585
16.0447
20.2638
15.381
20.2648
14.514
19.2122
14.016
17.52
13.5182
15.6878
12.8714
11.6283
13.373
7.68725
7.62395
3.99103
4.1658
-0.377256
-0.99175
-6.1352
-6.56211
-12.7172
-12.8866
-18.6092
-19.2443
-23.2733
-24.5126
-25.8234
-28.3087
-24.4803
-28.8537
-23.5647
-25.0795
-19.9022
-18.7142
-13.7078
-12.2772
-6.44833
-6.33771
-0.780467
-1.10324
3.57935
3.15456
5.97355
6.35925
6.29551
9.94351
5.40396
9.93306
5.17021
9.29065
3.79793
8.17031
1.61857
5.65449
-0.697016
2.83727
-3.37888
-0.589008
-6.06096
-4.35474
-9.25778
-8.49186
-11.6294
-13.322
-12.028
-18.4543
-15.611
-21.0746
-16.8732
-22.7954
-18.1933
-23.2011
-18.6529
-23.3664
-18.4061
-23.0823
-17.9945
-22.131
-17.9929
-20.0835
-19.1474
-16.4975
-21.1522
-15.7131
-20.5429
-15.0733
-19.9544
-14.5307
-19.469
-14.088
-19.0422
-13.739
-18.5975
-13.5964
-17.8286
-13.96
-16.1954
-15.5656
-12.9826
-17.9404
-12.6433
-17.6293
-12.3124
-17.2624
-11.9007
-16.8726
-11.5247
-16.422
-11.1181
-15.8091
-10.7433
-14.7769
-10.6997
-12.6181
-11.5975
-8.76603
-12.941
-7.27372
-11.2723
-5.46689
-8.95356
-3.18605
-6.22264
-0.278196
-2.79968
3.42071
1.7123
8.15528
7.5217
13.5535
15.2648
20.4974
25.0331
28.6696
37.421
41.1085
50.1851
56.7446
66.2678
75.95
86.4106
99.4468
111.032
128.21
141.024
164.233
177.657
212.913
219.553
294.276
259.716
394.396
19.7524
27.5573
23.7899
24.9267
20.9792
23.1876
19.0062
22.5661
18.1177
22.2642
17.703
22.0918
17.6949
21.4567
18.6299
19.9453
20.4918
17.9705
21.2864
17.293
21.5997
17.276
21.546
17.235
21.6126
17.0534
21.8108
16.7841
21.8096
16.7912
21.5535
17.2
20.7409
18.2853
19.0471
19.8713
17.1872
20.2972
16.514
20.2917
16.0556
20.1606
15.5016
19.928
14.8119
19.1435
14.2402
17.6607
13.8864
15.1976
13.4753
11.9141
11.7474
8.45797
8.84996
4.96911
4.35587
0.620123
-0.8283
-4.7925
-6.76721
-11.0415
-13.3397
-17.1577
-19.7996
-22.4318
-25.2608
-25.9425
-28.5349
-26.7386
-29.1944
-25.431
-25.6341
-21.1892
-19.698
-14.7462
-12.4333
-7.63766
-5.42878
-1.51105
0.123408
3.13149
4.27752
5.94986
7.23615
6.88611
9.54219
6.70317
9.71371
5.87058
9.41487
4.39483
8.23693
2.28473
6.17176
0.0833804
3.11043
-2.36129
-0.647024
-5.02645
-4.68556
-8.18858
-8.77376
-10.8477
-13.0681
-13.2002
-17.3149
-15.8261
-20.3871
-17.1512
-22.3583
-18.151
-23.1803
-18.5623
-23.4098
-18.3688
-23.1448
-18.0167
-22.1814
-17.9585
-20.4344
-18.6308
-17.9027
-19.8717
-16.336
-20.0367
-15.2095
-19.7441
-14.4702
-19.3117
-13.9472
-18.8677
-13.5734
-18.3845
-13.4087
-17.6584
-13.697
-16.3552
-14.8503
-14.2653
-16.5542
-13.1319
-17.0731
-12.3534
-17.0376
-11.8332
-16.7577
-11.4124
-16.3359
-11.0006
-15.7176
-10.6322
-14.707
-10.5318
-12.8539
-11.0411
-9.96409
-11.6962
-7.77742
-10.8682
-5.50139
-9.01793
-3.25946
-6.11485
-0.696179
-2.22959
2.78069
2.54655
7.42408
8.5093
13.4545
15.9644
20.9572
25.4792
30.5699
37.089
42.109
51.1145
57.7242
67.96
77.6287
88.8873
102.434
114.958
133.54
147.416
173.074
187.75
227.457
235.379
311.539
290.269
379.049
3.51922
18.8913
14.9888
21.5491
17.7315
21.4388
18.5319
20.9459
18.7356
20.5567
18.8907
20.3131
19.263
19.6588
20.1047
18.7421
21.0221
18.3707
20.5278
18.6426
20.1747
18.9081
20.0615
18.8423
20.1435
18.6991
20.2373
18.6539
20.0276
18.7818
19.6716
19.1469
19.0365
19.848
18.2311
20.4393
17.8835
19.7299
18.0052
19.2946
17.7951
19.0536
17.4291
18.7282
17.0761
17.9
16.6352
16.7854
15.9789
15.3829
15.1768
13.1394
13.5351
10.575
10.062
7.29961
6.31386
3.103
1.44978
-2.18751
-4.47598
-8.35004
-11.4053
-14.904
-18.5949
-21.1149
-24.9142
-26.0196
-29.2735
-28.3732
-30.351
-28.088
-27.9583
-24.2644
-22.4806
-17.9884
-15.2557
-10.8371
-7.74686
-4.27341
-1.16585
0.925544
3.63673
4.52662
6.84017
6.44113
8.95824
7.73128
9.32358
7.54699
8.86508
6.61447
7.47147
4.97504
5.287
2.85496
2.4807
0.365223
-0.936822
-2.73925
-4.47048
-6.22422
-8.38199
-9.4439
-12.4759
-12.412
-15.9772
-16.3054
-18.9319
-18.8274
-20.6665
-20.3555
-21.6085
-20.8693
-21.9851
-20.6699
-21.7194
-20.3112
-20.7691
-20.1061
-19.2705
-20.0716
-17.7463
-19.7561
-17.4132
-19.0262
-17.0124
-18.391
-16.5852
-17.8704
-16.1948
-17.4103
-15.8822
-16.9256
-15.728
-16.2531
-15.8646
-15.2224
-16.3827
-14.0941
-16.4932
-14.1996
-16.1113
-14.1467
-15.7173
-13.9415
-15.3278
-13.67
-14.9118
-13.361
-14.3689
-13.0817
-13.5356
-12.9986
-12.1061
-12.9443
-10.5975
-12.2347
-9.80492
-10.822
-8.53265
-8.97402
-6.65641
-6.75923
-4.3162
-3.92224
-1.20403
-0.292345
2.82476
4.36571
7.74986
10.5451
14.01
18.2656
21.8397
28.0477
32.1852
39.1204
45.2361
52.5712
61.2342
69.0625
80.6493
88.9566
104.169
112.951
133.519
140.607
173.656
168.539
226.028
212.892
283.989
5.31315
19.2124
15.5394
20.5039
18.508
20.8534
19.1433
20.7365
19.2131
20.5153
19.1723
20.2239
19.3898
19.7202
19.8477
19.1535
20.217
19.0477
19.998
18.9982
19.9476
18.9483
19.9941
18.8309
20.0334
18.7401
20.0146
18.748
19.8499
18.8245
19.5766
19.0417
19.1028
19.3913
18.5644
19.5583
18.3876
19.2058
18.167
19.0773
17.8302
18.9024
17.4706
18.5879
17.2186
17.9041
16.8085
16.8193
16.1463
15.3348
15.1306
13.5558
13.4252
11.3104
10.8947
8.13942
7.25746
4.17048
2.62112
-0.871122
-3.16092
-6.94178
-10.0098
-13.7401
-17.4169
-20.6231
-24.4404
-26.4679
-29.7917
-29.9906
-31.9874
-30.1316
-30.0704
-26.3924
-24.3314
-19.5141
-16.3107
-11.4886
-8.09821
-4.2288
-1.10768
1.42323
3.99405
5.26884
7.31315
7.52923
9.28227
8.55588
9.77554
8.46768
9.32663
7.54599
8.05937
6.00056
6.00818
3.96795
3.23019
1.35579
-0.0384731
-1.8481
-3.66615
-5.36256
-7.63431
-8.93126
-11.6433
-12.4471
-15.1706
-15.8697
-18.1907
-18.7294
-20.1546
-20.3068
-21.4555
-20.8742
-22.0146
-20.8248
-21.7728
-20.5018
-20.8474
-20.1898
-19.6639
-19.7034
-18.4582
-19.0817
-17.8255
-18.5416
-17.0882
-18.0108
-16.4476
-17.4866
-15.9453
-17.0031
-15.5862
-16.5224
-15.4144
-15.9306
-15.4839
-15.1931
-15.7151
-14.5532
-15.6347
-14.4357
-15.5077
-14.1525
-15.3271
-13.8444
-15.0496
-13.5252
-14.6853
-13.2036
-14.1559
-12.9045
-13.3578
-12.8076
-12.238
-12.3987
-10.9597
-11.6753
-9.95071
-10.4354
-8.53174
-8.7518
-6.64707
-6.46608
-4.12609
-3.55909
-0.85908
0.177906
3.3004
5.05231
8.52197
11.2635
15.1434
19.1598
23.4771
28.9122
34.1368
40.8664
47.7415
55.485
64.7702
73.4029
85.8545
95.2209
111.664
121.311
143.824
151.567
185.923
182.859
232.149
220.787
265.886
2.60833
14.4435
11.8554
17.1071
16.1276
18.809
17.9554
19.4937
18.8365
19.6027
19.3332
19.5044
19.747
19.1855
20.1554
18.936
20.2865
19.1555
19.8723
19.3992
19.6361
19.5079
19.5738
19.4773
19.5644
19.4409
19.5099
19.4771
19.3319
19.5606
19.0884
19.7256
18.7925
19.8878
18.5574
19.8368
18.6967
19.3012
18.7653
19.0057
18.6274
18.7651
18.3987
18.4738
18.1153
18.0476
17.8155
17.3083
17.2627
16.2859
16.3713
14.8012
14.8652
12.7855
12.4277
10.0948
9.12499
6.40187
4.72853
1.54141
-0.95926
-4.54031
-7.96664
-11.6799
-15.9023
-19.3431
-23.8948
-26.4832
-30.5402
-31.591
-34.1137
-33.2365
-33.3157
-30.3528
-28.1319
-23.6239
-19.946
-15.0538
-10.938
-6.742
-2.96123
-0.00944545
3.05201
4.67612
6.98191
7.50984
9.18017
9.10061
9.91343
9.39396
9.65726
8.65929
8.50357
7.25098
6.57566
5.19251
4.06527
2.53122
0.994771
-0.6871
-2.61477
-4.28654
-6.70463
-8.07491
-10.9496
-11.9397
-14.9153
-15.85
-18.2072
-19.1438
-20.4909
-21.2953
-21.8118
-22.119
-22.2267
-22.094
-21.8131
-21.5931
-20.8546
-20.9066
-19.7511
-20.2418
-18.864
-19.2188
-18.3844
-18.437
-17.9272
-17.8652
-17.491
-17.3658
-17.1061
-16.8999
-16.7825
-16.4368
-16.5436
-15.9217
-16.3915
-15.3476
-16.3574
-14.9204
-15.9027
-14.9954
-15.5334
-14.956
-15.195
-14.8152
-14.8656
-14.6126
-14.5207
-14.3754
-14.0995
-14.0884
-13.543
-13.8629
-12.7618
-13.4598
-12.0684
-12.5391
-11.3425
-11.524
-10.2991
-10.1858
-8.88885
-8.48101
-6.96763
-6.31314
-4.46616
-3.46802
-1.26907
0.29269
2.79876
5.16181
7.96033
11.3515
14.5863
19.0346
23.1746
28.2965
33.9953
39.5755
47.423
53.368
63.8462
70.1001
83.8957
89.8595
108.702
111.922
142.35
135.899
177.082
174.573
215.166
5.84428
16.2613
13.153
17.2762
16.6631
18.6466
18.2266
19.3625
19.012
19.5397
19.4221
19.4921
19.6994
19.2688
19.9422
19.1402
19.9162
19.3793
19.5898
19.5166
19.4681
19.5158
19.4684
19.4463
19.4599
19.4104
19.3825
19.4491
19.2166
19.5066
19.016
19.5534
18.8026
19.5905
18.652
19.3813
18.7989
18.9701
18.7417
18.8342
18.5855
18.6618
18.3963
18.3712
18.1687
17.9299
17.8196
17.2945
17.2779
16.4362
16.4805
15.2406
15.1718
13.5822
13.1639
11.1443
10.2721
7.81416
6.27557
3.33734
0.939142
-2.48108
-5.86865
-9.6926
-13.9845
-17.9578
-22.7395
-26.3102
-30.7485
-32.9987
-35.8958
-35.9272
-36.3185
-33.6258
-31.1634
-26.2174
-21.8692
-16.3673
-11.7687
-7.05247
-3.02656
0.271532
3.38593
5.32628
7.55365
8.37565
9.8603
9.95259
10.7727
10.3386
10.5864
9.76773
9.55175
8.43271
7.76808
6.44816
5.33176
3.79437
2.276
0.611828
-1.37778
-3.04853
-5.49522
-7.03504
-9.77301
-11.1785
-13.8248
-15.1836
-17.4136
-18.683
-20.0507
-21.0536
-21.717
-22.1986
-22.3409
-22.3563
-22.1087
-21.8457
-21.2769
-21.0557
-20.2076
-20.078
-19.1575
-19.1204
-18.4025
-18.2088
-17.7021
-17.4698
-17.1282
-16.8356
-16.6566
-16.3373
-16.2893
-15.9333
-16.0703
-15.5342
-15.9406
-15.1074
-15.7733
-14.8513
-15.3899
-14.9108
-15.0606
-14.8137
-14.8114
-14.6262
-14.5582
-14.3686
-14.2902
-14.1147
-13.9119
-13.844
-13.3669
-13.525
-12.6804
-13.0386
-11.9275
-12.3691
-11.131
-11.3143
-10.0454
-9.9296
-8.5352
-8.15282
-6.49598
-5.86909
-3.85111
-2.88892
-0.515419
1.03241
3.74197
6.06669
9.19059
12.4281
16.1579
20.3528
25.1042
30.1186
36.4611
42.1197
50.5702
56.7665
67.867
74.3633
88.8251
94.9225
114.564
116.774
144.716
141.37
172.58
168.74
197.54
4.84899
14.4412
11.481
15.7603
15.1923
17.4163
17.2766
18.4857
18.4891
18.989
19.2268
19.1173
19.7163
19.0721
19.9702
19.1116
19.9317
19.4552
19.6041
19.6926
19.4587
19.7555
19.4038
19.7588
19.3574
19.7684
19.2752
19.7993
19.1513
19.807
19.0115
19.8337
18.8521
19.8577
18.8207
19.6123
19.0434
19.2051
19.0872
18.9875
18.9935
18.8397
18.896
18.6464
18.7456
18.3805
18.5004
17.9536
18.1269
17.276
17.4727
16.2826
16.3553
14.8416
14.5842
12.7675
11.9689
9.7784
8.25451
5.58681
3.14281
-0.0826159
-3.60841
-7.4056
-12.0155
-16.2324
-21.609
-25.778
-31.1425
-34.4251
-38.466
-39.6083
-40.7257
-38.8349
-36.609
-31.9658
-27.1606
-21.1516
-15.5616
-10.0006
-5.08357
-0.926375
2.68354
5.16362
7.53477
8.72546
10.1593
10.5195
11.2244
11.03
11.1733
10.5401
10.2561
9.30552
8.57233
7.39541
6.25879
4.89069
3.25646
1.71385
-0.339946
-2.01728
-4.55347
-6.22433
-9.12351
-10.7118
-13.71
-15.2489
-17.713
-19.1841
-20.8916
-21.9381
-22.8653
-23.3012
-23.473
-23.4214
-22.9213
-22.669
-21.8123
-21.6039
-20.5896
-20.4726
-19.5413
-19.2846
-18.8509
-18.4595
-18.3243
-17.8674
-17.8887
-17.3274
-17.4706
-16.8608
-17.0937
-16.4325
-16.8015
-15.979
-16.5493
-15.5678
-16.278
-15.3167
-15.7445
-15.3761
-15.372
-15.3467
-15.0605
-15.2152
-14.8071
-15.027
-14.5529
-14.8278
-14.2496
-14.6026
-13.8658
-14.3587
-13.3982
-13.9764
-12.9247
-13.253
-12.4638
-12.4704
-11.6854
-11.5224
-10.5829
-10.3092
-9.13059
-8.67229
-7.25131
-6.46523
-4.80251
-3.55597
-1.6074
0.225393
2.54488
5.05747
7.94661
11.1126
14.9612
18.6399
23.862
27.9287
35.0384
39.3782
48.8482
53.3494
65.8342
69.6456
87.3364
88.0369
112.624
110.715
139.163
139.075
166.096
7.80089
16.2741
12.9976
16.7311
15.9443
17.711
17.6599
18.5266
18.655
18.9472
19.283
19.0652
19.6638
19.0676
19.8168
19.1548
19.7171
19.4714
19.4429
19.6484
19.3494
19.7001
19.313
19.6894
19.2793
19.6684
19.2131
19.6794
19.0887
19.7021
18.9452
19.7058
18.7977
19.6272
18.7963
19.3331
18.9787
18.9764
18.9858
18.8496
18.9117
18.6846
18.8069
18.5019
18.6703
18.2606
18.4641
17.9195
18.1579
17.4233
17.645
16.6896
16.7593
15.5832
15.3361
13.8778
13.1784
11.3463
9.98628
7.6714
5.41721
2.47632
-0.896579
-4.62118
-9.2158
-13.7664
-19.4122
-24.5193
-30.5153
-35.1762
-40.0524
-42.6692
-44.6396
-43.7352
-41.6686
-36.819
-31.1504
-24.1391
-17.759
-11.3774
-5.86855
-1.29135
2.7764
5.58792
8.18089
9.54325
11.085
11.5235
12.3028
12.1716
12.3888
11.8423
11.6028
10.7184
10.0502
8.9371
7.79788
6.473
4.89109
3.33508
1.28287
-0.406549
-2.94274
-4.72453
-7.58441
-9.46363
-12.2976
-14.2806
-16.6977
-18.5547
-20.3275
-21.73
-22.7647
-23.502
-23.8044
-23.8822
-23.6322
-23.2174
-22.528
-22.0604
-21.1487
-20.7344
-19.8318
-19.4295
-18.7252
-18.3284
-17.8511
-17.4468
-17.24
-16.7474
-16.7337
-16.2401
-16.3688
-15.8781
-16.1622
-15.5534
-16.0226
-15.1908
-15.799
-15.0559
-15.3721
-15.1188
-15.0351
-15.0743
-14.775
-14.9471
-14.5519
-14.7771
-14.3073
-14.5759
-14.0235
-14.3239
-13.6662
-14.0507
-13.2312
-13.6589
-12.776
-13.0485
-12.2076
-12.2828
-11.3622
-11.2858
-10.2439
-9.96923
-8.75387
-8.25117
-6.79212
-5.99725
-4.26546
-3.03229
-0.985585
0.796587
3.26825
5.66168
8.7714
11.7844
15.8627
19.3853
24.9089
28.7829
36.1674
40.2979
49.9446
54.124
66.7365
69.9384
86.8656
87.2001
108.869
106.517
129.296
128.15
149.575
7.51922
15.851
12.1947
16.4028
15.1821
17.2934
17.075
18.1459
18.3084
18.6688
19.1216
18.9203
19.5865
19.0654
19.8004
19.2218
19.7541
19.5527
19.5204
19.7633
19.4428
19.8565
19.3671
19.8929
19.3208
19.8912
19.2787
19.8929
19.1791
19.9008
19.066
19.9054
18.9419
19.8226
18.9953
19.5511
19.1888
19.2205
19.2335
19.0794
19.2008
18.9536
19.1581
18.8307
19.0928
18.6886
18.9731
18.453
18.7829
18.0783
18.3925
17.5065
17.6739
16.5995
16.4841
15.1857
14.6095
13.0075
11.7604
9.71401
7.5628
4.87001
1.56279
-2.02149
-6.68923
-11.3318
-17.346
-22.9037
-29.7974
-35.6241
-42.2017
-46.5655
-50.2311
-50.4452
-48.9219
-44.2794
-38.4749
-30.7365
-22.8927
-15.0742
-8.15428
-2.15726
2.46537
5.9652
8.63183
10.3216
11.6773
12.3106
12.9175
12.8793
12.9867
12.5619
12.1652
11.4501
10.7237
9.74519
8.62055
7.44453
5.85131
4.44352
2.35954
0.711372
-1.87384
-3.7511
-6.73671
-8.79382
-11.9693
-14.1655
-16.9928
-19.0646
-21.3407
-22.8603
-24.2505
-24.9869
-25.323
-25.2986
-24.6655
-24.2193
-23.0995
-22.5778
-21.455
-21.0102
-20.0566
-19.6256
-19.0615
-18.6296
-18.4908
-18.0102
-18.0591
-17.4573
-17.6203
-16.937
-17.2151
-16.4601
-16.8854
-16.0423
-16.6048
-15.6782
-16.2549
-15.4978
-15.7177
-15.5281
-15.3508
-15.4814
-15.0922
-15.3554
-14.867
-15.2335
-14.6398
-15.0798
-14.4207
-14.8945
-14.1682
-14.6794
-13.8988
-14.3549
-13.6481
-13.8607
-13.278
-13.3481
-12.7131
-12.6784
-11.9606
-11.7887
-10.9357
-10.6006
-9.5595
-9.00326
-7.74343
-6.86584
-5.32385
-4.04757
-2.11723
-0.404546
2.10282
4.23232
7.62749
10.104
14.7371
17.4633
23.7668
26.6601
35.0742
37.9501
49.2008
51.3507
66.8805
66.6918
86.1529
86.5756
106.991
107.478
127.534
9.76505
17.8881
13.7116
17.6892
16.1066
18.0002
17.56
18.4451
18.5048
18.7737
19.1251
18.937
19.5209
19.0129
19.6851
19.1668
19.6183
19.481
19.3989
19.6653
19.3103
19.7485
19.2773
19.7927
19.238
19.7936
19.1845
19.8072
19.0866
19.8207
18.9609
19.8092
18.8508
19.6582
18.8982
19.366
19.0749
19.0244
19.1096
18.8986
19.0753
18.7746
19.0475
18.6545
19.0074
18.5408
18.9342
18.4126
18.8089
18.2028
18.5659
17.8633
18.0862
17.2756
17.2252
16.2635
15.8021
14.5871
13.5299
11.9078
10.0206
7.74454
4.73031
1.44621
-3.00956
-7.6888
-13.8202
-20.1216
-27.8045
-35.2615
-43.1973
-49.698
-55.1761
-57.7579
-57.7676
-53.6207
-46.922
-37.6683
-28.1667
-18.9606
-11.0367
-3.86634
2.00482
6.12557
9.36165
11.2864
12.9298
13.5154
14.3069
14.2876
14.4584
14.0768
13.8249
13.119
12.4404
11.5767
10.4057
9.31872
7.72397
6.34027
4.29306
2.64085
0.06284
-1.87411
-4.87808
-7.1749
-10.2379
-12.8687
-15.7853
-18.2879
-20.7366
-22.7391
-24.3831
-25.5275
-26.1962
-26.3247
-26.1006
-25.3938
-24.4757
-23.5839
-22.4279
-21.7467
-20.5854
-19.9401
-19.0385
-18.4085
-17.8938
-17.3143
-17.2879
-16.6489
-16.7822
-16.1294
-16.3984
-15.7985
-16.2388
-15.5615
-16.105
-15.281
-15.8434
-15.1829
-15.4196
-15.2742
-15.0736
-15.2504
-14.8283
-15.1565
-14.6336
-15.0371
-14.4371
-14.8994
-14.2237
-14.7175
-13.9835
-14.5037
-13.7407
-14.1957
-13.5213
-13.7254
-13.1634
-13.2158
-12.6045
-12.5356
-11.8692
-11.6547
-10.8758
-10.5005
-9.54126
-8.96187
-7.77776
-6.91934
-5.44996
-4.24153
-2.36925
-0.786944
1.69485
3.62285
7.00424
9.16897
13.8328
16.1519
22.4286
24.8447
33.1239
35.3576
46.3712
47.4431
61.9225
61.8307
78.1508
78.05
95.2898
95.3807
112.416
9.93998
18.0041
13.5895
17.8069
15.8102
18.1587
17.341
18.5295
18.402
18.8136
19.1153
18.977
19.5466
19.1115
19.7206
19.2807
19.6911
19.5892
19.5005
19.808
19.4186
19.9101
19.3673
19.9584
19.3425
19.9723
19.2973
19.9932
19.2104
20.0118
19.107
19.9898
19.0258
19.8384
19.0892
19.5662
19.2677
19.2445
19.3449
19.1047
19.3204
19.0051
19.3104
18.9233
19.3054
18.8499
19.2873
18.758
19.2473
18.6422
19.0797
18.4188
18.7065
17.9887
18.0222
17.209
16.8541
15.8475
14.9313
13.5701
11.8733
9.89504
7.11549
4.11362
-0.141022
-4.63382
-10.7411
-17.0835
-25.2128
-33.4979
-43.3844
-52.2688
-60.7897
-66.0147
-68.1297
-64.5255
-57.5279
-47.2908
-35.9092
-23.8536
-13.4261
-4.88439
2.16786
6.94282
10.5516
12.3677
13.977
14.4916
15.0158
14.9598
15.0744
14.6443
14.2444
13.6518
12.911
12.1437
11.1131
10.1318
8.67097
7.43971
5.4446
3.93426
1.39915
-0.560917
-3.5552
-6.03479
-9.3272
-12.1169
-15.5242
-18.3139
-21.3427
-23.6732
-25.7806
-27.1648
-27.9071
-28.1378
-27.3424
-26.7278
-24.9472
-24.0561
-22.4855
-21.7847
-20.5934
-19.9419
-19.3634
-18.7315
-18.6328
-18.0901
-18.2079
-17.5502
-17.7587
-16.9814
-17.2438
-16.3727
-16.8586
-16.059
-16.6137
-15.7467
-16.2466
-15.5534
-15.7116
-15.5827
-15.3443
-15.5395
-15.1
-15.4442
-14.8973
-15.3468
-14.704
-15.2483
-14.5309
-15.1251
-14.3544
-14.9445
-14.2305
-14.6955
-14.1567
-14.3483
-13.9105
-14.0264
-13.5349
-13.584
-13.0306
-13.0045
-12.3526
-12.2225
-11.4372
-11.1508
-10.1872
-9.68189
-8.46721
-7.70775
-6.13537
-5.11672
-3.02088
-1.75233
1.09119
2.55441
6.4989
8.01821
13.4533
14.953
22.3034
23.6244
33.5282
34.1267
46.5313
47.6258
61.8598
63.3185
78.5043
79.5954
95.4801
12.2512
20.1225
15.1134
19.2494
16.7783
19.0278
17.8831
18.9914
18.6266
19.0309
19.1307
19.0575
19.4637
19.0765
19.6206
19.1977
19.5834
19.4794
19.382
19.6944
19.294
19.7934
19.2613
19.8586
19.2375
19.8966
19.1871
19.9261
19.1059
19.94
19.0124
19.908
18.9304
19.7465
18.9685
19.4455
19.1402
19.0904
19.2131
18.9346
19.2103
18.79
19.2138
18.7223
19.2176
18.6927
19.2181
18.7033
19.2268
18.7212
19.1857
18.6999
19.0363
18.5517
18.6463
18.1395
17.8945
17.2626
16.5403
15.629
14.2376
12.7771
10.4208
7.96265
4.17055
0.0274219
-5.87731
-12.5562
-21.2048
-30.8058
-42.0243
-53.8136
-65.7183
-75.3329
-81.4252
-81.3283
-74.7987
-62.9996
-49.0905
-34.0185
-20.3534
-9.08981
0.323287
7.04005
11.3074
14.0029
15.5048
16.2833
16.7274
16.6889
16.7911
16.4727
16.1553
15.6013
14.8313
14.1556
13.0013
12.1229
10.5872
9.43685
7.43215
5.9325
3.42901
1.39893
-1.56131
-4.22635
-7.62754
-10.72
-14.3409
-17.5816
-20.94
-23.816
-26.4108
-28.2996
-29.6839
-30.1356
-29.9989
-29.0082
-27.6368
-25.8139
-24.2139
-23.1266
-21.5822
-20.4797
-19.234
-18.2903
-17.6208
-16.8765
-17.1606
-16.4959
-16.7405
-16.0399
-16.3088
-15.7147
-16.2121
-15.5945
-16.179
-15.3495
-15.9085
-15.252
-15.4774
-15.3729
-15.1227
-15.3577
-14.8923
-15.3012
-14.6987
-15.2247
-14.5404
-15.1564
-14.3758
-15.065
-14.2003
-14.9171
-14.0863
-14.6672
-14.0824
-14.3139
-13.9413
-14.0125
-13.6304
-13.5836
-13.2157
-13.0507
-12.6344
-12.3757
-11.8186
-11.4708
-10.7131
-10.229
-9.22989
-8.54113
-7.19862
-6.30289
-4.41701
-3.37094
-0.665695
0.334414
4.19857
5.15514
10.3442
11.3121
18.0796
18.9195
27.6647
28.6235
38.966
40.2287
51.9046
53.3945
66.4749
67.5319
81.6687
12.4091
20.835
15.3005
19.8063
16.9972
19.4944
18.0496
19.3988
18.7633
19.3609
19.288
19.2916
19.64
19.2645
19.766
19.3389
19.7237
19.6155
19.5027
19.851
19.3862
19.985
19.3387
20.0532
19.3077
20.0968
19.2692
20.1305
19.1999
20.1508
19.1209
20.1088
19.0695
19.9318
19.1358
19.6296
19.3205
19.2663
19.4212
19.0633
19.4138
18.9584
19.4153
18.8816
19.4422
18.8378
19.482
18.833
19.5586
18.9476
19.514
19.0302
19.3972
19.0026
19.1404
18.7815
18.6086
18.1679
17.5654
16.8901
15.7043
14.5423
12.5123
10.4403
7.11853
3.48695
-1.85994
-8.00762
-16.4998
-26.3806
-39.144
-53.0655
-68.6
-82.624
-94.3039
-98.5703
-92.5142
-78.3375
-60.4625
-42.1066
-24.9957
-11.9659
-0.110677
7.3879
13.7657
14.8555
17.5412
16.9216
17.6309
17.3066
17.0541
16.8036
16.3383
15.7457
15.0672
14.6307
13.4836
12.9222
11.5813
10.6133
8.84192
7.53029
5.18045
3.26907
0.420857
-2.22763
-5.68581
-8.94884
-12.9027
-16.5185
-20.4872
-23.9108
-27.1361
-29.6216
-31.2595
-32.2651
-31.5642
-30.8732
-28.1323
-26.4523
-23.6613
-22.7894
-21.397
-20.4425
-19.8945
-18.857
-18.6804
-17.9278
-18.2831
-17.6439
-18.0512
-16.9909
-17.1939
-16.0118
-16.7451
-15.9596
-16.6719
-15.8191
-16.274
-15.5199
-15.695
-15.5856
-15.3479
-15.5604
-15.1112
-15.4906
-14.9019
-15.4202
-14.7288
-15.3714
-14.5771
-15.3228
-14.4452
-15.1921
-14.4201
-14.9794
-14.4943
-14.7179
-14.4226
-14.543
-14.2245
-14.2721
-13.9609
-13.9141
-13.6031
-13.4547
-13.0905
-12.8732
-12.3129
-12.0659
-11.2081
-10.909
-9.71036
-9.33574
-7.65347
-7.29512
-4.82948
-4.47995
-1.19849
-0.833004
3.55155
3.91178
9.87879
10.2201
17.817
18.4956
27.6553
28.8134
39.4439
40.8317
52.9273
54.009
67.5752
14.5993
22.9554
16.8113
21.189
18.0165
20.3364
18.6446
19.852
19.0647
19.5387
19.4019
19.3188
19.6263
19.212
19.7247
19.2367
19.6465
19.4981
19.3936
19.7438
19.2685
19.8825
19.2098
19.9875
19.1867
20.0513
19.1521
20.1023
19.0947
20.1056
19.0448
20.0659
18.9942
19.9
19.0292
19.5661
19.2087
19.1678
19.3271
18.9493
19.3074
18.7632
19.2949
18.7483
19.3017
18.7455
19.3505
18.7664
19.4362
18.9229
19.5377
19.1501
19.5813
19.3546
19.5034
19.3918
19.2788
19.1417
18.6804
18.3737
17.443
16.7289
15.1021
13.5762
10.824
7.83003
3.18013
-2.3768
-10.2252
-20.0377
-32.9656
-48.9077
-68.0524
-88.9895
-109.075
-121.634
-121.454
-108.189
-87.6182
-63.9361
-39.801
-21.1825
-5.68847
6.15226
13.674
18.5638
19.3224
19.1646
19.333
19.3314
19.2018
18.8559
18.4941
17.9488
16.973
16.5111
15.3827
14.6627
13.312
12.4463
10.6508
9.39048
7.20447
5.30993
2.44679
-0.194438
-3.7962
-7.27795
-11.5018
-15.55
-20.0282
-24.0771
-28.079
-31.3315
-34.0232
-35.5535
-35.9749
-34.9877
-33.0353
-29.5026
-26.6739
-24.7032
-22.8735
-20.9602
-19.3343
-17.7658
-16.8652
-15.8288
-16.645
-16.1307
-16.6615
-16.2285
-16.2317
-15.5334
-15.9172
-15.5606
-16.1712
-15.5041
-16.0088
-15.2827
-15.5421
-15.3888
-15.173
-15.4039
-14.9349
-15.3684
-14.75
-15.341
-14.5823
-15.3252
-14.4643
-15.2998
-14.3645
-15.2004
-14.3358
-15.0305
-14.4107
-14.7856
-14.4938
-14.619
-14.4062
-14.3566
-14.2372
-14.0702
-13.9677
-13.7452
-13.5716
-13.3091
-13.0013
-12.717
-12.1896
-11.8607
-11.0071
-10.6645
-9.25255
-8.95613
-6.91734
-6.7366
-3.69547
-3.71786
0.249067
0.186301
5.45979
5.25425
12.0425
12.0012
20.1493
20.4682
29.7993
30.4224
41.3197
41.8355
54.5678
14.8245
23.9721
17.2184
22.0598
18.5946
21.0434
19.2036
20.4244
19.5528
19.984
19.7964
19.644
19.9553
19.4185
20.0106
19.3986
19.8441
19.6597
19.5233
19.911
19.3553
20.0532
19.2773
20.1612
19.243
20.2367
19.2053
20.2995
19.1466
20.3191
19.1013
20.262
19.0977
20.0745
19.1798
19.7239
19.3772
19.2773
19.5039
19.007
19.5204
18.8315
19.5191
18.7229
19.5436
18.6978
19.6164
18.7957
19.6562
19.0212
19.6829
19.296
19.7125
19.5803
19.7291
19.7562
19.6754
19.7001
19.3182
19.2043
18.4533
18.0007
16.7083
15.5756
13.3584
10.957
7.07752
2.30056
-4.6788
-13.7429
-26.153
-42.105
-62.7077
-87.1855
-115.176
-138.926
-145.027
-133.342
-108.73
-80.342
-51.3551
-29.9501
-9.66542
2.51529
16.3272
17.6077
22.3816
20.0016
20.2299
19.1939
19.0682
18.8194
18.0735
17.7395
17.0274
16.7098
15.798
15.4308
14.2519
13.5816
12.1108
11.0629
9.04588
7.4092
4.82627
2.28007
-1.11443
-4.57783
-8.96813
-13.2402
-18.1699
-22.8404
-27.5
-31.5062
-34.8165
-37.5924
-37.9893
-38.1424
-34.3798
-30.9759
-24.7082
-23.436
-22.7173
-21.5671
-20.9502
-19.3289
-18.5105
-17.0026
-17.8201
-17.7602
-18.6891
-17.0853
-17.2697
-15.2124
-16.3113
-15.564
-17.0379
-15.9065
-16.462
-15.3859
-15.6436
-15.56
-15.3969
-15.613
-15.1111
-15.5536
-14.8473
-15.4884
-14.6747
-15.4686
-14.5929
-15.4644
-14.4935
-15.3911
-14.5035
-15.2471
-14.6819
-14.9828
-14.8092
-14.9358
-14.8181
-14.7761
-14.7371
-14.5689
-14.6089
-14.3656
-14.4585
-14.1864
-14.1003
-13.8969
-13.5528
-13.3954
-12.8144
-12.635
-11.6501
-11.6591
-9.95388
-10.1371
-7.68192
-8.08226
-4.98349
-5.37548
-1.06132
-1.62765
4.02029
3.77072
10.6662
11.2092
19.0242
19.7474
29.3659
29.8633
41.9265
17.0266
26.0197
18.649
23.2338
19.5128
21.7363
19.7572
20.7699
19.861
20.0897
19.968
19.6144
20.0236
19.3428
20.0236
19.2778
19.7943
19.5545
19.4204
19.8306
19.2161
20.0036
19.1318
20.1251
19.1076
20.2243
19.079
20.315
19.0311
20.3508
19.0086
20.2934
19.0218
20.1045
19.1074
19.7241
19.3248
19.2286
19.4538
18.9037
19.4805
18.6497
19.4597
18.5931
19.4028
18.5414
19.4778
18.5804
19.5963
18.849
19.7036
19.2713
19.7967
19.7491
19.8447
20.073
19.9883
20.2521
19.9523
20.1012
19.5345
19.4029
18.424
17.7151
16.0106
14.2192
11.1422
7.27601
1.48795
-6.23263
-17.1868
-31.5244
-51.4844
-77.3943
-109.339
-142.174
-161.063
-159.104
-143.046
-108.503
-70.432
-44.8725
-20.9261
-4.10492
11.099
20.8174
21.2996
23.9244
21.8627
21.2278
21.2362
21.0119
20.7683
19.8434
18.6737
18.219
17.2511
16.764
15.6186
15.0266
13.6021
12.7203
10.9823
9.45166
7.00649
4.66062
1.29589
-2.14014
-6.7177
-11.4046
-16.9454
-22.3153
-28.0924
-33.2219
-37.7459
-41.513
-43.5558
-44.4287
-42.9843
-37.3354
-30.8058
-25.3377
-23.4972
-21.2974
-19.3918
-17.4117
-16.0337
-13.8169
-14.6483
-15.0478
-16.8395
-17.4255
-17.0402
-15.4128
-15.0084
-14.8254
-15.9356
-15.9862
-16.3684
-15.4557
-15.5324
-15.2135
-15.2149
-15.3933
-14.987
-15.4579
-14.7693
-15.3985
-14.5976
-15.3807
-14.5143
-15.4165
-14.4824
-15.3653
-14.4585
-15.2583
-14.6118
-15.0524
-14.8373
-15.0425
-14.9889
-14.8637
-15.0009
-14.7233
-14.8719
-14.605
-14.7791
-14.4857
-14.6563
-14.3925
-14.3956
-14.1726
-13.9641
-13.7888
-13.0419
-12.9359
-11.8823
-12.1362
-9.77477
-10.5354
-7.94069
-8.68536
-4.81111
-6.19399
-1.17378
-2.27111
3.73497
3.24865
10.1753
9.44902
18.2105
17.2945
29.1793
17.4159
27.2767
19.4096
24.3728
20.4348
22.5493
20.6533
21.3879
20.6581
20.5221
20.6129
19.9261
20.542
19.5444
20.3488
19.4938
19.9907
19.7644
19.5039
20.0538
19.2336
20.2239
19.1242
20.329
19.0844
20.4226
19.053
20.5115
19.0121
20.5417
19.0155
20.4749
19.073
20.2639
19.222
19.8439
19.4956
19.278
19.65
18.9526
19.6565
18.673
19.6524
18.5098
19.669
18.4932
19.6681
18.6642
19.5937
18.922
19.6373
19.2995
19.7104
19.765
19.8914
20.215
20.1415
20.5066
20.2408
20.5073
20.0553
20.0803
19.3487
18.8763
17.5759
16.1826
13.7667
10.6033
5.9034
-0.568642
-9.62163
-21.9304
-39.0533
-62.7444
-91.993
-127.146
-152.605
-159.579
-149.892
-119.275
-79.4673
-52.0303
-30.2048
-8.62723
7.22036
20.1061
20.8957
22.0277
23.1751
19.9117
19.477
20.2382
19.4294
19.4998
18.8045
18.3259
17.5275
17.3978
16.4033
16.0002
14.8278
14.0929
12.5659
11.393
9.28169
7.15636
4.11291
0.860545
-3.55187
-8.15895
-13.946
-19.7081
-25.9559
-31.5801
-36.7692
-42.165
-44.8978
-48.1674
-45.8103
-40.8069
-26.8503
-23.8946
-23.3136
-23.5763
-23.5056
-20.6226
-19.0503
-15.3303
-15.2206
-16.8931
-19.1386
-17.979
-18.1184
-14.316
-15.2095
-14.7426
-17.2523
-16.3157
-16.8169
-15.3685
-15.6105
-15.2666
-15.5561
-15.659
-15.1079
-15.5928
-14.7418
-15.5346
-14.6019
-15.5218
-14.5575
-15.5022
-14.5297
-15.4577
-14.5533
-15.2993
-14.697
-15.1255
-14.9822
-15.1132
-15.253
-15.0503
-15.2319
-14.9285
-15.1817
-14.8993
-15.2219
-14.9839
-15.1292
-14.9541
-15.039
-14.9314
-14.8961
-14.7843
-14.3385
-14.5584
-13.6522
-13.9876
-12.1855
-12.9898
-11.4994
-12.1875
-9.16737
-11.0649
-7.13635
-8.63362
-3.78494
-3.45959
0.870493
1.58152
6.7633
7.04008
16.2988
19.4205
29.0807
20.4738