/*--------------------------------*- C++ -*----------------------------------*\
| =========                 |                                                 |
| \\      /  F ield         | OpenFOAM: The Open Source CFD Toolbox           |
|  \\    /   O peration     | Version:  4.1                                   |
|   \\  /    A nd           | Web:      www.OpenFOAM.org                      |
|    \\/     M anipulation  |                                                 |
\*---------------------------------------------------------------------------*/
FoamFile
{
    version     2.0;
    format      ascii;
    class       volScalarField;
    location    "11.5";
    object      epsilon;
}
// * * * * * * * * * * * * * * * * * * * * * * * * * * * * * * * * * * * * * //

dimensions      [0 2 -3 0 0 0 0];

internalField   nonuniform List<scalar> 
204246
(
2.67089
2.85112
2.8706
2.8961
2.91878
2.93798
2.96041
2.97967
2.99894
3.01859
3.03576
3.05558
3.06855
3.09132
3.10104
3.12411
3.133
3.1447
3.17282
3.17867
3.20279
3.2106
3.23074
3.23964
3.26054
3.26715
3.28994
3.29378
3.32033
3.3266
3.34968
3.35931
3.37973
3.39253
3.40872
3.42541
3.4308
3.46367
3.46896
3.49251
3.50429
3.52397
3.53792
3.55605
3.57023
3.59059
3.60712
3.62591
3.64395
3.66127
3.6805
3.69766
3.71651
3.72309
3.76021
3.76672
3.79354
3.80728
3.82961
3.84556
3.86624
3.88228
3.90534
3.92408
3.94507
3.96561
3.98501
4.00716
4.02644
4.04845
4.05637
4.09561
4.10561
4.13622
4.15167
4.17855
4.19797
4.22253
4.24268
4.27002
4.29429
4.31941
4.34596
4.36967
4.39885
4.42267
4.452
4.4636
4.5123
4.52581
4.56565
4.58471
4.62126
4.64148
4.68094
4.70778
4.74098
4.77333
4.80498
4.83889
4.869
4.90703
4.93722
4.97558
5.00673
5.04449
5.06619
5.12698
5.14458
5.19933
5.21895
5.27695
5.30341
5.35382
5.39166
5.43577
5.47573
5.52065
5.56353
5.60864
5.6556
5.70037
5.75048
5.77889
5.85933
5.88098
5.95617
5.98356
6.05673
6.0901
6.16122
6.19838
6.26924
6.30967
6.38112
6.42451
6.49602
6.54236
6.61503
6.66414
6.71834
6.80488
6.84574
6.93064
6.97396
7.05969
7.10388
7.19161
7.23635
7.32613
7.37101
7.46285
7.50743
7.60159
7.64591
7.74273
7.78678
7.86195
7.94995
8.00345
8.09237
8.14412
8.23587
8.28531
8.38009
8.42673
8.52576
8.56868
8.67241
8.71235
8.82269
8.85878
8.9777
9.01105
9.14307
9.17067
9.29116
9.38287
9.466
9.5847
9.66325
9.81092
9.89393
10.0746
10.1736
10.3926
10.5221
10.7853
10.9596
11.2429
11.4245
11.5799
11.5999
0.442852
0.67585
0.688267
0.696681
0.708783
0.705928
0.717283
0.714631
0.72424
0.720865
0.729821
0.726136
0.734716
0.729412
0.740071
0.733863
0.744757
0.739035
0.737421
0.747724
0.741697
0.751826
0.745549
0.755795
0.752173
0.762911
0.759617
0.770308
0.765396
0.776861
0.771187
0.782655
0.776866
0.788875
0.78349
0.796793
0.795164
0.793862
0.806631
0.801453
0.813862
0.810862
0.823775
0.820881
0.833748
0.82901
0.842907
0.837504
0.851689
0.846353
0.860451
0.857711
0.873801
0.872596
0.87316
0.888555
0.883716
0.898895
0.89634
0.911987
0.909507
0.925036
0.920559
0.937111
0.931921
0.948761
0.94368
0.960407
0.958102
0.977064
0.976492
0.980547
0.997276
0.99589
1.01474
1.01311
1.03255
1.03087
1.05142
1.04857
1.06995
1.06583
1.08793
1.08403
1.10631
1.10539
1.13104
1.13262
1.1422
1.16326
1.16372
1.18905
1.18893
1.21594
1.2145
1.24267
1.24001
1.26852
1.26543
1.29584
1.29382
1.32474
1.32631
1.35788
1.35964
1.39427
1.39598
1.4213
1.44723
1.45107
1.48705
1.48844
1.52703
1.52691
1.56739
1.56754
1.61081
1.61419
1.65853
1.66298
1.70779
1.71169
1.76276
1.77069
1.80406
1.84349
1.85049
1.90418
1.91247
1.96694
1.97484
2.03363
2.04337
2.10456
2.11539
2.17972
2.19155
2.2591
2.27234
2.34638
2.36358
2.41412
2.47469
2.49061
2.56911
2.58681
2.66832
2.68685
2.77188
2.7916
2.88046
2.90165
2.99213
3.01339
3.10783
3.13054
3.23366
3.26106
3.32851
3.41279
3.43703
3.53783
3.56163
3.66308
3.68685
3.78708
3.81004
3.90839
3.92976
4.02512
4.04526
4.13733
4.15583
4.24704
4.27005
4.35606
4.37716
4.41348
4.4803
4.48424
4.54938
4.54619
4.5959
4.5859
4.62094
4.60526
4.64111
4.62924
4.76718
4.89254
5.36841
5.65049
5.7944
0.60233
0.603155
0.611051
0.613229
0.616231
0.617811
0.621325
0.623346
0.627451
0.630137
0.634216
0.637535
0.641659
0.645288
0.649453
0.653524
0.657653
0.661753
0.665102
0.670053
0.672834
0.677785
0.680866
0.685458
0.689036
0.6933
0.697102
0.701062
0.705026
0.708802
0.713023
0.716893
0.721319
0.725491
0.730184
0.73432
0.739177
0.742684
0.748149
0.751744
0.757133
0.761344
0.766549
0.77128
0.776371
0.781473
0.786507
0.792037
0.797063
0.803054
0.808272
0.814864
0.820262
0.827041
0.831877
0.839199
0.844275
0.85144
0.85729
0.864248
0.870754
0.877558
0.884561
0.891268
0.898821
0.90547
0.913565
0.920447
0.929222
0.93637
0.945379
0.951902
0.961206
0.968061
0.97716
0.984784
0.993771
1.00219
1.0111
1.01995
1.02867
1.03813
1.04687
1.05697
1.06616
1.07697
1.08667
1.09777
1.10673
1.11823
1.12752
1.1391
1.14933
1.16099
1.17174
1.1833
1.19459
1.20635
1.21835
1.23061
1.24317
1.25548
1.26856
1.28157
1.29537
1.30903
1.32285
1.33578
1.35043
1.36305
1.37843
1.39102
1.40711
1.41973
1.43656
1.4492
1.46692
1.47973
1.49808
1.51074
1.52992
1.54275
1.56351
1.57569
1.59395
1.60965
1.62457
1.64347
1.65634
1.67688
1.68816
1.71062
1.72029
1.74348
1.75257
1.77574
1.78435
1.80748
1.81578
1.83909
1.84688
1.86377
1.87796
1.88598
1.90372
1.90797
1.92489
1.9275
1.94206
1.94281
1.95496
1.95394
1.96131
1.95743
1.9617
1.9547
1.95821
1.94428
1.93735
1.93304
1.91083
1.90886
1.87821
1.87376
1.83732
1.83076
1.7896
1.78185
1.73733
1.72874
1.68124
1.67225
1.62217
1.61278
1.5638
1.555
1.50251
1.47915
1.46039
1.41944
1.41386
1.36914
1.36485
1.32322
1.32096
1.28627
1.28789
1.26963
1.27959
1.2685
1.2765
1.16405
1.12214
0.797647
0.757383
0.756304
0.758094
0.757596
0.759747
0.759631
0.76276
0.763501
0.768143
0.769607
0.775255
0.777251
0.783838
0.785875
0.793004
0.795165
0.803013
0.806792
0.811118
0.817377
0.819522
0.826636
0.828967
0.835715
0.838103
0.844646
0.84693
0.853469
0.855354
0.862062
0.863977
0.870828
0.872838
0.879717
0.881911
0.888897
0.892465
0.896217
0.902319
0.904585
0.911252
0.913694
0.920494
0.923027
0.930109
0.932423
0.939754
0.942151
0.949807
0.952577
0.960088
0.963024
0.970909
0.97511
0.9801
0.986737
0.990283
0.997898
1.00114
1.00916
1.01254
1.02088
1.02415
1.03277
1.03618
1.04519
1.04897
1.05798
1.06194
1.07105
1.0761
1.08295
1.08937
1.09508
1.10254
1.1076
1.11576
1.12037
1.12909
1.13313
1.14202
1.14606
1.15502
1.15924
1.16813
1.17248
1.1811
1.18627
1.1931
1.19912
1.20529
1.21193
1.21766
1.2247
1.22994
1.23721
1.2422
1.24959
1.25456
1.26179
1.26679
1.27371
1.2791
1.28567
1.29137
1.29717
1.30265
1.30818
1.31297
1.31874
1.32252
1.32874
1.33131
1.3377
1.33941
1.34536
1.34697
1.35206
1.35308
1.35754
1.35781
1.36178
1.36134
1.36148
1.36262
1.36059
1.3617
1.35763
1.35823
1.352
1.35204
1.34333
1.34254
1.33136
1.32963
1.3157
1.3128
1.29649
1.29267
1.27185
1.26201
1.24757
1.22847
1.21823
1.19188
1.18308
1.15216
1.14203
1.10823
1.09689
1.06028
1.04771
1.00853
0.994882
0.954145
0.940072
0.895763
0.874723
0.843289
0.811518
0.789604
0.74999
0.735159
0.693387
0.679089
0.639245
0.625933
0.589795
0.577745
0.545296
0.534797
0.506158
0.497242
0.472221
0.464777
0.442962
0.433342
0.420031
0.408279
0.400527
0.386646
0.382821
0.369005
0.365902
0.357078
0.356913
0.356757
0.370503
0.382667
0.405453
0.413053
0.418737
0.983596
0.929032
0.922677
0.920478
0.918128
0.918182
0.917212
0.91777
0.917672
0.919354
0.920109
0.92332
0.924567
0.929073
0.930398
0.935658
0.937246
0.943073
0.945872
0.949456
0.95413
0.956187
0.961569
0.963432
0.968573
0.970469
0.975337
0.977118
0.981793
0.98325
0.987874
0.989294
0.993897
0.99536
0.99985
1.00138
1.00566
1.00781
1.01042
1.01382
1.01538
1.01916
1.02065
1.02446
1.02597
1.0298
1.0312
1.03502
1.03642
1.04026
1.04179
1.04547
1.04703
1.05062
1.05243
1.05497
1.05748
1.05932
1.06226
1.06379
1.0669
1.06841
1.07159
1.07313
1.07638
1.07802
1.08142
1.08322
1.0867
1.08856
1.09186
1.09392
1.09653
1.09873
1.10101
1.10328
1.10528
1.10755
1.10927
1.11126
1.11281
1.11435
1.11576
1.11677
1.11816
1.11878
1.12007
1.12007
1.1201
1.12054
1.1199
1.12022
1.11889
1.1191
1.11671
1.11698
1.11371
1.11381
1.10963
1.10954
1.10418
1.10344
1.09768
1.0965
1.08991
1.0884
1.07954
1.07571
1.07027
1.06254
1.05892
1.04808
1.04536
1.03244
1.02918
1.0147
1.01037
0.995302
0.990151
0.973756
0.96799
0.950186
0.944025
0.923656
0.913865
0.898905
0.882918
0.87138
0.850281
0.841484
0.817201
0.80846
0.782798
0.773603
0.747044
0.737536
0.710209
0.700368
0.672729
0.662747
0.633898
0.620197
0.599024
0.579643
0.563848
0.540037
0.529153
0.50333
0.493946
0.468642
0.459723
0.435788
0.427433
0.405095
0.397433
0.377054
0.370229
0.351187
0.342554
0.330385
0.319656
0.312271
0.300402
0.296359
0.285526
0.282364
0.273653
0.27131
0.264467
0.262808
0.25774
0.256776
0.253362
0.253076
0.251157
0.251483
0.25081
0.251071
0.252951
0.253237
0.256243
0.25696
0.259966
0.260648
0.263
0.263421
0.266714
0.268041
0.275238
0.280057
0.289035
0.292655
0.295248
1.15615
1.08406
1.06953
1.05769
1.05174
1.04676
1.04374
1.04093
1.03915
1.03794
1.03689
1.03685
1.03649
1.03719
1.03697
1.03822
1.03816
1.03997
1.04075
1.04148
1.04319
1.04353
1.04537
1.04574
1.04733
1.0477
1.04901
1.04926
1.05022
1.05022
1.05092
1.05083
1.0513
1.05118
1.05145
1.0512
1.05122
1.05083
1.05026
1.05002
1.04911
1.04872
1.04772
1.04721
1.0461
1.04548
1.04423
1.04348
1.04215
1.04129
1.03995
1.03888
1.0374
1.03588
1.0342
1.03249
1.03025
1.02863
1.02592
1.02434
1.0212
1.01979
1.01616
1.01511
1.01108
1.01004
1.00576
1.00458
1.00039
0.999159
0.994288
0.991751
0.988857
0.984594
0.982666
0.977232
0.975497
0.969345
0.9674
0.960449
0.958684
0.950826
0.948781
0.940084
0.937436
0.928478
0.925404
0.914984
0.909478
0.902262
0.893575
0.887697
0.876644
0.871618
0.858531
0.854191
0.839688
0.834971
0.819638
0.814585
0.798359
0.792574
0.776169
0.769879
0.752862
0.746288
0.727478
0.718703
0.704088
0.69131
0.679355
0.662764
0.654116
0.634497
0.627432
0.606558
0.598919
0.578538
0.570624
0.550342
0.542453
0.522358
0.514571
0.493697
0.483929
0.46853
0.455054
0.443788
0.427213
0.419561
0.401696
0.395139
0.377693
0.371479
0.354998
0.349204
0.333721
0.328299
0.313977
0.309
0.295268
0.288961
0.279868
0.271772
0.265741
0.256352
0.2528
0.243433
0.240305
0.231919
0.229171
0.221777
0.219395
0.212965
0.210943
0.20541
0.203714
0.198827
0.196685
0.193997
0.19143
0.190055
0.187495
0.186785
0.184795
0.184386
0.183091
0.182991
0.182471
0.182704
0.182663
0.183757
0.184026
0.185887
0.186553
0.189147
0.190227
0.193373
0.19538
0.198891
0.201824
0.205719
0.20959
0.213943
0.218788
0.22362
0.22937
0.234549
0.240979
0.246138
0.251359
0.253674
0.254983
1.36658
1.24778
1.21195
1.17396
1.15658
1.13964
1.13142
1.12253
1.11787
1.11229
1.10885
1.10521
1.10158
1.09915
1.09525
1.09323
1.08922
1.08722
1.08372
1.08112
1.07843
1.07546
1.07316
1.06987
1.06765
1.06417
1.06179
1.05824
1.05574
1.05197
1.04935
1.04545
1.0425
1.03857
1.03515
1.03114
1.0271
1.02268
1.01876
1.01367
1.00976
1.00427
1.00032
0.994369
0.990395
0.983728
0.980108
0.972583
0.969189
0.960856
0.957352
0.948629
0.944866
0.935502
0.929946
0.922825
0.914684
0.908697
0.899173
0.893685
0.883124
0.877995
0.866418
0.861897
0.849654
0.845056
0.832533
0.827687
0.815481
0.810557
0.797922
0.791458
0.781802
0.773214
0.765145
0.75478
0.747931
0.736012
0.730104
0.716594
0.71165
0.697085
0.691926
0.67664
0.67089
0.655534
0.649389
0.632929
0.62451
0.611693
0.600042
0.589316
0.575203
0.566124
0.549543
0.542832
0.524828
0.518226
0.500077
0.493467
0.475322
0.468412
0.451023
0.444077
0.427147
0.420385
0.4031
0.395135
0.381968
0.371796
0.361465
0.349116
0.342198
0.328336
0.323271
0.309391
0.304368
0.291786
0.287001
0.275379
0.270981
0.260279
0.256267
0.245899
0.241301
0.234107
0.228326
0.223388
0.21655
0.213698
0.206698
0.204324
0.197946
0.195851
0.190182
0.188365
0.183349
0.181765
0.177384
0.176026
0.172043
0.170268
0.168002
0.165693
0.164498
0.162068
0.161335
0.159156
0.158585
0.156798
0.156375
0.154964
0.154683
0.153631
0.153487
0.152788
0.152793
0.152441
0.152369
0.152656
0.152617
0.1533
0.15344
0.154483
0.15482
0.156207
0.156747
0.158571
0.159356
0.161637
0.16268
0.165454
0.166786
0.170046
0.171677
0.175392
0.177338
0.181319
0.183919
0.188006
0.191282
0.195487
0.199323
0.203724
0.208135
0.212859
0.217832
0.222861
0.228135
0.232768
0.236765
0.238706
0.239675
1.67451
1.50064
1.42815
1.32885
1.27906
1.22836
1.20099
1.17737
1.16207
1.14938
1.13937
1.1307
1.12257
1.11549
1.10804
1.10169
1.09417
1.08757
1.0803
1.07377
1.06657
1.06001
1.0529
1.04618
1.03901
1.03203
1.02442
1.01723
1.00915
1.00209
0.993513
0.986514
0.977369
0.970474
0.960794
0.953705
0.943597
0.935173
0.926567
0.916388
0.908429
0.897506
0.889667
0.878233
0.870455
0.858315
0.850953
0.838016
0.830836
0.81712
0.809823
0.795825
0.788205
0.773602
0.7641
0.752143
0.739803
0.729174
0.715312
0.705388
0.690355
0.680993
0.664753
0.656508
0.639116
0.631826
0.614103
0.606717
0.589662
0.582357
0.565223
0.556526
0.543083
0.532329
0.521186
0.508874
0.49953
0.485837
0.478125
0.46312
0.457179
0.441558
0.435685
0.420135
0.414055
0.399134
0.393017
0.377931
0.370373
0.358708
0.349229
0.339782
0.328838
0.321336
0.308969
0.303899
0.291096
0.286387
0.274234
0.269822
0.258402
0.254105
0.243815
0.239773
0.230362
0.226677
0.217657
0.213595
0.207069
0.20234
0.197454
0.191967
0.188968
0.183072
0.181003
0.175378
0.173433
0.168597
0.166834
0.162572
0.161029
0.157267
0.155922
0.152402
0.150877
0.148588
0.146783
0.145232
0.143124
0.142341
0.140224
0.139573
0.137715
0.137169
0.135576
0.135131
0.133775
0.133416
0.13228
0.132002
0.131008
0.130585
0.130229
0.129684
0.129588
0.129127
0.129102
0.128794
0.128834
0.128717
0.128852
0.128806
0.129134
0.129171
0.129716
0.129864
0.13062
0.130887
0.131747
0.132375
0.133229
0.134211
0.135168
0.136562
0.137728
0.1395
0.140872
0.143038
0.144702
0.147306
0.149349
0.152455
0.154932
0.158544
0.161495
0.165602
0.169041
0.173536
0.177407
0.182088
0.186215
0.191056
0.195478
0.200436
0.205142
0.210192
0.215114
0.22013
0.224932
0.229259
0.232636
0.234482
0.2353
1.94676
1.87076
1.75933
1.62568
1.51248
1.40845
1.32689
1.26668
1.22016
1.18568
1.15922
1.13755
1.11962
1.10423
1.09026
1.07809
1.06567
1.05352
1.04074
1.02939
1.01631
1.00549
0.992557
0.981854
0.969239
0.9583
0.945548
0.934329
0.921406
0.910426
0.89713
0.88633
0.872636
0.862044
0.84798
0.837311
0.822922
0.810932
0.798333
0.784421
0.772544
0.757815
0.74619
0.730872
0.719453
0.703435
0.692629
0.675888
0.665521
0.648145
0.63788
0.620436
0.61005
0.592234
0.5802
0.565295
0.550685
0.537457
0.521598
0.50944
0.492742
0.481553
0.464084
0.454431
0.436307
0.428058
0.410055
0.40227
0.385381
0.37798
0.361761
0.35365
0.340968
0.331787
0.321502
0.31159
0.30344
0.292967
0.286636
0.275614
0.271129
0.260167
0.256016
0.245684
0.241646
0.232235
0.228397
0.219361
0.214915
0.208134
0.202995
0.197689
0.191996
0.187988
0.181762
0.179239
0.173035
0.170772
0.165132
0.163102
0.158012
0.156114
0.151699
0.149981
0.146078
0.144564
0.140946
0.139328
0.136808
0.134993
0.133135
0.131116
0.129984
0.127857
0.127117
0.125121
0.124446
0.122767
0.122173
0.120733
0.120233
0.118997
0.11858
0.117451
0.116973
0.116324
0.115734
0.115366
0.11474
0.11459
0.114037
0.113935
0.113522
0.113475
0.113186
0.113192
0.113033
0.113093
0.113032
0.113192
0.113182
0.113393
0.113639
0.113787
0.114243
0.114401
0.115006
0.115232
0.115972
0.116274
0.117157
0.117541
0.118572
0.119051
0.12023
0.120837
0.12217
0.122941
0.124359
0.125398
0.126858
0.128177
0.129762
0.131344
0.133073
0.13496
0.136891
0.139161
0.141375
0.144035
0.146582
0.149664
0.152647
0.15624
0.159723
0.163856
0.167879
0.172526
0.176985
0.182066
0.186922
0.192295
0.197392
0.202924
0.208065
0.213549
0.218439
0.223567
0.227773
0.231976
0.2346
0.236457
0.237141
1.89027
1.98961
1.99412
1.95106
1.85746
1.73299
1.60348
1.4849
1.38241
1.29897
1.23495
1.18291
1.14015
1.10586
1.07353
1.04654
1.02113
1.00014
0.979222
0.961276
0.941893
0.925599
0.907736
0.892439
0.875885
0.860956
0.844943
0.830158
0.813988
0.799634
0.783176
0.769193
0.752362
0.738803
0.721869
0.708509
0.691472
0.676936
0.661902
0.64573
0.631523
0.614671
0.600824
0.583574
0.570084
0.552368
0.539598
0.521502
0.509449
0.491167
0.479564
0.461624
0.450291
0.432507
0.420326
0.405369
0.391642
0.378563
0.364297
0.352566
0.3381
0.327631
0.313113
0.304297
0.289861
0.28257
0.268652
0.26237
0.249768
0.244101
0.232664
0.22701
0.218132
0.212374
0.20525
0.199522
0.193901
0.188163
0.183816
0.177961
0.174942
0.169151
0.166787
0.161401
0.159221
0.154453
0.152454
0.148018
0.145848
0.142486
0.140144
0.137438
0.134965
0.132849
0.130235
0.128762
0.126075
0.12499
0.122474
0.121513
0.11926
0.118378
0.11644
0.115654
0.113956
0.113273
0.111719
0.111014
0.109936
0.10916
0.108359
0.10754
0.107016
0.106159
0.105849
0.105045
0.104773
0.104123
0.1039
0.103365
0.103194
0.102763
0.102637
0.102265
0.102118
0.101985
0.101827
0.101805
0.101695
0.101733
0.101684
0.101774
0.101761
0.101948
0.10198
0.102269
0.102352
0.102732
0.102867
0.103337
0.103522
0.104028
0.104396
0.104885
0.105418
0.105922
0.106598
0.107147
0.107958
0.10858
0.109521
0.110242
0.111316
0.112159
0.113375
0.114362
0.115729
0.116884
0.11841
0.119845
0.121544
0.123292
0.125204
0.127253
0.12947
0.131862
0.134436
0.137182
0.140119
0.143238
0.146589
0.150153
0.153977
0.158041
0.162409
0.167007
0.171964
0.177119
0.182488
0.188167
0.193888
0.199985
0.20592
0.212249
0.218153
0.224379
0.229837
0.235463
0.239924
0.244282
0.246975
0.248866
0.249541
1.36535
1.67704
1.82134
1.93791
1.96578
1.96027
1.91303
1.81857
1.70412
1.57862
1.4633
1.35988
1.27042
1.19969
1.13471
1.08294
1.03191
0.990292
0.948079
0.913212
0.880089
0.851545
0.825397
0.801518
0.780019
0.7592
0.740414
0.721799
0.704048
0.687053
0.669617
0.653615
0.636044
0.620821
0.603555
0.589103
0.572126
0.556954
0.541822
0.525709
0.511629
0.495339
0.481768
0.465514
0.45256
0.436398
0.424114
0.407924
0.396304
0.380406
0.369406
0.354218
0.34374
0.329174
0.318645
0.30617
0.295385
0.284402
0.273897
0.264167
0.254112
0.245559
0.236068
0.228802
0.219977
0.213884
0.205748
0.200627
0.19333
0.188998
0.182411
0.178555
0.173049
0.169396
0.164557
0.161081
0.15672
0.153353
0.149457
0.146196
0.142761
0.13967
0.136683
0.133812
0.131246
0.128575
0.126351
0.123852
0.121837
0.119726
0.11792
0.116034
0.11441
0.112743
0.111267
0.109812
0.108487
0.107225
0.106042
0.104957
0.103897
0.102962
0.10204
0.101254
0.100432
0.0997765
0.0990202
0.098457
0.0978907
0.0973425
0.0969286
0.0964148
0.0961268
0.0956539
0.0954687
0.0950709
0.0949262
0.0946378
0.0945368
0.0943378
0.094282
0.0941632
0.0941472
0.0940952
0.0940928
0.0941736
0.0941949
0.0943595
0.0944122
0.0946594
0.0947589
0.0950852
0.0952438
0.0956436
0.0958682
0.0963443
0.0966284
0.0971881
0.0975342
0.0981821
0.0986047
0.0993133
0.0998714
0.100614
0.101301
0.102112
0.102922
0.103819
0.104753
0.105752
0.106816
0.107934
0.109133
0.110387
0.11173
0.113145
0.114649
0.116264
0.117945
0.119739
0.121611
0.123604
0.125705
0.127934
0.130356
0.132901
0.135714
0.138697
0.141952
0.145447
0.149209
0.153247
0.157582
0.162195
0.167156
0.172355
0.177992
0.183815
0.189896
0.19632
0.202789
0.209682
0.216379
0.223505
0.230122
0.237061
0.243066
0.249183
0.253877
0.258461
0.261105
0.263067
0.263714
0.881745
1.05167
1.20007
1.41262
1.62524
1.7947
1.88404
1.90315
1.90072
1.861
1.78849
1.69048
1.58155
1.4734
1.36571
1.27174
1.18006
1.1059
1.03434
0.969521
0.91199
0.856099
0.80953
0.762869
0.726746
0.691283
0.664749
0.637762
0.617129
0.595641
0.57795
0.559436
0.543059
0.526677
0.511632
0.497307
0.48346
0.469615
0.457175
0.443246
0.431837
0.41867
0.407929
0.395346
0.38531
0.373666
0.364374
0.353206
0.344259
0.333604
0.325023
0.314994
0.306818
0.297352
0.289457
0.28085
0.273376
0.26551
0.258753
0.25177
0.245917
0.239868
0.234856
0.229656
0.225433
0.220929
0.217496
0.213666
0.21092
0.207583
0.205337
0.202653
0.199733
0.197492
0.193744
0.19147
0.186777
0.184054
0.178329
0.175243
0.1686
0.165526
0.158612
0.15572
0.149093
0.146213
0.140162
0.137514
0.132429
0.129699
0.1256
0.12307
0.119858
0.117408
0.115068
0.112563
0.111002
0.108532
0.107453
0.105261
0.104341
0.102496
0.101692
0.100144
0.0994632
0.0981516
0.0975793
0.0965062
0.0959642
0.0951024
0.0946484
0.0939537
0.0935696
0.0930292
0.0927081
0.0923063
0.0920473
0.0917662
0.0915803
0.0914026
0.0912879
0.0912045
0.0911601
0.0911496
0.0911552
0.0912425
0.0913029
0.0914551
0.091597
0.0918049
0.0920386
0.0922937
0.0926102
0.0929275
0.0933152
0.0937132
0.0941715
0.0946533
0.0951848
0.0957418
0.096358
0.0969963
0.0977135
0.0984368
0.0992555
0.100086
0.101003
0.101959
0.10298
0.104076
0.105212
0.106463
0.107728
0.109152
0.110566
0.112182
0.113769
0.115613
0.117418
0.119502
0.121578
0.123957
0.126373
0.129065
0.131872
0.134867
0.138119
0.141464
0.14523
0.149048
0.153416
0.157816
0.162887
0.167947
0.173788
0.179539
0.186207
0.192719
0.199917
0.207181
0.214837
0.222697
0.230611
0.238787
0.246581
0.254561
0.261572
0.26855
0.273886
0.278979
0.28188
0.284004
0.284675
0.677946
0.687997
0.721247
0.809048
0.965484
1.15173
1.37386
1.55573
1.71777
1.79668
1.82352
1.8249
1.8092
1.76721
1.70201
1.62069
1.52549
1.4275
1.32606
1.22324
1.13075
1.03473
0.958124
0.876787
0.813582
0.746981
0.69854
0.648649
0.613862
0.576809
0.55205
0.524685
0.506862
0.485547
0.472192
0.455703
0.445665
0.43238
0.423845
0.412064
0.4041
0.394421
0.38732
0.379305
0.372725
0.366367
0.36057
0.355197
0.34939
0.344361
0.338739
0.334222
0.328788
0.32468
0.31997
0.315198
0.311688
0.30662
0.303912
0.299489
0.297834
0.294621
0.293877
0.292271
0.292748
0.292345
0.294061
0.294251
0.297179
0.297998
0.302138
0.304232
0.305781
0.308143
0.30818
0.309001
0.30749
0.307027
0.30184
0.29965
0.290425
0.286928
0.274672
0.269905
0.256207
0.250375
0.236256
0.230159
0.217695
0.209668
0.200133
0.191209
0.184436
0.175141
0.171076
0.162186
0.158902
0.151266
0.148528
0.141983
0.139683
0.134119
0.132012
0.127259
0.125446
0.121303
0.119804
0.116418
0.114511
0.111998
0.110046
0.108257
0.106093
0.105031
0.102888
0.102178
0.100341
0.0997055
0.098258
0.0977613
0.0966319
0.0962603
0.0954136
0.0951732
0.0946449
0.0943513
0.0941224
0.093942
0.0939302
0.0938572
0.0939493
0.0939555
0.0942548
0.0943462
0.0947899
0.0949744
0.0955526
0.0958195
0.0965266
0.0968738
0.0977171
0.0982047
0.0990883
0.0997551
0.100686
0.101546
0.102534
0.103592
0.104651
0.105913
0.107059
0.108532
0.109787
0.111487
0.112873
0.114812
0.116356
0.118571
0.120376
0.122734
0.124901
0.127473
0.130047
0.132888
0.135929
0.139137
0.142696
0.146355
0.150499
0.154698
0.159524
0.164378
0.170011
0.175631
0.182175
0.188629
0.196178
0.203575
0.211803
0.22014
0.228965
0.238051
0.247241
0.256743
0.265869
0.27518
0.283449
0.291562
0.29782
0.303598
0.306872
0.309209
0.309917
0.641137
0.536789
0.502945
0.497079
0.525831
0.595601
0.723067
0.879687
1.07495
1.26415
1.44542
1.57117
1.67319
1.72215
1.7415
1.74328
1.73492
1.70947
1.66868
1.60871
1.53782
1.4482
1.35664
1.24995
1.15288
1.04636
0.958962
0.868254
0.803213
0.732542
0.687292
0.632492
0.602269
0.562177
0.544023
0.516427
0.504085
0.485168
0.4748
0.461588
0.451821
0.442779
0.434139
0.428862
0.421784
0.419169
0.414184
0.412902
0.409482
0.408938
0.406364
0.405977
0.404008
0.40393
0.403097
0.40195
0.402307
0.401605
0.402401
0.402194
0.404156
0.404492
0.408305
0.409282
0.415292
0.417343
0.425409
0.428736
0.438232
0.442889
0.453804
0.460953
0.469528
0.478609
0.485058
0.493838
0.497117
0.502204
0.50277
0.503973
0.501503
0.500738
0.492884
0.488737
0.476375
0.469386
0.454047
0.445156
0.430015
0.416132
0.403282
0.386876
0.376372
0.358806
0.351317
0.333932
0.32741
0.311514
0.305795
0.291306
0.286263
0.273185
0.268264
0.256268
0.251713
0.240413
0.236364
0.226345
0.22026
0.212631
0.204843
0.199521
0.19
0.186544
0.176693
0.173397
0.164342
0.16098
0.152857
0.14981
0.142567
0.13988
0.133581
0.131388
0.126409
0.123615
0.120176
0.117529
0.115365
0.112595
0.111688
0.109266
0.108659
0.106955
0.106511
0.105438
0.105219
0.104638
0.104644
0.104434
0.10464
0.10474
0.105134
0.105572
0.10608
0.106852
0.107441
0.108526
0.109214
0.110574
0.111396
0.113012
0.113994
0.115867
0.117035
0.119183
0.120562
0.123015
0.124728
0.127316
0.129478
0.13226
0.134913
0.137939
0.141163
0.144531
0.148384
0.152212
0.156763
0.161189
0.166535
0.171693
0.177983
0.184018
0.191406
0.198438
0.207083
0.215295
0.224858
0.234284
0.244689
0.255106
0.266082
0.277112
0.288166
0.299154
0.30933
0.319084
0.326819
0.333859
0.337692
0.340498
0.341297
0.646598
0.503941
0.417392
0.335462
0.317115
0.315939
0.340978
0.395053
0.488937
0.60994
0.76426
0.922925
1.09891
1.24904
1.39155
1.48481
1.56634
1.60997
1.64867
1.66799
1.67344
1.6716
1.65993
1.63164
1.59071
1.52945
1.45851
1.37091
1.28507
1.18841
1.10846
1.01874
0.955946
0.881666
0.839882
0.783085
0.75703
0.71893
0.694211
0.671412
0.647525
0.633733
0.612866
0.604139
0.588184
0.582772
0.571552
0.568787
0.561496
0.560514
0.555929
0.555514
0.552392
0.552435
0.551396
0.549856
0.550793
0.550035
0.551572
0.551342
0.554504
0.55511
0.560803
0.562279
0.570571
0.573352
0.584098
0.588396
0.600778
0.606659
0.620753
0.629856
0.641811
0.653795
0.664054
0.677176
0.685185
0.697131
0.701872
0.709547
0.711148
0.713811
0.712486
0.712698
0.708016
0.705078
0.696065
0.690606
0.680601
0.669792
0.660648
0.647126
0.638841
0.624169
0.617482
0.602599
0.597207
0.583316
0.578723
0.565991
0.562042
0.550307
0.546231
0.535067
0.531195
0.52006
0.516563
0.506497
0.498772
0.491335
0.479942
0.474507
0.459593
0.454654
0.437556
0.431872
0.413548
0.406476
0.387155
0.379504
0.359342
0.351346
0.330846
0.323009
0.304033
0.292166
0.277375
0.262744
0.252217
0.235184
0.22861
0.211969
0.20619
0.191935
0.186621
0.174829
0.170463
0.160833
0.157555
0.149675
0.147297
0.14192
0.138935
0.135881
0.133429
0.131942
0.129963
0.129558
0.128318
0.128326
0.127933
0.128343
0.128327
0.129556
0.129871
0.131683
0.132343
0.134724
0.135912
0.138371
0.140318
0.142896
0.145587
0.14836
0.151821
0.1549
0.159156
0.162682
0.167792
0.171928
0.177973
0.182896
0.190035
0.195935
0.204368
0.211438
0.221402
0.229974
0.24109
0.251321
0.263556
0.275249
0.288294
0.301071
0.314336
0.327556
0.339952
0.352261
0.361749
0.371066
0.375608
0.379222
0.380208
0.615708
0.473847
0.375989
0.258419
0.203181
0.157983
0.151707
0.15388
0.172533
0.209033
0.269461
0.34845
0.452874
0.566054
0.699862
0.826121
0.968648
1.08655
1.20617
1.31044
1.38796
1.46112
1.50732
1.55742
1.58432
1.60861
1.61441
1.61393
1.60388
1.58162
1.5496
1.50583
1.45881
1.40063
1.34849
1.28732
1.24
1.18793
1.14132
1.10345
1.0608
1.03325
0.995397
0.973594
0.939035
0.922002
0.892858
0.881811
0.859159
0.851489
0.834354
0.828431
0.815175
0.810837
0.801638
0.794695
0.790764
0.783543
0.781661
0.776169
0.775581
0.773086
0.774611
0.773631
0.777924
0.778151
0.785902
0.788129
0.797966
0.801682
0.813322
0.820163
0.829354
0.839429
0.847331
0.858978
0.865663
0.877288
0.882236
0.891109
0.893612
0.898301
0.89828
0.899328
0.897258
0.896365
0.891014
0.887893
0.881436
0.873735
0.867501
0.857725
0.851817
0.841671
0.836989
0.827399
0.824214
0.816423
0.81457
0.809302
0.808887
0.806007
0.806351
0.805313
0.806758
0.806317
0.809372
0.810517
0.811329
0.814118
0.814
0.816804
0.815721
0.817383
0.815092
0.816158
0.811827
0.811461
0.80371
0.801751
0.790292
0.786439
0.77119
0.76598
0.749815
0.735448
0.721424
0.699738
0.687148
0.658131
0.64684
0.613608
0.601074
0.566126
0.551752
0.516416
0.501839
0.466946
0.453218
0.418181
0.40512
0.374577
0.357187
0.334285
0.314225
0.298423
0.276878
0.267544
0.247563
0.240456
0.224117
0.218654
0.205959
0.201995
0.192601
0.189963
0.183479
0.182002
0.178831
0.176786
0.176598
0.175875
0.176514
0.176807
0.179346
0.180099
0.184111
0.18567
0.190935
0.193406
0.199894
0.203475
0.211281
0.215949
0.225236
0.231172
0.242242
0.250128
0.262277
0.272657
0.286028
0.298842
0.313236
0.3282
0.343115
0.359536
0.373971
0.390358
0.401914
0.414758
0.420781
0.425528
0.426827
0.539749
0.411848
0.286997
0.176371
0.122037
0.0629169
0.0437752
0.0370905
0.0370013
0.0403535
0.0503366
0.0673416
0.0944681
0.129643
0.179687
0.235101
0.309684
0.38435
0.474647
0.573119
0.669117
0.783694
0.878511
0.997235
1.08475
1.19406
1.26024
1.34363
1.38464
1.44049
1.46259
1.49325
1.50457
1.51435
1.51441
1.51162
1.50312
1.49216
1.47505
1.46058
1.44085
1.42509
1.40469
1.38678
1.36282
1.34189
1.31384
1.29467
1.26588
1.24999
1.22282
1.21002
1.18568
1.17499
1.15597
1.14096
1.12939
1.11326
1.10563
1.09086
1.08536
1.07306
1.06941
1.05967
1.05804
1.05204
1.05246
1.0499
1.05119
1.05025
1.05304
1.05442
1.0551
1.05802
1.05815
1.06156
1.06173
1.06475
1.06464
1.06644
1.06493
1.0653
1.06164
1.06071
1.05487
1.05178
1.04417
1.03955
1.0319
1.02383
1.01668
1.00711
1.00043
0.990961
0.985465
0.976677
0.972987
0.966521
0.964597
0.961794
0.962077
0.961777
0.964131
0.96595
0.971362
0.97535
0.983368
0.989724
0.997286
1.00644
1.0143
1.02543
1.03319
1.04577
1.05331
1.06665
1.074
1.08704
1.09407
1.10664
1.11295
1.12492
1.13
1.14184
1.14743
1.15388
1.16123
1.16361
1.16996
1.16992
1.17368
1.17145
1.1731
1.16669
1.1657
1.15272
1.14857
1.12906
1.12206
1.09442
1.08465
1.05614
1.03046
1.00511
0.9675
0.943673
0.895502
0.873722
0.819804
0.797905
0.742459
0.72064
0.665606
0.643964
0.590263
0.569368
0.519148
0.499925
0.458819
0.434672
0.406301
0.380753
0.363189
0.338851
0.329917
0.310231
0.304418
0.291105
0.28806
0.280724
0.280054
0.277931
0.279348
0.280019
0.285688
0.287277
0.29589
0.300092
0.309011
0.317338
0.327191
0.339583
0.350933
0.366976
0.380526
0.399842
0.414748
0.43606
0.450374
0.468406
0.476922
0.483504
0.485299
0.393268
0.317798
0.156557
0.0838539
0.0402617
0.0170847
0.00877809
0.0056735
0.00502193
0.00499496
0.00568224
0.00728025
0.010416
0.0149406
0.0224847
0.0316206
0.0460752
0.0620364
0.0840604
0.113252
0.143272
0.187012
0.2257
0.285141
0.335483
0.411836
0.474428
0.568074
0.639459
0.746352
0.816478
0.924847
0.986157
1.08542
1.13229
1.20798
1.24054
1.29145
1.32229
1.35144
1.38184
1.40033
1.43007
1.44593
1.47253
1.48417
1.50073
1.50718
1.5106
1.51084
1.50888
1.50525
1.49823
1.49113
1.48177
1.46907
1.46111
1.44613
1.43943
1.4248
1.41884
1.40436
1.39877
1.38404
1.37899
1.36559
1.36138
1.34973
1.34565
1.33503
1.33111
1.32276
1.31446
1.3074
1.29671
1.28998
1.27831
1.27151
1.25949
1.25271
1.23993
1.23304
1.21973
1.21221
1.19848
1.18951
1.17547
1.16553
1.15253
1.14021
1.1285
1.11534
1.10457
1.09186
1.08252
1.07091
1.06354
1.05383
1.0486
1.04183