/*--------------------------------*- C++ -*----------------------------------*\
| =========                 |                                                 |
| \\      /  F ield         | OpenFOAM: The Open Source CFD Toolbox           |
|  \\    /   O peration     | Version:  4.1                                   |
|   \\  /    A nd           | Web:      www.OpenFOAM.org                      |
|    \\/     M anipulation  |                                                 |
\*---------------------------------------------------------------------------*/
FoamFile
{
    version     2.0;
    format      ascii;
    class       volScalarField;
    location    "11.5";
    object      k;
}
// * * * * * * * * * * * * * * * * * * * * * * * * * * * * * * * * * * * * * //

dimensions      [0 2 -2 0 0 0 0];

internalField   nonuniform List<scalar> 
204246
(
2.03092
2.11661
2.131
2.13874
2.15469
2.15998
2.17437
2.18031
2.19312
2.19921
2.21099
2.21707
2.22755
2.23352
2.24321
2.24924
2.25857
2.26418
2.27253
2.28044
2.28677
2.29567
2.3008
2.30874
2.31493
2.32179
2.32883
2.33514
2.34237
2.35062
2.35615
2.36599
2.37021
2.38156
2.38455
2.39612
2.39943
2.40931
2.41719
2.42347
2.43277
2.43801
2.44831
2.45278
2.464
2.4678
2.48094
2.48396
2.4978
2.50092
2.51364
2.51746
2.53
2.53382
2.5449
2.55357
2.56077
2.57101
2.57697
2.58821
2.59337
2.60552
2.60994
2.62417
2.6276
2.64265
2.64619
2.66019
2.6645
2.67843
2.68281
2.69492
2.70358
2.7127
2.72377
2.73118
2.74398
2.75031
2.76434
2.76996
2.78671
2.79129
2.80902
2.81384
2.83083
2.83655
2.85359
2.85949
2.87475
2.88504
2.89736
2.91002
2.92084
2.93496
2.94494
2.96284
2.97007
2.99028
2.99673
3.0176
3.02431
3.04485
3.05249
3.07314
3.08107
3.10247
3.11033
3.13021
3.14233
3.15958
3.17359
3.18988
3.20774
3.22143
3.24247
3.25422
3.27642
3.28801
3.31135
3.32285
3.34778
3.35898
3.38512
3.39614
3.42114
3.43613
3.45873
3.47598
3.49755
3.51712
3.53766
3.55868
3.57889
3.60115
3.62122
3.64471
3.66469
3.68915
3.70931
3.73479
3.75501
3.77994
3.80233
3.82637
3.84954
3.87372
3.89733
3.92183
3.94563
3.97058
3.99443
4.01983
4.04356
4.0695
4.09313
4.11958
4.14325
4.16987
4.19289
4.21976
4.24282
4.26906
4.29283
4.31825
4.3428
4.36725
4.39283
4.41616
4.44321
4.46539
4.49439
4.51528
4.54688
4.56687
4.60254
4.62064
4.66087
4.68267
4.71932
4.74958
4.78465
4.82402
4.8605
4.91007
4.95166
5.01287
5.0641
5.13818
5.20353
5.28269
5.34966
5.38772
5.40428
1.4091
1.36842
1.37099
1.37708
1.38243
1.38437
1.39181
1.39396
1.40149
1.40354
1.41096
1.41285
1.41961
1.42082
1.42784
1.42865
1.4358
1.43703
1.4385
1.44362
1.44392
1.44913
1.44917
1.45477
1.4555
1.46092
1.4618
1.46693
1.46733
1.47274
1.47305
1.47859
1.47888
1.48471
1.48525
1.49235
1.49429
1.49591
1.50159
1.50245
1.50948
1.51103
1.51835
1.52012
1.52743
1.52875
1.53648
1.53787
1.54604
1.5476
1.55677
1.55924
1.56929
1.57269
1.57739
1.58561
1.58796
1.59829
1.60139
1.61195
1.61526
1.62573
1.62853
1.63936
1.6422
1.65332
1.65632
1.66836
1.67226
1.68508
1.68994
1.69744
1.70849
1.71305
1.72597
1.73068
1.74427
1.74918
1.76332
1.76818
1.78243
1.78723
1.80227
1.80738
1.82371
1.82989
1.84751
1.85489
1.86719
1.88162
1.89056
1.90821
1.91571
1.93515
1.94269
1.96246
1.97007
1.99066
1.99846
2.02046
2.02903
2.05201
2.06169
2.08561
2.09584
2.12124
2.13212
2.15386
2.17276
2.19017
2.214
2.22768
2.25499
2.26709
2.29658
2.30928
2.34111
2.35481
2.38786
2.40259
2.43674
2.45207
2.48897
2.50601
2.53795
2.56396
2.59206
2.623
2.65017
2.684
2.71084
2.74868
2.7756
2.81623
2.84404
2.88707
2.91636
2.96164
2.99312
3.04099
3.07605
3.11845
3.16307
3.20418
3.25144
3.29524
3.34417
3.39093
3.4415
3.49151
3.54385
3.5973
3.64998
3.7075
3.76138
3.82372
3.88115
3.94775
3.99962
4.07487
4.13084
4.20108
4.268
4.3328
4.40933
4.46886
4.55282
4.60847
4.69648
4.75071
4.83863
4.89426
4.97476
5.03356
5.11711
5.17435
5.25625
5.29562
5.3895
5.42533
5.51485
5.54718
5.63212
5.66108
5.74294
5.76905
5.85761
5.8888
6.05534
6.20023
6.61481
6.87154
6.98034
2.13276
1.97809
1.97357
1.97658
1.97076
1.97503
1.97268
1.97936
1.97886
1.98948
1.99025
2.00287
2.00428
2.01821
2.01831
2.03281
2.03268
2.04865
2.05515
2.05489
2.0668
2.06582
2.07733
2.07686
2.08663
2.08629
2.09528
2.09469
2.10419
2.10238
2.11183
2.1101
2.11971
2.11809
2.12746
2.12636
2.13616
2.14112
2.13948
2.14878
2.14782
2.15642
2.15592
2.16497
2.16464
2.17525
2.1741
2.18511
2.18414
2.19582
2.19578
2.20699
2.20754
2.22073
2.22718
2.22729
2.24018
2.24074
2.25312
2.25442
2.26712
2.26867
2.28259
2.28314
2.29795
2.2987
2.31417
2.31603
2.33043
2.33284
2.34864
2.35636
2.36035
2.373
2.37522
2.38917
2.39166
2.406
2.40868
2.4238
2.42544
2.44126
2.44311
2.45976
2.4628
2.47875
2.48247
2.49986
2.50843
2.51497
2.52927
2.53313
2.54958
2.55387
2.57123
2.57474
2.59286
2.59673
2.6156
2.61998
2.63924
2.64442
2.66292
2.66883
2.68788
2.69417
2.71485
2.72392
2.73603
2.7515
2.75826
2.7773
2.7833
2.80298
2.80929
2.82936
2.83641
2.85577
2.86303
2.88255
2.88996
2.91021
2.91822
2.93868
2.94835
2.96251
2.97645
2.98668
3.00363
3.01139
3.02924
3.03727
3.05459
3.06264
3.07912
3.08712
3.10275
3.11078
3.12595
3.13426
3.14814
3.15485
3.16569
3.17155
3.18046
3.18506
3.19243
3.19389
3.19934
3.19816
3.20056
3.19674
3.19722
3.18618
3.18612
3.169
3.16763
3.141
3.12799
3.11217
3.07906
3.0699
3.02393
3.01153
2.95755
2.94216
2.88151
2.86397
2.79825
2.77887
2.70862
2.68802
2.61406
2.59282
2.51903
2.49876
2.41991
2.38333
2.34738
2.2848
2.26935
2.1992
2.18506
2.11768
2.10583
2.0466
2.03992
1.99985
2.00407
1.97796
1.98315
1.84971
1.80021
2.91882
2.72623
2.7117
2.71129
2.69923
2.6998
2.69121
2.69184
2.68817
2.69088
2.68916
2.69379
2.69296
2.70045
2.69937
2.70788
2.70702
2.71651
2.72055
2.72038
2.72828
2.72718
2.73432
2.73359
2.73942
2.73881
2.74398
2.74311
2.74831
2.74641
2.75124
2.74932
2.75417
2.75236
2.75694
2.75553
2.75946
2.76168
2.75999
2.76401
2.76261
2.76605
2.765
2.76872
2.7678
2.77242
2.77091
2.77565
2.77425
2.77932
2.7786
2.78332
2.78293
2.7882
2.79094
2.79031
2.7956
2.79515
2.80011
2.80004
2.80539
2.80554
2.81165
2.81134
2.81768
2.81751
2.82436
2.82493
2.83138
2.8323
2.83876
2.84198
2.84336
2.84818
2.84873
2.85386
2.85449
2.85949
2.86016
2.86509
2.86521
2.86992
2.86995
2.8745
2.87489
2.87883
2.87941
2.88291
2.88463
2.88461
2.88687
2.88687
2.889
2.88901
2.89098
2.89077
2.89226
2.89202
2.89314
2.89293
2.89356
2.89331
2.89344
2.8931
2.89309
2.89235
2.89198
2.89087
2.88879
2.88754
2.88492
2.88323
2.88
2.87768
2.87386
2.87097
2.8664
2.86312
2.85754
2.85356
2.8472
2.8418
2.83543
2.82712
2.81848
2.81047
2.79818
2.79083
2.77404
2.7676
2.74664
2.73978
2.71528
2.70727
2.67901
2.66972
2.63716
2.62622
2.58989
2.57766
2.53359
2.51203
2.4804
2.44204
2.41903
2.36836
2.34894
2.29109
2.26974
2.20785
2.18474
2.11902
2.09411
2.02484
1.99832
1.92694
1.89968
1.82303
1.78596
1.72717
1.67443
1.62922
1.56385
1.53112
1.45927
1.43165
1.36043
1.33436
1.26857
1.24455
1.18474
1.16331
1.10979
1.09106
1.04366
1.0275
0.985165
0.965975
0.938147
0.915132
0.896913
0.870461
0.858941
0.831908
0.823376
0.804583
0.801679
0.7976
0.811949
0.829002
0.858998
0.868645
0.875899
3.5207
3.36133
3.33384
3.31875
3.30219
3.29369
3.27952
3.27265
3.26132
3.25705
3.24754
3.24552
3.23803
3.23792
3.23106
3.23177
3.22579
3.22677
3.22507
3.22073
3.22169
3.21643
3.2172
3.21219
3.21221
3.20687
3.20661
3.20071
3.20049
3.19329
3.19291
3.18537
3.18479
3.17724
3.17645
3.1688
3.16707
3.16175
3.15539
3.15353
3.14557
3.14333
3.13564
3.13336
3.12582
3.12381
3.11579
3.1138
3.10581
3.10375
3.09617
3.09365
3.08609
3.08332
3.07704
3.07105
3.06691
3.05923
3.05586
3.04788
3.04454
3.03675
3.03355
3.02571
3.02253
3.01496
3.01179
3.00472
3.00146
2.9944
2.99082
2.98449
2.97871
2.97305
2.96621
2.96078
2.95321
2.94772
2.9396
2.9338
2.92496
2.91865
2.90919
2.90238
2.89264
2.88529
2.87542
2.86688
2.85658
2.84675
2.83605
2.82565
2.81387
2.80343
2.78984
2.78001
2.76402
2.75506
2.73658
2.72857
2.70759
2.69937
2.67732
2.66846
2.64504
2.63569
2.60856
2.59561
2.57404
2.55393
2.53599
2.50855
2.4955
2.46209
2.45009
2.41304
2.39925
2.36116
2.34606
2.30561
2.28951
2.2467
2.22999
2.18198
2.15851
2.12254
2.08607
2.05796
2.01138
1.98909
1.93605
1.91509
1.85926
1.83753
1.78035
1.7581
1.69982
1.67701
1.61841
1.59537
1.53464
1.50532
1.45804
1.41848
1.38087
1.33348
1.30451
1.25132
1.22957
1.17525
1.15439
1.10261
1.08286
1.03407
1.01567
0.970561
0.953814
0.911281
0.891534
0.861709
0.838225
0.817509
0.79113
0.778819
0.752988
0.743879
0.721583
0.714201
0.695711
0.689798
0.674943
0.670482
0.659005
0.655929
0.647541
0.645754
0.639818
0.637585
0.637148
0.63552
0.636361
0.635588
0.636565
0.635691
0.636346
0.635132
0.636634
0.637101
0.646448
0.652231
0.665035
0.669765
0.673564
4.09149
3.8931
3.8466
3.80287
3.7789
3.75343
3.73722
3.71794
3.70338
3.68796
3.67318
3.66071
3.64443
3.63552
3.61774
3.61103
3.59341
3.58698
3.57283
3.56158
3.55204
3.53793
3.53066
3.51527
3.50841
3.49276
3.48574
3.46996
3.46284
3.4461
3.43885
3.42172
3.41416
3.39693
3.38892
3.3716
3.36235
3.34646
3.33404
3.32026
3.30573
3.29285
3.27754
3.26489
3.24912
3.23657
3.22028
3.20766
3.19116
3.17835
3.16197
3.14857
3.13223
3.11797
3.10217
3.08656
3.07098
3.05512
3.03938
3.02332
3.00717
2.99139
2.9746
2.95958
2.94191
2.92775
2.90905
2.89573
2.87653
2.86389
2.84366
2.82882
2.81183
2.79414
2.77879
2.7587
2.74452
2.7222
2.70881
2.68356
2.67226
2.64412
2.63312
2.60306
2.59097
2.56051
2.5477
2.51486
2.49592
2.47111
2.44515
2.42378
2.39289
2.37366
2.33759
2.32203
2.28201
2.26663
2.2247
2.20878
2.16515
2.14782
2.10411
2.08589
2.04118
2.02249
1.97427
1.95125
1.91227
1.88071
1.84761
1.80842
1.78204
1.73557
1.71477
1.66398
1.64357
1.59311
1.57219
1.52197
1.50114
1.45134
1.43075
1.3794
1.35493
1.31495
1.28258
1.25135
1.2126
1.18886
1.14567
1.12791
1.08397
1.06698
1.02518
1.00916
0.969578
0.954444
0.917445
0.903356
0.86776
0.851062
0.825392
0.805013
0.786015
0.762829
0.749749
0.725359
0.715804
0.692492
0.683871
0.66291
0.655204
0.636526
0.629719
0.613174
0.607189
0.59219
0.585343
0.575325
0.567591
0.560631
0.552291
0.548177
0.540207
0.537358
0.530674
0.528512
0.523532
0.522087
0.518747
0.518011
0.516274
0.516247
0.515828
0.516827
0.517246
0.519474
0.521603
0.524538
0.528315
0.532005
0.537258
0.541671
0.548404
0.553784
0.561989
0.568167
0.577679
0.584219
0.591649
0.59463
0.596554
4.60634
4.36949
4.28887
4.19217
4.14409
4.08922
4.06058
4.02549
4.00345
3.97787
3.95563
3.93404
3.91
3.89009
3.86416
3.84479
3.81786
3.79826
3.77303
3.75036
3.7281
3.70385
3.68309
3.65795
3.63749
3.61207
3.59154
3.56635
3.54595
3.52046
3.50012
3.4746
3.45413
3.42879
3.40793
3.38268
3.3609
3.33621
3.31338
3.28865
3.26536
3.24053
3.21705
3.19184
3.16838
3.14231
3.11949
3.09231
3.06997
3.04151
3.01926
2.99007
2.96765
2.93698
2.91108
2.885
2.85426
2.83022
2.79721
2.77404
2.73951
2.71697
2.68055
2.65985
2.62142
2.60216
2.56222
2.54364
2.50416
2.4858
2.44604
2.42307
2.39165
2.36325
2.33619
2.30382
2.27978
2.2443
2.22245
2.18342
2.1645
2.12205
2.10477
2.06008
2.0416
1.99696
1.97774
1.9312
1.90631
1.86875
1.83626
1.8038
1.76578
1.73713
1.69376
1.67038
1.62217
1.60246
1.55244
1.53274
1.4828
1.46247
1.41427
1.39391
1.34678
1.32689
1.27895
1.25635
1.2182
1.1901
1.15884
1.12562
1.10233
1.0643
1.04808
1.00862
0.993096
0.956518
0.941643
0.907468
0.893605
0.861766
0.848925
0.818036
0.803926
0.780871
0.76394
0.746556
0.727188
0.71501
0.69416
0.685802
0.665408
0.657829
0.639366
0.632574
0.615892
0.609774
0.594818
0.589351
0.575516
0.569124
0.559673
0.552031
0.545361
0.536899
0.532621
0.523997
0.520791
0.512896
0.510094
0.503189
0.500765
0.494788
0.492725
0.487638
0.485948
0.481611
0.479668
0.477253
0.474984
0.473936
0.47187
0.471376
0.469998
0.469839
0.469294
0.46953
0.469574
0.470892
0.471288
0.47358
0.474464
0.477635
0.478983
0.482951
0.484724
0.489145
0.49187
0.496431
0.500014
0.50484
0.50934
0.514664
0.520174
0.525968
0.532515
0.538875
0.546193
0.552232
0.557716
0.560221
0.561602
5.1425
4.88337
4.75647
4.58567
4.47838
4.36902
4.29858
4.23443
4.18744
4.14584
4.10977
4.07604
4.04246
4.01082
3.97628
3.94419
3.9082
3.87463
3.83809
3.80288
3.76734
3.7316
3.69716
3.66141
3.62793
3.59213
3.55809
3.52229
3.4881
3.45285
3.41819
3.38366
3.34819
3.31452
3.27793
3.24444
3.20684
3.17083
3.13665
3.09753
3.06459
3.0247
2.99194
2.95157
2.91906
2.87763
2.84628
2.80353
2.77282
2.72886
2.69803
2.65405
2.62268
2.57777
2.54235
2.50395
2.46251
2.42712
2.38293
2.34902
2.30289
2.27013
2.22189
2.19167
2.14139
2.11341
2.06177
2.03534
1.98456
1.95919
1.90858
1.87923
1.83862
1.80386
1.76935
1.73086
1.70084
1.65937
1.63315
1.5887
1.56707
1.52007
1.50071
1.45303
1.4332
1.38716
1.36729
1.32085
1.29737
1.26002
1.23113
1.19985
1.16705
1.14089
1.10452
1.08453
1.04564
1.02972
0.991125
0.976035
0.939461
0.924754
0.89126
0.877317
0.84628
0.833377
0.803502
0.789693
0.766785
0.75109
0.732906
0.715208
0.702348
0.682622
0.674463
0.654636
0.647016
0.629453
0.622435
0.606618
0.600299
0.586019
0.580332
0.566851
0.56075
0.55085
0.543997
0.536305
0.528651
0.523222
0.514836
0.511357
0.503021
0.499891
0.492354
0.489544
0.482724
0.480179
0.474017
0.471721
0.46597
0.463295
0.459351
0.45616
0.453274
0.449764
0.447832
0.444199
0.442818
0.439445
0.438249
0.435312
0.434297
0.431812
0.430989
0.429011
0.428414
0.426867
0.426204
0.425702
0.425113
0.425103
0.424931
0.425537
0.42583
0.42729
0.427853
0.430169
0.431169
0.434381
0.435938
0.440086
0.442288
0.44739
0.450255
0.456311
0.459803
0.4665
0.470809
0.477676
0.482673
0.489553
0.495194
0.501958
0.508034
0.514699
0.521022
0.527482
0.533614
0.539089
0.543365
0.545628
0.546728
5.42834
5.39327
5.26204
5.06771
4.89603
4.7214
4.57274
4.44797
4.34568
4.26218
4.19432
4.13464
4.08125
4.0317
3.98268
3.93687
3.89033
3.84436
3.79662
3.75024
3.70174
3.65526
3.60652
3.55964
3.51096
3.46372
3.41449
3.36708
3.3175
3.27136
3.22122
3.17595
3.12568
3.08173
3.03152
2.98787
2.93747
2.89145
2.84565
2.79597
2.75184
2.70111
2.65761
2.6062
2.56325
2.51081
2.4695
2.41597
2.37595
2.32153
2.28196
2.22793
2.18833
2.13377
2.09037
2.0434
1.99418
1.95121
1.89966
1.85906
1.80615
1.76768
1.71349
1.67867
1.62344
1.59194
1.53656
1.5078
1.45434
1.42779
1.37579
1.34723
1.30563
1.27336
1.23901
1.20449
1.17625
1.14031
1.11709
1.07969
1.062
1.02429
1.00879
0.972417
0.95732
0.923725
0.909303
0.876901
0.860808
0.8353
0.816998
0.796154
0.776222
0.759419
0.738024
0.725751
0.703486
0.694283
0.672817
0.664402
0.644762
0.636848
0.619412
0.612136
0.596414
0.589849
0.575125
0.56833
0.557145
0.549758
0.540782
0.532801
0.526198
0.51755
0.513015
0.50415
0.500525
0.492401
0.489068
0.481749
0.478742
0.472112
0.469391
0.463127
0.46025
0.455516
0.452285
0.448475
0.444954
0.442161
0.438357
0.436415
0.432565
0.431036
0.427443
0.426078
0.422846
0.421631
0.418752
0.417685
0.415072
0.413861
0.412136
0.410694
0.409575
0.408053
0.407431
0.406029
0.405585
0.404495
0.404198
0.403448
0.403302
0.402901
0.402911
0.402839
0.403136
0.403319
0.403807
0.404543
0.40504
0.406319
0.406999
0.408769
0.409648
0.411989
0.41316
0.416227
0.417839
0.421661
0.423813
0.42849
0.431331
0.436907
0.440564
0.446954
0.451482
0.458411
0.463783
0.470952
0.476902
0.484098
0.490353
0.497668
0.504134
0.511332
0.517713
0.524404
0.530146
0.535448
0.539182
0.541325
0.542259
5.08044
5.3917
5.43558
5.41802
5.32237
5.16009
4.97559
4.79152
4.62058
4.46379
4.33394
4.22082
4.1231
4.03658
3.95524
3.88123
3.8104
3.74372
3.67736
3.61422
3.54917
3.48826
3.42537
3.36667
3.30678
3.24943
3.19033
3.13376
3.07446
3.01958
2.95978
2.90558
2.84514
2.79239
2.73266
2.68077
2.62121
2.56697
2.51292
2.45562
2.40361
2.34542
2.29436
2.23596
2.1858
2.1267
2.07832
2.01873
1.9722
1.91268
1.86745
1.8093
1.76494
1.70749
1.66114
1.61147
1.56159
1.51679
1.46626
1.42483
1.37453
1.33626
1.28655
1.25261
1.20381
1.17389
1.12675
1.10033
1.05638
1.0332
0.991984
0.96948
0.936341
0.912945
0.885865
0.862339
0.840357
0.816875
0.799158
0.775578
0.762184
0.738669
0.728327
0.706022
0.696416
0.67634
0.667469
0.648679
0.639397
0.624388
0.61453
0.601963
0.591715
0.581303
0.570668
0.562547
0.551516
0.545339
0.53424
0.52943
0.518915
0.51443
0.505063
0.500953
0.492473
0.488747
0.480815
0.47707
0.470808
0.466816
0.461577
0.457423
0.453193
0.448845
0.445504
0.440993
0.438368
0.433917
0.431856
0.427601
0.425752
0.421826
0.420131
0.416392
0.414637
0.411684
0.409813
0.40731
0.405364
0.403368
0.401286
0.399747
0.397575
0.396448
0.394317
0.393443
0.391503
0.390739
0.389042
0.388386
0.386882
0.386177
0.385242
0.384446
0.383923
0.383153
0.382895
0.382312
0.382175
0.38188
0.381875
0.381832
0.382069
0.382242
0.382796
0.383181
0.384054
0.38468
0.385824
0.387032
0.388416
0.390243
0.391934
0.39431
0.396484
0.399452
0.402188
0.405714
0.408968
0.413029
0.416847
0.42153
0.425999
0.431405
0.4366
0.442772
0.448714
0.455607
0.462118
0.469599
0.476596
0.484504
0.491794
0.499765
0.506994
0.514609
0.521281
0.527963
0.533448
0.538438
0.541797
0.543862
0.544686
3.9058
4.57137
4.87137
5.18371
5.28733
5.30249
5.27083
5.159
5.00588
4.8211
4.64103
4.46269
4.29861
4.15497
4.02155
3.90208
3.78414
3.67499
3.57107
3.47623
3.38454
3.29858
3.21665
3.13934
3.06574
2.99554
2.92757
2.86293
2.79799
2.73785
2.67426
2.61599
2.55191
2.49515
2.43273
2.3782
2.31682
2.26026
2.20394
2.14565
2.09215
2.03391
1.98162
1.92422
1.87379
1.81714
1.76842
1.71194
1.66478
1.60932
1.56389
1.51074
1.46692
1.41568
1.3722
1.32692
1.28358
1.24257
1.20103
1.16375
1.1246
1.09096
1.05457
1.02491
0.991285
0.965181
0.934301
0.911325
0.883608
0.863295
0.838092
0.819412
0.797674
0.779784
0.760117
0.742869
0.724647
0.707862
0.691148
0.674998
0.659869
0.644639
0.63113
0.617098
0.605226
0.592262
0.581677
0.569684
0.560032
0.549674
0.540885
0.531548
0.523564
0.515135
0.507823
0.500251
0.493592
0.486804
0.480708
0.474663
0.469035
0.463615
0.458521
0.453669
0.449
0.444626
0.440225
0.436232
0.43247
0.428623
0.425359
0.421696
0.41883
0.415312
0.412892
0.409504
0.407427
0.404248
0.402489
0.399459
0.397982
0.395135
0.39382
0.391143
0.389867
0.387649
0.386376
0.384467
0.383214
0.38161
0.380422
0.379103
0.377996
0.376943
0.37592
0.375144
0.374177
0.3737
0.372846
0.372514
0.371888
0.371599
0.37135
0.371143
0.371122
0.371075
0.371248
0.371398
0.371832
0.372156
0.372847
0.373371
0.374316
0.375065
0.376268
0.377276
0.378758
0.380082
0.381815
0.383492
0.385445
0.387475
0.389712
0.392148
0.394832
0.397816
0.401056
0.404793
0.40865
0.413222
0.417778
0.423176
0.428499
0.434729
0.440868
0.447896
0.454878
0.46264
0.470218
0.478577
0.486636
0.495383
0.503703
0.512526
0.520714
0.529091
0.5365
0.543677
0.549484
0.554629
0.557986
0.560072
0.560852
2.69505
3.16757
3.50409
3.98999
4.42514
4.78005
5.01395
5.08187
5.09333
5.0535
4.95855
4.81553
4.65118
4.4752
4.29366
4.12055
3.94993
3.79556
3.64407
3.49715
3.35738
3.21956
3.09594
2.97962
2.87699
2.77907
2.69345
2.61356
2.54225
2.47533
2.41123
2.35073
2.28944
2.23314
2.1758
2.12512
2.0717
2.02162
1.9723
1.92178
1.87552
1.82718
1.78261
1.73609
1.69402
1.65081
1.61146
1.56994
1.53162
1.49121
1.454
1.41543
1.37971
1.34272
1.30835
1.27382
1.24158
1.20931
1.18014
1.15089
1.12554
1.09966
1.07752
1.05437
1.036
1.01605
1.00174
0.984606
0.973015
0.957644
0.947982
0.935358
0.922325
0.911492
0.894978
0.883702
0.862951
0.849346
0.8242
0.809212
0.780216
0.765033
0.733703
0.719861
0.689947
0.676494
0.648668
0.636255
0.61276
0.600102
0.580883
0.568623
0.553916
0.541581
0.530769
0.518208
0.510663
0.498328
0.492804
0.481645
0.476794
0.467074
0.462687
0.454177
0.450279
0.44273
0.43927
0.432681
0.429324
0.423587
0.420583
0.415518
0.412755
0.408334
0.405744
0.401931
0.399491
0.396198
0.393961
0.391101
0.389066
0.386566
0.3847
0.382497
0.380807
0.378894
0.377362
0.375666
0.374338
0.372852
0.371727
0.370423
0.369469
0.368378
0.36756
0.366717
0.366007
0.365412
0.36483
0.364437
0.363987
0.363762
0.363595
0.363512
0.363507
0.363647
0.363864
0.364224
0.364649
0.365253
0.365891
0.366757
0.367624
0.36877
0.369894
0.371344
0.372753
0.374551
0.3763
0.378515
0.380666
0.383372
0.386018
0.389218
0.392401
0.396037
0.399819
0.403937
0.408426
0.413199
0.4185
0.424073
0.430297
0.436741
0.443935
0.451238
0.459417
0.467558
0.476361
0.485225
0.494505
0.503852
0.513335
0.522811
0.532041
0.541044
0.549268
0.556891
0.563137
0.568429
0.571909
0.574003
0.574754
2.06005
2.16752
2.2917
2.55382
2.9418
3.36125
3.8397
4.21919
4.55808
4.74148
4.81115
4.81744
4.79601
4.72621
4.61797
4.48081
4.32324
4.15113
3.9697
3.78046
3.60035
3.41587
3.24939
3.07732
2.92469
2.77283
2.64162
2.51786
2.41847
2.32831
2.25538
2.18452
2.12425
2.06495
2.01513
1.9677
1.92762
1.88816
1.85312
1.8163
1.78319
1.75102
1.72056
1.692
1.66379
1.63957
1.6151
1.59354
1.56972
1.54945
1.52633
1.50688
1.48386
1.46538
1.44511
1.42347
1.4076
1.38488
1.37196
1.35096
1.34244
1.32723
1.32249
1.31169
1.31065
1.3067
1.30979
1.30912
1.31545
1.31628
1.32712
1.33279
1.33424
1.33925
1.33732
1.3384
1.32832
1.32282
1.29925
1.28818
1.25103
1.23411
1.18443
1.16393
1.10885
1.08441
1.02728
1.00179
0.951486
0.917848
0.878947
0.841305
0.812882
0.774565
0.755798
0.71882
0.704244
0.671638
0.659231
0.630872
0.620219
0.595713
0.585899
0.564586
0.555972
0.537074
0.529696
0.513698
0.504855
0.492354
0.483165
0.473656
0.463622
0.456973
0.446424
0.442217
0.432446
0.428557
0.420282
0.416946
0.409907
0.407062
0.401104
0.398751
0.393973
0.391448
0.387787
0.385564
0.382754
0.380607
0.37865
0.376515
0.3753
0.373354
0.37253
0.370956
0.370321
0.369143
0.368694
0.367858
0.367572
0.367171
0.366942
0.366907
0.366848
0.367103
0.36723
0.36786
0.368128
0.369113
0.369559
0.370898
0.371527
0.373241
0.374082
0.376185
0.377268
0.379796
0.381293
0.383995
0.386068
0.389047
0.391753
0.395084
0.398502
0.402314
0.406484
0.410885
0.415842
0.420959
0.42681
0.43278
0.439668
0.446603
0.454616
0.462546
0.471733
0.480681
0.49062
0.500472
0.510999
0.521462
0.532267
0.542922
0.553508
0.563659
0.573151
0.581705
0.588859
0.594668
0.598475
0.600739
0.601505
1.84293
1.69829
1.65964
1.66792
1.77983
1.98625
2.31907
2.69444
3.13146
3.53241
3.90509
4.1669
4.37744
4.46136
4.48788
4.48083
4.45097
4.38714
4.29787
4.17784
4.04057
3.87763
3.70467
3.50987
3.32133
3.12269
2.94858
2.77546
2.63432
2.49298
2.38609
2.27737
2.20085
2.11978
2.06604
2.00667
1.97083
1.93061
1.90418
1.87513
1.85072
1.82977
1.80821
1.79444
1.77666
1.76971
1.75905
1.75644
1.74995
1.74959
1.74458
1.74423
1.73914
1.73887
1.73547
1.73081
1.73098
1.72571
1.72629
1.72423
1.72774
1.72781
1.73696
1.73839
1.75424
1.75906
1.78166
1.79097
1.81787
1.8311
1.86203
1.88297
1.90576
1.93172
1.94796
1.97007
1.97673
1.98535
1.98339
1.98414
1.96899
1.96009
1.92642
1.90746
1.86094
1.83166
1.77514
1.73852
1.683
1.63096
1.58202
1.52229
1.47977
1.41737
1.38368
1.32053
1.29461
1.23519
1.21219
1.15756
1.13692
1.08704
1.06695
1.021
1.00244
0.959267
0.942693
0.90441
0.880272
0.850569
0.820629
0.798608
0.762429
0.747768
0.710028
0.696223
0.661035
0.647099
0.615132
0.602343
0.573496
0.562022
0.536548
0.526821
0.505859
0.494365
0.478826
0.467725
0.456789
0.445247
0.438857
0.427759
0.423795
0.41457
0.411219
0.404136
0.401558
0.396109
0.394265
0.39001
0.388713
0.385905
0.384335
0.38288
0.381611
0.381041
0.380142
0.380003
0.37965
0.37977
0.379766
0.38051
0.380725
0.382001
0.382501
0.384292
0.385078
0.387396
0.388684
0.391189
0.393158
0.395913
0.398592
0.401653
0.405144
0.408651
0.413008
0.417129
0.422409
0.427299
0.433606
0.439389
0.446875
0.453695
0.462506
0.470453
0.480707
0.489891
0.501132
0.511467
0.523515
0.534661
0.54714
0.558639
0.570978
0.582149
0.593302
0.602977
0.611289
0.618108
0.62214
0.624807
0.625616
1.7848
1.54157
1.32762
1.17874
1.15115
1.16038
1.25034
1.41521
1.6758
1.98812
2.36137
2.71959
3.09494
3.39551
3.66759
3.84216
3.9966
4.06778
4.09278
4.09576
4.07714
4.04333
3.99006
3.91205
3.81086
3.68344
3.5431
3.38388
3.22669
3.06027
2.91587
2.76641
2.65419
2.53486
2.4586
2.36868
2.3203
2.26335
2.22426
2.1942
2.16193
2.14614
2.12159
2.11252
2.09765
2.09512
2.09008
2.09323
2.09217
2.10045
2.10153
2.11193
2.11419
2.12621
2.13217
2.13768
2.14832
2.15076
2.16329
2.16684
2.18275
2.18837
2.20999
2.21745
2.24548
2.25603
2.28965
2.3043
2.34159
2.36107
2.40209
2.43035
2.46415
2.49892
2.52718
2.56292
2.58413
2.61386
2.6246
2.63775
2.63678
2.63895
2.62835
2.62289
2.59723
2.57887
2.54082
2.51356
2.47258
2.42885
2.3895
2.33791
2.30024
2.24531
2.21162
2.15404
2.12655
2.07182
2.05039
1.99953
1.98067
1.93369
1.91496
1.8703
1.85243
1.80846
1.79182
1.75231
1.72329
1.69202
1.65293
1.62754
1.57702
1.55678
1.49856
1.47678
1.41532
1.38982
1.3257
1.29859
1.23208
1.20396
1.13709
1.10986
1.04862
1.00881
0.960508
0.912479
0.876541
0.821299
0.797612
0.743115
0.722535
0.674827
0.655855
0.615604
0.599612
0.566056
0.553431
0.52532
0.515467
0.49475
0.48359
0.469867
0.460168
0.451316
0.442392
0.437857
0.430099
0.427613
0.421873
0.420324
0.416559
0.415742
0.413655
0.413464
0.412773
0.413133
0.413729
0.41443
0.416274
0.417257
0.420261
0.421531
0.425638
0.427447
0.432604
0.435009
0.44127
0.444473
0.451864
0.456075
0.464752
0.470169
0.480321
0.487124
0.49896
0.507457
0.520409
0.530682
0.544578
0.556297
0.570671
0.58338
0.597511
0.610581
0.623275
0.635423
0.644655
0.653811
0.658133
0.66157
0.662537
1.6783
1.4105
1.16944
0.922559
0.761058
0.654388
0.639732
0.651078
0.715452
0.831987
1.01374
1.23777
1.5175
1.80188
2.11961
2.3957
2.69405
2.92183
3.13962
3.31497
3.43661
3.54932
3.61025
3.65953
3.66683
3.6643
3.64511
3.61672
3.57091
3.51265
3.43997
3.35806
3.27379
3.1834
3.1033
3.01853
2.9541
2.88954
2.83501
2.79481
2.7513
2.72751
2.69359
2.67784
2.64995
2.64003
2.62154
2.61908
2.61378
2.61779
2.61671
2.62492
2.62604
2.63882
2.64532
2.65124
2.66544
2.66933
2.68502
2.68993
2.70798
2.71441
2.73791
2.7461
2.7763
2.78764
2.8231
2.83791
2.87573
2.89472
2.93529
2.9621
2.99485
3.02789
3.05569
3.09033
3.11328
3.14577
3.16248
3.18454
3.18986
3.19663
3.19348
3.19362
3.18177
3.17218
3.14807
3.12919
3.10018
3.06662
3.03616
2.99561
2.9644
2.92155
2.89214
2.84773
2.82253
2.77952
2.76034
2.72344
2.71013
2.68028
2.66956
2.64489
2.63659
2.61516
2.60941
2.59306
2.58066
2.57121
2.55365
2.54834
2.52529
2.51994
2.49213
2.48476
2.45244
2.44074
2.40302
2.38697
2.34229
2.3208
2.26826
2.24267
2.18903
2.14138
2.09343
2.02956
1.98486
1.90464
1.86352
1.77056
1.73182
1.63324
1.59031
1.49099
1.4476
1.35007
1.30931
1.21327
1.175
1.09135
1.04151
0.97785
0.921291
0.875505
0.816017
0.786077
0.730225
0.708167
0.660965
0.643352
0.605557
0.591901
0.56253
0.552298
0.530221
0.522907
0.508691
0.500598
0.492928
0.486873
0.48358
0.479178
0.478398
0.476389
0.476753
0.476591
0.479351
0.480244
0.48523
0.487342
0.494385
0.497564
0.506648
0.511183
0.522411
0.529274
0.541505
0.551306
0.564571
0.577079
0.591002
0.605812
0.61972
0.636055
0.648979
0.665145
0.675014
0.687127
0.692641
0.696813
0.698016
1.46853
1.21708
0.920855
0.673194
0.510193
0.324639
0.235879
0.19691
0.19342
0.202888
0.237577
0.297643
0.391857
0.509014
0.668518
0.834337
1.04695
1.24438
1.47281
1.70341
1.91292
2.14984
2.32656
2.54432
2.68311
2.86065
2.9534
3.06949
3.11652
3.18299
3.20486
3.23273
3.23604
3.23924
3.23484
3.23064
3.21983
3.21147
3.19741
3.19027
3.18286
3.18059
3.17761
3.17701
3.17303
3.17057
3.16491
3.16595
3.16496
3.17095
3.17233
3.18299
3.18653
3.19946
3.20698
3.21336
3.2289
3.23399
3.2512
3.25729
3.27583
3.2828
3.30448
3.31192
3.33785
3.34715
3.37719
3.38909
3.42069
3.43491
3.46732
3.48664
3.50934
3.53213
3.54868
3.57121
3.58376
3.60439
3.61344
3.62781
3.6301
3.63335
3.62874
3.6264
3.61405
3.60401
3.58362
3.56631
3.54175
3.51303
3.48586
3.45135
3.42236
3.38616
3.35793
3.32142
3.29595
3.26143
3.24055
3.21017
3.19564
3.17348
3.16511
3.15145
3.14743
3.13986
3.13962
3.13864
3.13759
3.14063
3.14077
3.14737
3.14722
3.15499
3.15475
3.16219
3.16187
3.16653
3.16497
3.16698
3.16259
3.16322
3.1542
3.1538
3.14362
3.13061
3.12275
3.10099
3.0929
3.06161
3.05202
3.01214
2.99893
2.95148
2.93073
2.87572
2.84617
2.78192
2.74467
2.66593
2.6226
2.54388
2.47042
2.39864
2.30406
2.23523
2.12241
2.05688
1.93198
1.87073
1.73944
1.68299
1.55373
1.49999
1.37739
1.32644
1.21243
1.16562
1.07085
1.01616
0.947796
0.890623
0.844972
0.789996
0.763711
0.716754
0.6994
0.664082
0.65232
0.628314
0.621127
0.606563
0.603041
0.59606
0.595356
0.592777
0.593741
0.595767
0.598657
0.60535
0.610445
0.621818
0.628962
0.644507
0.654248
0.672758
0.684854
0.70444
0.716577
0.732296
0.739751
0.745042
0.746591
1.1143
0.960709
0.586654
0.393577
0.208973
0.0951615
0.0512479
0.0342582
0.0305987
0.0302784
0.0331478
0.039859
0.0530308
0.0714115
0.101436
0.136203
0.189663
0.245692
0.321039
0.414918
0.507314
0.635536
0.740627
0.898209
1.01946
1.20218
1.33897
1.54053
1.67706
1.8819
2.00146
2.19175
2.28884
2.45467
2.52521
2.6448
2.69584
2.77814
2.83288
2.88574
2.94733
2.99124
3.05706
3.09833
3.16295
3.20167
3.26083
3.29656
3.3509
3.38368
3.43167
3.46228
3.50482
3.53379
3.57103
3.59413
3.62985
3.65128
3.68465
3.70528
3.73594
3.75507
3.78447
3.80087
3.82941
3.84312
3.87086
3.88343
3.90892
3.92048
3.94318
3.95524
3.96645
3.97618
3.97893
3.98242
3.98087
3.98074
3.97524
3.97239
3.96171
3.95473
3.93875
3.92654
3.90559
3.8875
3.86194
3.83881
3.81074
3.7805
3.75049
3.71619
3.68455
3.64901
3.6178
3.58274
3.55375
3.52105
3.49563
3.46695
3.44661
3.42391
3.41001
3.39517
3.38859
3.38402
3.38364
3.38419
3.38611
3.39163
3.39755
3.40797
3.41717
3.4319
3.44297
3.46051
3.4731
3.49171
3.50521
3.52403
3.53767
3.5563
3.56886
3.58748
3.60021
3.61376
3.62807
3.63801
3.65312
3.65889
3.67303
3.67689
3.68893
3.69145
3.69985
3.70061
3.70557
3.70415
3.70683
3.7011
3.70298
3.69841
3.68753
3.68472
3.6654
3.66113
3.63085
3.62268
3.57976
3.56465
3.5055
3.47912
3.40101
3.35714
3.25852
3.2
3.07989
3.00703
2.88464
2.76224
2.64906
2.49472
2.38296
2.21211
2.10705
1.92873
1.8403
1.65926
1.57968
1.41026
1.33804
1.19423
1.13432
1.02371
0.978966
0.904172
0.874904
0.824562
0.797057
0.769587
0.74663
0.73641
0.722098
0.718597
0.715929
0.721511
0.728505
0.743247
0.757176
0.775042
0.787381
0.793987
0.796161
0.642783
0.618191
0.283005
0.171646
0.0795602
0.0469262
0.0316243
0.0241359
0.0202061
0.0173014
0.0144913
0.0135501
0.0135303
0.0140361
0.01569
0.0181063
0.022759
0.0282485
0.0363169
0.0490292
0.0613975
0.0829711
0.0999983
0.132304
0.158046
0.205672
0.244769
0.311198
0.363336
0.453621
0.519241
0.632329
0.708669
0.843484
0.932323
1.08477
1.18503
1.3296
1.46101
1.58285
1.73525
1.84869
2.01365
2.12394
2.29628
2.40161
2.57335
2.66287
2.81972
2.89605
3.03476
3.10576
3.22677
3.29436
3.39571
3.46605
3.547
3.61643
3.68644
3.75171