/*--------------------------------*- C++ -*----------------------------------*\
| =========                 |                                                 |
| \\      /  F ield         | OpenFOAM: The Open Source CFD Toolbox           |
|  \\    /   O peration     | Version:  4.1                                   |
|   \\  /    A nd           | Web:      www.OpenFOAM.org                      |
|    \\/     M anipulation  |                                                 |
\*---------------------------------------------------------------------------*/
FoamFile
{
    version     2.0;
    format      ascii;
    class       volScalarField;
    location    "11.5";
    object      p;
}
// * * * * * * * * * * * * * * * * * * * * * * * * * * * * * * * * * * * * * //

dimensions      [0 2 -2 0 0 0 0];

internalField   nonuniform List<scalar> 
204246
(
8.87042
-7.9041
-8.3439
-7.96489
-8.34528
-8.52828
-9.05502
-9.44546
-9.90619
-10.3513
-10.8367
-11.2213
-11.9105
-12.1607
-12.4513
-12.6337
-13.9241
-14.579
-14.5868
-15.1865
-15.3142
-15.5974
-15.8595
-16.1713
-16.4297
-16.7701
-17.0572
-17.3649
-17.5432
-17.7214
-17.7797
-17.8792
-17.9365
-18.1903
-18.5942
-19.3023
-19.7099
-19.4294
-19.9729
-20.0078
-20.1323
-20.2537
-20.4438
-20.6049
-20.8013
-20.9149
-21.089
-21.1862
-21.3308
-21.3674
-21.4065
-21.3953
-22.376
-22.8173
-22.4874
-23.0183
-23.0201
-23.1174
-23.2102
-23.376
-23.5121
-23.6867
-23.7747
-23.9223
-23.9836
-24.0867
-24.0689
-24.0449
-23.9526
-24.8933
-25.3722
-25.0796
-25.3886
-25.31
-25.3254
-25.3013
-25.2951
-25.1864
-25.7526
-25.6364
-25.6625
-25.641
-25.6863
-25.6178
-25.5492
-25.4127
-26.3705
-26.8625
-26.5642
-26.8934
-26.7973
-26.7687
-26.6814
-27.3308
-27.3294
-27.4568
-27.4825
-27.4878
-27.253
-27.9385
-27.9105
-27.9251
-27.8782
-27.8793
-27.8512
-28.9617
-29.3724
-29.1903
-29.4084
-29.1725
-29.8113
-29.7785
-29.9152
-29.9836
-30.0475
-29.8977
-30.4548
-30.1262
-30.7048
-30.5764
-30.5159
-30.3703
-31.5309
-32.0143
-31.7936
-32.1763
-31.8315
-32.5042
-32.5631
-32.6268
-32.4756
-33.1294
-32.8793
-33.5238
-33.2394
-33.8664
-33.4815
-33.9641
-33.6742
-34.9392
-35.5341
-35.4221
-35.9179
-35.6158
-36.2735
-36.0129
-36.7347
-36.4364
-37.126
-36.8354
-37.5703
-37.6344
-37.7404
-37.6458
-37.5111
-37.1705
-38.3944
-38.6832
-38.0701
-38.209
-37.5767
-37.0267
-36.2832
-35.4903
-34.3912
-33.1339
-31.4692
-29.5653
-27.1988
-24.5703
-21.5235
-18.284
-13.6672
-9.02455
-3.63137
2.24611
9.07033
16.9924
25.59
35.3952
46.3869
59.0329
73.3907
89.9349
108.632
129.748
153.161
179.441
209.534
249.023
309.014
404.648
533.268
1.40218
-1.52455
-4.18579
-5.91785
-7.10015
-7.88284
-8.48497
-8.99331
-9.48877
-9.9702
-10.4526
-10.9045
-11.3713
-11.8018
-12.2126
-12.6941
-13.2554
-13.7885
-14.2449
-14.6781
-15.0333
-15.3503
-15.6433
-15.907
-16.1985
-16.5159
-16.823
-17.1161
-17.351
-17.5334
-17.6673
-17.7949
-17.943
-18.1778
-18.4825
-18.8377
-19.1474
-19.375
-19.5979
-19.7869
-19.9561
-20.1196
-20.2886
-20.4631
-20.6427
-20.8136
-20.9714
-21.1016
-21.206
-21.2885
-21.4044
-21.602
-21.9138
-22.2156
-22.4326
-22.6428
-22.8133
-22.9619
-23.1037
-23.2517
-23.4059
-23.5628
-23.7107
-23.8438
-23.9472
-24.0143
-24.0431
-24.094
-24.2339
-24.5189
-24.8062
-24.9911
-25.1301
-25.2087
-25.2451
-25.2623
-25.2878
-25.3569
-25.4853
-25.5785
-25.6328
-25.6586
-25.6509
-25.6154
-25.6123
-25.7177
-25.9898
-26.2709
-26.447
-26.573
-26.6449
-26.7093
-26.8176
-26.9985
-27.1657
-27.2898
-27.375
-27.4353
-27.5169
-27.6852
-27.8055
-27.8535
-27.8809
-27.9455
-28.1265
-28.4703
-28.7895
-28.9875
-29.1494
-29.3002
-29.4875
-29.6518
-29.7804
-29.8886
-29.9705
-30.0705
-30.2238
-30.3402
-30.4724
-30.5195
-30.5599
-30.7222
-31.0747
-31.427
-31.66
-31.8512
-32.0083
-32.212
-32.3966
-32.5174
-32.6581
-32.8462
-33.0382
-33.2553
-33.4578
-33.6379
-33.7514
-33.8624
-34.0858
-34.5132
-34.9639
-35.3105
-35.6101
-35.8533
-36.0728
-36.3277
-36.5533
-36.8145
-37.0213
-37.3058
-37.5666
-37.8977
-38.0541
-38.2396
-38.1677
-38.3666
-38.5725
-38.7811
-38.8589
-38.8249
-38.7432
-38.3319
-38.0119
-37.3648
-36.6769
-35.6792
-34.4585
-32.9198
-31.0956
-28.9721
-26.4628
-23.5723
-20.0731
-16.1132
-11.5171
-6.39582
-0.408923
6.42709
14.0059
22.5356
31.9709
42.6468
54.6271
68.3647
83.9083
101.528
120.839
141.61
163.464
188.493
224.399
289.842
386.61
-6.06549
-4.63708
-4.90915
-5.69359
-6.56717
-7.37275
-8.08075
-8.67298
-9.24454
-9.76929
-10.2812
-10.7652
-11.232
-11.6913
-12.1661
-12.6728
-13.1493
-13.6004
-14.0573
-14.4742
-14.8653
-15.2144
-15.5353
-15.8127
-16.114
-16.4073
-16.7085
-16.9851
-17.2419
-17.447
-17.6341
-17.7959
-17.9894
-18.2212
-18.4869
-18.7465
-18.9957
-19.2452
-19.4667
-19.6697
-19.8544
-20.0343
-20.2049
-20.3836
-20.5576
-20.7394
-20.9012
-21.054
-21.174
-21.3027
-21.4528
-21.6554
-21.8678
-22.0818
-22.3066
-22.5085
-22.693
-22.8553
-23.014
-23.1663
-23.3249
-23.4804
-23.6413
-23.7826
-23.9121
-23.9994
-24.0828
-24.1766
-24.3268
-24.4966
-24.6716
-24.8469
-24.9923
-25.1023
-25.1696
-25.2217
-25.2715
-25.3481
-25.4248
-25.5141
-25.5885
-25.646
-25.6605
-25.6746
-25.7152
-25.8343
-25.9795
-26.1374
-26.2985
-26.4286
-26.5385
-26.6403
-26.7692
-26.8985
-27.0393
-27.1625
-27.2736
-27.3765
-27.5097
-27.63
-27.7484
-27.8292
-27.9126
-28.0307
-28.2165
-28.4117
-28.6079
-28.8046
-28.99
-29.1733
-29.3348
-29.5005
-29.6424
-29.776
-29.8733
-30.0067
-30.1344
-30.2779
-30.3942
-30.4914
-30.5998
-30.784
-30.9834
-31.1968
-31.4194
-31.6301
-31.8322
-32.0138
-32.1877
-32.3391
-32.4996
-32.6584
-32.8379
-33.0354
-33.24
-33.4226
-33.5912
-33.7668
-34.0042
-34.3
-34.6183
-34.9225
-35.2093
-35.4421
-35.6901
-35.9223
-36.1697
-36.397
-36.6399
-36.8697
-37.129
-37.3353
-37.5395
-37.6347
-37.7704
-37.9011
-38.1313
-38.2582
-38.2522
-38.1673
-37.9412
-37.6285
-37.1733
-36.5969
-35.8284
-34.8364
-33.5856
-32.0192
-30.2053
-28.0217
-25.5354
-22.5909
-19.2798
-15.4333
-11.0406
-5.95235
-0.134399
6.40495
13.833
22.1587
31.4976
41.8945
53.5841
66.757
81.7698
98.713
117.521
137.559
158.511
180.962
209.644
252.802
310.006
-8.39937
-5.90019
-5.59944
-5.84046
-6.36075
-6.99131
-7.64418
-8.26365
-8.8602
-9.43067
-9.96854
-10.4861
-10.9787
-11.4664
-11.9604
-12.4659
-12.9383
-13.3983
-13.8383
-14.2566
-14.6551
-15.0256
-15.3628
-15.6711
-15.9785
-16.2713
-16.5649
-16.838
-17.0958
-17.3206
-17.5301
-17.7198
-17.9279
-18.153
-18.3956
-18.6315
-18.8683
-19.1011
-19.3276
-19.5389
-19.7328
-19.9218
-20.0975
-20.2793
-20.4527
-20.6317
-20.7943
-20.9536
-21.0923
-21.2434
-21.4033
-21.5912
-21.7806
-21.9777
-22.181
-22.3837
-22.5753
-22.7448
-22.9149
-23.0724
-23.2379
-23.3937
-23.5562
-23.6967
-23.8374
-23.9457
-24.0669
-24.1823
-24.3261
-24.4656
-24.6129
-24.7601
-24.8985
-25.0201
-25.1005
-25.1784
-25.2383
-25.3135
-25.3698
-25.4632
-25.5137
-25.5981
-25.6133
-25.6704
-25.7169
-25.8337
-25.9421
-26.0682
-26.1998
-26.3233
-26.4491
-26.5548
-26.6953
-26.8059
-26.9565
-27.0534
-27.193
-27.2874
-27.4413
-27.5455
-27.6922
-27.7757
-27.8973
-28.0214
-28.2129
-28.3609
-28.5423
-28.7204
-28.8914
-29.0861
-29.2264
-29.4135
-29.534
-29.7061
-29.7966
-29.9605
-30.0701
-30.2286
-30.3325
-30.4709
-30.5897
-30.7968
-30.9471
-31.1395
-31.3417
-31.5184
-31.745
-31.9131
-32.1228
-32.2654
-32.4679
-32.609
-32.8214
-32.9824
-33.2102
-33.3695
-33.584
-33.7543
-34.0421
-34.2707
-34.548
-34.8436
-35.1174
-35.4365
-35.6669
-35.9677
-36.1857
-36.4842
-36.699
-37.0336
-37.2549
-37.5768
-37.7577
-38.0141
-38.1665
-38.4439
-38.5939
-38.7849
-38.9387
-38.9931
-38.9757
-38.8397
-38.6441
-38.3252
-37.9017
-37.3349
-36.5273
-35.4852
-34.0633
-32.3138
-30.1619
-27.6367
-24.6751
-21.2745
-17.3477
-12.8548
-7.65356
-1.73289
4.95578
12.5052
20.9428
30.3832
40.8952
52.6542
65.748
80.2843
96.236
113.639
132.683
154.486
181.771
216.529
254.931
-8.75076
-6.60097
-6.13685
-6.1217
-6.3784
-6.83127
-7.37249
-7.95902
-8.54931
-9.13713
-9.69738
-10.2427
-10.7592
-11.2717
-11.7754
-12.2848
-12.7561
-13.2237
-13.6654
-14.0853
-14.4889
-14.8669
-15.2219
-15.545
-15.8637
-16.1594
-16.4552
-16.7269
-16.9933
-17.2262
-17.456
-17.6597
-17.8813
-18.0957
-18.3276
-18.5449
-18.7726
-18.999
-19.2213
-19.4385
-19.6337
-19.8307
-20.0098
-20.1978
-20.3722
-20.5564
-20.7161
-20.8881
-21.0311
-21.1979
-21.3564
-21.538
-21.7101
-21.8972
-22.0887
-22.2844
-22.4834
-22.6533
-22.8311
-22.9915
-23.1661
-23.323
-23.4949
-23.6288
-23.7978
-23.8979
-24.0513
-24.1718
-24.3194
-24.4415
-24.5776
-24.7133
-24.8404
-24.9731
-25.0493
-25.1486
-25.2063
-25.2955
-25.3469
-25.4423
-25.4859
-25.5756
-25.5945
-25.6683
-25.7104
-25.8193
-25.905
-26.0226
-26.1431
-26.2415
-26.3782
-26.4782
-26.6239
-26.7316
-26.8872
-26.9814
-27.1358
-27.2271
-27.3881
-27.485
-27.6414
-27.7314
-27.8717
-27.9885
-28.1676
-28.3045
-28.4811
-28.6533
-28.8114
-29.0001
-29.1417
-29.3335
-29.4517
-29.6315
-29.7289
-29.8984
-30.012
-30.1713
-30.281
-30.4311
-30.5482
-30.7363
-30.8872
-31.0734
-31.253
-31.4268
-31.6403
-31.7978
-32.011
-32.1599
-32.3676
-32.516
-32.7306
-32.8911
-33.1172
-33.2774
-33.4915
-33.6806
-33.9449
-34.1615
-34.4294
-34.6931
-34.9654
-35.2528
-35.496
-35.7723
-36.021
-36.2845
-36.5404
-36.8082
-37.0713
-37.3134
-37.5438
-37.7265
-37.9298
-38.1132
-38.3295
-38.5067
-38.6039
-38.6324
-38.5647
-38.3941
-38.0952
-37.6405
-37.063
-36.3201
-35.4855
-34.4466
-33.2284
-31.7165
-29.906
-27.7183
-25.1388
-22.1015
-18.5795
-14.5027
-9.81017
-4.48474
1.59096
8.49301
16.3114
25.1106
34.9352
45.7718
57.562
70.1914
83.6337
97.9909
113.869
132.627
155.997
184.019
211.986
-8.35281
-6.7221
-6.35331
-6.24848
-6.39459
-6.72388
-7.17744
-7.71213
-8.28135
-8.86828
-9.44211
-10.0086
-10.548
-11.0814
-11.596
-12.1127
-12.5898
-13.0633
-13.5098
-13.9353
-14.3434
-14.7273
-15.0955
-15.4271
-15.7539
-16.0544
-16.3541
-16.6282
-16.9009
-17.1407
-17.3832
-17.598
-17.8292
-18.0411
-18.2688
-18.474
-18.6931
-18.9132
-19.1329
-19.3525
-19.5463
-19.7477
-19.9296
-20.1214
-20.2969
-20.4868
-20.6404
-20.8322
-20.9671
-21.1539
-21.3084
-21.4888
-21.6504
-21.8311
-22.0135
-22.1964
-22.4079
-22.5731
-22.7561
-22.9138
-23.1011
-23.2504
-23.4396
-23.5719
-23.7505
-23.861
-24.023
-24.1509
-24.3059
-24.4211
-24.5512
-24.6863
-24.8008
-24.9322
-25.0149
-25.1184
-25.18
-25.268
-25.3228
-25.4179
-25.459
-25.5494
-25.5757
-25.6563
-25.6992
-25.7992
-25.8762
-25.9848
-26.091
-26.1845
-26.3148
-26.413
-26.5529
-26.6635
-26.8145
-26.9111
-27.0681
-27.1662
-27.327
-27.4281
-27.5871
-27.6899
-27.8385
-27.9548
-28.1241
-28.2576
-28.4293
-28.5903
-28.7507
-28.922
-29.0657
-29.2508
-29.3765
-29.5519
-29.6641
-29.8258
-29.9586
-30.1064
-30.2353
-30.3782
-30.5118
-30.6734
-30.8311
-31.0065
-31.174
-31.3478
-31.5379
-31.697
-31.902
-32.058
-32.2602
-32.4172
-32.6264
-32.7921
-33.0119
-33.1787
-33.4023
-33.5878
-33.8445
-34.0506
-34.3099
-34.5684
-34.8326
-35.1277
-35.3762
-35.6771
-35.923
-36.229
-36.4783
-36.8002
-37.0572
-37.3863
-37.6216
-37.9623
-38.1905
-38.5256
-38.6754
-38.918
-39.2436
-39.3827
-39.5541
-39.6047
-39.6433
-39.6738
-39.5349
-39.2392
-38.6774
-37.8873
-36.8193
-35.4814
-33.8285
-31.8521
-29.503
-26.7617
-23.5743
-19.9099
-15.6767
-10.8579
-5.36769
0.907135
8.04963
16.1504
25.2202
35.2384
46.0848
57.6336
69.8311
82.7408
96.846
113.333
133
155.703
177.235
-7.76461
-6.56199
-6.3089
-6.21081
-6.32144
-6.59561
-6.99502
-7.48827
-8.03541
-8.61385
-9.19402
-9.77501
-10.3334
-10.8862
-11.4129
-11.9399
-12.4274
-12.9101
-13.3628
-13.7953
-14.2096
-14.6001
-14.9792
-15.3174
-15.6506
-15.9559
-16.2601
-16.5375
-16.8152
-17.0599
-17.3119
-17.5336
-17.7733
-17.9851
-18.2159
-18.4132
-18.6264
-18.8404
-19.0561
-19.2791
-19.4697
-19.6758
-19.8575
-20.0529
-20.2216
-20.4244
-20.5719
-20.7707
-20.9092
-21.1027
-21.2555
-21.4439
-21.5942
-21.7762
-21.9542
-22.1212
-22.3337
-22.4968
-22.6897
-22.8455
-23.0353
-23.1888
-23.3804
-23.5249
-23.7037
-23.8299
-23.9916
-24.1253
-24.2841
-24.4026
-24.5342
-24.6632
-24.7732
-24.9043
-24.9873
-25.0951
-25.161
-25.2456
-25.3108
-25.398
-25.4387
-25.5272
-25.5612
-25.6356
-25.6925
-25.7766
-25.8563
-25.9526
-26.049
-26.1465
-26.258
-26.3632
-26.4882
-26.6081
-26.752
-26.8536
-27.0107
-27.1141
-27.2767
-27.381
-27.5413
-27.6531
-27.7998
-27.9311
-28.0839
-28.2257
-28.3851
-28.5404
-28.6981
-28.8635
-29.0114
-29.1949
-29.3233
-29.5003
-29.6169
-29.7838
-29.9066
-30.0682
-30.1896
-30.346
-30.4734
-30.6446
-30.7784
-30.9447
-31.1085
-31.277
-31.4669
-31.6218
-31.8165
-31.9755
-32.1696
-32.332
-32.5307
-32.7018
-32.9015
-33.0819
-33.2863
-33.4858
-33.709
-33.9302
-34.1744
-34.4178
-34.6701
-34.9308
-35.1849
-35.4495
-35.7123
-35.9771
-36.2498
-36.518
-36.7966
-37.0592
-37.3298
-37.5688
-37.8182
-38.0223
-38.2874
-38.5241
-38.7025
-38.8267
-38.8693
-38.8261
-38.6821
-38.4465
-38.1878
-37.8487
-37.4879
-36.9861
-36.3201
-35.4081
-34.2196
-32.7016
-30.8278
-28.5583
-25.8678
-22.7205
-19.0636
-14.889
-10.102
-4.61402
1.66144
8.7942
16.7986
25.6519
35.277
45.5865
56.5273
68.1765
80.9188
95.539
112.368
131.144
148.376
-7.12648
-6.25984
-6.08966
-6.03605
-6.15631
-6.41649
-6.79697
-7.26271
-7.79594
-8.36606
-8.94807
-9.53929
-10.1118
-10.682
-11.2231
-11.7608
-12.2608
-12.7567
-13.2179
-13.6581
-14.0799
-14.4774
-14.8665
-15.2118
-15.5519
-15.862
-16.1699
-16.4509
-16.7352
-16.9839
-17.2446
-17.4683
-17.7158
-17.9258
-18.1647
-18.3578
-18.5687
-18.7773
-18.9852
-19.2175
-19.3988
-19.6138
-19.7884
-19.9927
-20.1572
-20.3609
-20.5133
-20.7111
-20.8572
-21.0483
-21.2047
-21.392
-21.5451
-21.7235
-21.9016
-22.0606
-22.2647
-22.4299
-22.6241
-22.7852
-22.9736
-23.1313
-23.3238
-23.473
-23.6588
-23.7919
-23.9613
-24.0949
-24.2579
-24.3807
-24.5161
-24.6402
-24.7563
-24.8764
-24.9716
-25.0718
-25.1475
-25.2303
-25.2981
-25.375
-25.429
-25.4999
-25.5486
-25.6158
-25.6746
-25.7529
-25.8297
-25.9193
-26.0088
-26.1022
-26.2057
-26.3063
-26.4265
-26.5437
-26.6851
-26.7892
-26.9404
-27.049
-27.2029
-27.3162
-27.4728
-27.5906
-27.7433
-27.8714
-28.0292
-28.164
-28.3251
-28.4767
-28.626
-28.7923
-28.9333
-29.109
-29.2407
-29.411
-29.5354
-29.6997
-29.8267
-29.9849
-30.1117
-30.2679
-30.3988
-30.5605
-30.6955
-30.8608
-31.0212
-31.1851
-31.3672
-31.5244
-31.7144
-31.8737
-32.0701
-32.2318
-32.4342
-32.6042
-32.8153
-32.9902
-33.2122
-33.405
-33.6394
-33.8384
-34.0711
-34.3224
-34.5805
-34.8561
-35.1161
-35.4021
-35.6701
-35.9676
-36.2459
-36.5563
-36.8457
-37.1682
-37.468
-37.7996
-38.1001
-38.425
-38.6951
-39.0005
-39.3205
-39.6265
-39.923
-40.1724
-40.3843
-40.5231
-40.5286
-40.403
-40.0937
-39.6271
-38.9709
-38.1236
-37.0385
-35.6923
-34.0312
-32.0266
-29.6341
-26.8285
-23.5484
-19.7841
-15.4563
-10.4948
-4.85012
1.5193
8.62279
16.4551
24.9695
34.119
43.897
54.3997
65.938
78.9689
93.6185
109.546
123.8
-6.48373
-5.90222
-5.75955
-5.74642
-5.91124
-6.17688
-6.56881
-7.02473
-7.55097
-8.11714
-8.69862
-9.29813
-9.8816
-10.4663
-11.0218
-11.5716
-12.0839
-12.592
-13.0648
-13.5151
-13.9465
-14.3521
-14.7506
-15.1045
-15.4525
-15.7682
-16.0817
-16.3685
-16.6598
-16.9104
-17.1785
-17.4037
-17.6556
-17.8669
-18.1084
-18.3049
-18.5154
-18.7235
-18.9252
-19.1527
-19.3386
-19.5504
-19.7295
-19.932
-20.1035
-20.3027
-20.4623
-20.656
-20.8077
-20.9971
-21.154
-21.3408
-21.4943
-21.673
-21.8503
-22.0072
-22.2054
-22.3678
-22.5624
-22.7243
-22.9153
-23.0731
-23.2682
-23.4189
-23.6118
-23.7496
-23.9251
-24.0634
-24.2262
-24.3549
-24.4917
-24.6169
-24.7376
-24.8547
-24.9538
-25.0513
-25.132
-25.2147
-25.2849
-25.3602
-25.4121
-25.4802
-25.5299
-25.5963
-25.651
-25.7257
-25.7968
-25.8813
-25.9645
-26.0526
-26.1584
-26.2496
-26.3723
-26.4786
-26.6201
-26.7282
-26.8725
-26.9872
-27.1356
-27.255
-27.4065
-27.5315
-27.6823
-27.8141
-27.9694
-28.1017
-28.2601
-28.4138
-28.5628
-28.7254
-28.866
-29.0344
-29.1694
-29.3337
-29.4643
-29.6256
-29.7576
-29.9104
-30.0421
-30.1937
-30.3274
-30.4798
-30.6133
-30.7737
-30.9331
-31.0933
-31.2623
-31.4141
-31.5872
-31.7455
-31.9202
-32.0919
-32.2758
-32.4537
-32.6421
-32.8261
-33.0239
-33.22
-33.4275
-33.6449
-33.8769
-34.1083
-34.3507
-34.5951
-34.8498
-35.1054
-35.3725
-35.6399
-35.9184
-36.1954
-36.4829
-36.7651
-37.0575
-37.3416
-37.6415
-37.9362
-38.2519
-38.5345
-38.7659
-38.9712
-39.1361
-39.3032
-39.4215
-39.4989
-39.5565
-39.5565
-39.5636
-39.4735
-39.2594
-38.8574
-38.2391
-37.3595
-36.1828
-34.6684
-32.7802
-30.4814
-27.7125
-24.4578
-20.6613
-16.2734
-11.2666
-5.61865
0.665877
7.57843
15.0952
23.2071
31.9332
41.3921
51.8198
63.4846
76.4214
90.2383
102.383
-5.84328
-5.50806
-5.44235
-5.41118
-5.60592
-5.88174
-6.29316
-6.75846
-7.28665
-7.8597
-8.4423
-9.0476
-9.64009
-10.2354
-10.8032
-11.3646
-11.89
-12.4118
-12.8981
-13.36
-13.8022
-14.2171
-14.625
-14.9889
-15.3469
-15.6706
-15.9931
-16.2848
-16.5809
-16.8357
-17.1079
-17.3388
-17.5915
-17.808
-18.0484
-18.2502
-18.4627
-18.6728
-18.8712
-19.0924
-19.2823
-19.4906
-19.6739
-19.8749
-20.0505
-20.2494
-20.4113
-20.6052
-20.7583
-20.9484
-21.1043
-21.2921
-21.4437
-21.6235
-21.7986
-21.9547
-22.1479
-22.3092
-22.5015
-22.665
-22.8545
-23.0151
-23.2084
-23.3623
-23.5562
-23.7034
-23.882
-24.0268
-24.187
-24.3203
-24.4573
-24.5876
-24.7108
-24.83
-24.9289
-25.0295
-25.1087
-25.195
-25.2613
-25.3398
-25.3856
-25.4593
-25.5001
-25.5709
-25.6166
-25.6921
-25.7536
-25.835
-25.9159
-25.9948
-26.0974
-26.1894
-26.3028
-26.4079
-26.541
-26.6533
-26.7938
-26.9113
-27.0574
-27.179
-27.331
-27.4604
-27.6099
-27.7447
-27.8965
-28.0294
-28.1832
-28.3377
-28.4899
-28.6494
-28.7932
-28.957
-29.0952
-29.2595
-29.3904
-29.5519
-29.685
-29.8379
-29.9726
-30.126
-30.2629
-30.4175
-30.5471
-30.7026
-30.8604
-31.0179
-31.1838
-31.3426
-31.5343
-31.6848
-31.8835
-32.0379
-32.2306
-32.3974
-32.5947
-32.7753
-32.9841
-33.1784
-33.3933
-33.5896
-33.8111
-34.0505
-34.2981
-34.5584
-34.8162
-35.0926
-35.3615
-35.6532
-35.9372
-36.245
-36.544
-36.8668
-37.1797
-37.517
-37.8422
-38.1892
-38.5164
-38.8707
-39.2386
-39.6016
-39.9624
-40.2946
-40.5939
-40.8213
-40.9693
-41.0284
-40.9825
-40.8463
-40.6119
-40.2736
-39.8026
-39.1575
-38.2939
-37.1632
-35.7133
-33.8874
-31.621
-28.8902
-25.6466
-21.8516
-17.4899
-12.5508
-7.04442
-0.980412
5.62969
12.7992
20.5713
29.0696
38.4766
48.9599
60.5182
72.7236
83.3264
-5.37147
-5.01193
-5.17654
-5.08121
-5.28925
-5.58293
-5.9892
-6.46176
-6.99314
-7.57659
-8.16596
-8.77844
-9.38179
-9.98559
-10.565
-11.1386
-11.6771
-12.2106
-12.7086
-13.1832
-13.6389
-14.0658
-14.4839
-14.8592
-15.2296
-15.5627
-15.8923
-16.1892
-16.4905
-16.7535
-17.0287
-17.267
-17.5219
-17.7434
-17.984
-18.1908
-18.4075
-18.6185
-18.8154
-19.0346
-19.2247
-19.4329
-19.6178
-19.8191
-19.9972
-20.1964
-20.3607
-20.5535
-20.7091
-20.898
-21.0547
-21.239
-21.3904
-21.5717
-21.7449
-21.9002
-22.0902
-22.2527
-22.4386
-22.6043
-22.7894
-22.9542
-23.1423
-23.303
-23.4896
-23.6455
-23.8224
-23.9769
-24.135
-24.2748
-24.4146
-24.5496
-24.6786
-24.8002
-24.901
-25.0011
-25.0822
-25.1678
-25.2336
-25.3108
-25.3574
-25.4302
-25.4685
-25.5379
-25.5802
-25.6499
-25.7078
-25.7837
-25.8608
-25.9368
-26.0362
-26.1246
-26.2362
-26.3361
-26.4656
-26.5742
-26.7147
-26.8307
-26.9769
-27.0975
-27.2489
-27.3834
-27.5289
-27.6695
-27.8153
-27.9547
-28.1043
-28.2562
-28.4097
-28.5663
-28.7167
-28.8696
-29.0102
-29.1636
-29.2977
-29.4544
-29.5953
-29.7414
-29.883
-30.0296
-30.1691
-30.3125
-30.4417
-30.5933
-30.7502
-30.9096
-31.0661
-31.2154
-31.3727
-31.5263
-31.6891
-31.8554
-32.0328
-32.2154
-32.3981
-32.5848
-32.7745
-32.9694
-33.1681
-33.3764
-33.5951
-33.8177
-34.0497
-34.2856
-34.5329
-34.7842
-35.0477
-35.3154
-35.5954
-35.8791
-36.1748
-36.4733
-36.7835
-37.0963
-37.4229
-37.7544
-38.1025
-38.4503
-38.7868
-39.1196
-39.4392
-39.7576
-40.0657
-40.4018
-40.7326
-41.0391
-41.2978
-41.4618
-41.5121
-41.4335
-41.2135
-40.8395
-40.2807
-39.4995
-38.4452
-37.062
-35.2806
-33.0684
-30.3775
-27.1766
-23.4561
-19.2119
-14.4551
-9.19327
-3.42941
2.86066
9.74141
17.3405
25.8094
35.265
45.6877
56.6325
66.0695
-5.25907
-4.60074
-4.47637
-4.66998
-4.93113
-5.26996
-5.68463
-6.1683
-6.69868
-7.278
-7.86827
-8.4827
-9.09485
-9.70607
-10.2977
-10.8833
-11.4344
-11.9798
-12.4916
-12.9814
-13.4524
-13.8913
-14.3166
-14.7053
-15.0879
-15.432
-15.7734
-16.0807
-16.3858
-16.6566
-16.935
-17.1819
-17.4402
-17.6671
-17.9073
-18.1219
-18.343
-18.5534
-18.7538
-18.9713
-19.1604
-19.37
-19.5551
-19.7575
-19.9373
-20.1366
-20.3037
-20.4946
-20.6535
-20.8411
-21.0016
-21.1821
-21.337
-21.5127
-21.6826
-21.8414
-22.0262
-22.1914
-22.3684
-22.5379
-22.7167
-22.8871
-23.0677
-23.235
-23.4143
-23.5773
-23.7531
-23.9124
-24.0737
-24.2176
-24.3613
-24.4997
-24.634
-24.7604
-24.8675
-24.9696
-25.0553
-25.1403
-25.2113
-25.2832
-25.3363
-25.4013
-25.4427
-25.5065
-25.5521
-25.6109
-25.6671
-25.7346
-25.8049
-25.8859
-25.9752
-26.0657
-26.1696
-26.2731
-26.3925
-26.5071
-26.6377
-26.7611
-26.899
-27.0286
-27.1721
-27.3097
-27.4563
-27.5981
-27.7454
-27.8847
-28.0323
-28.1825
-28.3359
-28.4933
-28.6475
-28.8047
-28.9504
-29.1028
-29.2417
-29.3971
-29.5328
-29.679
-29.8207
-29.9699
-30.112
-30.2573
-30.3885
-30.535
-30.6881
-30.8434
-31.0049
-31.1612
-31.3334
-31.4857
-31.6746
-31.822
-32.0085
-32.1701
-32.3514
-32.5315
-32.7278
-32.9181
-33.123
-33.3159
-33.5285
-33.7551
-33.9905
-34.2371
-34.4852
-34.7485
-35.0103
-35.2908
-35.5703
-35.8696
-36.1679
-36.4858
-36.8026
-37.1398
-37.4774
-37.8359
-38.1934
-38.5731
-38.9611
-39.3472
-39.7305
-40.1014
-40.4626
-40.8027
-41.1349
-41.4514
-41.7524
-42.0233
-42.242
-42.3778
-42.4084
-42.312
-42.0629
-41.6262
-40.9561
-39.9982
-38.687
-36.9818
-34.8358
-32.2194
-29.1265
-25.5562
-21.521
-17.0261
-12.07
-6.62022
-0.600924
6.13141
13.7221
22.2669
31.7328
41.6694
50.2085
-5.31681
-4.66519
-4.38292
-4.45414
-4.62063
-4.95328
-5.38195
-5.87016
-6.39498
-6.97045
-7.56456
-8.17525
-8.78692
-9.39873
-9.99745
-10.5917
-11.1543
-11.7125
-12.239
-12.7433
-13.2284
-13.6804
-14.1181
-14.5231
-14.9172
-15.2787
-15.6328
-15.9496
-16.2613
-16.5408
-16.8231
-17.0776
-17.3393
-17.5725
-17.8124
-18.0346
-18.2592
-18.4739
-18.6783
-18.891
-19.0844
-19.2923
-19.4805
-19.6824
-19.8648
-20.0652
-20.2342
-20.425
-20.5872
-20.7717
-20.9352
-21.1144
-21.274
-21.447
-21.6143
-21.7722
-21.9561
-22.12
-22.2957
-22.4627
-22.6397
-22.8054
-22.9906
-23.1502
-23.3364
-23.4914
-23.6742
-23.8321
-23.9989
-24.1451
-24.2931
-24.435
-24.573
-24.7048
-24.8169
-24.9275
-25.0177
-25.1098
-25.1838
-25.2607
-25.3169
-25.3771
-25.4244
-25.4804
-25.5286
-25.5828
-25.6354
-25.6967
-25.7617
-25.837
-25.9187
-26.0073
-26.1049
-26.2056
-26.3186
-26.4318
-26.5573
-26.6804
-26.8148
-26.9456
-27.0868
-27.2249
-27.371
-27.5139
-27.6607
-27.8018
-27.9494
-28.0978
-28.25
-28.404
-28.5583
-28.712
-28.859
-29.0079
-29.1485
-29.2958
-29.4375
-29.5812
-29.7231
-29.8674
-30.008
-30.1474
-30.2829
-30.4257
-30.5715
-30.7245
-30.8779
-31.0314
-31.1832
-31.3318
-31.4937
-31.6499
-31.8246
-31.9972
-32.1736
-32.3535
-32.5378
-32.7258
-32.917
-33.1152
-33.3246
-33.5395
-33.7639
-33.9938
-34.2335
-34.4802
-34.737
-35.0023
-35.2786
-35.5645
-35.8618
-36.1688
-36.487
-36.8153
-37.1561
-37.5102
-37.8817
-38.2723
-38.6745
-39.0926
-39.5213
-39.9588
-40.3975
-40.8338
-41.2623
-41.6825
-42.0899
-42.4772
-42.8343
-43.1456
-43.3924
-43.5509
-43.5962
-43.4943
-43.2012
-42.6627
-41.8154
-40.6106
-39.0014
-36.9573
-34.4728
-31.5497
-28.2039
-24.4438
-20.2668
-15.6366
-10.4674
-4.59935
2.13631
9.84111
18.4755
27.5901
35.4349
-5.44969
-4.89165
-4.57704
-4.47819
-4.52553
-4.77548
-5.12337
-5.57685
-6.08925
-6.64688
-7.23201
-7.8376
-8.44833
-9.06461
-9.66747
-10.2671
-10.838
-11.4048
-11.944
-12.4631
-12.9636
-13.4325
-13.8864
-14.3081
-14.7153
-15.0929
-15.4551
-15.7849
-16.1067
-16.3985
-16.687
-16.9509
-17.2173
-17.459
-17.7017
-17.9265
-18.1536
-18.373
-18.584
-18.7937
-18.9916
-19.1979
-19.3901
-19.5909
-19.7769
-19.9741
-20.1486
-20.3376
-20.5043
-20.6868
-20.8537
-21.0313
-21.196
-21.368
-21.5339
-21.6958
-21.8741
-22.0386
-22.2147
-22.3787
-22.5553
-22.7175
-22.9025
-23.0607
-23.2446
-23.3986
-23.5789
-23.7383
-23.9089
-24.0568
-24.2091
-24.3541
-24.4953
-24.6327
-24.7487
-24.869
-24.9649
-25.0654
-25.1417
-25.2291
-25.2901
-25.3616
-25.4096
-25.4681
-25.5147
-25.5714
-25.6209
-25.6803
-25.7424
-25.8114
-25.8889
-25.9719
-26.0661
-26.1611
-26.2707
-26.3784
-26.5018
-26.6212
-26.7544
-26.8819
-27.0222
-27.1583
-27.3046
-27.4471
-27.5953
-27.7355
-27.8832
-28.0319
-28.1831
-28.3371
-28.4924
-28.6495
-28.7955
-28.9485
-29.0886
-29.2371
-29.3764
-29.5233
-29.6642
-29.8121
-29.9516
-30.095
-30.2268
-30.3673
-30.5127
-30.6623
-30.817
-30.9722
-31.1343
-31.2864
-31.4505
-31.6029
-31.7703
-31.9322
-32.108
-32.2822
-32.4686
-32.6522
-32.8474
-33.0326
-33.2341
-33.4471
-33.6691
-33.9017
-34.1377
-34.3864
-34.6367
-34.9028
-35.1721
-35.4589
-35.7502
-36.0597
-36.3741
-36.7065
-37.0438
-37.3985
-37.7595
-38.1437
-38.5454
-38.9655
-39.4041
-39.8588
-40.3286
-40.8095
-41.3012
-41.7974
-42.2961
-42.79
-43.2736
-43.7367
-44.1676
-44.549
-44.8597
-45.0694
-45.1371
-45.0087
-44.6216
-43.9165
-42.8414
-41.3607
-39.4662
-37.1608
-34.4669
-31.4039
-27.9768
-24.1535
-19.841
-14.8556
-8.99031
-2.10702
5.76399
14.1885
21.5111
-5.82859
-5.16164
-4.85038
-4.68331
-4.62728
-4.81316
-5.03824
-5.39301
-5.83621
-6.34293
-6.88824
-7.47217
-8.06893
-8.68341
-9.28611
-9.89083
-10.4713
-11.0501
-11.6049
-12.1375
-12.6525
-13.1378
-13.6073
-14.0475
-14.4709
-14.8676
-15.2452
-15.5936
-15.9259
-16.2304
-16.5258
-16.7992
-17.0729
-17.3226
-17.5713
-17.799
-18.0295
-18.2509
-18.4666
-18.6776
-18.8808
-19.0855
-19.2821
-19.4822
-19.6721
-19.8668
-20.046
-20.2342
-20.4062
-20.5875
-20.7577
-20.9345
-21.1027
-21.2755
-21.4423
-21.6087
-21.7813
-21.9482
-22.1221
-22.2874
-22.4624
-22.627
-22.8064
-22.9683
-23.1463
-23.3038
-23.4781
-23.6369
-23.8061
-23.9574
-24.1133
-24.2616
-24.4042
-24.5444
-24.6662
-24.7914
-24.8949
-25.0007
-25.0839
-25.1758
-25.2439
-25.321
-25.3773
-25.4412
-25.4914
-25.5508
-25.6021
-25.6629
-25.7238
-25.7899
-25.8648
-25.9436
-26.0346
-26.1253
-26.2314
-26.3338
-26.454
-26.5686
-26.7
-26.8235
-26.9624
-27.0952
-27.2405
-27.3812
-27.5299
-27.669
-27.8173
-27.9651
-28.115
-28.2684
-28.4219
-28.5788
-28.7233
-28.8762
-29.0163
-29.1644
-29.3022
-29.4466
-29.5854
-29.7294
-29.8669
-30.0073
-30.1399
-30.2782
-30.416
-30.5594
-30.7055
-30.8566
-31.009
-31.1591
-31.316
-31.4699
-31.6316
-31.7915
-31.9606
-32.1322
-32.3124
-32.4936
-32.6807
-32.8667
-33.0651
-33.2702
-33.4862
-33.7106
-33.9431
-34.1841
-34.4307
-34.6897
-34.9557
-35.2363
-35.5257
-35.8316
-36.1475
-36.4812
-36.8251
-37.1863
-37.5574
-37.9514
-38.3624
-38.7932
-39.2444
-39.7168
-40.2108
-40.7239
-41.2597
-41.8122
-42.3819
-42.9626
-43.5525
-44.1436
-44.7302
-45.3017
-45.8434
-46.3312
-46.7307
-46.9912
-47.0531
-46.8454
-46.306
-45.3867
-44.071
-42.3595
-40.2789
-37.8643
-35.1423
-32.0993
-28.6518
-24.5946
-19.6573
-13.6322
-6.522
1.28066
8.20606
-6.36661
-5.57292
-5.13805
-4.94128
-4.85667
-4.92197
-5.0838
-5.36785
-5.7233
-6.12838
-6.60575
-7.14123
-7.69001
-8.2772
-8.86079
-9.4594
-10.0446
-10.6312
-11.1999
-11.7476
-12.2797
-12.7845
-13.2713
-13.7338
-14.1758
-14.5939
-14.9886
-15.3578
-15.7069
-16.031
-16.3389
-16.6255
-16.9049
-17.1654
-17.4207
-17.657
-17.8921
-18.1151
-18.3336
-18.5475
-18.7551
-18.9615
-19.1615
-19.3621
-19.5558
-19.7515
-19.9354
-20.1233
-20.2989
-20.4803
-20.6522
-20.8295
-20.9988
-21.1732
-21.342
-21.5105
-21.6824
-21.8499
-22.0227
-22.1896
-22.363
-22.5299
-22.7052
-22.8697
-23.0433
-23.2031
-23.3745
-23.5334
-23.6993
-23.8521
-24.0103
-24.1607
-24.305
-24.4465
-24.5747
-24.7024
-24.814
-24.9253
-25.0186
-25.1142
-25.1898
-25.2712
-25.3336
-25.4034
-25.4584
-25.5219
-25.5758
-25.6395
-25.7015
-25.7668
-25.841
-25.9167
-26.0052
-26.0932
-26.1962
-26.2954
-26.412
-26.5224
-26.651
-26.7708
-26.9079
-27.0374
-27.1809
-27.3187
-27.4678
-27.6061
-27.7551
-27.9027
-28.052
-28.2065
-28.3576
-28.5176
-28.6618
-28.8196
-28.96
-29.1134
-29.2517
-29.3996
-29.5376
-29.6846
-29.8216
-29.9659
-30.0973
-30.2385
-30.3782
-30.5196
-30.6658
-30.8122
-30.9667
-31.1105
-31.2681
-31.4146
-31.5749
-31.728
-31.8934
-32.0568
-32.2323
-32.4054
-32.5887
-32.7648
-32.9565
-33.1548
-33.362
-33.5784
-33.8031
-34.0371
-34.2739
-34.5258
-34.7816
-35.0548
-35.3342
-35.6326
-35.94
-36.2682
-36.6062
-36.9647
-37.3336
-37.7287
-38.1434
-38.5801
-39.0406
-39.5255
-40.0367
-40.5715
-41.1383
-41.7301
-42.352
-42.9973
-43.6691
-44.3628
-45.078
-45.8086
-46.5469
-47.2729
-47.9629
-48.5746
-49.0578
-49.3332
-49.3288
-48.9763
-48.2422
-47.1179
-45.6251
-43.8063
-41.7178
-39.3872
-36.7758
-33.6935
-29.7978
-24.7481
-18.4963
-11.3334
-4.78877
-6.86668
-6.03357
-5.50754
-5.2149
-5.08042
-5.08259
-5.21658
-5.37158
-5.65139
-6.00288
-6.42966
-6.88248
-7.37081
-7.90896
-8.45472
-9.02326
-9.59463
-10.1701
-10.7422
-11.3009
-11.8459
-12.3706
-12.8721
-13.3584
-13.8189
-14.2637
-14.6799
-15.074
-15.4432
-15.7898
-16.1154
-16.4201
-16.7122
-16.9858
-17.25
-17.498
-17.7412
-17.9717
-18.1943
-18.4123
-18.6235
-18.8327
-19.036
-19.2381
-19.4335
-19.6307
-19.8179
-20.0071
-20.1851
-20.3674
-20.5402
-20.718
-20.888
-21.0638
-21.2345
-21.4041
-21.5769
-21.7451
-21.9183
-22.0862
-22.2598
-22.427
-22.6011
-22.7661
-22.9384
-23.0992
-23.2683
-23.4262
-23.5905
-23.7437
-23.9024
-24.0539
-24.2
-24.3442
-24.4764
-24.6082
-24.725
-24.8421
-24.9429
-25.0458
-25.1297
-25.2172
-25.2847
-25.3591
-25.4183
-25.4861
-25.5433
-25.6101
-25.6746
-25.7406
-25.8154
-25.8895
-25.9764
-26.062
-26.1627
-26.2593
-26.3729
-26.4805
-26.605
-26.7224
-26.8553
-26.9813
-27.1209
-27.2553
-27.4014
-27.5396
-27.6887
-27.8342
-27.9823
-28.1352
-28.2841
-28.4439
-28.5866
-28.7465
-28.8859
-29.043
-29.1818
-29.3323
-29.4688
-29.6176
-29.7533
-29.9002
-30.0301
-30.1754
-30.3172
-30.4587
-30.6065
-30.7495
-30.9056
-31.0479
-31.2074
-31.3521
-31.5139
-31.665
-31.8297
-31.9891
-32.1621
-32.3307
-32.5126
-32.6831
-32.8721
-33.065
-33.2647
-33.4739
-33.6886
-33.917
-34.1445
-34.39
-34.6369
-34.9021
-35.1704
-35.459
-35.754
-36.0721
-36.399
-36.7495
-37.1099
-37.4995
-37.9091
-38.3429
-38.8034
-39.2924
-39.8132
-40.3603
-40.9484
-41.5658
-42.2256
-42.9158
-43.649
-44.4181
-45.2339
-46.0872
-46.9788
-47.8931
-48.8169
-49.7225
-50.5754
-51.297
-51.8169
-52.0449
-51.9188
-51.4014
-50.4952
-49.2306
-47.6872
-45.9539
-44.0756
-41.9562
-39.2486
-35.4273
-30.2833
-23.9448
-17.8193
-7.30018
-6.42469
-5.84274
-5.51543
-5.34606
-5.2731
-5.35271
-5.46018
-5.70164
-5.99334
-6.34416