/*--------------------------------*- C++ -*----------------------------------*\
| =========                 |                                                 |
| \\      /  F ield         | OpenFOAM: The Open Source CFD Toolbox           |
|  \\    /   O peration     | Version:  4.1                                   |
|   \\  /    A nd           | Web:      www.OpenFOAM.org                      |
|    \\/     M anipulation  |                                                 |
\*---------------------------------------------------------------------------*/
FoamFile
{
    version     2.0;
    format      ascii;
    class       volScalarField;
    location    "1103";
    object      p;
}
// * * * * * * * * * * * * * * * * * * * * * * * * * * * * * * * * * * * * * //

dimensions      [0 2 -2 0 0 0 0];

internalField   nonuniform List<scalar> 
204246
(
135.858
-9.12932
42.3646
22.0182
19.4953
25.876
14.5456
26.0182
13.0195
25.8777
12.2589
26.484
10.6239
26.7645
11.8348
24.1175
18.2891
12.7209
25.0672
10.2481
26.3296
10.6398
24.9782
11.4337
24.8801
11.268
25.7924
9.50786
26.7312
9.24987
26.7413
9.69673
25.8438
12.2113
21.9515
18.5123
11.6643
24.2161
10.3335
23.8436
10.6718
23.8918
10.3105
24.7103
8.40139
25.3885
8.10377
24.7252
9.19803
21.8881
10.795
18.9219
15.4487
8.06478
19.3504
6.51118
16.6322
4.98667
14.0967
2.28171
11.5043
-2.53787
7.89947
-6.75618
2.79166
-10.9062
-4.26084
-15.3777
-11.6328
-16.4838
-24.9843
-20.2493
-31.0803
-21.9981
-35.0181
-22.2606
-35.0416
-19.9452
-33.0883
-17.1586
-27.7265
-11.9312
-20.4442
-7.79364
-12.5255
-3.97091
-2.83089
-6.81428
3.53913
-5.20673
7.72452
-4.94379
9.45016
-7.07453
9.9498
-8.51274
8.52503
-9.89271
5.41799
-10.142
0.855374
-12.3834
-2.79159
-14.343
-6.94032
-13.4031
-19.2273
-10.8618
-23.6588
-10.7654
-27.6582
-11.2162
-28.4249
-12.4664
-28.8491
-12.7186
-28.9568
-12.5914
-28.4224
-12.6681
-26.442
-14.7319
-19.9693
-24.5507
-13.0005
-26.5595
-10.9631
-26.6651
-10.1233
-26.3632
-9.61222
-25.9885
-9.21855
-25.6182
-8.88922
-24.8516
-9.14815
-22.9758
-11.4367
-16.6446
-21.5797
-10.0325
-23.6935
-8.27103
-23.8265
-7.45864
-23.626
-6.9296
-23.1733
-6.40745
-22.5064
-5.85192
-21.4066
-5.5274
-18.8598
-7.0398
-11.6633
-15.7837
-3.76607
-16.3407
-0.29955
-14.2944
2.12018
-10.638
4.78523
-5.97618
8.66387
-0.222696
13.7729
6.76179
20.0796
15.7407
28.0623
27.2964
37.5523
44.0761
46.3153
60.1727
64.7087
78.0171
87.7645
101.136
115.477
130.378
150.319
168.146
196.437
219.09
262.997
291.936
379.671
395.593
602.634
45.1544
22.2391
21.5977
25.5781
18.7362
23.1715
17.7056
21.9798
17.0331
21.4718
16.537
21.4514
16.4064
20.4658
17.7702
18.2635
20.9493
15.3492
20.8173
15.564
20.5101
16.1328
20.1532
16.0248
20.3699
15.6933
20.8878
15.3003
20.7392
15.4291
20.3936
15.9557
19.3686
17.5083
17.336
20.3625
14.8708
19.8494
15.3353
19.3987
15.1978
19.532
14.7999
19.918
14.3261
19.5163
14.4138
18.6871
14.8706
17.4393
15.4084
15.1571
17.6525
12.0223
15.7439
11.1228
14.3961
9.29106
12.4419
6.68548
9.97779
3.24935
6.09881
-0.355581
1.00732
-4.19598
-5.46173
-8.89138
-13.0929
-12.1551
-20.5789
-20.3511
-26.8562
-25.0124
-30.0704
-27.5608
-31.165
-26.6001
-29.2259
-23.1691
-25.6841
-19.1909
-18.6896
-14.8419
-11.3161
-10.4972
-4.22554
-6.33846
0.460076
-2.89024
2.76895
-0.967018
4.43083
-0.896813
4.24603
-1.55545
2.84434
-2.86427
0.397185
-4.61928
-2.10184
-7.05315
-5.71821
-8.95139
-10.4473
-9.35195
-15.6296
-13.2928
-18.7372
-15.1044
-21.1418
-17.1348
-22.2806
-18.2914
-23.1189
-18.6422
-23.4036
-18.6765
-22.8928
-18.9768
-21.1637
-20.3533
-17.7608
-22.4927
-17.0921
-21.9609
-16.5094
-21.4163
-15.9961
-20.9509
-15.5679
-20.5304
-15.2249
-20.0852
-15.0843
-19.3134
-15.4449
-17.6749
-17.0437
-14.4532
-19.4089
-14.1027
-19.0865
-13.7605
-18.7078
-13.3376
-18.3069
-12.9517
-17.8459
-12.5392
-17.2256
-12.158
-16.1878
-12.1087
-14.0247
-13.0029
-10.1693
-14.3428
-8.67381
-12.6707
-6.86463
-10.3488
-4.58142
-7.61712
-1.67128
-4.19074
2.0292
0.322491
6.76509
6.13052
12.1633
13.8753
19.1078
23.6435
27.2803
36.0308
39.7203
48.7951
55.357
64.8776
74.5628
85.0199
98.06
109.642
126.824
139.633
162.846
176.266
211.525
218.163
292.887
258.327
393.007
20.0623
28.228
23.8537
25.0898
20.8614
22.9653
18.5917
22.0435
17.4652
21.5623
16.8939
21.232
16.7593
20.4711
17.5854
18.8623
19.3621
16.8093
20.0931
16.0777
20.3651
16.0281
20.2888
15.9729
20.3495
15.7916
20.5551
15.5328
20.5707
15.5579
20.3349
15.9867
19.5471
17.1042
17.8919
18.7383
16.0929
19.25
15.5174
19.3685
15.2128
19.4434
14.8962
19.5459
14.538
19.3426
14.485
18.7325
14.7561
17.4975
15.2703
15.5391
16.1216
13.1248
15.6311
11.7163
14.0427
10.1081
11.9116
7.83231
9.12644
4.81091
5.291
1.23602
0.422496
-3.0452
-5.48013
-8.07004
-12.3812
-13.8915
-18.997
-20.3405
-25.3087
-25.9586
-29.412
-28.3716
-31.4308
-27.7882
-30.4036
-25.2427
-25.5757
-20.9276
-18.4481
-15.1882
-11.4407
-9.4976
-5.17121
-5.02392
-0.381827
-1.2979
2.49111
0.0115831
4.31772
-0.19575
4.55178
-0.958309
3.42271
-2.37533
1.25519
-3.87348
-2.05309
-6.05481
-5.79101
-8.06338
-10.1713
-10.3506
-14.439
-13.3173
-17.9271
-15.3475
-20.57
-16.9955
-22.1469
-18.1273
-23.0765
-18.5458
-23.4086
-18.6515
-22.9252
-18.901
-21.527
-19.8212
-19.1905
-21.222
-17.7452
-21.4932
-16.6915
-21.2631
-15.9929
-20.8551
-15.4846
-20.4086
-15.106
-19.9088
-14.9267
-19.1635
-15.1977
-17.8424
-16.3356
-15.7364
-18.024
-14.5897
-18.5288
-13.7985
-18.4804
-13.266
-18.1885
-12.8358
-17.7545
-12.4178
-17.1288
-12.0435
-16.1139
-11.9379
-14.2575
-12.4435
-11.3652
-13.0966
-9.17609
-12.2646
-6.89799
-10.4118
-4.65542
-7.50574
-2.09082
-3.61662
1.39046
1.15975
6.03603
7.11786
12.0648
14.5752
19.5687
24.0895
29.1818
35.6984
40.7205
49.7243
56.3367
66.5697
76.2419
87.4964
101.047
113.568
132.154
146.026
171.687
186.36
226.069
233.99
310.15
288.879
377.66
4.21415
19.4664
15.3276
21.6644
17.634
21.2361
18.1512
20.4981
18.0893
19.8752
18.0907
19.4562
18.3308
18.6726
19.0562
17.655
19.8861
17.1989
19.3211
17.4132
18.9204
17.6425
18.78
17.5595
18.8521
17.4149
18.948
17.3796
18.7493
17.521
18.4112
17.8978
17.787
18.6161
17.0021
19.2255
16.6923
18.5694
16.8682
18.2139
16.7739
18.1336
16.5947
18.0891
16.5089
17.7111
16.5803
17.1527
16.7515
16.4139
16.8966
15.2784
17.0407
14.5274
15.468
13.6354
14.1456
12.1967
12.4184
10.1656
10.0267
7.47994
6.58544
4.02918
2.15304
-0.245233
-3.40757
-5.54342
-9.98555
-11.4996
-17.0964
-18.957
-23.547
-25.6614
-28.744
-30.2118
-31.4533
-30.8696
-31.0392
-28.8478
-27.3982
-24.4715
-21.1782
-18.3779
-13.9471
-12.1095
-7.03253
-6.3464
-2.36104
-1.62915
1.10448
0.99438
2.97293
1.89086
3.06256
1.5063
2.0437
0.237913
0.196782
-1.6205
-2.28155
-4.0437
-5.61563
-6.54558
-9.46465
-9.36591
-13.0045
-13.3751
-16.2323
-16.6572
-18.601
-19.0256
-20.3414
-20.3323
-21.4808
-20.8082
-21.8948
-20.9194
-21.4722
-21.007
-20.3115
-21.2679
-18.9924
-21.0752
-18.7649
-20.4252
-18.4137
-19.8329
-18.0218
-19.3335
-17.6569
-18.8849
-17.3604
-18.4056
-17.2183
-17.7374
-17.3553
-16.7074
-17.8688
-15.5716
-17.9694
-15.6663
-17.5758
-15.6016
-17.1699
-15.3847
-16.7679
-15.1026
-16.3375
-14.789
-15.7883
-14.5001
-14.9494
-14.4088
-13.5152
-14.3528
-12.0019
-13.6382
-11.2072
-12.2215
-9.93163
-10.3699
-8.05323
-8.15568
-5.71244
-5.31252
-2.59876
-1.67913
1.43392
2.97456
6.35913
9.1543
12.621
16.8754
20.451
26.6573
30.7966
37.7301
43.8487
51.1808
59.8472
67.6715
79.2622
87.5657
102.783
111.561
132.133
139.217
172.268
167.15
224.638
211.503
282.6
5.84933
19.8708
15.761
20.6608
18.4357
20.6763
18.7881
20.3465
18.5843
19.8809
18.4078
19.4138
18.4972
18.7743
18.8363
18.1005
19.1081
17.9092
18.8216
17.798
18.7228
17.7086
18.7412
17.5729
18.7726
17.4799
18.7642
17.4949
18.6225
17.5905
18.3676
17.8278
17.9076
18.192
17.3798
18.3969
17.2428
18.0954
17.0904
18.0112
16.8384
17.9582
16.6441
17.8374
16.5692
17.5435
16.5507
17.0991
16.5866
16.4653
16.6202
15.6056
16.2678
14.9302
15.4764
14.0289
14.1417
12.6238
12.5277
10.7219
10.2902
8.26257
7.1241
4.96528
3.01774
0.711692
-2.15835
-4.528
-8.54873
-10.8722
-15.3879
-18.1423
-22.6273
-25.1123
-28.8356
-30.4599
-32.591
-32.5884
-32.7461
-30.9805
-29.0988
-26.0876
-22.5347
-19.1603
-14.6822
-11.9393
-7.47463
-5.5973
-1.97385
-0.941108
1.62622
1.72941
3.45067
2.71929
3.84338
2.46803
3.01076
1.33784
1.1513
-0.506967
-1.53187
-2.96757
-4.84305
-5.87439
-8.45318
-9.16093
-11.9732
-12.7476
-15.2949
-16.1926
-17.9521
-18.7197
-19.9705
-20.1854
-21.3339
-20.8216
-21.8509
-21.0085
-21.5636
-21.0088
-20.7491
-20.8578
-19.7881
-20.4401
-19.2572
-20.034
-18.597
-19.5731
-18.0043
-19.067
-17.5155
-18.568
-17.144
-18.0535
-16.9454
-17.4397
-16.99
-16.681
-17.2085
-16.0244
-17.1101
-15.8962
-16.9681
-15.6001
-16.7744
-15.2779
-16.4844
-14.9527
-16.0985
-14.6233
-15.5667
-14.3175
-14.766
-14.2147
-13.6399
-13.8038
-12.3624
-13.0743
-11.3517
-11.8305
-9.92941
-10.1443
-8.04104
-7.86027
-5.52104
-4.94584
-2.25277
-1.20587
1.91348
3.66252
7.13354
9.87234
13.7556
17.7699
22.0895
27.5216
32.7478
39.4757
46.3544
54.0944
63.3836
72.0119
84.4674
93.8295
110.277
119.922
142.436
150.179
184.534
181.47
230.759
219.398
264.496
3.02052
15.0094
12.0675
17.2499
16.0411
18.5963
17.5898
19.0319
18.2509
18.931
18.5548
18.6404
18.8346
18.2107
19.1084
17.8703
19.1503
17.9827
18.6633
18.1674
18.3777
18.2362
18.2851
18.1853
18.2656
18.1467
18.2121
18.1971
18.0388
18.3032
17.8256
18.4736
17.523
18.6505
17.3032
18.5777
17.4568
18.0653
17.55
17.794
17.474
17.6329
17.3903
17.4567
17.3903
17.1696
17.4285
16.8406
17.3865
16.5353
17.2343
16.1248
16.8523
15.6655
16.0611
15.0332
15.0663
13.9131
13.6764
12.3217
11.6844
10.1105
8.88993
7.06134
5.07346
3.03276
0.0177536
-2.18429
-6.26243
-8.76057
-13.5745
-16.4999
-21.3509
-24.4915
-28.6094
-31.2298
-33.8504
-34.9066
-35.4607
-34.5048
-32.7671
-30.0929
-26.2804
-22.8792
-17.8722
-14.7785
-9.65236
-7.38104
-3.22757
-1.65813
1.06327
1.93926
3.40804
3.47296
4.05912
3.52205
3.42057
2.52811
1.7703
0.705646
-0.677416
-1.82189
-3.88841
-4.88188
-7.59446
-8.41709
-11.4163
-12.3776
-15.0067
-16.1525
-18.0383
-19.1575
-20.2978
-21.1262
-21.6499
-21.9793
-22.0519
-22.1073
-21.6504
-21.8625
-20.8509
-21.3979
-20.1224
-20.5644
-19.7202
-19.8498
-19.2887
-19.3028
-18.907
-18.821
-18.5675
-18.3735
-18.2722
-17.9193
-18.0523
-17.4142
-17.8973
-16.8421
-17.858
-16.4101
-17.3862
-16.4701
-17.0064
-16.417
-16.657
-16.2642
-16.3096
-16.0556
-15.9411
-15.8127
-15.5216
-15.5072
-14.9579
-15.277
-14.1702
-14.8676
-13.4755
-13.9453
-12.7458
-12.9264
-11.7003
-11.581
-10.2859
-9.87759
-8.36455
-7.70556
-5.85816
-4.85974
-2.65765
-1.09818
1.40847
3.77055
6.57106
9.96157
13.198
17.6445
21.7856
26.9055
32.6083
38.1847
46.0366
51.977
62.4591
68.7091
82.5082
88.4724
107.313
110.536
140.962
134.511
175.693
173.184
213.778
6.32381
16.7103
13.3648
17.3687
16.5897
18.4627
17.9139
18.9288
18.4937
18.9227
18.7038
18.7022
18.8262
18.3559
18.9405
18.1059
18.8207
18.2527
18.4199
18.3249
18.2465
18.2808
18.2136
18.1894
18.1951
18.1517
18.1325
18.1887
18.0055
18.2556
17.8248
18.3571
17.603
18.3766
17.4486
18.197
17.6034
17.8141
17.6379
17.5972
17.4787
17.4699
17.357
17.2885
17.307
17.0545
17.2505
16.8075
17.1657
16.5248
16.9994
16.1819
16.6693
15.8251
16.0478
15.1917
15.2033
14.2312
13.9868
12.8478
12.2541
10.9034
9.78836
8.20528
6.35306
4.50301
1.7619
-0.479282
-4.15877
-6.95626
-11.3546
-14.8675
-19.6406
-23.4717
-28.0587
-31.377
-34.8352
-36.5623
-37.8431
-37.2862
-35.7672
-32.9424
-28.7728
-24.6676
-19.2483
-15.2634
-10.0937
-6.95797
-2.94449
-0.954142
1.79024
2.7559
4.3703
4.53344
5.19274
4.79631
4.65362
3.89138
3.08465
2.06658
0.657131
-0.479539
-2.51539
-3.64989
-6.18366
-7.36231
-10.0373
-11.4084
-13.8421
-15.3494
-17.2277
-18.5856
-19.86
-20.8473
-21.486
-22.0169
-22.0812
-22.2894
-21.9151
-21.951
-21.3125
-21.3363
-20.5516
-20.57
-19.8971
-19.805
-19.2657
-19.0983
-18.7416
-18.4607
-18.2716
-17.9254
-17.885
-17.4486
-17.6101
-17.0353
-17.4555
-16.5944
-17.2723
-16.3256
-16.8733
-16.3725
-16.5269
-16.2614
-16.2644
-16.0556
-16.0006
-15.8134
-15.6814
-15.5301
-15.3307
-15.2648
-14.772
-14.9357
-14.0809
-14.4405
-13.3285
-13.7679
-12.5322
-12.7105
-11.4497
-11.3193
-9.9301
-9.54562
-7.88876
-7.26071
-5.23986
-4.27815
-1.89966
-0.355286
2.35486
4.67477
7.80189
11.0378
14.7705
18.9633
23.715
28.7262
35.0741
40.7292
49.1841
55.3754
66.4796
72.9713
87.4334
93.5364
113.171
115.388
143.328
139.98
171.191
167.348
196.151
5.11353
14.7392
11.5504
15.7396
15.0273
17.1139
16.8893
17.9677
17.9037
18.2954
18.4572
18.2839
18.7726
18.1364
18.8973
18.043
18.7835
18.2795
18.3879
18.4537
18.1918
18.4783
18.1059
18.4533
18.051
18.4557
17.9749
18.5071
17.8624
18.5381
17.7442
18.5851
17.6044
18.6131
17.545
18.3399
17.7691
17.918
17.8509
17.6692
17.7913
17.4903
17.7405
17.3051
17.7217
17.1148
17.6893
16.9505
17.6295
16.8298
17.513
16.6627
17.165
16.4449
16.6935
16.0048
16.0381
15.2627
15.0392
14.1277
13.5376
12.4561
11.3405
10.0271
8.21258
6.56599
3.88517
1.75894
-1.87686
-4.70837
-9.22412
-12.857
-18.0081
-22.2386
-27.4786
-31.684
-36.0531
-39.0377
-41.1907
-41.6893
-40.5766
-38.3122
-34.1189
-29.8507
-23.823
-19.1285
-12.9461
-9.0572
-4.04957
-1.54518
1.71945
2.99691
4.80255
5.16522
5.86789
5.65301
5.49807
4.88924
4.02604
3.14746
1.63407
0.592734
-1.55977
-2.69558
-5.36049
-6.63895
-9.53544
-11.0323
-13.7089
-15.3478
-17.5971
-19.0696
-20.6487
-21.7296
-22.546
-23.0853
-23.1426
-23.2794
-22.6761
-22.7066
-21.7594
-21.8218
-20.8419
-20.7496
-20.183
-19.9279
-19.6709
-19.2952
-19.3043
-18.7872
-18.9587
-18.3526
-18.6304
-17.9344
-18.3304
-17.4974
-18.0807
-17.0749
-17.7998
-16.8084
-17.2421
-16.8592
-16.8562
-16.8096
-16.5436
-16.6642
-16.2588
-16.4903
-15.9571
-16.2605
-15.6738
-16.03
-15.2826
-15.7741
-14.8082
-15.3828
-14.3305
-14.6586
-13.8684
-13.8721
-13.0901
-12.9216
-11.9852
-11.7002
-10.5339
-10.0603
-8.64379
-7.8575
-6.19006
-4.94515
-2.99554
-1.16438
1.156
3.66908
6.5593
9.7238
13.5736
17.2476
22.4759
26.5384
33.6517
37.9884
47.4598
51.9601
64.4402
68.2639
85.9454
86.6505
111.24
109.325
137.777
137.684
164.706
8.06895
16.6209
13.074
16.7212
15.7947
17.4436
17.3146
18.0531
18.1383
18.3023
18.5828
18.2931
18.7886
18.1808
18.8246
18.1063
18.6299
18.3395
18.2691
18.4518
18.1267
18.469
18.0399
18.4235
17.9968
18.4091
17.9435
18.4344
17.8563
18.4657
17.7339
18.4936
17.5945
18.4235
17.5924
18.1399
17.7657
17.7778
17.8029
17.5606
17.7238
17.3682
17.6512
17.1767
17.5659
17.0004
17.4898
16.8618
17.3954
16.7334
17.2733
16.6524
16.9779
16.4801
16.6326
16.1206
16.1357
15.5472
15.3486
14.6592
14.1409
13.3078
12.3377
11.2879
9.70032
8.30047
5.93705
3.96552
0.709743
-2.12174
-6.33792
-10.2413
-15.3713
-20.2453
-25.955
-31.1261
-36.4206
-40.5488
-43.8014
-45.3357
-45.0805
-43.0946
-38.7313
-33.7044
-26.7551
-20.9764
-14.2715
-9.46073
-4.23727
-1.03164
2.37663
4.02849
5.90975
6.51764
7.19417
7.19201
6.97139
6.54412
5.64599
4.87594
3.36778
2.36051
0.250802
-0.973593
-3.51159
-5.04603
-7.76608
-9.63337
-12.2329
-14.2342
-16.5162
-18.3682
-20.0285
-21.438
-22.4026
-23.1703
-23.4034
-23.6309
-23.2494
-23.0888
-22.4031
-22.114
-21.3861
-21.0418
-20.3987
-20.046
-19.5759
-19.136
-18.944
-18.3958
-18.4423
-17.8393
-18.02
-17.401
-17.6985
-17.0406
-17.5414
-16.6796
-17.3111
-16.5348
-16.8593
-16.5848
-16.5084
-16.5203
-16.2445
-16.3884
-15.9846
-16.2096
-15.7168
-15.9857
-15.4425
-15.7338
-15.0848
-15.4631
-14.6325
-15.0638
-14.1709
-14.4454
-13.6092
-13.6762
-12.7696
-12.6784
-11.6475
-11.3584
-10.1469
-9.64405
-8.17769
-7.38857
-5.64708
-4.4197
-2.37022
-0.595159
1.87794
4.27054
7.38197
10.3948
14.4735
17.9919
23.521
27.3939
34.7808
38.9104
48.5554
52.7393
65.3358
68.5557
85.4738
85.8088
107.487
105.127
127.91
126.758
148.186
7.64161
15.8901
12.0854
16.2013
14.901
16.8518
16.6135
17.5272
17.6916
17.9139
18.34
18.0482
18.6489
18.0924
18.7534
18.109
18.6038
18.3579
18.306
18.4983
18.1754
18.5317
18.0773
18.5351
18.0081
18.5502
17.9395
18.592
17.8618
18.6391
17.7718
18.6662
17.6841
18.5801
17.7203
18.2846
17.9185
17.897
17.9905
17.7073
17.9298
17.5093
17.8729
17.3347
17.8435
17.1732
17.8099
17.0571
17.7749
17.0443
17.6653
17.0642
17.4201
16.9935
17.1569
16.7565
16.789
16.3455
16.1619
15.6511
15.156
14.5286
13.6038
12.7739
11.2823
10.0916
7.88051
6.08815
2.99584
0.292504
-3.84358
-7.71318
-12.9892
-18.0717
-24.3033
-30.2823
-36.742
-42.5018
-47.3945
-50.6364
-51.3551
-49.9815
-45.8107
-40.6399
-33.2632
-26.297
-18.0835
-11.8824
-5.24033
-1.24824
2.72723
4.72732
6.68032
7.44611
8.08789
8.17826
7.92298
7.53625
6.60752
5.88201
4.33412
3.39154
1.23155
0.022873
-2.58271
-4.16428
-7.06417
-9.0107
-11.9639
-14.087
-16.8176
-18.8655
-20.9795
-22.5599
-23.798
-24.6415
-24.8311
-24.9699
-24.2155
-24.0098
-22.8452
-22.5862
-21.5114
-21.2421
-20.497
-20.1623
-19.8956
-19.407
-19.4976
-18.9405
-19.1686
-18.5032
-18.8232
-18.036
-18.4746
-17.5645
-18.1601
-17.1923
-17.7865
-17.008
-17.2241
-17.0252
-16.844
-16.9631
-16.5688
-16.8277
-16.3154
-16.6947
-16.0554
-16.5226
-15.8399
-16.3129
-15.593
-16.102
-15.3047
-15.7665
-15.0504
-15.2603
-14.6844
-14.7451
-14.1202
-14.0776
-13.3624
-13.1893
-12.33
-11.9984
-10.9516
-10.3954
-9.13036
-8.25331
-6.71158
-5.4339
-3.50811
-1.79229
0.713943
2.84293
6.24148
8.70705
13.3524
16.0736
22.3817
25.273
33.6844
36.5698
47.8022
49.9634
65.4873
65.2917
84.7742
85.1894
105.603
106.092
126.139
9.78622
17.9318
13.5381
17.4667
15.8349
17.5838
17.1354
17.8725
17.9395
18.0642
18.4256
18.1144
18.6639
18.0902
18.6893
18.1261
18.5165
18.3381
18.2129
18.4575
18.0772
18.4943
17.9919
18.4907
17.9441
18.4985
17.8931
18.5189
17.8212
18.5623
17.7279
18.5847
17.6638
18.4695
17.7152
18.1718
17.8872
17.8011
17.9044
17.5881
17.8351
17.3854
17.7635
17.1717
17.7215
16.9973
17.6534
16.895
17.5454
16.8763
17.4609
16.9213
17.2915
16.9411
17.0978
16.832
16.8695
16.6018
16.4562
16.1593
15.7533
15.3748
14.6115
14.0566
12.8202
11.9211
10.0625
8.55622
5.88517
3.41176
-0.340151
-4.17397
-9.31132
-14.7884
-21.4389
-28.4645
-36.0784
-43.3928
-49.9994
-55.2117
-57.9324
-58.2105
-54.515
-48.7517
-40.0115
-31.2735
-21.9068
-14.4503
-6.6925
-1.35494
3.33348
5.83649
8.14125
9.07826
9.67053
10.0389
9.63907
9.5271
8.5525
7.99195
6.42681
5.58368
3.4255
2.18999
-0.355458
-2.12995
-4.94989
-7.17158
-10.1516
-12.6658
-15.4786
-18.0086
-20.3001
-22.3415
-23.8758
-25.0623
-25.5791
-25.871
-25.4615
-24.9893
-24.0592
-23.3422
-22.4339
-21.7889
-21.0452
-20.3467
-19.8849
-19.1343
-19.0332
-18.2781
-18.513
-17.8076
-18.1096
-17.3715
-17.7624
-17.0141
-17.6196
-16.7832
-17.3669
-16.6871
-16.91
-16.746
-16.55
-16.7048
-16.2996
-16.6128
-16.0761
-16.4842
-15.8488
-16.3265
-15.614
-16.123
-15.3996
-15.9226
-15.1526
-15.6031
-14.9185
-15.1113
-14.5649
-14.6005
-14.0139
-13.9306
-13.2756
-13.0521
-12.2713
-11.8938
-10.9272
-10.3512
-9.16074
-8.30573
-6.83436
-5.62703
-3.7538
-2.17288
0.309762
2.23207
5.61789
7.77231
12.4372
14.7647
21.0357
23.457
31.7181
33.9922
44.9664
46.0615
60.5578
60.4162
76.7479
76.6865
93.8818
94.0123
111.022
9.74648
17.7792
13.2321
17.3037
15.3453
17.519
16.752
17.7778
17.6929
17.9657
18.2836
18.0437
18.5859
18.0998
18.6566
18.1598
18.5312
18.377
18.2573
18.5203
18.1405
18.5582
18.0497
18.573
17.9739
18.6066
17.9225
18.6533
17.8706
18.7092
17.8114
18.718
17.7737
18.6
17.8412
18.3226
18.0202
17.9821
18.0647
17.7487
18.0381
17.5383
17.9719
17.3505
17.9339
17.1889
17.8892
17.1036
17.8525
17.1267
17.7643
17.2571
17.6066
17.3117
17.471
17.2824
17.3122
17.1539
17.0022
16.8435
16.449
16.2301
15.5176
15.1409
14.0165
13.3212
11.6515
10.3777
7.95976
5.7496
2.28112
-1.27954
-6.21148
-11.5521
-18.2875
-25.6965
-34.3153
-43.4716
-52.3155
-60.3283
-65.5508
-67.722
-64.6746
-58.5629
-49.2292
-39.0154
-27.0697
-17.1816
-8.04799
-1.15138
3.9949
7.40597
9.01622
10.682
10.6642
11.2322
10.6933
10.4284
9.4565
8.87202
7.27476
6.51228
4.42711
3.23596
0.756524
-0.925513
-3.87804
-6.08294
-9.27516
-11.9767
-15.1823
-18.0193
-20.8568
-23.2544
-25.1912
-26.7063
-27.2199
-27.6033
-26.6615
-26.179
-24.4467
-23.7289
-22.2846
-21.7992
-20.8927
-20.3617
-20.1836
-19.4896
-19.6709
-19.0138
-19.3407
-18.6621
-19.0271
-18.135
-18.5662
-17.5391
-18.1226
-17.2655
-17.7729
-17.1022
-17.2361
-17.096
-16.8421
-17.0327
-16.5713
-16.9331
-16.3377
-16.8265
-16.1275
-16.6967
-15.947
-16.5226
-15.7919
-16.351
-15.645
-16.1202
-15.5529
-15.7469
-15.3117
-15.4138
-14.9395
-14.9847
-14.4317
-14.4116
-13.7475
-13.6245
-12.8233
-12.5488
-11.569
-11.0677
-9.85688
-9.08731
-7.52854
-6.50164
-4.40988
-3.14192
-0.291799
1.15506
5.11628
6.63379
12.0695
13.5827
20.8913
22.248
32.1465
32.7045
45.1306
46.2481
60.4512
61.9511
77.1092
78.22
94.094
11.9019
19.8159
14.683
18.7105
16.3205
18.388
17.3405
18.2713
17.9863
18.2308
18.385
18.1755
18.5846
18.1228
18.6182
18.1322
18.4761
18.32
18.1837
18.4568
18.0242
18.5125
17.9466
18.5203
17.8925
18.5546
17.8413
18.6097
17.7833
18.6422
17.7458
18.6664
17.7289
18.5473
17.7986
18.2601
17.9704
17.8809
18.0345
17.6553
17.9618
17.4317
17.8679
17.1903
17.8255
16.9716
17.7847
16.877
17.6752
16.9276
17.5497
17.0318
17.501
17.235
17.3772
17.3235
17.3523
17.3571
17.2366
17.2721
16.9635
16.9702
16.4106
16.2957
15.4142
15.0222
13.7076
12.7909
10.8402
9.02685
6.07777
2.84474
-1.67944
-7.03432
-13.8259
-21.9121
-31.2732
-42.0181
-53.4201
-64.8665
-73.9548
-79.8041
-79.768
-74.5194
-63.9079
-51.578
-36.882
-23.9496
-11.9984
-2.73162
4.7111
8.53593
11.4239
12.3788
12.8586
13.1838
12.7728
12.7533
11.7171
11.3396
9.70018
9.00749
6.88965
5.67226
3.16228
1.31543
-1.62158
-4.07831
-7.37713
-10.4482
-13.8321
-17.1754
-20.3515
-23.2876
-25.7493
-27.7294
-28.8661
-29.4681
-29.0857
-28.238
-26.7945
-25.2061
-23.8353
-22.766
-21.8328
-20.6405
-20.088
-18.9259
-18.8568
-17.9041
-18.455
-17.7117
-18.1783
-17.4106
-17.7494
-17.0437
-17.6097
-16.8842
-17.4554
-16.7825
-16.9763
-16.8456
-16.6063
-16.8324
-16.3491
-16.7814
-16.1433
-16.6908
-15.9449
-16.6019
-15.7511
-16.4709
-15.6112
-16.294
-15.5266
-16.0947
-15.4702
-15.6906
-15.3487
-15.3786
-15.0334
-14.9749
-14.6253
-14.4591
-14.0313
-13.7764
-13.1995
-12.8597
-12.106
-11.6127
-10.628
-9.92556
-8.57544
-7.68536
-5.79353
-4.76668
-2.04061
-1.06416
2.7813
3.78298
8.94105
9.95592
16.6632
17.5475
26.262
27.2414
37.6031
38.8171
50.545
52.0109
65.0786
66.1659
80.2849
11.8761
20.1102
14.6203
18.8899
16.3046
18.5437
17.2983
18.4347
17.9526
18.3747
18.3924
18.2823
18.6396
18.2108
18.6786
18.191
18.5471
18.3823
18.2426
18.5364
18.0847
18.595
17.9864
18.6176
17.9111
18.6753
17.8582
18.7497
17.8104
18.8007
17.7943
18.8059
17.8094
18.6865
17.9135
18.4067
18.1161
18.0129
18.2137
17.7899
18.1658
17.5603
18.0873
17.3419
18.0351
17.1449
17.9851
17.0531
17.9118
17.1132
17.8084
17.2663
17.6944
17.4511
17.5953
17.5989
17.6007
17.696
17.5423
17.6912
17.3692
17.508
16.9864
17.0189
16.2452
16.0337
14.9135
14.2388
12.5941
11.1229
8.62011
5.86281
1.90731
-2.88275
-9.23298
-17.1456
-27.1121
-39.1311
-52.6014
-67.0894
-80.6209
-91.7106
-95.4311
-90.1949
-78.525
-62.5172
-45.5518
-29.2078
-15.9321
-3.49688
4.87035
11.5561
12.2397
14.7153
13.7332
14.8025
13.5886
13.3831
12.5489
11.8145
10.3267
9.84044
7.84729
6.83824
4.60443
2.96144
0.0783183
-2.23947
-5.51021
-8.72286
-12.3869
-16.1003
-19.8219
-23.3692
-26.4138
-29.1029
-30.4189
-31.6372
-30.6003
-29.9704
-27.2303
-25.5694
-23.0858
-22.3118
-21.5165
-20.6294
-20.6942
-19.5642
-19.8196
-18.8078
-19.5377
-18.7358
-19.4011
-18.2322
-18.6332
-17.3161
-17.9891
-17.2047
-17.8057
-17.1721
-17.2761
-17.1154
-16.8233
-17.0685
-16.5542
-17.0011
-16.3459
-16.9249
-16.1457
-16.837
-15.9826
-16.7149
-15.8867
-16.556
-15.8344
-16.4432
-15.8854
-16.1084
-15.829
-15.9114
-15.6155
-15.6648
-15.3653
-15.3146
-15.0154
-14.8646
-14.48
-14.2731
-13.6844
-13.4415
-12.6073
-12.2825
-11.108
-10.7247
-9.02229
-8.68084
-6.21927
-5.86002
-2.62197
-2.22346
2.16271
2.56588
8.46175
8.83235
16.4222
17.0847
26.2577
27.428
38.0047
39.5029
51.4929
52.652
66.1727
13.8259
22.1179
16.0829
20.2211
17.3276
19.3964
17.9295
18.9279
18.3009
18.6175
18.5589
18.3764
18.687
18.2164
18.7036
18.1424
18.5261
18.3162
18.1802
18.4715
17.9729
18.5375
17.8779
18.5653
17.8135
18.6259
17.7574
18.7149
17.7086
18.7768
17.6998
18.7884
17.7446
18.6723
17.864
18.3864
18.0823
17.9747
18.1699
17.7267
18.1149
17.4811
18.0084
17.2097
17.9455
16.9516
17.892
16.8048
17.7847
16.8558
17.6573
17.0509
17.5385
17.3701
17.469
17.5929
17.5623
17.8096
17.6679
17.9711
17.7199
18.0167
17.6095
17.8285
17.2356
17.2523
16.4155
16.0307
14.7997
13.704
11.7683
9.50122
6.27927
2.0675
-3.4395
-10.9341
-20.293
-33.0624
-48.3146
-67.1585
-86.8011
-105.393
-116.113
-115.958
-105.45
-87.5885
-65.8006
-43.0246
-24.8037
-9.73987
4.92206
10.9855
16.658
16.2413
16.6647
16.3241
16.2657
15.921
14.9884
14.7427
12.8019
12.2995
10.3624
9.27404
6.92876
5.2956
2.51214
-0.226899
-3.38604
-6.92083
-10.8638
-14.9997
-19.2281
-23.4254
-27.2077
-30.7014
-33.0774
-34.7736
-34.8647
-33.8759
-31.7563
-28.3168
-25.7327
-23.6365
-22.6473
-20.729
-20.1425
-18.4853
-18.248
-17.0404
-17.9258
-17.4803
-18.245
-17.7541
-17.8891
-17.0421
-17.4482
-16.857
-17.5482
-16.8195
-17.0948
-16.8955
-16.658
-16.8788
-16.3935
-16.8533
-16.1869
-16.816
-16.0023
-16.7759
-15.8605
-16.6975
-15.7793
-16.5597
-15.7274
-16.4778
-15.833
-16.164
-15.8959
-15.9668
-15.7786
-15.7291
-15.6384
-15.4912
-15.3716
-15.1584
-14.9514
-14.6932
-14.3951
-14.1046
-13.6027
-13.2663
-12.3817
-12.0211
-10.6417
-10.3355
-8.27362
-8.11168
-5.13939
-5.11193
-1.16859
-1.10712
3.98305
3.91863
10.6393
10.6037
18.8125
19.0444
28.4572
29.0369
39.9452
40.4433
53.1889
13.8784
22.4915
16.167
20.6615
17.5416
19.7372
18.2155
19.2163
18.5796
18.8521
18.7948
18.5586
18.8899
18.3303
18.8934
18.2289
18.6522
18.4101
18.252
18.5798
18.0078
18.6575
17.8874
18.6797
17.8091
18.7396
17.7585
18.8366
17.7185
18.9126
17.7311
18.9141
17.7966
18.8015
17.9495
18.5183
18.2049
18.1089
18.3354
17.8258
18.3118
17.5774
18.2505
17.3131
18.1758
17.0859
18.0971
16.9594
17.9822
16.9937
17.8414
17.166
17.6707
17.4562
17.5592
17.7491
17.652
17.9757
17.7726
18.1687
17.8763
18.2999
17.9097
18.2556
17.7468
17.9048
17.2316
17.0471
16.1071
15.3231
13.84
12.0482
9.4823
5.9649
1.26532
-5.36329
-14.117
-26.0516
-41.9059
-61.9145
-86.4843
-113.108
-133.238
-137.291
-128.707
-108.009
-83.4376
-56.1339
-34.5448
-15.1457
0.342721
14.5552
15.8871
20.7136
17.6193
17.7274
16.2557
16.3406
14.69
14.706
13.2695
12.7687
11.1988
10.3773
8.57841
6.96266
4.6413
2.23817
-0.960229
-4.27617
-8.27868
-12.6857
-17.2906
-22.112
-26.5933
-30.9555
-33.9249
-36.9427
-36.9713
-36.8725
-33.0221
-29.3484
-23.4526
-22.3487
-22.3633
-21.2255
-21.5678
-20.1059
-19.811
-18.0305
-19.0846
-18.693
-20.1239
-18.4354
-18.9678
-16.8152
-17.5795
-16.893
-18.0456
-17.3304
-17.3814
-17.113
-16.7697
-17.0611
-16.5483
-17.0572
-16.3466
-16.9977
-16.1249
-16.9349
-15.9838
-16.8809
-15.9167
-16.7529
-15.917
-16.6477
-16.102
-16.4467
-16.1804
-16.2899
-16.1622
-16.136
-16.1184
-15.9547
-16.0633
-15.8158
-15.8295
-15.6091
-15.4381
-15.26
-14.9821
-14.7606
-14.2349
-14.022
-13.0369
-13.0204
-11.2966
-11.4982
-9.12876
-9.54199
-6.37331
-6.61846
-2.59527
-2.93976
2.57473
2.37688
9.32839
9.76274
17.6627
18.3686
27.9687
28.4878
40.5222
15.8487
24.557
17.5034
21.8674
18.4648
20.4438
18.8072
19.5945
18.9304
19.0119
19.0053
18.5864
19.0169
18.3038
18.9707
18.1677
18.6613
18.3564
18.1942
18.538
17.9042
18.6223
17.7463
18.6712
17.6615
18.7331
17.617
18.8339
17.5885
18.9187
17.6116
18.9373
17.7036
18.8323
17.8946
18.5352
18.1987
18.0858
18.3551
17.7817
18.3264
17.5162
18.2266
17.2132
18.1385
16.9197
18.0525
16.731
17.9205
16.752
17.7368
16.9735
17.5274
17.3875
17.3572
17.669
17.5257
17.996
17.7967
18.294
18.0643
18.5576
18.2472
18.7034
18.318
18.6177
18.1505
18.1347
17.5183
16.9882
15.9996
14.6181
12.7755
9.94052
6.34331
0.80903
-6.32163
-17.031
-30.9268
-51.8413
-77.795
-110.129
-139.769
-155.084
-154.001
-139.872
-107.732
-74.8038
-49.4863
-27.2627
-8.41415
9.56708
18.8311
20.4036
21.7121
19.4618
18.9394
18.8926
17.7873
17.6326
15.58
15.0098
13.2906
12.3544
10.6067
9.24166
6.91211
4.51569
1.61306
-1.86473
-6.02219
-10.7931
-15.9639
-21.4364
-26.9768
-32.5885
-36.7821
-40.8722
-42.6387
-43.2282
-41.4213
-35.3162
-28.961
-23.3967
-22.3754
-20.3524
-19.9158
-18.3535
-17.7729
-15.4617
-16.1364
-16.4397
-18.3782
-19.1414
-18.7664
-17.2926
-16.923
-16.2592
-17.3569
-17.0045
-17.4017
-17.0133
-16.721
-16.784
-16.4018
-16.854
-16.2118
-16.9031
-16.0492
-16.8548
-15.9365
-16.8179
-15.876
-16.7213
-15.8476
-16.6596
-15.9981
-16.5408
-16.2263
-16.3707
-16.3219
-16.204
-16.3262
-16.1412
-16.3109
-16.0194
-16.2018
-15.8713
-16.0194
-15.7839
-15.8271
-15.6089
-15.3394
-15.1083
-14.4472
-14.3455
-13.1748
-13.4197
-11.2432
-12.0662
-9.34576
-9.86159
-6.43107
-7.48172
-2.526
-3.75129
2.47859
1.77222
8.8104
8.11982
16.8058
15.9236
27.8292
15.6313
25.0286
17.7727
22.4326
18.9461
20.8473
19.3833
19.9271
19.4805
19.2522
19.472
18.769
19.3928
18.4255
19.2151
18.3039
18.7986
18.5051
18.2407
18.7055
17.8926
18.7939
17.7153
18.8302
17.6054
18.8884
17.5552
18.987
17.5276
19.0668
17.5707
19.0618
17.7009
18.9345
17.948
18.6174
18.3245
18.1483
18.5448
17.8203
18.552
17.5599
18.4634
17.2863
18.3532
17.0279
18.2375
16.8439
18.0862
16.8378
17.8664
17.0191
17.6225
17.4375
17.3828
17.7804
17.5255
18.0046
17.7445
18.3099
18.0061
18.6525
18.3168
18.87
18.5408
18.9014
18.5467
18.6286
18.2224
17.8586
17.1938
16.1047
14.7552
12.453
9.64345
5.09879
-0.640445
-9.54907
-21.1598
-39.5141
-63.8867
-95.3574
-129.212
-151.765
-158.153
-151.958
-121.511
-85.7305
-57.7064
-35.3941
-14.0654
5.30153
20.1608
18.2848
21.619
20.3666
17.4165
17.7961
16.4459
16.8077
15.9934
15.3687
14.0261
13.4149
11.9522
10.7812
9.07305
6.88079
4.11596
1.08818
-2.76201
-7.50007
-12.8943
-18.8191
-24.5957
-30.9549
-35.9119
-41.7436
-44.3025
-47.0698
-44.4119
-38.2724
-24.8016
-22.0408
-22.1888
-22.1796
-23.3858
-21.4546
-20.5883
-16.8949
-16.6792
-17.4779
-20.2944
-19.5007
-20.2898
-16.3466
-16.7845
-16.2025
-18.118
-17.6694
-17.6738
-17.0886
-16.773
-16.8981
-16.5806
-17.1165
-16.2879
-17.0465
-16.0564
-16.9828
-15.9827
-16.9433
-15.9425
-16.819
-15.9244
-16.7008
-16.1051
-16.6073
-16.3893
-16.4694
-16.5471
-16.3697
-16.5122
-16.3206
-16.6455
-16.4347
-16.6377
-16.3438
-16.4728
-16.2828
-16.4525
-16.3245
-16.3329
-16.1794
-15.7899
-15.9433
-14.8773
-15.228
-13.6151
-14.6953
-12.8284
-13.2844
-10.907
-12.3203
-8.48726
-10.1602
-5.04145
-4.90561
-0.506865
0.189371
5.39808