/*--------------------------------*- C++ -*----------------------------------*\
| =========                 |                                                 |
| \\      /  F ield         | OpenFOAM: The Open Source CFD Toolbox           |
|  \\    /   O peration     | Version:  4.1                                   |
|   \\  /    A nd           | Web:      www.OpenFOAM.org                      |
|    \\/     M anipulation  |                                                 |
\*---------------------------------------------------------------------------*/
FoamFile
{
    version     2.0;
    format      ascii;
    class       volScalarField;
    location    "6";
    object      epsilon;
}
// * * * * * * * * * * * * * * * * * * * * * * * * * * * * * * * * * * * * * //

dimensions      [0 2 -3 0 0 0 0];

internalField   nonuniform List<scalar> 
204246
(
0.63558
0.734486
0.732652
0.732317
0.731086
0.731068
0.730971
0.731609
0.731738
0.732601
0.733098
0.734138
0.73409
0.734887
0.73434
0.734415
0.733634
0.730796
0.731938
0.730037
0.729795
0.72944
0.729592
0.729864
0.730483
0.730885
0.731714
0.732656
0.734266
0.73437
0.734626
0.733918
0.734107
0.733689
0.733943
0.734224
0.732759
0.734863
0.735294
0.736061
0.736674
0.737634
0.738801
0.740042
0.741867
0.744008
0.746924
0.749214
0.752788
0.755044
0.759305
0.762214
0.767665
0.769116
0.779612
0.78367
0.794354
0.805096
0.824862
0.85445
0.910287
1.01263
1.21072
1.56385
2.14864
2.91011
3.30959
3.42993
3.48248
3.50129
3.51942
3.54197
3.54515
3.5506
3.54779
3.55346
3.54422
3.54676
3.54535
3.55758
3.57068
3.58064
3.61097
3.62768
3.68216
3.71078
3.7766
3.80095
3.87456
3.92366
3.97359
4.04036
4.07951
4.14937
4.19198
4.26183
4.30489
4.37303
4.41666
4.48164
4.52341
4.58864
4.63029
4.69443
4.73716
4.80028
4.83413
4.91627
4.94436
5.01844
5.04853
5.11993
5.15314
5.21341
5.25487
5.30577
5.34783
5.39598
5.43926
5.48668
5.53105
5.58059
5.62606
5.66205
5.73935
5.76569
5.84295
5.87239
5.95216
5.98523
6.06502
6.09945
6.18081
6.21862
6.30268
6.343
6.42821
6.47055
6.55826
6.60289
6.67368
6.75595
6.8128
6.89484
6.95311
7.03792
7.09613
7.1847
7.24258
7.33479
7.39221
7.48791
7.5444
7.64353
7.69959
7.80267
7.85757
7.94078
8.03938
8.10192
8.20119
8.26292
8.3651
8.42525
8.53073
8.58861
8.69874
8.75335
8.86874
8.9207
9.04344
9.0917
9.22404
9.26979
9.41636
9.45638
9.59201
9.69893
9.79545
9.93163
10.0233
10.1907
10.2872
10.49
10.6035
10.8472
10.9928
11.2834
11.4763
11.7885
11.9876
12.1653
12.1871
0.0361561
0.102973
0.0981239
0.095421
0.0972241
0.0953067
0.0972923
0.0962779
0.0987009
0.0978664
0.100418
0.0993446
0.100847
0.09859
0.100273
0.0976765
0.0992917
0.0969144
0.0958949
0.0971417
0.0949304
0.0971126
0.095335
0.0974675
0.0964979
0.0991318
0.0984014
0.101169
0.0996471
0.101693
0.0993004
0.101018
0.0984525
0.100363
0.0983129
0.10034
0.0993897
0.098876
0.101388
0.0997877
0.102437
0.101666
0.105018
0.10446
0.108371
0.107476
0.112241
0.111229
0.116333
0.115336
0.120556
0.120411
0.127542
0.128841
0.134672
0.148687
0.158225
0.194295
0.231051
0.324709
0.466242
0.756356
1.21918
1.89582
2.21486
2.26356
2.05127
1.47801
0.983649
0.8193
0.730774
0.658396
0.604179
0.565785
0.565022
0.544027
0.547189
0.538464
0.554357
0.552039
0.581454
0.585783
0.628375
0.641063
0.68772
0.705363
0.756089
0.777816
0.824532
0.856635
0.900592
0.937355
0.979199
1.01948
1.0572
1.09931
1.13277
1.17469
1.19992
1.24358
1.25881
1.30375
1.31675
1.36011
1.37185
1.41498
1.42407
1.45695
1.48421
1.50038
1.53681
1.54163
1.58278
1.58511
1.62516
1.62612
1.66401
1.66522
1.70227
1.70317
1.74155
1.74308
1.78664
1.79155
1.81644
1.8556
1.86104
1.91448
1.92257
1.97799
1.98662
2.04516
2.05551
2.11732
2.12914
2.19463
2.20765
2.27663
2.29123
2.36678
2.38536
2.43605
2.49887
2.51566
2.59627
2.61505
2.69895
2.71892
2.80672
2.82813
2.92
2.94289
3.03706
3.06032
3.15945
3.18482
3.29174
3.32144
3.39243
3.48109
3.50763
3.61372
3.64014
3.74756
3.77435
3.88121
3.90751
4.01302
4.03802
4.14123
4.16533
4.26554
4.28821
4.38817
4.41552
4.51058
4.53706
4.58108
4.65618
4.6644
4.7379
4.7377
4.79685
4.78945
4.83269
4.819
4.86134
4.85071
4.99614
5.12625
5.61845
5.91664
6.06947
0.00424604
0.00851613
0.007438
0.00693303
0.00714435
0.00692098
0.0072292
0.00714276
0.00748838
0.00736381
0.00754061
0.00732155
0.00744795
0.00706268
0.00720062
0.0067877
0.00695738
0.00667484
0.00659748
0.00683419
0.0066805
0.00700159
0.00685139
0.00722674
0.00717517
0.0075172
0.00737652
0.00752254
0.00721814
0.00738448
0.00707713
0.00730989
0.00705966
0.00734658
0.00714837
0.00742904
0.00733201
0.00732627
0.00770281
0.00755058
0.00796261
0.00790784
0.00842201
0.00839621
0.00902065
0.00896818
0.00974468
0.00968823
0.0106201
0.0106179
0.0120696
0.0125128
0.0149812
0.0165527
0.0209884
0.0280706
0.0395628
0.0628993
0.103561
0.184709
0.333879
0.616317
1.10077
1.64629
1.7847
1.67064
1.14827
0.592649
0.404207
0.347219
0.32559
0.314361
0.304395
0.292817
0.290611
0.28867
0.289947
0.291613
0.300891
0.310582
0.331838
0.347589
0.378397
0.400101
0.442993
0.474555
0.525487
0.561089
0.613321
0.659995
0.710434
0.764896
0.811734
0.871354
0.912876
0.973486
1.00923
1.06815
1.09578
1.1476
1.17085
1.21257
1.23135
1.265
1.28072
1.3103
1.32407
1.35001
1.36583
1.39097
1.40985
1.43445
1.45589
1.4794
1.50033
1.52077
1.53894
1.55481
1.57069
1.58266
1.59709
1.60607
1.61966
1.62619
1.6371
1.64697
1.65764
1.67361
1.68692
1.70727
1.72088
1.74356
1.75564
1.77845
1.78824
1.81209
1.82145
1.84613
1.85551
1.88065
1.8897
1.90871
1.92437
1.93473
1.95478
1.96061
1.98042
1.98473
2.00237
2.00494
2.02006
2.02057
2.03239
2.0308
2.03813
2.03386
2.03865
2.02981
2.02369
2.02361
2.00381
2.00344
1.97614
1.97328
1.93943
1.93411
1.89487
1.88806
1.84501
1.83714
1.79071
1.78238
1.73252
1.72354
1.67428
1.66574
1.6123
1.58846
1.57002
1.52771
1.52216
1.47582
1.47146
1.42796
1.4256
1.38904
1.39063
1.37087
1.38102
1.36924
1.37753
1.25851
1.21324
0.00118401
0.0015465
0.00145826
0.00141966
0.0014278
0.00141151
0.00143162
0.0014261
0.00144724
0.00143651
0.00144573
0.00142952
0.001436
0.00140877
0.00141609
0.00138894
0.00139776
0.00138159
0.001378
0.001392
0.0013862
0.00140619
0.00140013
0.00142748
0.0014259
0.00144829
0.00143883
0.00144685
0.00142516
0.00143178
0.00140889
0.00142228
0.00140799
0.00142621
0.00141508
0.00143418
0.00142929
0.00143305
0.00146174
0.00145447
0.00148951
0.00148867
0.0015336
0.00153546
0.00159172
0.00159167
0.00167233
0.00168017
0.00182873
0.00187636
0.0021491
0.00237379
0.00303178
0.00395531
0.00598653
0.00992146
0.0177103
0.0337677
0.0655914
0.129362
0.251237
0.476559
0.855891
1.23293
1.31772
1.23456
0.824328
0.361198
0.209122
0.156241
0.132918
0.119801
0.104433
0.0834087
0.0752326
0.0702401
0.0679351
0.0653654
0.06548
0.0652004
0.0682042
0.0718761
0.0815769
0.0902998
0.105807
0.120307
0.143803
0.166501
0.197624
0.233258
0.272756
0.322284
0.370859
0.435047
0.491924
0.567766
0.62658
0.707466
0.764519
0.844464
0.895199
0.967994
1.01028
1.07204
1.1044
1.15443
1.1778
1.21723
1.23837
1.26864
1.29068
1.31616
1.34108
1.36265
1.38846
1.40556
1.42769
1.43749
1.45275
1.45851
1.46609
1.46704
1.4683
1.46486
1.4582
1.44941
1.435
1.42726
1.41717
1.41558
1.4107
1.41156
1.40695
1.40759
1.39991
1.3994
1.38798
1.3862
1.37252
1.36996
1.35228
1.34405
1.3319
1.3148
1.30617
1.28207
1.27435
1.2453
1.236
1.20339
1.19259
1.15658
1.14426
1.10512
1.09142
1.05001
1.03549
0.989742
0.967815
0.934273
0.90096
0.876601
0.834355
0.818038
0.772808
0.756927
0.713157
0.698177
0.657968
0.644264
0.608055
0.596014
0.563908
0.553614
0.525456
0.516792
0.492072
0.481079
0.465787
0.452352
0.443251
0.427437
0.422704
0.406894
0.403065
0.392764
0.392259
0.391542
0.405379
0.418321
0.442251
0.450152
0.456152
0.00126882
0.0012635
0.00125989
0.00125764
0.00125735
0.00125656
0.00125696
0.00125674
0.00125738
0.00125701
0.00125729
0.00125673
0.0012569
0.00125602
0.00125618
0.00125531
0.00125541
0.00125482
0.00125465
0.00125475
0.00125466
0.00125512
0.00125498
0.00125579
0.00125597
0.00125682
0.00125658
0.00125685
0.00125618
0.00125634
0.00125575
0.00125614
0.00125575
0.00125623
0.00125593
0.00125648
0.00125639
0.00125676
0.00125775
0.00125771
0.00125946
0.00125967
0.00126196
0.00126237
0.00126615
0.00126724
0.0012749
0.0012797
0.00129825
0.0013208
0.00138169
0.00149058
0.00174144
0.00225646
0.00338014
0.0057998
0.0109436
0.0219412
0.044829
0.0917613
0.183628
0.354825
0.644499
0.942675
1.01243
0.963705
0.693349
0.296261
0.12493
0.0717934
0.0514958
0.0426262
0.0381324
0.0327952
0.0278992
0.0233754
0.0216443
0.0202099
0.0197921
0.0195168
0.0198339
0.0205483
0.0229669
0.0258195
0.0302358
0.03457
0.0410846
0.04848
0.0589877
0.0726101
0.0884424
0.108988
0.131402
0.161909
0.194091
0.238246
0.280621
0.338811
0.390105
0.459672
0.515726
0.589221
0.645064
0.71605
0.765355
0.827077
0.864681
0.913088
0.945389
0.978952
1.0075
1.03059
1.05933
1.07519
1.10263
1.11325
1.13277
1.13889
1.14677
1.14693
1.14799
1.14264
1.13714
1.11824
1.09899
1.07607
1.04423
1.02107
0.984693
0.964922
0.932232
0.91983
0.892983
0.883169
0.856899
0.847251
0.819289
0.808827
0.779394
0.768391
0.737343
0.722509
0.698898
0.678088
0.659294
0.633487
0.619958
0.590896
0.579704
0.550411
0.539583
0.511431
0.501117
0.474565
0.464972
0.440434
0.431745
0.408535
0.397849
0.382236
0.369188
0.359224
0.344601
0.339191
0.325493
0.321152
0.310104
0.306842
0.298073
0.295682
0.289081
0.287543
0.282941
0.282223
0.279399
0.279427
0.278139
0.27798
0.279457
0.27947
0.282275
0.282786
0.285632
0.28612
0.288293
0.288522
0.291789
0.293007
0.300577
0.305549
0.315086
0.318896
0.321646
0.00125743
0.00125743
0.00125492
0.00125415
0.00125374
0.00125344
0.00125333
0.00125317
0.00125315
0.00125313
0.00125311
0.00125306
0.00125306
0.00125305
0.00125305
0.001253
0.00125303
0.00125303
0.00125299
0.00125302
0.00125301
0.00125296
0.00125297
0.00125296
0.00125291
0.00125293
0.00125292
0.00125288
0.00125288
0.00125288
0.00125281
0.00125282
0.0012528
0.00125275
0.00125275
0.00125275
0.00125274
0.00125273
0.00125274
0.00125272
0.00125272
0.00125282
0.00125319
0.00125378
0.00125466
0.00125565
0.00125722
0.00125965
0.00126509
0.00127627
0.0013021
0.00135921
0.00149035
0.0017872
0.00245772
0.00396733
0.00729802
0.0146249
0.0302988
0.0631657
0.128859
0.253514
0.467657
0.73712
0.820032
0.807171
0.643484
0.335711
0.1207
0.0520389
0.0283266
0.0201184
0.0168078
0.0150174
0.0137864
0.0120318
0.0104295
0.00940287
0.00917321
0.00911667
0.00943886
0.0103832
0.0122125
0.0144453
0.0163608
0.0177011
0.0184616
0.019372
0.020747
0.0233447
0.0275958
0.033766
0.0419601
0.0524517
0.0650597
0.0818939
0.101683
0.12752
0.155455
0.191269
0.227867
0.273245
0.316687
0.368233
0.414123
0.466687
0.508425
0.55433
0.592398
0.625285
0.656582
0.676718
0.702055
0.712068
0.731933
0.738233
0.750013
0.752309
0.754927
0.752932
0.751981
0.742613
0.733901
0.712618
0.693633
0.670614
0.640694
0.618374
0.583597
0.563777
0.530204
0.516294
0.489203
0.478557
0.455635
0.446859
0.426159
0.418217
0.398694
0.391219
0.372255
0.363354
0.349832
0.339212
0.329139
0.316747
0.310188
0.297401
0.292488
0.280542
0.276215
0.26558
0.261782
0.252465
0.249192
0.241186
0.238458
0.231377
0.228208
0.223993
0.220341
0.217872
0.214126
0.212842
0.209719
0.208856
0.206732
0.206283
0.20508
0.20505
0.204716
0.205237
0.205422
0.206986
0.207494
0.209949
0.210924
0.213988
0.215982
0.219445
0.222468
0.226387
0.230429
0.234847
0.239927
0.244845
0.250909
0.256208
0.263048
0.268389
0.273917
0.276346
0.277726
0.00125827
0.00125701
0.00125493
0.0012542
0.00125349
0.00125319
0.00125304
0.00125292
0.00125286
0.0012528
0.0012528
0.00125277
0.00125272
0.00125272
0.0012527
0.00125263
0.00125263
0.00125259
0.00125256
0.00125254
0.00125251
0.00125251
0.00125251
0.0012525
0.00125248
0.00125256
0.00125287
0.00125319
0.00125327
0.00125329
0.0012533
0.0012533
0.00125323
0.00125324
0.00125323
0.00125316
0.00125316
0.00125314
0.00125309
0.00125309
0.00125307
0.00125303
0.00125303
0.00125302
0.00125301
0.00125308
0.00125342
0.00125432
0.00125656
0.00126172
0.0012739
0.00130207
0.00136835
0.00152322
0.00188227
0.00271316
0.00459462
0.00884552
0.0181989
0.038462
0.0804689
0.163858
0.314941
0.552095
0.686495
0.699852
0.616621
0.406435
0.157018
0.0585404
0.0252277
0.0131515
0.00896284
0.00748912
0.00700506
0.00686254
0.00688638
0.00720762
0.00828204
0.010405
0.0141535
0.0203296
0.0295497
0.0377886
0.0396464
0.0400889
0.0362022
0.0277771
0.0201834
0.0178135
0.0175479
0.0184285
0.0217857
0.0270374
0.0335251
0.0417611
0.0516263
0.064715
0.0790651
0.0972666
0.116445
0.140874
0.165813
0.195861
0.224486
0.257531
0.286048
0.316943
0.344343
0.368014
0.390705
0.404857
0.419591
0.424716
0.43365
0.435444
0.438924
0.438366
0.438695
0.435156
0.432469
0.422733
0.415219
0.399144
0.387075
0.371805
0.354467
0.341553
0.32189
0.312416
0.294651
0.287329
0.272737
0.267031
0.255462
0.251059
0.24153
0.237936
0.229715
0.226632
0.219173
0.21572
0.210734
0.206814
0.203425
0.199088
0.197063
0.192964
0.191488
0.187947
0.186762
0.183832
0.182898
0.180539
0.179836
0.178023
0.177548
0.176192
0.175637
0.175277
0.174796
0.17483
0.174692
0.175129
0.17523
0.176231
0.176553
0.178103
0.178725
0.180834
0.181771
0.184454
0.185711
0.188958
0.19054
0.19432
0.196226
0.200296
0.202899
0.207057
0.210351
0.214698
0.218662
0.223222
0.227826
0.23272
0.237947
0.243172
0.248761
0.253603
0.257815
0.25985
0.260867
0.00125613
0.00125487
0.00125355
0.00125298
0.00125253
0.00125233
0.00125224
0.00125221
0.00125218
0.00125211
0.00125211
0.0012521
0.00125204
0.00125204
0.00125201
0.00125199
0.00125201
0.00125201
0.00125199
0.00125199
0.00125197
0.00125197
0.00125212
0.00125238
0.00125247
0.00125248
0.00125249
0.00125249
0.00125249
0.00125247
0.00125241
0.00125241
0.00125237
0.00125234
0.00125235
0.00125235
0.00125233
0.00125233
0.00125232
0.00125231
0.00125243
0.00125277
0.00125335
0.00125404
0.00125464
0.001255
0.00125525
0.00125586
0.00125716
0.00126012
0.00126664
0.00128149
0.00131568
0.00139568
0.00158251
0.0020215
0.00303283
0.00536183
0.0105913
0.0222028
0.0470061
0.0982379
0.196518
0.370273
0.576314
0.635303
0.611691
0.478008
0.261575
0.0914386
0.0350594
0.0163309
0.0101363
0.00838722
0.0080265
0.00812665
0.0090223
0.0117255
0.0177401
0.0301797
0.0528197
0.0915323
0.145744
0.193543
0.206277
0.209107
0.196014
0.160102
0.103419
0.048756
0.0271415
0.0176307
0.0151382
0.0146717
0.0156988
0.0191137
0.0247371
0.0315221
0.0394587
0.049178
0.0606678
0.0750924
0.0912352
0.110129
0.129521
0.151026
0.171416
0.192725
0.212908
0.230398
0.246714
0.257265
0.26548
0.267973
0.270263
0.270094
0.270527
0.269351
0.268646
0.264955
0.262273
0.25575
0.251321
0.242441
0.236427
0.228669
0.221094
0.215135
0.206884
0.20301
0.195606
0.19259
0.186539
0.184145
0.17931
0.177445
0.17352
0.172017
0.168704
0.167443
0.164495
0.163132
0.161161
0.159658
0.158426
0.156849
0.156167
0.154753
0.154276
0.153128
0.152788
0.151937
0.151729
0.151164
0.151088
0.150813
0.15087
0.150802
0.150986
0.151479
0.151748
0.15273
0.153136
0.154538
0.155243
0.157092
0.158145
0.160395
0.161828
0.164524
0.166414
0.16963
0.172044
0.17581
0.178757
0.183078
0.186579
0.191306
0.195348
0.200266
0.20466
0.209606
0.214257
0.219375
0.224323
0.229562
0.23475
0.239963
0.245053
0.249576
0.253141
0.255069
0.255928
0.00125812
0.00125596
0.00125491
0.00125384
0.00125338
0.00125287
0.00125268
0.00125252
0.00125247
0.00125245
0.00125239
0.00125234
0.00125234
0.00125231
0.00125226
0.00125226
0.00125222
0.00125217
0.00125217
0.00125213
0.0012521
0.00125209
0.00125207
0.00125206
0.00125205
0.00125204
0.00125216
0.00125248
0.00125267
0.00125272
0.00125273
0.00125274
0.00125274
0.00125271
0.00125271
0.00125267
0.00125267
0.00125282
0.00125308
0.00125328
0.00125343
0.00125373
0.00125423
0.00125466
0.00125482
0.00125491
0.00125502
0.00125528
0.00125591
0.00125732
0.00126045
0.00126728
0.00128282
0.0013187
0.00140258
0.0016019
0.0020684
0.00316523
0.00568188
0.0114237
0.0240881
0.0513964
0.106732
0.212561
0.389735
0.557891
0.591085
0.548835
0.40758
0.208534
0.0752886
0.0325559
0.0193879
0.016852
0.0170952
0.0207396
0.0294643
0.0467457
0.0765024
0.12875
0.208941
0.326401
0.461568
0.564828
0.596439
0.605769
0.600651
0.57554
0.501826
0.371134
0.222103
0.0954852
0.0455867
0.0245676
0.0186001
0.0171407
0.0176536
0.0207283
0.0271304
0.0352441
0.0440732
0.0536104
0.0644003
0.077473
0.0921954
0.108676
0.124833
0.141098
0.156494
0.170497
0.183805
0.191834
0.19538
0.196212
0.196775
0.196419
0.196345
0.195079
0.193984
0.191253
0.189087
0.185084
0.182133
0.177188
0.17373
0.169598
0.165836
0.16272
0.158944
0.157022
0.153742
0.1524
0.149822
0.148808
0.146753
0.145957
0.144259
0.14361
0.142184
0.141648
0.140424
0.139867
0.139129
0.138603
0.138279
0.137858
0.137755
0.137526
0.137534
0.137488
0.137676
0.137804
0.138238
0.138426
0.139115
0.139422
0.140352
0.140859
0.141925
0.142806
0.143956
0.145161
0.146442
0.147968
0.149495
0.151348
0.153165
0.155417
0.157577
0.160285
0.162808
0.165997
0.168982
0.172728
0.176257
0.180586
0.184715
0.189567
0.19419
0.19948
0.204526
0.210157
0.215464
0.221257
0.226627
0.232371
0.237489
0.24286
0.247268
0.251693
0.254423
0.256369
0.257082
0.00125732
0.00125596
0.00125469
0.00125418
0.00125362
0.00125337
0.00125325
0.00125315
0.00125308
0.00125302
0.00125302
0.00125299
0.00125293
0.00125293
0.00125292
0.00125286
0.00125287
0.00125286
0.0012528
0.0012528
0.00125279
0.00125272
0.00125272
0.00125266
0.00125263
0.00125262
0.00125263
0.0012526
0.00125256
0.00125256
0.00125255
0.0012525
0.0012525
0.00125249
0.00125247
0.00125247
0.00125246
0.00125246
0.00125244
0.00125244
0.00125242
0.00125244
0.00125263
0.00125296
0.00125333
0.00125359
0.00125385
0.00125412
0.00125475
0.00125582
0.00125788
0.00126169
0.00126957
0.00128648
0.00132449
0.00141278
0.00161848
0.00210533
0.00323547
0.00585475
0.0117491
0.0248353
0.0524598
0.10864
0.212056
0.382782
0.530229
0.557714
0.520722
0.40166
0.227882
0.0958144
0.0504165
0.0396778
0.0391857
0.0465844
0.0664613
0.104397
0.163897
0.251704
0.36531
0.501509
0.634245
0.747269
0.806037
0.830289
0.836575
0.834052
0.809312
0.764151
0.698058
0.586196
0.41406
0.197709
0.0832637
0.0380929
0.0232369
0.0179658
0.0175279
0.0182832
0.022459
0.029752
0.0395358
0.0504414
0.0621393
0.0748201
0.0883613
0.102907
0.118183
0.132712
0.146752
0.156733
0.16114
0.162422
0.162965
0.162897
0.162857
0.162168
0.16126
0.159407
0.157628
0.155032
0.152898
0.149968
0.147677
0.145121
0.142775
0.140822
0.138707
0.137479
0.135697
0.134926
0.133448
0.132841
0.131633
0.131147
0.130151
0.129758
0.128953
0.128652
0.128043
0.127778
0.127545
0.127392
0.127384
0.127346
0.127468
0.127622
0.127951
0.128196
0.128706
0.129043
0.129747
0.130217
0.131109
0.131745
0.132816
0.133663
0.134941
0.136112
0.137602
0.139174
0.140951
0.142955
0.145081
0.14749
0.150027
0.152819
0.155767
0.158949
0.162353
0.165997
0.169918
0.17414
0.178647
0.183474
0.188633
0.194058
0.199685
0.205663
0.211683
0.218093
0.224339
0.230983
0.237208
0.243756
0.249501
0.255413
0.260108
0.264697
0.267526
0.269517
0.270224
0.00125882
0.0012563
0.00125508
0.00125421
0.00125339
0.00125305
0.0012528
0.0012527
0.00125263
0.00125261
0.00125284
0.00125323
0.00125334
0.00125336
0.00125335
0.00125329
0.0012533
0.00125329
0.00125323
0.00125323
0.00125322
0.00125315
0.00125315
0.00125313
0.00125307
0.00125307
0.00125302
0.00125298
0.00125297
0.00125295
0.00125294
0.00125292
0.00125291
0.00125289
0.00125286
0.00125285
0.00125284
0.00125283
0.00125277
0.00125278
0.00125279
0.00125279
0.00125277
0.00125274
0.00125276
0.0012528
0.00125294
0.00125335
0.00125409
0.00125523
0.00125687
0.00125936
0.00126357
0.00127141
0.00128742
0.00132287
0.00140339
0.00159296
0.00203569
0.0030785
0.00547024
0.0109257
0.0228474
0.0483716
0.0989432
0.193391
0.345912
0.499685
0.533961
0.519901
0.44464
0.315914
0.177074
0.106507
0.0873432
0.0871092
0.0980161
0.126694
0.173681
0.242437
0.327322
0.426333
0.531065
0.64522
0.760318
0.862807
0.89925
0.907202
0.902921
0.872071
0.810628
0.741127
0.689416
0.650877
0.586233
0.441212
0.22234
0.0876222
0.0459546
0.0284463
0.0251782
0.0248035
0.0275143
0.0344764
0.0452739
0.0578478
0.0711088
0.0842871
0.0978923
0.111166
0.125424
0.138131
0.14526
0.147261
0.147844
0.147843
0.147726
0.147146
0.14628
0.144869
0.143312
0.141305
0.139355
0.137082
0.135025
0.132996
0.131158
0.129564
0.127978
0.126928
0.125638
0.124851
0.123825
0.123361
0.122589
0.122251
0.121652
0.12141
0.12103
0.120903
0.12078
0.120751
0.120827
0.120977
0.121278
0.121588
0.122132
0.122542
0.123185
0.123806
0.124589
0.125331
0.126273
0.127147
0.128225
0.129325
0.130625
0.131975
0.133514
0.135145
0.136945
0.138897
0.140964
0.14318
0.145556
0.148118
0.150899
0.15395
0.157239
0.160818
0.164669
0.168867
0.173353
0.178192
0.183383
0.188872
0.194817
0.200973
0.207393
0.214175
0.220983
0.228234
0.235271
0.242722
0.249658
0.256928
0.263223
0.269631
0.274529
0.279353
0.282092
0.284164
0.284839
0.00125933
0.00125657
0.00125543
0.00125451
0.00125392
0.00125366
0.00125337
0.00125326
0.00125321
0.00125321
0.00125319
0.00125313
0.00125313
0.00125311
0.00125308
0.00125309
0.00125306
0.00125306
0.00125302
0.00125302
0.00125315
0.00125329
0.00125335
0.00125336
0.00125337
0.00125337
0.00125332
0.00125332
0.00125331
0.00125325
0.00125326
0.00125326
0.0012532
0.0012532
0.0012532
0.00125313
0.00125314
0.00125314
0.00125309
0.0012531
0.0012531
0.00125304
0.00125305
0.00125305
0.001253
0.001253
0.00125298
0.00125299
0.0012532
0.00125373
0.00125477
0.00125651
0.00125926
0.00126376
0.00127172
0.00128734
0.00131989
0.00139281
0.0015588
0.00194666
0.00283938
0.00489997
0.00948723
0.0196206
0.0406386
0.0828542
0.15905
0.284879
0.443354
0.515092
0.524729
0.505333
0.445525
0.357971
0.271435
0.237178
0.234045
0.254296
0.297597
0.370884
0.459946
0.575653
0.690125
0.821943
0.938506
1.00763
1.01958
1.01214
0.971889
0.902444
0.817876
0.730153
0.665605
0.648468
0.650503
0.678422
0.690728
0.659397
0.501508
0.229115
0.082795
0.0429237
0.032829
0.0305964
0.0313446
0.0358302
0.0453181
0.0581783
0.0733294
0.0884874
0.103762
0.11741
0.129806
0.13695
0.139641
0.140464
0.140682
0.140671
0.140368
0.139524
0.138141
0.136332
0.134338
0.132338
0.130462
0.128698
0.126978
0.125412
0.12403
0.122949
0.122065
0.121305
0.120615
0.11999
0.119445
0.118948
0.118546
0.118202
0.117905
0.117714
0.117645
0.117639
0.117839
0.118189
0.118626
0.119087
0.119734
0.120364
0.121112
0.121907
0.122696
0.123599
0.124545
0.125619
0.126746
0.128068
0.129417
0.131053
0.132725
0.134695
0.136689
0.138984
0.141337
0.144004
0.146775
0.149768
0.153022
0.156428
0.160257
0.164212
0.168744
0.173345
0.178678
0.184029
0.190195
0.196287
0.203359
0.210237
0.217865
0.225522
0.233581
0.24184
0.250162
0.258727
0.266882
0.275251
0.282579
0.289937
0.295468
0.300861
0.303837
0.306105
0.306806
0.00126043
0.00125748
0.00125629
0.00125526
0.0012548
0.00125436
0.00125409
0.00125394
0.00125386
0.00125383
0.00125379
0.00125372
0.00125372
0.0012537
0.00125363
0.00125364
0.00125362
0.00125358
0.00125359
0.00125359
0.00125354
0.00125354
0.00125354
0.00125352
0.00125353
0.00125353
0.00125352
0.00125353
0.00125353
0.00125348
0.00125348
0.00125347
0.0012534
0.0012534
0.00125338
0.00125333
0.00125333
0.00125331
0.00125329
0.00125328
0.00125328
0.00125327
0.00125326
0.00125335
0.00125366
0.00125417
0.00125469
0.00125508
0.00125527
0.00125554
0.00125605
0.001257
0.00125856
0.00126124
0.00126559
0.00127318
0.00128696
0.0013146
0.0013728
0.00150389
0.00180083
0.00248801
0.0040332
0.00751848
0.0149591
0.0306187
0.0608641
0.11663
0.207056
0.338151
0.457096
0.513683
0.536268
0.53989
0.535381
0.533199
0.537574
0.559442
0.596906
0.65482
0.720864
0.800235
0.878157
0.963436
1.03815
1.06515
1.06411
1.03469
0.970082
0.875454
0.75769
0.634535
0.514409
0.409204
0.348222
0.335337
0.335694
0.35682
0.380081
0.386872
0.375613
0.313468
0.19839
0.101147
0.0689069
0.0563742
0.053398
0.0530767
0.0560845
0.0650372
0.0790467
0.0958041
0.112764
0.127764
0.137197
0.14052
0.141542
0.141748
0.141677
0.141277
0.14029
0.138871
0.136902
0.134869
0.132662
0.130642
0.128833
0.127014
0.12547
0.123951
0.123088
0.122006
0.121476
0.12054
0.120073
0.119261
0.118887
0.118315
0.118072
0.11782
0.117771
0.117776
0.118054
0.118555
0.119116
0.119721
0.120476
0.121285
0.122041
0.122984
0.123795
0.124846
0.125832
0.127134
0.128286
0.129898
0.131354
0.133361
0.135175
0.137402
0.1396
0.14205
0.144689
0.147458
0.150539
0.153709
0.157417
0.161145
0.165529
0.169869
0.175048
0.180109
0.18615
0.19204
0.199007
0.205774
0.213818
0.221555
0.230302
0.239078
0.248413
0.257956
0.267642
0.277642
0.287195
0.297018
0.30562
0.314242
0.320712
0.326871
0.330186
0.332698
0.333438
0.00125905
0.0012565
0.00125525
0.0012543
0.00125387
0.00125358
0.00125338
0.00125327
0.00125315
0.00125311
0.00125308
0.00125306
0.00125305
0.00125303
0.00125305
0.00125321
0.00125332
0.00125333
0.00125333
0.00125332
0.00125331
0.00125328
0.00125327
0.00125324
0.00125319
0.00125318
0.00125315
0.00125311
0.00125309
0.00125309
0.00125309
0.00125309
0.00125307
0.00125306
0.00125311
0.00125338
0.00125367
0.00125373
0.00125375
0.00125376
0.00125376
0.00125376
0.00125375
0.00125375
0.00125372
0.00125372
0.0012537
0.0012537
0.00125386
0.00125413
0.00125449
0.00125497
0.00125593
0.00125758
0.00126036
0.00126489
0.00127231
0.00128509
0.00130847
0.0013552
0.00145301
0.0016696
0.0021469
0.00322275
0.00553886
0.0105277
0.0205025
0.0399712
0.0742378
0.131261
0.214664
0.324078
0.42679
0.49188
0.533573
0.560429
0.591092
0.619683
0.656838
0.693813
0.739276
0.782246
0.832001
0.856335
0.860004
0.842149
0.803987
0.733567
0.646594
0.548919
0.446974
0.357861
0.274899
0.213714
0.161346
0.144525
0.140533
0.146123
0.161273
0.196809
0.24059
0.296267
0.326225
0.331795
0.317071
0.268507
0.201319
0.126096
0.093267
0.0836427
0.0814345
0.0830163
0.0899057
0.104005
0.121506
0.138353
0.146163
0.148981
0.149788
0.149991
0.14969
0.148902
0.147059
0.145072
0.142613
0.140394
0.13847
0.135885
0.133784
0.131037
0.129782
0.128171
0.127498
0.126124
0.125516
0.12423
0.123685
0.122724
0.122381
0.121865
0.121771
0.12173
0.12184
0.122398
0.123038
0.123797
0.124419
0.125384
0.125997
0.127045
0.127703
0.128895
0.12967
0.131234
0.1323
0.134212
0.135593
0.137862
0.139565
0.141938
0.144109
0.146655
0.149338
0.152253
0.155592
0.158989
0.163088
0.167038
0.171926
0.176593
0.182315
0.187687
0.194354
0.200699
0.208493
0.21589
0.225063
0.233772
0.24388
0.253935
0.264933
0.276026
0.287525
0.299268
0.310742
0.322458
0.332935
0.343352
0.35131
0.358835
0.362722
0.365705
0.366537
0.00125874
0.00125631
0.00125433
0.00125332
0.00125254
0.00125215
0.0012519
0.00125176
0.00125175
0.00125214
0.00125284
0.00125307
0.00125308
0.00125308
0.00125305
0.001253
0.00125299
0.00125297
0.00125291
0.00125289
0.00125289
0.00125287
0.00125285
0.00125285
0.00125282
0.00125282
0.0012528
0.00125279
0.0012529
0.00125318
0.00125343
0.00125354
0.00125357
0.00125357
0.00125353
0.00125353
0.00125351
0.00125347
0.00125349
0.00125349
0.00125346
0.00125346
0.00125346
0.00125344
0.00125343
0.00125343
0.00125351
0.00125375
0.00125415
0.00125465
0.00125518
0.00125583
0.00125675
0.00125815
0.0012603
0.00126362
0.00126859
0.00127614
0.00128799
0.00130799
0.00134364
0.00141323
0.00155434
0.00185855
0.00250072
0.00388626
0.00669073
0.0123273
0.0226754
0.0410095
0.0698879
0.111921
0.168015
0.236921
0.313767
0.375811
0.432103
0.468232
0.50564
0.524264
0.533871
0.527287
0.515659
0.481335
0.448887
0.39307
0.34505
0.27716
0.226388
0.175846
0.133662
0.101553
0.0720515
0.0552268
0.0402632
0.0354553
0.0337317
0.035154
0.038835
0.048751
0.0628481
0.0896371
0.124415
0.168029
0.207345
0.253534
0.28919
0.310791
0.310909
0.295333
0.25954
0.213115
0.168716
0.154091
0.14961
0.150715
0.154491
0.163534
0.170435
0.173043
0.173355
0.173553
0.172879
0.172199
0.170383
0.167913
0.16578
0.162112
0.159279
0.154323
0.151571
0.147851
0.146508
0.143938
0.142922
0.140531
0.139557
0.137535
0.136884
0.135661
0.135464
0.13525
0.135133
0.13547
0.135811
0.136646
0.1368
0.137535
0.137649
0.138466
0.138637
0.139704
0.14006
0.141603
0.142231
0.144243
0.145158
0.147559
0.148956
0.15132
0.153342
0.155921
0.158768
0.161688
0.165403
0.168826
0.173385
0.177327
0.182747
0.187295
0.193608
0.198997
0.206401
0.212899
0.221699
0.229489
0.239931
0.249383
0.26101
0.272187
0.284939
0.29761
0.311125
0.324823
0.338491
0.352581
0.365381
0.378406
0.388262
0.398087
0.402825
0.406603
0.40763
0.00126273
0.0012583
0.00125654
0.00125524
0.00125443
0.00125408
0.00125368
0.00125354
0.00125334
0.00125325
0.00125316
0.00125315
0.00125307
0.00125302
0.00125302
0.00125301
0.00125294
0.00125294
0.00125293
0.00125287
0.00125287
0.00125283
0.00125278
0.00125277
0.00125271
0.00125269
0.00125268
0.00125262
0.0012526
0.0012526
0.00125254
0.00125252
0.00125252
0.00125251
0.00125251
0.0012525
0.00125248
0.00125255
0.00125281
0.00125307
0.00125315
0.00125316
0.00125316
0.00125315
0.00125316
0.00125317
0.00125317
0.00125313
0.00125313
0.00125312
0.00125314
0.00125329
0.00125371
0.00125452
0.00125591
0.00125813
0.00126144
0.00126647
0.00127388
0.00128525
0.00130269
0.00133158
0.00138078
0.0014732
0.00164933
0.00200879
0.00271553
0.00413416
0.00676808
0.0115802
0.0194604
0.0315223
0.0488352
0.0702701
0.0965508
0.121648
0.147357
0.165255
0.182209
0.18577
0.186665
0.177922
0.168961
0.148625
0.132843
0.107958
0.0912708
0.0678524
0.0540511
0.0393611
0.0290221
0.0216271
0.0154082
0.0126927
0.00963573
0.00857526
0.00806627
0.00826144
0.00885138
0.0107012
0.0133174
0.0183072
0.0248611
0.0355941
0.0489156
0.072623
0.10444
0.148397
0.200599
0.264222
0.334952
0.406805
0.434952
0.438256
0.422267
0.386186
0.332896
0.292667
0.269459
0.261227
0.253593
0.250706
0.243249
0.240876
0.236276
0.233769
0.232564
0.230026
0.22828
0.2218
0.218404
0.209431
0.20607
0.199714
0.197737
0.194039
0.192997
0.190352
0.19003
0.188697
0.189347
0.189617
0.190101
0.191499
0.191187
0.191713
0.190315
0.190278
0.18725
0.186697
0.183256
0.182637
0.179895
0.179607
0.177889
0.177999
0.177348
0.177899
0.178149
0.178962
0.180334
0.181419
0.184138
0.185585
0.18945
0.191411
0.196216
0.198744
0.204496
0.207843
0.214662
0.219189
0.227381
0.233159
0.242994
0.250016
0.261645
0.270535
0.283282
0.294684
0.308653
0.322454
0.337531
0.353383
0.369002
0.386202
0.401418
0.418557
0.430771
0.444244
0.450578
0.455564
0.456919
0.00126919
0.00126087
0.0012584
0.00125631
0.00125511
0.00125442
0.00125377