/*--------------------------------*- C++ -*----------------------------------*\
| =========                 |                                                 |
| \\      /  F ield         | OpenFOAM: The Open Source CFD Toolbox           |
|  \\    /   O peration     | Version:  4.1                                   |
|   \\  /    A nd           | Web:      www.OpenFOAM.org                      |
|    \\/     M anipulation  |                                                 |
\*---------------------------------------------------------------------------*/
FoamFile
{
    version     2.0;
    format      ascii;
    class       volScalarField;
    location    "6";
    object      k;
}
// * * * * * * * * * * * * * * * * * * * * * * * * * * * * * * * * * * * * * //

dimensions      [0 2 -2 0 0 0 0];

internalField   nonuniform List<scalar> 
204246
(
0.779485
0.856454
0.856946
0.854764
0.855782
0.854158
0.855451
0.854605
0.856064
0.855388
0.857145
0.8566
0.858154
0.856818
0.8583
0.856416
0.857728
0.855499
0.854458
0.854903
0.852839
0.854509
0.853012
0.854586
0.853722
0.855406
0.85471
0.857101
0.856392
0.85834
0.856589
0.857964
0.856196
0.857817
0.856393
0.85798
0.857127
0.856843
0.859121
0.858083
0.859929
0.859323
0.861616
0.861228
0.864321
0.864049
0.868279
0.868108
0.872849
0.872934
0.877635
0.878504
0.884128
0.88557
0.891693
0.896862
0.903463
0.91333
0.927369
0.952057
0.993795
1.073
1.21227
1.44805
1.78935
2.18081
2.34763
2.40232
2.42123
2.43341
2.44281
2.44796
2.45314
2.4517
2.45431
2.45286
2.45231
2.44995
2.45432
2.4543
2.46605
2.46515
2.4851
2.48821
2.51726
2.52638
2.56022
2.57208
2.60015
2.62609
2.64405
2.67764
2.69059
2.72628
2.73868
2.77505
2.78736
2.82279
2.83507
2.86904
2.88126
2.91335
2.92627
2.95779
2.97096
3.00291
3.01597
3.04508
3.06142
3.08695
3.10502
3.12714
3.14749
3.1655
3.18782
3.20261
3.22546
3.23868
3.26205
3.27481
3.29865
3.31204
3.33634
3.35049
3.37453
3.39142
3.41507
3.43318
3.45753
3.47701
3.50106
3.52108
3.54552
3.56683
3.59187
3.61423
3.63951
3.66251
3.68843
3.71228
3.73873
3.7622
3.7905
3.81357
3.84224
3.86614
3.89486
3.91969
3.94826
3.97408
4.00244
4.02918
4.05717
4.0848
4.11261
4.14114
4.16867
4.19802
4.22461
4.25461
4.28109
4.31077
4.33793
4.36702
4.39498
4.42327
4.45233
4.47964
4.51028
4.53653
4.5693
4.5943
4.62991
4.65408
4.69402
4.71631
4.76114
4.78742
4.82836
4.86367
4.90293
4.94787
4.98859
5.04425
5.0903
5.15809
5.21413
5.29527
5.3659
5.45232
5.52408
5.56785
5.58518
0.149457
0.231604
0.223543
0.219818
0.221758
0.219545
0.221924
0.220792
0.22401
0.223116
0.226468
0.225265
0.227042
0.224159
0.226087
0.222706
0.224576
0.221177
0.219722
0.221355
0.218772
0.22148
0.219424
0.222228
0.221157
0.224674
0.223853
0.227661
0.226232
0.228971
0.226183
0.228238
0.2253
0.227726
0.225435
0.227981
0.226853
0.226261
0.229747
0.228054
0.231906
0.231276
0.236308
0.236053
0.242069
0.241566
0.248955
0.248416
0.25628
0.2558
0.263856
0.264693
0.276134
0.279592
0.291554
0.312466
0.33014
0.378561
0.427855
0.541231
0.69769
0.994079
1.42542
1.87297
1.98909
1.98296
1.78013
1.35203
1.0218
0.911944
0.854944
0.814578
0.791502
0.77813
0.782304
0.778975
0.793092
0.796563
0.835192
0.848612
0.900169
0.9196
0.981172
1.0103
1.08353
1.12396
1.20176
1.24742
1.32803
1.38499
1.46351
1.52725
1.60319
1.66868
1.73733
1.79792
1.8603
1.91142
1.96343
2.00544
2.04638
2.08291
2.1162
2.1484
2.17777
2.20786
2.23496
2.26095
2.28974
2.31565
2.34129
2.36488
2.38511
2.40626
2.42067
2.43797
2.44886
2.4631
2.47455
2.48846
2.50291
2.51781
2.53618
2.55451
2.5704
2.60206
2.61806
2.65694
2.67757
2.71857
2.74119
2.7823
2.80649
2.84822
2.87568
2.91935
2.95038
2.99458
3.02976
3.07481
3.11566
3.15359
3.20509
3.24161
3.29525
3.33532
3.38981
3.43439
3.48924
3.53857
3.59407
3.64844
3.70328
3.76248
3.81873
3.8836
3.94184
4.01301
4.06571
4.14488
4.20306
4.27606
4.34701
4.41367
4.49562
4.55677
4.64726
4.70441
4.80006
4.85578
4.95241
5.00971
5.09949
5.16088
5.25379
5.31497
5.40667
5.45095
5.55407
5.59493
5.69369
5.73121
5.82561
5.85988
5.95132
5.98272
6.08048
6.11665
6.29154
6.44514
6.87163
7.14236
7.25728
0.0135625
0.0308309
0.0283898
0.0272739
0.0277734
0.0272946
0.0280831
0.0279217
0.0287645
0.0284716
0.0288413
0.02831
0.0285656
0.0276177
0.027925
0.0268814
0.0271935
0.026498
0.0263135
0.0269737
0.0266233
0.0274452
0.0271282
0.0280859
0.0279995
0.0288916
0.0286003
0.028944
0.0282173
0.0285443
0.0278414
0.0284067
0.0278946
0.0285886
0.0281632
0.0288595
0.0286611
0.0287135
0.0297192
0.0294345
0.0305723
0.0305227
0.0319344
0.0319773
0.0336683
0.0336633
0.0357401
0.0357388
0.0383011
0.0385788
0.0426414
0.044113
0.0507071
0.0552001
0.0664232
0.0822981
0.106329
0.150091
0.217773
0.339906
0.537306
0.872069
1.37003
1.75724
1.82968
1.706
1.22177
0.759407
0.609252
0.563383
0.546322
0.537287
0.52872
0.520574
0.520329
0.519477
0.524886
0.534046
0.556828
0.579754
0.620323
0.653283
0.711301
0.757786
0.838865
0.904905
1.00344
1.08144
1.18773
1.28678
1.39556
1.50926
1.61543
1.73815
1.83881
1.96282
2.05476
2.17412
2.25231
2.3601
2.42159
2.51081
2.55462
2.62298
2.65773
2.71306
2.74241
2.78954
2.81304
2.8598
2.88154
2.92708
2.94608
2.984
2.99759
3.02355
3.03147
3.04642
3.04993
3.05902
3.05935
3.06332
3.06146
3.0628
3.0623
3.06053
3.06429
3.06544
3.07791
3.08498
3.10559
3.11508
3.13385
3.14199
3.15899
3.16685
3.18392
3.19233
3.20977
3.21874
3.23541
3.2434
3.25673
3.26429
3.27595
3.28293
3.29229
3.29709
3.3051
3.3061
3.31196
3.31044
3.31253
3.30685
3.30785
3.29606
3.29631
3.27406
3.26317
3.25081
3.22103
3.21355
3.17154
3.16082
3.1101
3.096
3.03784
3.0212
2.95745
2.93868
2.86962
2.84927
2.77549
2.75407
2.67944
2.6586
2.57794
2.54022
2.50349
2.43934
2.42346
2.35091
2.33614
2.26594
2.25336
2.19111
2.18373
2.14101
2.14486
2.11677
2.12174
1.98124
1.92838
0.00730068
0.00810343
0.00781147
0.00767981
0.0077115
0.00765585
0.00773332
0.00771554
0.00779307
0.00775513
0.0077872
0.00772792
0.00774902
0.00764813
0.00767316
0.00756929
0.00759659
0.0075358
0.00752211
0.00757651
0.00755693
0.00763593
0.00761697
0.00772182
0.00771767
0.00780295
0.00777126
0.00780046
0.0077231
0.00774543
0.00765681
0.00770313
0.00765252
0.00771947
0.00768049
0.00775362
0.00773773
0.00776
0.00786931
0.00784671
0.00798253
0.007984
0.00815846
0.00817203
0.00838022
0.00838688
0.00868617
0.0087254
0.00926046
0.00943478
0.0103726
0.0110793
0.0131205
0.0156573
0.020997
0.0304329
0.0476159
0.0803702
0.139344
0.247498
0.433598
0.743558
1.2007
1.50625
1.55483
1.4394
1.00931
0.534021
0.367298
0.299713
0.266475
0.244495
0.215663
0.180045
0.166913
0.158749
0.155375
0.15198
0.15267
0.152783
0.160468
0.169478
0.190703
0.209851
0.243791
0.276361
0.32861
0.380158
0.450653
0.531684
0.622859
0.736448
0.851333
0.997992
1.13299
1.30396
1.44539
1.62752
1.76688
1.94564
2.07061
2.23114
2.33496
2.46745
2.54588
2.64821
2.70436
2.78226
2.82479
2.88451
2.92233
2.97199
3.00822
3.04891
3.08014
3.10943
3.12885
3.13726
3.14078
3.14129
3.14012
3.1338
3.11876
3.0941
3.06338
3.02802
2.99454
2.9619
2.93268
2.91055
2.88881
2.88108
2.86438
2.85833
2.83444
2.82621
2.79651
2.7863
2.75299
2.74172
2.70151
2.68184
2.652
2.61678
2.59407
2.54611
2.52749
2.47128
2.45038
2.38917
2.36614
2.30033
2.27518
2.20519
2.17807
2.10492
2.07652
1.99716
1.95847
1.8958
1.84065
1.79067
1.72227
1.68388
1.60746
1.57686
1.49895
1.46975
1.3969
1.36978
1.3033
1.27893
1.21921
1.19781
1.14472
1.12615
1.07849
1.05674
1.02501
0.99896
0.977903
0.947932
0.934345
0.903549
0.89345
0.871283
0.867115
0.862115
0.875168
0.892977
0.923642
0.933322
0.940817
0.0069538
0.00698928
0.00696413
0.00695502
0.00695412
0.00695092
0.00695288
0.00695192
0.00695461
0.00695286
0.00695401
0.00695136
0.00695204
0.00694793
0.00694865
0.0069445
0.00694496
0.00694196
0.00694111
0.00694171
0.0069413
0.00694358
0.00694307
0.00694709
0.00694766
0.00695091
0.00694964
0.00695081
0.0069484
0.00695017
0.00694804
0.00695014
0.00694856
0.00695097
0.00694973
0.00695283
0.00695264
0.00695532
0.00696047
0.00696041
0.00696842
0.00696933
0.00697908
0.00698061
0.00699633
0.00700041
0.00703172
0.00704863
0.00711802
0.00718979
0.00738716
0.00770177
0.00840971
0.00975515
0.0125704
0.018319
0.0298577
0.0531018
0.0981525
0.183786
0.337599
0.599142
0.995179
1.28818
1.34107
1.26475
0.945427
0.485147
0.238811
0.156533
0.121385
0.105033
0.0961404
0.0849978
0.0746993
0.0651404
0.0614405
0.0586536
0.0579176
0.0574152
0.0583112
0.0602935
0.066437
0.0736188
0.0847754
0.0959754
0.112947
0.132514
0.16036
0.196412
0.238646
0.293321
0.353734
0.434856
0.521292
0.637834
0.750893
0.900652
1.03439
1.20879
1.3529
1.53368
1.67464
1.84539
1.96772
2.11328
2.20499
2.31507
2.39065
2.46328
2.52537
2.5722
2.62999
2.6593
2.70825
2.72628
2.75239
2.75746
2.7614
2.75701
2.75337
2.73027
2.70717
2.65439
2.60349
2.54345
2.46834
2.41134
2.32842
2.27957
2.20183
2.16953
2.10929
2.08516
2.02758
2.00438
1.94362
1.91879
1.85514
1.82922
1.76306
1.73097
1.67809
1.63565
1.59095
1.5392
1.50417
1.44497
1.41745
1.35573
1.33068
1.27012
1.24609
1.18859
1.16601
1.11227
1.09143
1.04015
1.01601
0.978431
0.950235
0.923363
0.892141
0.874415
0.843274
0.831351
0.803643
0.793957
0.770862
0.763044
0.744404
0.73839
0.723814
0.719485
0.708538
0.705724
0.697642
0.694409
0.692565
0.689707
0.689983
0.687992
0.688605
0.686429
0.686762
0.684535
0.685204
0.685176
0.694617
0.700071
0.713424
0.718222
0.722167
0.00695212
0.0069461
0.0069391
0.00693604
0.00693444
0.00693332
0.00693297
0.00693261
0.00693261
0.00693251
0.00693243
0.00693242
0.00693242
0.00693235
0.00693256
0.00693254
0.00693247
0.00693249
0.00693249
0.0069324
0.00693237
0.00693254
0.00693254
0.00693241
0.00693242
0.00693241
0.0069323
0.00693244
0.00693243
0.00693241
0.00693241
0.00693234
0.00693226
0.00693243
0.00693242
0.00693234
0.00693243
0.00693243
0.00693235
0.0069324
0.00693251
0.0069325
0.0069331
0.00693391
0.00693602
0.00693859
0.00694422
0.0069532
0.0069724
0.00700713
0.00708315
0.00724065
0.00758841
0.00834283
0.00999094
0.01358
0.0212031
0.0372566
0.0697877
0.133882
0.253101
0.462401
0.794162
1.11332
1.18866
1.15933
0.942107
0.547778
0.229584
0.115257
0.0725806
0.0565152
0.0496756
0.0457806
0.0428249
0.0384667
0.0344729
0.0320795
0.0315633
0.031451
0.0323671
0.0349077
0.0396731
0.0453606
0.0502609
0.0538893
0.0564958
0.0599253
0.0650875
0.073835
0.0874967
0.107244
0.133081
0.165777
0.205048
0.257656
0.319441
0.398815
0.484423
0.592204
0.701952
0.834685
0.960893
1.10615
1.23444
1.37603
1.48812
1.6063
1.70152
1.78276
1.85548
1.90265
1.95734
1.97929
2.01889
2.03109
2.04958
2.05066
2.05296
2.04527
2.03772
2.00926
1.98176
1.92719
1.87752
1.81776
1.74591
1.68733
1.60541
1.55258
1.47056
1.4294
1.36312
1.33528
1.27873
1.25551
1.20362
1.18228
1.13267
1.11225
1.06381
1.04071
1.00402
0.977872
0.948718
0.918298
0.896617
0.864668
0.848404
0.817369
0.804643
0.775488
0.764045
0.73796
0.727801
0.704808
0.695987
0.675228
0.665629
0.651231
0.640662
0.630267
0.619288
0.612487
0.601744
0.597495
0.588243
0.584934
0.57773
0.575329
0.570199
0.568694
0.565447
0.564776
0.563307
0.563437
0.56325
0.564416
0.566285
0.568245
0.571963
0.574782
0.580201
0.583854
0.590843
0.595561
0.604134
0.609734
0.61988
0.625989
0.633769
0.636775
0.63875
0.00695069
0.00694795
0.00693881
0.00693592
0.00693314
0.00693191
0.00693128
0.00693095
0.00693088
0.00693059
0.00693053
0.00693053
0.00693051
0.00693033
0.00693033
0.00693012
0.00693014
0.00693007
0.00692993
0.00693
0.00692994
0.00692992
0.00693021
0.0069311
0.00693159
0.00693179
0.00693187
0.00693197
0.00693202
0.00693208
0.00693208
0.00693207
0.00693182
0.00693182
0.00693174
0.00693159
0.00693159
0.00693156
0.00693148
0.00693149
0.0069315
0.00693136
0.0069314
0.00693135
0.00693132
0.00693165
0.00693288
0.00693599
0.00694325
0.00695883
0.00699358
0.00707014
0.00724326
0.00763405
0.00851499
0.0105027
0.0148835
0.0244716
0.0447184
0.0864436
0.167943
0.319165
0.572156
0.927963
1.07906
1.08783
0.963964
0.667467
0.298858
0.125694
0.0632425
0.0387831
0.0298576
0.0265816
0.02548
0.0251512
0.025232
0.0261005
0.0289197
0.0344267
0.0440038
0.0594113
0.0815688
0.0988999
0.102385
0.103049
0.0933438
0.0740949
0.0605134
0.0569182
0.0572678
0.0630033
0.0763919
0.0947844
0.116906
0.145575
0.180254
0.225406
0.274901
0.337014
0.403189
0.485531
0.569442
0.667717
0.761373
0.866141
0.956778
1.05123
1.13285
1.20224
1.26474
1.30327
1.33878
1.3513
1.37038
1.37362
1.37893
1.37637
1.37559
1.36304
1.35163
1.3223
1.29807
1.25332
1.21755
1.17359
1.12525
1.0855
1.03103
0.998279
0.947151
0.924656
0.881565
0.863566
0.828344
0.813964
0.784371
0.772294
0.746211
0.735547
0.711542
0.7002
0.682524
0.670363
0.656822
0.643462
0.63335
0.620115
0.612712
0.600253
0.595034
0.583445
0.578917
0.568828
0.564914
0.556219
0.5529
0.545349
0.541871
0.536828
0.533111
0.529735
0.526209
0.524468
0.521426
0.520461
0.518351
0.517892
0.517
0.517076
0.517032
0.518298
0.518702
0.521026
0.521936
0.525194
0.526582
0.530327
0.532763
0.536602
0.539991
0.544083
0.548553
0.553346
0.559004
0.564409
0.571234
0.577233
0.585002
0.590837
0.596523
0.599033
0.600442
0.00693484
0.00693012
0.00692461
0.00692226
0.00692044
0.0069196
0.00691908
0.00691891
0.0069189
0.00691862
0.00691857
0.00691855
0.00691849
0.00691838
0.00691836
0.0069183
0.00691867
0.00691984
0.0069218
0.00692329
0.0069238
0.00692406
0.00692419
0.00692445
0.00692475
0.00692496
0.00692502
0.00692507
0.00692508
0.00692509
0.00692499
0.00692499
0.00692499
0.00692487
0.00692486
0.00692482
0.00692477
0.00692476
0.00692471
0.00692493
0.00692579
0.00692744
0.00692976
0.00693242
0.00693509
0.00693766
0.00694021
0.00694348
0.00694838
0.00695795
0.00697735
0.00701923
0.00711088
0.00731677
0.00778139
0.00884461
0.0112362
0.0166087
0.0282974
0.0532329
0.10391
0.202709
0.380255
0.673314
0.966263
1.03843
1.00067
0.809629
0.48925
0.192181
0.0830744
0.0453784
0.0325523
0.0289592
0.0282668
0.0286583
0.0312283
0.03852
0.0542658
0.0860391
0.142165
0.235091
0.358387
0.449032
0.469907
0.473621
0.439518
0.354146
0.225133
0.114146
0.0728181
0.0554167
0.0517497
0.0517699
0.0582566
0.0728135
0.0938065
0.11921
0.149372
0.186809
0.23095
0.285615
0.346342
0.416509
0.488431
0.566871
0.641022
0.716452
0.785998
0.845373
0.897782
0.929971
0.94941
0.95487
0.959355
0.958338
0.958942
0.95423
0.949824
0.936179
0.924749
0.902476
0.885517
0.856517
0.835045
0.808865
0.783094
0.760934
0.732985
0.716337
0.691381
0.68024
0.658389
0.649066
0.63069
0.622977
0.607476
0.600956
0.587443
0.58173
0.569377
0.563491
0.553925
0.547682
0.540233
0.533805
0.527955
0.52173
0.517194
0.51115
0.507507
0.501719
0.499201
0.493805
0.491623
0.486942
0.485085
0.481051
0.479202
0.476701
0.47502
0.473664
0.472238
0.471788
0.471174
0.471242
0.471438
0.472586
0.47322
0.47544
0.476718
0.479962
0.482033
0.486329
0.489156
0.494574
0.498136
0.50424
0.508817
0.51508
0.520407
0.526652
0.532464
0.53872
0.544975
0.551324
0.557922
0.564119
0.57055
0.57591
0.580375
0.582592
0.583711
0.00694849
0.00693861
0.00693444
0.00693038
0.0069286
0.00692675
0.00692601
0.00692537
0.00692511
0.00692501
0.00692493
0.00692482
0.00692465
0.00692465
0.00692436
0.00692434
0.00692433
0.0069243
0.00692422
0.00692421
0.00692421
0.00692405
0.00692404
0.00692402
0.00692396
0.00692399
0.00692473
0.00692664
0.0069303
0.00693438
0.00693566
0.00693582
0.00693589
0.00693586
0.00693579
0.00693578
0.00693571
0.00693565
0.00693561
0.00693556
0.00693553
0.00693549
0.00693547
0.00693604
0.0069374
0.00693936
0.00694121
0.00694328
0.00694617
0.00695158
0.00696172
0.00698216
0.00702558
0.00712123
0.00733564
0.0078286
0.00895229
0.0115352
0.017317
0.030112
0.0572387
0.113001
0.219844
0.41203
0.711645
0.954556
0.998368
0.940531
0.736345
0.426907
0.170414
0.0812512
0.0537541
0.048721
0.0497122
0.0591536
0.0810529
0.122902
0.192573
0.310141
0.484284
0.730255
1.00515
1.20179
1.26139
1.27725
1.26045
1.19321
1.02752
0.754727
0.447234
0.201941
0.110159
0.0720525
0.0625162
0.0609522
0.0661655
0.0818525
0.107603
0.138606
0.172487
0.210868
0.254598
0.307001
0.364802
0.428958
0.491986
0.555544
0.615302
0.669225
0.717841
0.740457
0.749828
0.751742
0.753033
0.751693
0.750759
0.745417
0.739935
0.728889
0.718964
0.70327
0.690403
0.671649
0.65724
0.640944
0.62581
0.612479
0.597309
0.58716
0.572912
0.566453
0.554779
0.549585
0.539265
0.534743
0.525588
0.521571
0.513359
0.509743
0.50218
0.498549
0.492477
0.488896
0.484097
0.480632
0.476787
0.473629
0.470515
0.467611
0.465193
0.462373
0.460904
0.458179
0.457074
0.454891
0.454056
0.452478
0.451776
0.451163
0.450734
0.45069
0.45057
0.450971
0.451468
0.452515
0.453472
0.455314
0.456767
0.459572
0.461528
0.465359
0.468094
0.473015
0.476598
0.482533
0.48707
0.493643
0.49919
0.506118
0.512403
0.519556
0.526231
0.533455
0.540183
0.547106
0.553729
0.560254
0.566207
0.571447
0.575309
0.577413
0.578358
0.0069498
0.00694319
0.00693788
0.00693561
0.00693336
0.00693243
0.00693192
0.00693167
0.00693156
0.00693137
0.00693138
0.00693136
0.00693124
0.00693132
0.00693131
0.00693115
0.00693116
0.00693116
0.00693099
0.00693099
0.00693099
0.00693084
0.00693092
0.00693092
0.00693077
0.00693077
0.00693077
0.00693061
0.00693066
0.00693065
0.00693043
0.00693045
0.00693041
0.00693024
0.00693024
0.00693021
0.00693013
0.00693013
0.00693013
0.00692996
0.00692996
0.00692993
0.00692995
0.00692993
0.0069299
0.00693002
0.00693102
0.00693288
0.00693631
0.00694137
0.0069499
0.00696356
0.00698897
0.00703848
0.00714213
0.00737008
0.00788123
0.00905712
0.0117234
0.0177558
0.0309301
0.059096
0.11588
0.225542
0.416328
0.71319
0.932458
0.970427
0.9221
0.749307
0.47983
0.226003
0.125485
0.101218
0.0996015
0.113882
0.152579
0.22734
0.344058
0.51605
0.738319
1.00634
1.27482
1.5166
1.65555
1.70969
1.72283
1.71757
1.66863
1.57032
1.41426
1.16004
0.796009
0.368343
0.17266
0.0950974
0.0715176
0.0645605
0.0652881
0.0731132
0.0940736
0.125286
0.164384
0.208288
0.256436
0.309749
0.366648
0.427228
0.489495
0.54842
0.604417
0.636446
0.648346
0.651522
0.652766
0.652312
0.651622
0.648132
0.643343
0.634937
0.626246
0.614615
0.604136
0.591085
0.580045
0.568296
0.55734
0.547603
0.537534
0.530031
0.520717
0.515095
0.506835
0.502597
0.495097
0.491615
0.484772
0.481614
0.475314
0.472428
0.466663
0.463883
0.45917
0.456625
0.45289
0.450572
0.447513
0.445384
0.443073
0.441023
0.439288
0.43733
0.436277
0.43447
0.433721
0.432434
0.431953
0.431277
0.431018
0.431017
0.431145
0.432098
0.432787
0.434476
0.435849
0.438231
0.440317
0.443317
0.446067
0.449608
0.453042
0.457222
0.461301
0.46636
0.471178
0.47717
0.482815
0.489565
0.495901
0.503216
0.510117
0.517829
0.525062
0.53295
0.540263
0.547957
0.554686
0.561421
0.566978
0.571999
0.575402
0.577497
0.578331
0.0069534
0.00694458
0.00693971
0.0069363
0.00693314
0.00693191
0.00693092
0.00693042
0.00693028
0.00693054
0.00693127
0.00693136
0.00693136
0.00693129
0.00693112
0.00693113
0.00693099
0.00693085
0.00693085
0.00693072
0.0069306
0.00693061
0.00693058
0.00693042
0.00693044
0.00693044
0.00693026
0.00693026
0.00693024
0.00693004
0.00693004
0.00692992
0.00692977
0.00692976
0.00692958
0.00692947
0.00692947
0.0069294
0.00692935
0.00692936
0.00692928
0.00692929
0.00692928
0.00692929
0.00692968
0.00693078
0.00693283
0.00693596
0.00694009
0.00694519
0.00695135
0.00695994
0.00697355
0.00699788
0.0070448
0.00714311
0.00735473
0.00783175
0.00890982
0.0113845
0.0169219
0.0291987
0.0550846
0.108201
0.208438
0.386438
0.659155
0.899694
0.952425
0.937456
0.831755
0.640051
0.409185
0.257936
0.214313
0.213033
0.234967
0.293921
0.390357
0.532554
0.708174
0.915168
1.13187
1.36405
1.5911
1.78564
1.85235
1.86564
1.85553
1.79866
1.69107
1.55757
1.42454
1.2799
1.07729
0.758776
0.376382
0.184203
0.122286
0.0970694
0.0936495
0.0962493
0.113504
0.146819
0.192315
0.243463
0.297217
0.352326
0.410139
0.467109
0.526435
0.575968
0.598076
0.604254
0.605938
0.605847
0.605101
0.602368
0.598098
0.591412
0.583597
0.573854
0.563901
0.552767
0.542296
0.531985
0.522412
0.513717
0.505235
0.498388
0.490975
0.485201
0.47885
0.474353
0.468912
0.465168
0.460089
0.456733
0.451964
0.449151
0.445079
0.442731
0.439308
0.437012
0.434552
0.432829
0.430962
0.429415
0.428073
0.42685
0.425944
0.424852
0.424354
0.423585
0.423296
0.423032
0.42301
0.423226
0.423832
0.424636
0.42563
0.427126
0.428583
0.430546
0.432374
0.435014
0.43738
0.44079
0.444006
0.448201
0.452244
0.457458
0.462401
0.468578
0.474515
0.481546
0.488526
0.496318
0.504001
0.512419
0.520584
0.529391
0.537822
0.546616
0.554904
0.563318
0.570855
0.578063
0.583946
0.589178
0.592522
0.594669
0.59546
0.00695705
0.00694658
0.00694224
0.00693879
0.00693654
0.00693555
0.0069346
0.00693424
0.00693398
0.00693381
0.0069338
0.0069337
0.00693353
0.00693353
0.00693351
0.00693328
0.00693329
0.00693325
0.00693303
0.00693304
0.00693294
0.00693277
0.00693277
0.0069327
0.00693252
0.00693251
0.00693243
0.00693224
0.00693224
0.00693212
0.006932
0.006932
0.00693198
0.00693181
0.00693187
0.00693187
0.00693166
0.00693167
0.00693159
0.00693149
0.00693149
0.00693147
0.00693136
0.00693136
0.00693135
0.00693131
0.00693132
0.00693184
0.00693324
0.0069359
0.00694042
0.00694727
0.00695772
0.00697388
0.00700094
0.00704975
0.00714364
0.00734035
0.00776563
0.00872271
0.0108626
0.0156786
0.0261083
0.0484016
0.0928315
0.178193
0.325012
0.556183
0.821324
0.936582
0.957241
0.935045
0.853203
0.728278
0.594411
0.54512
0.543069
0.584172
0.667324
0.804346
0.963919
1.16531
1.36031
1.57894
1.77234
1.91773
1.95323
1.95355
1.91815
1.83693
1.72067
1.59454
1.47592
1.37357
1.29649
1.25315
1.2099
1.08759
0.791255
0.371634
0.180775
0.128369
0.116838
0.115633
0.124976
0.151764
0.196066
0.251834
0.314585
0.377226
0.440895
0.498643
0.550553
0.573413
0.581492
0.583667
0.584105
0.583751
0.581772
0.577331
0.570442
0.561553
0.551492
0.540981
0.530636
0.520671
0.511029
0.502095
0.493991
0.486979
0.480731
0.474969
0.469564
0.464473
0.459725
0.455195
0.450971
0.446921
0.442897
0.43887
0.435327
0.432291
0.42996
0.42749
0.425664
0.423895
0.422723
0.421293
0.420246
0.419175
0.418387
0.417376
0.416766
0.416172
0.415933
0.415837
0.415897
0.416506
0.417361
0.418546
0.420036
0.421807
0.423733
0.426176
0.428709
0.431523
0.434687
0.438211
0.442092
0.446451
0.451403
0.45667
0.462756
0.469133
0.476266
0.483585
0.491847
0.499964
0.508892
0.517774
0.527076
0.53643
0.546003
0.555454
0.564696
0.573735
0.581955
0.589713
0.595843
0.601302
0.604635
0.606837
0.607593
0.00695911
0.00694736
0.00694248
0.00693791
0.00693579
0.0069335
0.00693229
0.00693161
0.00693108
0.00693085
0.00693072
0.0069304
0.0069303
0.00693029
0.00693011
0.00692999
0.00693
0.00692988
0.00692977
0.00692977
0.00692973
0.00692964
0.00692961
0.00692955
0.00692979
0.00693089
0.00693321
0.00693511
0.0069355
0.00693551
0.0069355
0.00693548
0.00693533
0.00693525
0.00693522
0.00693508
0.00693503
0.00693503
0.00693498
0.00693494
0.00693493
0.00693489
0.00693492
0.00693544
0.0069365
0.00693768
0.00693817
0.00693853
0.00693914
0.00694065
0.00694316
0.00694759
0.00695438
0.00696513
0.00698158
0.00700844
0.00705347
0.00713687
0.00729962
0.00764503
0.00839209
0.0100631
0.0137183
0.0217487
0.0383795
0.0721659
0.134806
0.245434
0.417238
0.652671
0.850948
0.944634
0.988215
1.00184
1.00248
1.0053
1.02073
1.06324
1.13075
1.227
1.33706
1.46687
1.59618
1.7358
1.86868
1.94426
1.95526
1.92997
1.85198
1.72469
1.5559
1.37342
1.19175
1.04049
0.915255
0.830655
0.783994
0.770537
0.755175
0.729476
0.65482
0.517776
0.322579
0.231622
0.205506
0.196054
0.195709
0.20218
0.228254
0.27624
0.341015
0.411759
0.480761
0.538741
0.572169
0.583587
0.586999
0.587595
0.58705
0.584735
0.57971
0.572543
0.562852
0.552426
0.541002
0.529943
0.519615
0.509338
0.500394
0.491658
0.485356
0.478411
0.473529
0.467374
0.462892
0.45691
0.45265
0.447328
0.443824
0.438971
0.435939
0.432314
0.43056
0.428046
0.426799
0.424997
0.424079
0.422728
0.421833
0.420673
0.419873
0.41896
0.418324
0.418022
0.41788
0.41792
0.418402
0.419517
0.420652
0.422133
0.424012
0.425699
0.428116
0.4304
0.433339
0.436193
0.440148
0.443896
0.448814
0.453481
0.459532
0.465176
0.472318
0.479063
0.48723
0.494999
0.504421
0.513163
0.523307
0.533171
0.54386
0.554349
0.565311
0.576136
0.586775
0.597193
0.606646
0.615597
0.622624
0.628773
0.632379
0.634807
0.635586
0.00695349
0.00694454
0.00694008
0.00693712
0.00693572
0.00693482
0.00693418
0.00693376
0.00693334
0.00693312
0.00693299
0.00693292
0.00693289
0.0069329
0.00693283
0.00693284
0.00693333
0.00693392
0.00693403
0.00693404
0.00693404
0.00693404
0.00693394
0.00693378
0.00693378
0.00693362
0.00693354
0.00693354
0.00693339
0.00693333
0.00693333
0.00693329
0.00693317
0.00693315
0.00693307
0.00693318
0.00693382
0.00693478
0.00693516
0.00693529
0.0069354
0.00693547
0.00693556
0.00693558
0.00693562
0.00693561
0.00693562
0.00693559
0.00693558
0.0069358
0.00693679
0.00693905
0.00694333
0.00695015
0.00696103
0.00697833
0.00700529
0.00704912
0.00712392
0.00726219
0.0075316
0.00809436
0.00928098
0.0118704
0.0172944
0.0286652
0.0507042
0.0922648
0.162695
0.275516
0.43472
0.632552
0.811657
0.922633
0.994993
1.04209
1.09521
1.14543
1.21052
1.27529
1.35397
1.42899
1.51211
1.57137
1.58997
1.57719
1.53637
1.44715
1.32866
1.18435
1.0178
0.862107
0.709666
0.59268
0.479087
0.425279
0.408093
0.41225
0.428493
0.472844
0.516629
0.54668
0.554062
0.552936
0.528571
0.466198
0.382902
0.313683
0.294005
0.290823
0.294495
0.317184
0.366112
0.435851
0.510875
0.573655
0.601045
0.610841
0.613461
0.613963
0.612435
0.608498
0.60031
0.590816
0.578911
0.566888
0.555505
0.541963
0.530469
0.517072
0.508577
0.498517
0.493894
0.485767
0.481579
0.473021
0.468306
0.460581
0.457102
0.450805
0.44805
0.443673
0.441572
0.43887
0.437396
0.435518
0.434261
0.432736
0.431205
0.429848
0.428302
0.42745
0.426341
0.425983
0.425675
0.425731
0.426117
0.427302
0.428206
0.429137
0.430763
0.431921
0.434114
0.435957
0.439099
0.441698
0.446073
0.449606
0.45497
0.45962
0.46601
0.471396
0.478836
0.485462
0.494128
0.501907
0.512242
0.521472
0.532752
0.543386
0.555559
0.567104
0.579556
0.591553
0.603727
0.615446
0.626297
0.636515
0.644583
0.651767
0.655619
0.658379
0.659192
0.00695119
0.00694128
0.00693353
0.00692995
0.00692665
0.00692505
0.00692398
0.00692337
0.00692315
0.00692383
0.00692613
0.00693049
0.00693221
0.0069325
0.00693254
0.00693252
0.00693239
0.00693239
0.00693222
0.00693213
0.00693213
0.00693198
0.00693184
0.00693184
0.00693164
0.00693157
0.00693156
0.00693154
0.00693126
0.00693119
0.00693118
0.00693108
0.00693093
0.00693093
0.00693083
0.00693069
0.0069307
0.0069307
0.00693064
0.00693063
0.00693062
0.00693056
0.00693054
0.00693051
0.00693076
0.00693152
0.00693303
0.00693477
0.00693672
0.00693844
0.00694055
0.00694335
0.00694783
0.00695439
0.00696364
0.0069763
0.00699469
0.00702229
0.00706459
0.00713239
0.00724564
0.00745046
0.00783741
0.00862377
0.0102125
0.0135312
0.0200697
0.0328735
0.0557262
0.095044
0.155133
0.240117
0.351468
0.484262
0.62677
0.740549
0.843449
0.909411
0.977224
1.01703
1.04586
1.04236
1.0318
0.987074
0.941578
0.856499
0.776143
0.655519
0.550831
0.446088
0.356316
0.288109
0.221386
0.178144
0.138284
0.12593
0.121485
0.125307
0.133608
0.155601
0.182769
0.232394
0.281754
0.34124
0.387924
0.441759
0.474231
0.525588
0.543392
0.54367
0.531892
0.515214
0.505489
0.505611
0.512523
0.540696
0.583679
0.63857
0.669165
0.680049
0.682802
0.683861
0.682397
0.679418
0.671839
0.659983
0.648325
0.631413
0.617059
0.596067
0.581633
0.562596
0.554666
0.54231
0.53681
0.524915
0.518871
0.506837
0.501968
0.493103
0.489842
0.483959
0.480803
0.477202
0.474367
0.471556
0.468303
0.465874
0.461782
0.459914
0.4559
0.454507
0.451543
0.450677
0.448936
0.448582
0.447895
0.447996
0.448194
0.448147
0.449087
0.449577
0.451845
0.452962
0.456694
0.458827
0.463752
0.466594
0.47251
0.476041
0.482908
0.487453
0.495448
0.501501
0.511143
0.518725
0.530247
0.539743
0.552428
0.563656
0.577245
0.589892
0.603901
0.617329
0.631123
0.644789
0.657279
0.669781
0.679062
0.688331
0.692733
0.69618
0.697157
0.00696973
0.00695127
0.00694436
0.00693904
0.00693588
0.00693452
0.0069332
0.00693277
0.00693223
0.00693203
0.0069317
0.0069317
0.0069316
0.00693143
0.00693144
0.00693135
0.00693117
0.00693116
0.00693099
0.0069309
0.00693085
0.00693071
0.00693067
0.00693061
0.00693042
0.00693042
0.00693036
0.00693011
0.00693008
0.00693007
0.00692982
0.00692976
0.00692976
0.00692958
0.00692949
0.00692949
0.00692937
0.00692926
0.00692926
0.00692919
0.00692903
0.00692904
0.00692901
0.00692887
0.00692891
0.00692891
0.00692886
0.00692891
0.0069289
0.00692889
0.00692928
0.00693024
0.00693248
0.00693609
0.0069421
0.00695138
0.00696452
0.00698425
0.00701238
0.00705496
0.00711782
0.00721706
0.00737487
0.00764957
0.00813556
0.00906915
0.0108225
0.0142312
0.0204019
0.0314329
0.0491236
0.0756979
0.113193
0.159071
0.214564
0.267494
0.321888
0.361653
0.401744
0.415309
0.420585
0.408714
0.395696
0.360626
0.331123
0.281989
0.245549
0.193597
0.158785
0.122943
0.0951155
0.0752953
0.0564736
0.0477414
0.0385024
0.035526
0.0342277
0.035108
0.0371947
0.0431107
0.050368
0.0632009
0.077311
0.0987908
0.121772
0.161934
0.20923
0.276508
0.354135
0.448789
0.545839
0.639164
0.735358
0.811125
0.831235
0.832607
0.826763
0.827306
0.828591
0.837967
0.841636
0.852903
0.853844
0.855462
0.853615
0.847022
0.842846
0.832566
0.825236
0.80307
0.787017
0.755154
0.737436
0.710833
0.701071
0.684962
0.67888
0.664701
0.659992
0.648278
0.64593
0.640438
0.636621
0.635431
0.628451
0.625775
0.614209
0.60958
0.592919
0.586997
0.570255
0.564503
0.550084
0.545418
0.534016
0.530484
0.5215
0.518903
0.512945
0.509174
0.506444
0.503506
0.503115
0.501684
0.502195
0.50203
0.504104
0.50438
0.507907
0.509062
0.51426
0.516747
0.524
0.527994
0.53745
0.542776
0.554207
0.561508
0.573899
0.584051
0.59728
0.610022
0.624115
0.638936
0.653199
0.669398
0.682945
0.698931
0.709533
0.721612
0.727244
0.731496
0.732717
0.00699392
0.00696181
0.00695208
0.00694378
0.00693913
0.00693611
0.00693337
0.00693237
0.00693113
0.00693075
0.00693025
0.00693014
0.00692988
0.00692986
0.00692966
0.00692966
0.00692947
0.00692949
0.00692948
0.00692936
0.00692936
0.00692925
0.00692946
0.00693009
0.00693069
0.00693082
0.00693093
0.00693093
0.00693096
0.00693093
0.00693088
0.00693087
0.00693085
0.00693062
0.00693061
0.00693057
0.00693039
0.00693033
0.00693032
0.00693021
0.0069301
0.00693016
0.00693016
0.00693012
0.00693008
0.00693039
0.00693133
0.00693306
0.00693505
0.00693712
0.00693864
0.00693998
0.00694146
0.00694451
0.00694933