/*--------------------------------*- C++ -*----------------------------------*\
| =========                 |                                                 |
| \\      /  F ield         | OpenFOAM: The Open Source CFD Toolbox           |
|  \\    /   O peration     | Version:  4.1                                   |
|   \\  /    A nd           | Web:      www.OpenFOAM.org                      |
|    \\/     M anipulation  |                                                 |
\*---------------------------------------------------------------------------*/
FoamFile
{
    version     2.0;
    format      ascii;
    class       volScalarField;
    location    "6";
    object      p;
}
// * * * * * * * * * * * * * * * * * * * * * * * * * * * * * * * * * * * * * //

dimensions      [0 2 -2 0 0 0 0];

internalField   nonuniform List<scalar> 
204246
(
-15.0456
-25.8506
-26.6504
-27.013
-27.3447
-27.5538
-27.7405
-27.8489
-27.9359
-27.9825
-28.0003
-27.9599
-27.8887
-27.7715
-27.7466
-27.8289
-28.1551
-28.2831
-27.9884
-27.9812
-27.9403
-27.9283
-27.8838
-27.8592
-27.8237
-27.8139
-27.796
-27.7901
-27.7392
-27.6878
-27.5777
-27.4752
-27.3528
-27.3366
-27.4004
-27.6285
-27.6725
-27.5308
-27.4713
-27.4028
-27.3595
-27.312
-27.2814
-27.2419
-27.2088
-27.1388
-27.0819
-26.9911
-26.9153
-26.7761
-26.7581
-26.7503
-26.9108
-26.9772
-26.826
-26.9622
-26.9325
-26.9718
-26.9581
-26.9042
-26.7125
-26.402
-25.9881
-25.8175
-26.2731
-28.6263
-34.5547
-44.53
-53.3475
-58.0831
-63.0424
-67.0122
-69.4184
-70.9506
-72.1099
-72.6642
-73.0939
-73.1274
-72.8361
-72.1706
-71.2449
-69.9655
-68.416
-66.7925
-65.4619
-64.3694
-63.4831
-62.5879
-61.4527
-60.6872
-60.0191
-59.5851
-59.1844
-59.363
-58.6755
-58.7928
-58.8184
-58.9766
-59.0949
-59.343
-59.4573
-59.5729
-59.6498
-59.9941
-60.6056
-61.6254
-62.3778
-62.1681
-62.8272
-63.0071
-63.8562
-63.7731
-64.5786
-64.6455
-65.4287
-65.4807
-66.2504
-66.2602
-67.0024
-66.8572
-67.4362
-67.3668
-68.6862
-69.3285
-69.2847
-69.8145
-69.5795
-70.3208
-70.4843
-70.7609
-70.7724
-71.5201
-71.404
-72.1514
-71.9989
-72.7282
-72.4826
-73.0715
-72.9243
-74.2902
-74.9996
-75.0115
-75.6081
-75.4184
-76.1768
-76.0401
-76.8513
-76.6589
-77.4377
-77.3718
-78.0618
-78.3439
-78.5571
-78.3082
-78.7807
-78.2673
-79.5888
-79.9941
-79.5155
-79.7603
-79.2325
-78.785
-78.1389
-77.4399
-76.4302
-75.2584
-73.6728
-71.8418
-69.5399
-66.9725
-63.983
-60.7989
-56.2135
-51.6043
-46.2336
-40.381
-33.5737
-25.66
-17.0676
-7.26595
3.72181
16.3634
30.7161
47.2587
65.9577
87.0819
110.509
136.809
166.928
206.449
266.477
362.172
490.872
-21.8038
-23.3557
-25.0395
-26.2396
-27.0075
-27.413
-27.675
-27.8122
-27.9226
-27.9729
-28.0393
-28.0161
-27.9824
-27.8703
-27.8223
-27.8487
-28.0355
-28.1209
-28.0745
-28.0252
-27.9787
-27.9569
-27.917
-27.8882
-27.8536
-27.8344
-27.8138
-27.8064
-27.7727
-27.7421
-27.6617
-27.5754
-27.4631
-27.4127
-27.4257
-27.5348
-27.5806
-27.5516
-27.5129
-27.4473
-27.4112
-27.3609
-27.3241
-27.2861
-27.2448
-27.1993
-27.1421
-27.06
-26.9619
-26.8866
-26.8579
-26.8488
-26.8469
-26.8493
-26.8617
-26.8934
-26.9386
-27.0077
-27.0864
-27.156
-27.1345
-26.9581
-26.6094
-26.2738
-26.4302
-27.8329
-32.1073
-41.1286
-50.4054
-56.9751
-61.6376
-65.5719
-68.3356
-70.5848
-71.9358
-72.8007
-73.3569
-73.6804
-73.5725
-73.1425
-72.4139
-71.2296
-69.765
-68.2191
-66.7588
-65.4285
-64.1865
-63.0192
-61.9586
-61.0494
-60.3457
-59.8099
-59.4205
-59.1395
-58.9115
-58.7717
-58.7669
-58.7978
-58.9642
-59.1384
-59.3145
-59.418
-59.5889
-59.8652
-60.311
-60.9448
-61.5166
-61.9406
-62.3719
-62.7785
-63.243
-63.6466
-64.0831
-64.4937
-64.9261
-65.342
-65.7735
-66.1695
-66.5372
-66.825
-67.1428
-67.5382
-68.0793
-68.6116
-69.0167
-69.3453
-69.6399
-69.9708
-70.3012
-70.5489
-70.8054
-71.1258
-71.44
-71.7835
-72.0918
-72.3836
-72.608
-72.87
-73.233
-73.7741
-74.3408
-74.7994
-75.2014
-75.5458
-75.8816
-76.234
-76.5764
-76.9233
-77.2482
-77.6285
-78.0073
-78.432
-78.6827
-78.9427
-79.0723
-79.3945
-79.683
-79.9994
-80.1996
-80.2875
-80.3276
-80.0133
-79.7991
-79.2259
-78.6464
-77.7381
-76.6209
-75.1668
-73.4192
-71.3595
-68.9091
-66.0717
-62.6175
-58.6979
-54.1333
-49.0396
-43.0712
-36.244
-28.6702
-20.1413
-10.7072
-0.031822
11.9455
25.6815
41.2237
58.8458
78.1598
98.934
120.787
145.814
181.736
247.17
343.897
-28.3685
-26.8942
-26.54
-26.7599
-27.1002
-27.4051
-27.6399
-27.7958
-27.9066
-27.9773
-28.0233
-28.0333
-28.0138
-27.9548
-27.9197
-27.9199
-27.9726
-28.0159
-28.0262
-28.0119
-27.9808
-27.9537
-27.9189
-27.8914
-27.8606
-27.8309
-27.8055
-27.7877
-27.7632
-27.7316
-27.6802
-27.6159
-27.5401
-27.4907
-27.4775
-27.4962
-27.5126
-27.5094
-27.4863
-27.4486
-27.4076
-27.365
-27.3233
-27.2784
-27.2433
-27.1977
-27.1395
-27.0458
-26.9757
-26.9325
-26.9022
-26.8705
-26.8268
-26.7842
-26.7662
-26.7621
-26.7873
-26.8412
-26.9365
-27.0607
-27.1922
-27.3128
-27.4133
-27.7279
-29.1426
-32.3656
-36.9241
-44.2326
-52.4218
-58.3563
-62.688
-66.3704
-69.0864
-70.8216
-72.0245
-72.9688
-73.6665
-74.0606
-74.0107
-73.6227
-72.9595
-71.9175
-70.5549
-69.0507
-67.5086
-66.0524
-64.6761
-63.394
-62.254
-61.2953
-60.5116
-59.9042
-59.4512
-59.1306
-58.913
-58.7904
-58.7374
-58.7917
-58.8951
-59.0526
-59.2622
-59.4361
-59.6874
-59.956
-60.3539
-60.7498
-61.19
-61.6593
-62.1129
-62.5477
-62.9969
-63.4387
-63.8842
-64.3126
-64.7476
-65.1781
-65.6098
-66.0141
-66.3934
-66.7537
-67.1188
-67.5175
-67.9305
-68.3317
-68.7135
-69.0626
-69.4032
-69.7218
-70.036
-70.3236
-70.6081
-70.9003
-71.2141
-71.5332
-71.8477
-72.1471
-72.4358
-72.7387
-73.0958
-73.5069
-73.9314
-74.3483
-74.7535
-75.1257
-75.483
-75.8258
-76.1742
-76.5107
-76.8566
-77.2031
-77.5731
-77.8979
-78.197
-78.4344
-78.6718
-78.9149
-79.2364
-79.4661
-79.5594
-79.5855
-79.4544
-79.2613
-78.9015
-78.4279
-77.749
-76.8532
-75.6909
-74.2038
-72.4599
-70.342
-67.9178
-65.0284
-61.7682
-57.9664
-53.6163
-48.5623
-42.7734
-36.2568
-28.8433
-20.527
-11.1935
-0.801786
10.8812
24.0447
39.05
55.9917
74.8075
94.8591
115.818
138.265
166.925
210.063
267.255
-31.2343
-29.495
-28.4358
-27.9396
-27.7627
-27.7726
-27.8366
-27.9165
-27.9841
-28.0399
-28.0675
-28.0695
-28.048
-28.0266
-28.0165
-28.0087
-28.0136
-28.0246
-28.027
-28.0174
-27.9977
-27.9752
-27.9526
-27.9268
-27.9007
-27.8726
-27.8444
-27.8161
-27.7855
-27.749
-27.7051
-27.6508
-27.6075
-27.5732
-27.5514
-27.5389
-27.5305
-27.5187
-27.4988
-27.4741
-27.4441
-27.4122
-27.3748
-27.3374
-27.2977
-27.2468
-27.1856
-27.1264
-27.0594
-27.0103
-26.9687
-26.9266
-26.8793
-26.8251
-26.7757
-26.7337
-26.7061
-26.7041
-26.7404
-26.8125
-26.932
-27.1058
-27.3482
-27.948
-30.1203
-34.3062
-40.0786
-47.4941
-55.3964
-60.3404
-64.0034
-66.545
-68.9096
-70.7477
-72.1908
-73.0567
-73.8054
-74.1774
-74.3542
-74.1788
-73.6411
-72.6823
-71.3712
-69.8487
-68.1901
-66.5575
-64.99
-63.5593
-62.3091
-61.2325
-60.3545
-59.6538
-59.1706
-58.795
-58.5839
-58.3592
-58.3642
-58.3722
-58.5257
-58.6855
-58.8436
-59.0738
-59.3149
-59.6578
-60.0355
-60.483
-60.9304
-61.3799
-61.8337
-62.29
-62.7466
-63.2078
-63.6587
-64.1088
-64.5458
-64.9943
-65.4252
-65.8489
-66.2462
-66.6428
-67.0366
-67.4441
-67.8208
-68.1998
-68.5673
-68.9177
-69.2863
-69.5735
-69.9161
-70.1759
-70.5
-70.7668
-71.1071
-71.3932
-71.746
-72.0257
-72.3706
-72.6753
-73.0805
-73.4268
-73.824
-74.2282
-74.6072
-75.0278
-75.3741
-75.7744
-76.1041
-76.4988
-76.8246
-77.2447
-77.5835
-78.004
-78.2918
-78.6699
-78.9163
-79.347
-79.5693
-79.8899
-80.1896
-80.3667
-80.4749
-80.4279
-80.3268
-80.0785
-79.7403
-79.2429
-78.5759
-77.6591
-76.3408
-74.6759
-72.5897
-70.1166
-67.197
-63.8321
-59.936
-55.4691
-50.2882
-44.381
-37.7006
-30.1545
-21.7179
-12.2786
-1.76843
9.98784
23.0828
37.6255
53.5894
71.0058
90.0538
111.836
139.083
173.811
212.201
-32.8999
-31.1995
-29.939
-29.0826
-28.5545
-28.2871
-28.1545
-28.108
-28.092
-28.09
-28.0912
-28.0773
-28.0582
-28.046
-28.034
-28.0238
-28.016
-28.0092
-28.0035
-27.9926
-27.9761
-27.9524
-27.9272
-27.9044
-27.8792
-27.8542
-27.825
-27.8023
-27.7712
-27.7289
-27.683
-27.6419
-27.6072
-27.5707
-27.5425
-27.5247
-27.5099
-27.4935
-27.4734
-27.4449
-27.4175
-27.3807
-27.3533
-27.328
-27.288
-27.2401
-27.1672
-27.1075
-27.0585
-27.0135
-26.9618
-26.9118
-26.8543
-26.7915
-26.7254
-26.658
-26.6113
-26.5851
-26.5838
-26.6023
-26.676
-26.8572
-27.1963
-27.8371
-29.9268
-34.23
-39.8415
-47.4434
-55.6967
-61.6589
-65.2255
-67.714
-69.2842
-70.7561
-72.0224
-73.1395
-73.991
-74.5652
-74.8637
-74.8675
-74.5241
-73.7284
-72.5114
-70.9411
-69.1647
-67.3884
-65.6921
-64.1512
-62.7933
-61.6119
-60.633
-59.8553
-59.2923
-58.8792
-58.6279
-58.4743
-58.406
-58.4528
-58.5283
-58.6576
-58.9019
-59.0944
-59.421
-59.6621
-59.9947
-60.3303
-60.7243
-61.1457
-61.5899
-62.0432
-62.5114
-62.9892
-63.4505
-63.9152
-64.3588
-64.8169
-65.2521
-65.6871
-66.0948
-66.5024
-66.9049
-67.3177
-67.6891
-68.0648
-68.4225
-68.7693
-69.1223
-69.4195
-69.7573
-70.0224
-70.3451
-70.6075
-70.9488
-71.2291
-71.5864
-71.8683
-72.2209
-72.5317
-72.9227
-73.2674
-73.6583
-74.0413
-74.4147
-74.8188
-75.1706
-75.5611
-75.9085
-76.2861
-76.6374
-77.0196
-77.3849
-77.7564
-78.0984
-78.4239
-78.7403
-79.0426
-79.3601
-79.6333
-79.8263
-79.9726
-80.0318
-79.9995
-79.8313
-79.497
-78.9937
-78.272
-77.5228
-76.5583
-75.4217
-73.9919
-72.2605
-70.1454
-67.6297
-64.6474
-61.171
-57.1314
-52.4664
-47.1612
-41.0985
-34.2054
-26.3921
-17.5964
-7.77149
3.06812
14.8664
27.5066
40.9607
55.3314
71.214
89.9586
113.312
141.314
169.272
-34.0471
-32.4291
-31.1179
-30.1125
-29.3879
-28.9176
-28.6194
-28.4515
-28.348
-28.2975
-28.2464
-28.2061
-28.1628
-28.1354
-28.115
-28.0943
-28.0774
-28.0658
-28.0589
-28.0463
-28.0213
-27.9993
-27.9778
-27.9553
-27.9356
-27.9072
-27.8771
-27.8523
-27.8263
-27.7823
-27.7387
-27.704
-27.6684
-27.6381
-27.6145
-27.5909
-27.5648
-27.5423
-27.5185
-27.4991
-27.4725
-27.453
-27.4104
-27.371
-27.3397
-27.2956
-27.2446
-27.189
-27.138
-27.0843
-27.0346
-26.9811
-26.92
-26.8491
-26.767
-26.6846
-26.6131
-26.555
-26.5
-26.4602
-26.4742
-26.6257
-27.0209
-27.7446
-29.4677
-33.9964
-39.4824
-46.8379
-55.0971
-61.9165
-65.8376
-68.5022
-69.8791
-71.1321
-72.3159
-73.3433
-74.1643
-74.7956
-75.2249
-75.4012
-75.1958
-74.6208
-73.5607
-72.0294
-70.1896
-68.232
-66.3148
-64.5782
-63.0273
-61.6685
-60.5367
-59.6719
-59.0393
-58.5424
-58.2451
-58.0769
-57.9889
-57.8939
-57.9952
-58.1688
-58.3242
-58.5931
-58.8504
-59.2173
-59.6418
-60.0369
-60.4633
-60.9111
-61.3636
-61.8236
-62.2983
-62.7868
-63.2583
-63.7339
-64.1867
-64.6502
-65.0901
-65.5317
-65.948
-66.3665
-66.7704
-67.1826
-67.5536
-67.9364
-68.2933
-68.6411
-68.9891
-69.2791
-69.6142
-69.8822
-70.2053
-70.4688
-70.7982
-71.0823
-71.4267
-71.7235
-72.0761
-72.3914
-72.7724
-73.1099
-73.4913
-73.8662
-74.2358
-74.6351
-74.9961
-75.3911
-75.746
-76.142
-76.4996
-76.9082
-77.2766
-77.6898
-78.0474
-78.4676
-78.8244
-79.2673
-79.5594
-79.8984
-80.2772
-80.5808
-80.9201
-81.0578
-81.197
-81.2662
-81.2531
-81.1549
-80.7082
-80.0289
-79.054
-77.7958
-76.2113
-74.2941
-71.9965
-69.2994
-66.1496
-62.5177
-58.3104
-53.5124
-48.0383
-41.7756
-34.6413
-26.5434
-17.471
-7.44666
3.40851
14.9665
27.1688
40.0797
54.1807
70.6556
90.3127
113.008
134.533
-34.8086
-33.2628
-31.9487
-30.8923
-30.0736
-29.4612
-29.0261
-28.7367
-28.5439
-28.4047
-28.3172
-28.2494
-28.199
-28.1619
-28.1285
-28.1019
-28.074
-28.0505
-28.027
-28.0115
-27.9968
-27.9708
-27.9443
-27.9216
-27.8944
-27.8705
-27.8399
-27.8133
-27.7847
-27.7553
-27.7186
-27.6854
-27.6526
-27.6181
-27.5835
-27.5595
-27.5412
-27.5152
-27.4907
-27.4612
-27.4375
-27.3965
-27.3774
-27.3568
-27.3196
-27.2772
-27.2251
-27.1837
-27.1398
-27.094
-27.0463
-27.001
-26.9485
-26.886
-26.8144
-26.7388
-26.6677
-26.594
-26.5156
-26.4427
-26.4132
-26.4915
-26.8057
-27.4986
-28.9375
-32.5803
-38.1644
-45.0415
-52.9711
-60.1001
-65.4019
-67.9356
-69.607
-70.8013
-71.9618
-73.0813
-73.9669
-74.7369
-75.3932
-75.8193
-75.9172
-75.5768
-74.57
-73.0812
-71.2202
-69.1713
-67.0997
-65.1925
-63.5194
-62.0668
-60.8438
-59.9079
-59.219
-58.7295
-58.3526
-58.1598
-58.0829
-58.169
-58.1871
-58.2928
-58.6275
-58.8057
-59.022
-59.3081
-59.6227
-59.9725
-60.3548
-60.7577
-61.1925
-61.6375
-62.1059
-62.5949
-63.0783
-63.564
-64.0249
-64.4931
-64.9379
-65.3801
-65.8021
-66.2314
-66.6342
-67.0325
-67.4077
-67.7915
-68.1483
-68.497
-68.8315
-69.1379
-69.4678
-69.7417
-70.049
-70.3228
-70.6406
-70.933
-71.2679
-71.5743
-71.9226
-72.2441
-72.6092
-72.9472
-73.3126
-73.6803
-74.0536
-74.4252
-74.7876
-75.157
-75.5179
-75.8891
-76.2566
-76.6352
-77.0106
-77.3879
-77.7587
-78.1299
-78.5038
-78.8768
-79.2534
-79.595
-79.8752
-80.1184
-80.2909
-80.3929
-80.3796
-80.2604
-80.062
-79.7859
-79.4742
-79.047
-78.4717
-77.6523
-76.5537
-75.1161
-73.3129
-71.1026
-68.4608
-65.3534
-61.7278
-57.5761
-52.806
-47.3278
-41.0565
-33.9203
-25.9064
-17.0394
-7.40013
2.92122
13.8661
25.5135
38.2474
52.8571
69.679
88.4538
105.683
-35.3059
-33.817
-32.5371
-31.4962
-30.647
-29.9792
-29.4768
-29.1266
-28.8617
-28.6859
-28.5399
-28.4328
-28.346
-28.2823
-28.2325
-28.1917
-28.1581
-28.131
-28.1057
-28.0872
-28.0602
-28.0353
-28.013
-27.9898
-27.9681
-27.9364
-27.9128
-27.8849
-27.858
-27.8189
-27.7828
-27.7496
-27.7175
-27.6898
-27.6648
-27.6351
-27.6024
-27.5758
-27.5491
-27.5297
-27.5035
-27.4903
-27.4448
-27.4054
-27.3779
-27.3373
-27.2985
-27.2526
-27.2072
-27.158
-27.1118
-27.0621
-27.0107
-26.9503
-26.8767
-26.8028
-26.7347
-26.6675
-26.5913
-26.5248
-26.4927
-26.5436
-26.7846
-27.3834
-28.6045
-30.9629
-35.9861
-42.4092
-50.084
-57.5945
-63.797
-67.5703
-69.9668
-70.9723
-71.8757
-73.1793
-74.1544
-75.017
-75.7903
-76.3819
-76.7063
-76.6681
-76.0186
-74.6493
-72.6611
-70.4909
-68.2255
-66.0754
-64.1643
-62.4745
-61.0472
-59.9327
-59.1219
-58.5085
-58.1708
-57.9518
-57.8025
-57.7226
-57.814
-57.9357
-58.0024
-58.307
-58.6415
-58.9753
-59.3407
-59.7226
-60.1384
-60.572
-61.0168
-61.4692
-61.9389
-62.4253
-62.9032
-63.3913
-63.8552
-64.3247
-64.7687
-65.2132
-65.6402
-66.0695
-66.4696
-66.8638
-67.2405
-67.6212
-67.983
-68.3301
-68.6607
-68.971
-69.2907
-69.575
-69.8742
-70.1589
-70.4627
-70.7676
-71.092
-71.4148
-71.7567
-72.0958
-72.4481
-72.7926
-73.1503
-73.5182
-73.8916
-74.2697
-74.6408
-75.0189
-75.388
-75.7731
-76.1526
-76.5529
-76.9452
-77.3578
-77.7605
-78.1868
-78.6002
-79.032
-79.4345
-79.8555
-80.2784
-80.6845
-81.0886
-81.4663
-81.8154
-82.075
-82.2275
-82.2614
-82.06
-81.6988
-81.1414
-80.3848
-79.3793
-78.1044
-76.5059
-74.5584
-72.2156
-69.4538
-66.211
-62.4753
-58.1678
-53.2186
-47.5791
-41.2062
-34.0917
-26.2426
-17.7118
-8.55033
1.23284
11.7331
23.2627
36.2852
50.9312
66.8598
81.1147
-35.3751
-33.9834
-32.8223
-31.8166
-30.9785
-30.301
-29.7563
-29.3209
-29.0211
-28.7869
-28.6215
-28.4871
-28.389
-28.3124
-28.25
-28.2006
-28.1544
-28.115
-28.0836
-28.0565
-28.0318
-28.002
-27.9731
-27.9484
-27.9179
-27.8934
-27.8588
-27.8351
-27.8089
-27.7808
-27.7505
-27.7195
-27.6861
-27.6498
-27.6186
-27.5935
-27.5717
-27.5438
-27.5171
-27.4861
-27.4617
-27.4201
-27.4085
-27.392
-27.3567
-27.3221
-27.2813
-27.2497
-27.2132
-27.1764
-27.1362
-27.0987
-27.0568
-27.0046
-26.9456
-26.886
-26.8298
-26.7665
-26.7021
-26.647
-26.6242
-26.6701
-26.8699
-27.3646
-28.3456
-30.145
-34.0351
-39.4299
-46.2045
-53.6638
-60.4956
-65.7392
-68.6023
-70.3913
-72.0443
-73.1866
-73.7582
-74.5507
-75.4526
-76.2478
-76.8002
-76.8827
-76.6249
-75.5266
-73.7312
-71.4999
-69.0549
-66.8293
-64.8171
-62.9154
-61.3591
-60.0952
-59.1326
-58.5474
-58.2108
-57.8722
-57.7447
-57.7801
-57.8975
-58.0621
-58.3308
-58.5223
-58.7752
-59.0707
-59.3798
-59.7258
-60.1074
-60.4962
-60.9059
-61.3366
-61.7897
-62.2677
-62.7454
-63.2272
-63.6901
-64.1511
-64.5977
-65.0451
-65.4777
-65.9048
-66.3074
-66.6939
-67.067
-67.4399
-67.7999
-68.1445
-68.4728
-68.7845
-69.0873
-69.3795
-69.6752
-69.9658
-70.2631
-70.568
-70.8848
-71.2088
-71.5438
-71.8847
-72.232
-72.5796
-72.9353
-73.2924
-73.6554
-74.0166
-74.3771
-74.7344
-75.093
-75.4538
-75.8232
-76.1981
-76.5827
-76.9709
-77.3679
-77.7664
-78.1756
-78.5885
-79.0159
-79.4397
-79.8377
-80.2071
-80.52
-80.7861
-80.9815
-81.1688
-81.3098
-81.4105
-81.4869
-81.4759
-81.3582
-81.0548
-80.5335
-79.7427
-78.6458
-77.2004
-75.3716
-73.1212
-70.3921
-67.1667
-63.3911
-59.0139
-54.0095
-48.3552
-42.0577
-35.127
-27.5932
-19.4693
-10.7368
-1.27883
9.14202
20.8014
33.7362
47.5555
59.7024
-35.129
-33.9189
-32.8841
-31.9852
-31.2145
-30.5787
-30.0492
-29.6265
-29.2893
-29.0349
-28.8302
-28.6741
-28.5462
-28.4465
-28.3678
-28.3017
-28.2494
-28.2059
-28.167
-28.1357
-28.1011
-28.0752
-28.0515
-28.0263
-28.0036
-27.9722
-27.9498
-27.9162
-27.8826
-27.8443
-27.8153
-27.7853
-27.7546
-27.7261
-27.6997
-27.6715
-27.6376
-27.6096
-27.5821
-27.562
-27.5345
-27.5188
-27.4773
-27.4408
-27.4148
-27.3792
-27.3497
-27.3121
-27.2743
-27.2328
-27.1956
-27.1575
-27.1186
-27.0719
-27.0196
-26.9721
-26.9263
-26.881
-26.8356
-26.8064
-26.806
-26.8631
-27.045
-27.4636
-28.2797
-29.7316
-32.4146
-36.754
-42.4442
-49.0408
-55.7994
-61.8152
-66.3002
-69.2589
-71.3649
-72.807
-73.9359
-74.8173
-75.5639
-76.3246
-76.9243
-77.2485
-76.8976
-76.0498
-74.587
-72.4467
-70.1045
-67.8711
-65.77
-63.8712
-62.1022
-60.5519
-59.424
-58.7134
-58.2534
-57.9669
-57.8106
-57.7065
-57.6772
-57.7832
-58.045
-58.2745
-58.5545
-58.8619
-59.1712
-59.5322
-59.9311
-60.3367
-60.7634
-61.211
-61.6566
-62.128
-62.5955
-63.0701
-63.5312
-63.9886
-64.4341
-64.8737
-65.303
-65.7338
-66.1355
-66.521
-66.8943
-67.2653
-67.6232
-67.9633
-68.2925
-68.6105
-68.9191
-69.2099
-69.5086
-69.7977
-70.0991
-70.4034
-70.7244
-71.0491
-71.3901
-71.7339
-72.0887
-72.436
-72.7933
-73.1569
-73.5229
-73.8922
-74.2578
-74.6282
-74.9909
-75.3652
-75.738
-76.1298
-76.5226
-76.9355
-77.35
-77.7862
-78.2224
-78.6771
-79.1253
-79.5955
-80.0759
-80.5541
-81.0298
-81.4844
-81.9162
-82.2898
-82.6002
-82.8017
-82.8706
-82.8387
-82.7058
-82.463
-82.0836
-81.5239
-80.7432
-79.689
-78.3089
-76.5409
-74.3208
-71.6239
-68.4024
-64.6162
-60.2529
-55.3031
-49.7803
-43.6968
-37.0688
-29.886
-22.1055
-13.6057
-4.20201
6.27854
17.8362
30.0442
40.6508
-34.5852
-33.5608
-32.6733
-31.8879
-31.1956
-30.6142
-30.1117
-29.6909
-29.357
-29.0829
-28.8744
-28.7022
-28.5705
-28.4652
-28.3784
-28.3071
-28.2445
-28.1906
-28.148
-28.1118
-28.0789
-28.0429
-28.01
-27.9821
-27.9497
-27.9244
-27.8907
-27.8666
-27.8402
-27.8127
-27.7805
-27.7496
-27.7176
-27.6818
-27.6565
-27.6293
-27.6029
-27.5739
-27.5465
-27.5155
-27.492
-27.4568
-27.4444
-27.4278
-27.394
-27.3651
-27.3298
-27.3041
-27.2757
-27.2481
-27.2167
-27.1892
-27.1598
-27.1261
-27.0913
-27.0571
-27.0274
-26.9945
-26.9703
-26.9632
-26.9857
-27.0618
-27.242
-27.6086
-28.2903
-29.4724
-31.4807
-34.6411
-39.0897
-44.6545
-50.8029
-56.7417
-61.8841
-65.9608
-69.039
-71.2206
-72.7476
-73.8006
-74.6933
-75.4399
-76.0026
-76.2477
-76.1751
-75.5259
-74.3379
-72.6244
-70.5588
-68.3859
-66.3187
-64.4681
-62.7254
-61.1559
-59.8543
-58.8206
-58.1753
-57.8159
-57.7099
-57.6515
-57.6153
-57.8267
-58.0784
-58.2948
-58.5802
-58.9026
-59.2157
-59.5405
-59.9211
-60.2948
-60.684
-61.1034
-61.536
-61.9929
-62.4584
-62.9207
-63.3686
-63.8145
-64.2533
-64.6888
-65.1211
-65.551
-65.9538
-66.3418
-66.7117
-67.0759
-67.4305
-67.7673
-68.0931
-68.4099
-68.7108
-69.0025
-69.295
-69.5836
-69.878
-70.1801
-70.4949
-70.8191
-71.1543
-71.4978
-71.8492
-72.2019
-72.5602
-72.917
-73.277
-73.6348
-73.9894
-74.3411
-74.6916
-75.0439
-75.4039
-75.7727
-76.1542
-76.5459
-76.9526
-77.3725
-77.8089
-78.2578
-78.7208
-79.1924
-79.6615
-80.1338
-80.6005
-81.0634
-81.5089
-81.9435
-82.3579
-82.7703
-83.1323
-83.399
-83.5527
-83.5755
-83.4541
-83.1765
-82.7104
-82.0154
-81.0411
-79.7273
-78.0022
-75.8313
-73.1662
-69.974
-66.2479
-61.9882
-57.2107
-51.9267
-46.1417
-39.835
-32.9428
-25.3387
-16.8694
-7.41403
3.00902
13.9567
23.3979
-33.7929
-32.9746
-32.2494
-31.6105
-31.0559
-30.5681
-30.135
-29.7745
-29.4873
-29.232
-29.0184
-28.8421
-28.6968
-28.5818
-28.487
-28.4062
-28.3406
-28.2841
-28.2343
-28.1931
-28.1502
-28.1197
-28.0929
-28.065
-28.0415
-28.0084
-27.9844
-27.9494
-27.9155
-27.877
-27.8471
-27.8159
-27.7841
-27.7568
-27.7334
-27.7041
-27.6691
-27.6406
-27.6129
-27.5916
-27.5646
-27.546
-27.5082
-27.4713
-27.4503
-27.4198
-27.3957
-27.3658
-27.3359
-27.3017
-27.2732
-27.2458
-27.2195
-27.1895
-27.1601
-27.1362
-27.1126
-27.0978
-27.0941
-27.1115
-27.1588
-27.2553
-27.4413
-27.7773
-28.3555
-29.3122
-30.8649
-33.2486
-36.6196
-40.9708
-46.1394
-51.6231
-56.8441
-61.373
-65.1155
-68.0517
-70.2778
-71.9052
-73.1247
-74.0555
-74.7365
-75.1627
-75.2521
-74.7188
-73.7852
-72.4298
-70.7331
-68.8395
-66.9102
-65.0645
-63.4019
-61.9278
-60.6291
-59.6242
-58.8893
-58.4002
-58.083
-57.8381
-57.6953
-57.7918
-58.0895
-58.3163
-58.5343
-58.8174
-59.098
-59.4401
-59.7949
-60.1682
-60.5667
-60.9924
-61.4137
-61.8392
-62.3028
-62.7681
-63.2144
-63.6642
-64.1003
-64.5284
-64.9501
-65.369
-65.7721
-66.1658
-66.5368
-66.9045
-67.2594
-67.5954
-67.9206
-68.2363
-68.539
-68.8296
-69.1235
-69.4114
-69.7073
-70.007
-70.3226
-70.6467
-70.9874
-71.3337
-71.6915
-72.0458
-72.4096
-72.7742
-73.1379
-73.502
-73.8602
-74.2185
-74.5698
-74.9269
-75.2839
-75.6568
-76.0355
-76.4335
-76.8418
-77.2739
-77.718
-78.185
-78.6619
-79.1651
-79.6814
-80.2016
-80.7206
-81.2276
-81.7238
-82.2016
-82.6667
-83.1109
-83.535
-83.9224
-84.2464
-84.4819
-84.6116
-84.6147
-84.4646
-84.1242
-83.546
-82.6712
-81.4302
-79.7769
-77.6632
-75.0587
-71.9588
-68.3679
-64.3065
-59.7847
-54.8017
-49.3292
-43.2939
-36.5522
-28.9569
-20.4095
-10.9424
-1.00263
7.54119
-32.7244
-32.1383
-31.5987
-31.1151
-30.6962
-30.3167
-29.9742
-29.6712
-29.3897
-29.1632
-28.9748
-28.8125
-28.6808
-28.5704
-28.4757
-28.396
-28.3246
-28.2609
-28.2089
-28.1676
-28.131
-28.09
-28.053
-28.0225
-27.989
-27.9638
-27.9288
-27.9021
-27.8768
-27.8494
-27.8151
-27.7821
-27.7506
-27.7171
-27.6891
-27.6618
-27.634
-27.606
-27.5778
-27.5479
-27.526
-27.4976
-27.4836
-27.452
-27.4268
-27.4025
-27.3716
-27.3487
-27.3255
-27.3061
-27.2826
-27.2611
-27.2382
-27.2198
-27.2106
-27.2065
-27.2069
-27.2032
-27.2115
-27.2426
-27.3061
-27.4185
-27.6112
-27.9288
-28.4398
-29.2369
-30.4679
-32.3104
-34.9153
-38.319
-42.478
-47.1333
-51.9376
-56.4932
-60.5503
-63.9608
-66.7123
-68.8563
-70.4947
-71.7292
-72.6165
-73.1752
-73.3755
-73.3471
-72.7381
-71.7519
-70.4381
-68.8864
-67.2325
-65.5727
-63.9874
-62.5235
-61.2137
-60.164
-59.3001
-58.6517
-58.2341
-58.0573
-57.8995
-57.8483
-57.9556
-58.2178
-58.6586
-58.9557
-59.1164
-59.3836
-59.7203
-60.0966
-60.4772
-60.885
-61.3095
-61.7391
-62.1844
-62.6546
-63.0729
-63.5063
-63.9268
-64.3498
-64.7672
-65.1826
-65.5844
-65.9777
-66.3507
-66.7219
-67.0732
-67.4087
-67.7324
-68.0474
-68.3443
-68.6303
-68.9155
-69.2005
-69.4918
-69.7878
-70.0961
-70.4165
-70.7529
-71.0987
-71.4547
-71.8139
-72.1824
-72.548
-72.9126
-73.2737
-73.6276
-73.9742
-74.3159
-74.6572
-75.0022
-75.3564
-75.7251
-76.1108
-76.5138
-76.9359
-77.3763
-77.839
-78.3264
-78.8437
-79.3793
-79.9336
-80.4989
-81.0683
-81.6352
-82.1991
-82.7546
-83.2985
-83.8276
-84.3304
-84.7963
-85.2116
-85.5599
-85.8197
-85.967
-85.9676
-85.7768
-85.3359
-84.5755
-83.4381
-81.8725
-79.8478
-77.3594
-74.4129
-71.0333
-67.2379
-63.0256
-58.3636
-53.1713
-47.2886
-40.5433
-32.8319
-24.1944
-15.0776
-7.22762
-31.4678
-31.0944
-30.7714
-30.4671
-30.2051
-29.9622
-29.7299
-29.515
-29.3283
-29.1563
-29.0123
-28.8745
-28.7498
-28.6404
-28.5502
-28.4731
-28.4074
-28.3469
-28.2927
-28.2456
-28.1963
-28.1627
-28.133
-28.1027
-28.0774
-28.0439
-28.0187
-27.9845
-27.9503
-27.9131
-27.8804
-27.8462
-27.8131
-27.7848
-27.7585
-27.737
-27.7034
-27.6677
-27.6399
-27.6174
-27.5926
-27.5763
-27.5509
-27.5449
-27.493
-27.4517
-27.4346
-27.4126
-27.388
-27.3598
-27.3371
-27.3156
-27.2984
-27.2816
-27.2711
-27.2738
-27.2745
-27.2817
-27.3028
-27.3487
-27.4274
-27.5535
-27.7515
-28.0575
-28.5192
-29.2044
-30.2149
-31.6765
-33.7154
-36.3988
-39.7415
-43.6014
-47.7767
-51.9971
-56.0122
-59.6235
-62.7304
-65.2981
-67.3656
-68.9827
-70.2049
-71.0576
-71.558
-71.8131
-71.4802
-70.8336
-69.8907
-68.7007
-67.362
-65.9592
-64.5685
-63.2405
-62.0185
-60.961
-60.0877
-59.4031
-58.8802
-58.4737
-58.2669
-58.1895
-58.2349
-58.3581
-58.5691
-58.8351
-59.1183
-59.442
-59.8443
-60.1659
-60.4075
-60.74
-61.1324
-61.544
-61.9874
-62.468
-62.9133
-63.3571
-63.7756
-64.1918
-64.5925
-64.9945
-65.3927
-65.785
-66.1663
-66.5442
-66.9027
-67.2465
-67.5687
-67.8781
-68.1736
-68.4571
-68.7386
-69.0185
-69.3069
-69.5988
-69.9046
-70.2214
-70.5572
-70.9027
-71.2638
-71.6256
-71.9996
-72.3726
-72.7427
-73.1088
-73.4648
-73.8141
-74.152
-74.4888
-74.8232
-75.167
-75.5216
-75.8975
-76.2889
-76.7037
-77.1369
-77.5969
-78.0778
-78.5913
-79.1289
-79.6917
-80.2769
-80.8773
-81.4891
-82.11
-82.7356
-83.3616
-83.9851
-84.598
-85.1949
-85.7664
-86.3003
-86.7825
-87.1952
-87.5102
-87.6876
-87.6704
-87.3881
-86.7702
-85.7571
-84.3096
-82.4202
-80.0945
-77.3598
-74.2484
-70.7735
-66.9061
-62.5595
-57.5515
-51.6704
-44.7747
-36.8969
-28.4745
-21.1421
-29.9726
-29.8411
-29.7368
-29.6435
-29.5425
-29.4443
-29.3313
-29.2189
-29.1082
-28.987
-28.8749
-28.769
-28.6779
-28.5896
-28.5073
-28.4356
-28.371
-28.3101
-28.2571
-28.2146
-28.1751
-28.1342
-28.0969
-28.0641
-28.0294
-28.003
-27.9721
-27.945
-27.9193
-27.892
-27.8561
-27.8201
-27.7857
-27.7527
-27.7238
-27.6898
-27.6639
-27.6388
-27.6101
-27.5808
-27.5573
-27.5308
-27.5143
-27.4804
-27.4707
-27.441
-27.4141
-27.391
-27.3666
-27.3504
-27.3324
-27.3158
-27.2949
-27.2811
-27.2832
-27.2909
-27.3138
-27.3467
-27.3886
-27.4441
-27.5282
-27.6561
-27.8547
-28.1488
-28.5731
-29.1773
-30.0375
-31.2411
-32.8841
-35.0302
-37.7301
-40.9179
-44.4764
-48.2325
-51.9831
-55.5456
-58.783
-61.6066
-63.9925
-65.9393
-67.4721
-68.6074
-69.3582
-69.7187
-69.9268
-69.6686
-69.0915
-68.2568
-67.2368
-66.1012
-64.9167
-63.7419
-62.6266
-61.6096
-60.7278
-59.9857
-59.3999
-58.9735
-58.6563
-58.4691
-58.412
-58.4687
-58.6248
-58.8422
-59.0814
-59.3407
-59.656
-60.0084
-60.395
-60.7887
-61.1746
-61.5343
-61.8759
-62.2967
-62.719
-63.1482
-63.5822
-64.0164
-64.4207
-64.8275
-65.2183
-65.6063
-65.9828
-66.3564
-66.7155
-67.0627
-67.3912
-67.7048
-68.0034
-68.2828
-68.5576
-68.8302
-69.1117
-69.3985
-69.6993
-70.009
-70.3371
-70.6774
-71.036
-71.4017
-71.7831
-72.1624
-72.5399
-72.9124
-73.2723
-73.6201
-73.9545
-74.2846
-74.6092
-74.9384
-75.2781
-75.6411
-76.0259
-76.4369
-76.866
-77.3223
-77.8003
-78.3134
-78.8537
-79.4234
-80.0212
-80.6435
-81.2855
-81.9461
-82.624
-83.315
-84.0176
-84.7255
-85.4349
-86.1368
-86.8251
-87.496
-88.1384
-88.7329
-89.2463
-89.6277
-89.8107
-89.7122
-89.2597
-88.3966
-87.1035
-85.3828
-83.2611
-80.7833
-77.9954
-74.8909
-71.392
-67.2989
-62.3366
-56.292
-49.1713
-41.372
-34.4312
-28.269
-28.4064
-28.5444
-28.6644
-28.7643
-28.8352
-28.8619
-28.8744
-28.8565
-28.8198
-28.7878
-28.7245
-28.6619
-28.601
-28.5367
-28.4732
-28.4235
-28.3765
-28.3286
-28.2853
-28.2355
-28.1974
-28.1647
-28.1337
-28.1073
-28.0758
-28.0505
-28.0172
-27.9853
-27.9501
-27.9144
-27.878
-27.8435
-27.812
-27.7789
-27.7559
-27.7244
-27.689
-27.6625
-27.6389
-27.6146
-27.5963
-27.5724
-27.5561
-27.524
-27.4995
-27.4635
-27.4515
-27.429
-27.4043
-27.3836
-27.3633
-27.3505
-27.3429
-27.3396
-27.3528
-27.3729
-27.4041
-27.447
-27.5073
-27.5949
-27.7253
-27.9212
-28.2037
-28.5964
-29.1392
-29.8879
-30.9101
-32.2761
-34.0416
-36.2635
-38.9143
-41.9402
-45.2322
-48.6416
-52.0144
-55.2178
-58.1429
-60.7305
-62.9369
-64.7598
-66.1944
-67.2566
-67.9392
-68.3093
-68.367
-68.1167
-67.6212
-66.9107
-66.0494
-65.0967
-64.1108
-63.1373
-62.2135
-61.3734
-60.6308
-60.0061
-59.4942
-59.1186
-58.8611
-58.7122
-58.6677
-58.7235
-58.8656
-59.0688
-59.3132
-59.5965
-59.9036
-60.2077
-60.5316
-60.9053
-61.3068
-61.7388
-62.1978
-62.6232
-63.0189
-63.3968
-63.8043
-64.191
-64.6016
-64.9713
-65.3641
-65.7621
-66.1543
-66.5255
-66.8925
-67.2356
-67.543
-67.8407
-68.1161
-68.3888
-68.6538
-68.9271
-69.2057
-69.5017
-69.8059
-70.1296
-70.4635
-70.8169
-71.1804
-71.5675
-71.9552
-72.3404
-72.721
-73.0875
-73.4388
-73.7682
-74.0896
-74.4004
-74.7172
-75.0407
-75.3855
-75.7526
-76.1513
-76.5707
-77.0215
-77.4944
-78.0054
-78.5462
-79.1196
-79.7256
-80.3617
-81.0234
-81.7102
-82.4246
-83.1637
-83.9295
-84.713
-85.5107
-86.3158
-87.1299
-87.9564
-88.7971
-89.6334
-90.4402
-91.1763
-91.7907
-92.1953
-92.3063
-92.0432
-91.3608
-90.2485
-88.7254
-86.8364
-84.6595
-82.2401
-79.55
-76.4089
-72.4738
-67.3972
-61.1301
-53.9649
-47.4115
-26.3539
-26.7717
-27.1744
-27.5351
-27.842
-28.0905
-28.2778
-28.4143
-28.5039
-28.5486
-28.5625
-28.5557
-28.5354
-28.508
-28.4646
-28.4142
-28.3649
-28.319
-28.2815
-28.242
-28.2091
-28.1701
-28.1336
-28.1006
-28.0684
-28.0429
-28.0158
-27.9954
-27.969
-27.9406
-27.9043
-27.8663
-27.8279
-27.7913
-27.755
-27.7176
-27.692
-27.6698
-27.6422
-27.6154
-27.5908
-27.5651
-27.5469
-27.5257
-27.5116
-27.4847
-27.4581
-27.4184
-27.4038
-27.3852
-27.3648
-27.3518
-27.3377
-27.3228
-27.3224
-27.3334
-27.3591
-27.4016
-27.4636
-27.5424
-27.6423
-27.7768
-27.9661
-28.2279
-28.5916
-29.0832
-29.7487
-30.6367
-31.8043
-33.299
-35.1731
-37.4204
-40.018
-42.904
-45.9732
-49.1101
-52.1918
-55.1135
-57.7918
-60.1666
-62.2059
-63.8946
-65.2286
-66.2108
-66.8657
-67.1698
-67.1914
-66.9995
-66.5485
-65.9218
-65.17
-64.3476
-63.5037
-62.6729
-61.8906
-61.1742
-60.5449
-60.0047
-59.5824
-59.2577
-59.0333
-58.9053
-58.8731
-58.9232
-59.044
-59.2308
-59.4694
-59.7562
-60.066
-60.3938
-60.7432
-61.1126
-61.4854
-61.8915
-62.3249
-62.7676
-63.1999
-63.6411
-64.0676
-64.4959
-64.8656
-65.2198
-65.58
-65.9572
-66.323
-66.6933
-67.0496
-67.3716
-67.6747
-67.9578
-68.2416
-68.5056
-68.7759
-69.0437
-69.3277
-69.6174
-69.9291
-70.2501
-70.5968
-70.9512
-71.3403
-71.7354
-72.1293
-72.523
-72.8967
-73.2532
-73.581
-73.9056
-74.2085
-74.516
-74.819
-75.1396
-75.4838
-75.8671
-76.2731
-76.7121
-77.1728
-77.6777
-78.2173
-78.7906
-79.3986
-80.0411
-80.7152
-81.4158
-82.1554
-82.9247
-83.7335
-84.5683
-85.4337
-86.3216
-87.2452
-88.2028
-89.1984
-90.2204
-91.2566
-92.283
-93.2671
-94.1272
-94.7882
-95.1481
-95.1202
-94.6528
-93.7434
-92.4177
-90.7645
-88.8996
-86.898
-84.6852
-81.9175
-78.0608
-72.8952
-66.5471
-60.4223
-24.2468
-24.9659
-25.6626
-26.2908
-26.8228