/*--------------------------------*- C++ -*----------------------------------*\
| =========                 |                                                 |
| \\      /  F ield         | OpenFOAM: The Open Source CFD Toolbox           |
|  \\    /   O peration     | Version:  4.1                                   |
|   \\  /    A nd           | Web:      www.OpenFOAM.org                      |
|    \\/     M anipulation  |                                                 |
\*---------------------------------------------------------------------------*/
FoamFile
{
    version     2.0;
    format      ascii;
    class       volScalarField;
    location    "2.5";
    object      p;
}
// * * * * * * * * * * * * * * * * * * * * * * * * * * * * * * * * * * * * * //

dimensions      [0 2 -2 0 0 0 0];

internalField   nonuniform List<scalar> 
204246
(
-39.6053
-51.7181
-51.4358
-50.7109
-50.2856
-49.8604
-49.4427
-49.0067
-48.6958
-48.3991
-48.1343
-47.8447
-47.5513
-47.2584
-47.1139
-47.1341
-47.4261
-47.5546
-47.1607
-47.0967
-47.0145
-46.9593
-46.8938
-46.8476
-46.8074
-46.7928
-46.7859
-46.7903
-46.7699
-46.7398
-46.6385
-46.5567
-46.5093
-46.4907
-46.418
-46.7082
-46.8771
-46.7774
-46.751
-46.7154
-46.7249
-46.5431
-46.6014
-46.6301
-46.6351
-46.6193
-46.6192
-46.5922
-46.5929
-46.5406
-46.4407
-46.3327
-46.6563
-46.812
-46.7179
-46.7002
-46.6433
-46.6079
-46.5917
-46.5861
-46.5986
-46.6046
-46.5721
-46.5403
-46.5382
-46.5902
-46.5268
-46.4016
-46.297
-46.6175
-46.7893
-46.7078
-46.6704
-46.6355
-46.6107
-46.5531
-46.5041
-46.559
-46.6904
-46.4436
-46.4801
-46.5332
-46.6606
-46.37
-46.2642
-46.1994
-46.586
-46.7655
-46.6775
-46.5951
-46.5444
-46.5599
-46.5434
-46.5271
-46.5183
-46.4823
-46.4556
-46.4785
-46.4454
-46.4334
-46.3922
-46.3083
-46.2104
-46.1345
-46.0627
-46.4399
-46.5215
-46.197
-46.3023
-46.2337
-46.0938
-45.8469
-45.9226
-45.6731
-45.6801
-45.351
-45.29
-44.9489
-44.6608
-44.2869
-43.8851
-43.5432
-43.19
-42.6287
-41.9343
-41.2771
-40.4932
-39.8671
-39.4014
-39.3046
-39.8564
-41.4147
-44.4133
-49.4863
-56.5476
-68.1545
-78.5508
-82.3208
-85.6839
-89.4792
-91.2112
-91.7888
-93.1006
-93.5562
-94.5175
-95.1537
-95.8854
-96.6368
-97.3552
-97.8718
-98.1078
-98.1695
-98.1295
-97.995
-98.1746
-98.8723
-100.245
-100.975
-99.6821
-100.555
-99.5967
-99.8079
-98.9229
-98.8968
-97.7016
-97.2259
-95.6007
-94.6255
-92.4425
-90.6141
-87.592
-84.7214
-80.6553
-76.4682
-71.6128
-66.025
-59.5572
-52.1417
-43.9292
-34.3195
-23.3025
-10.6437
3.71796
20.1524
38.6418
59.3301
82.2728
108.093
137.494
176.429
235.362
328.603
453.635
-51.0932
-50.7662
-51.0519
-50.9002
-50.5945
-50.2264
-49.782
-49.3652
-48.9939
-48.6721
-48.3915
-48.1051
-47.8251
-47.559
-47.356
-47.2602
-47.3724
-47.4456
-47.3591
-47.2635
-47.1704
-47.0936
-47.0355
-46.9917
-46.9575
-46.9403
-46.9284
-46.9116
-46.888
-46.8512
-46.8025
-46.7384
-46.6828
-46.6535
-46.637
-46.6986
-46.7892
-46.826
-46.8336
-46.8152
-46.8159
-46.7776
-46.7702
-46.7549
-46.7394
-46.7382
-46.7159
-46.7063
-46.731
-46.6884
-46.638
-46.6017
-46.6511
-46.7299
-46.7793
-46.7954
-46.7527
-46.748
-46.7302
-46.7324
-46.7173
-46.6982
-46.6782
-46.6597
-46.664
-46.6608
-46.6252
-46.588
-46.5599
-46.6122
-46.6945
-46.7452
-46.7712
-46.7531
-46.744
-46.6954
-46.6782
-46.6893
-46.6923
-46.6521
-46.6414
-46.6427
-46.6446
-46.6005
-46.514
-46.5103
-46.5805
-46.6603
-46.705
-46.7173
-46.6896
-46.7058
-46.6805
-46.6727
-46.6406
-46.5967
-46.5781
-46.5827
-46.5639
-46.5581
-46.5278
-46.4806
-46.4212
-46.3584
-46.3567
-46.4018
-46.4395
-46.4514
-46.4342
-46.3799
-46.2881
-46.1887
-46.0885
-45.9954
-45.8778
-45.7517
-45.5767
-45.3636
-45.1071
-44.8141
-44.5317
-44.2442
-43.8907
-43.4112
-42.83
-42.1459
-41.3249
-40.3982
-39.5473
-38.9191
-38.6887
-39.0831
-40.6905
-45.3706
-53.4161
-66.9281
-78.1503
-83.9687
-87.0278
-88.8249
-90.6168
-92.1177
-92.8986
-93.5957
-94.3626
-95.2692
-95.8248
-96.6023
-97.1776
-97.8738
-98.1828
-98.5411
-98.667
-98.9585
-99.0035
-99.5066
-100.167
-100.745
-100.882
-100.975
-101.061
-101.044
-100.878
-100.67
-100.301
-99.872
-99.106
-98.3221
-97.0939
-95.6006
-93.5889
-91.1499
-88.0644
-84.4538
-80.2357
-75.4103
-69.7762
-63.3461
-56.1232
-47.8894
-38.5433
-27.8562
-15.7451
-1.88728
13.7352
31.1334
50.1155
70.6806
92.7054
118.175
153.981
220.141
318.114
-59.9634
-55.1394
-52.5893
-51.4626
-50.6999
-50.1486
-49.6821
-49.2813
-48.9041
-48.575
-48.2684
-48.0153
-47.7612
-47.5427
-47.3335
-47.2096
-47.1861
-47.2107
-47.1835
-47.1134
-47.0275
-46.934
-46.8547
-46.7835
-46.7238
-46.6745
-46.6724
-46.6851
-46.6825
-46.6648
-46.6225
-46.5813
-46.5415
-46.5265
-46.5231
-46.538
-46.5705
-46.6012
-46.6057
-46.5968
-46.5599
-46.534
-46.5264
-46.5298
-46.5326
-46.5437
-46.5452
-46.5386
-46.533
-46.4956
-46.4676
-46.4656
-46.4869
-46.5223
-46.553
-46.5617
-46.548
-46.5204
-46.5065
-46.4995
-46.5107
-46.5053
-46.5072
-46.5119
-46.5231
-46.5095
-46.4643
-46.4445
-46.4404
-46.48
-46.5025
-46.5138
-46.5113
-46.5067
-46.4793
-46.4681
-46.4542
-46.4701
-46.461
-46.4565
-46.4672
-46.4746
-46.4565
-46.4101
-46.3912
-46.3884
-46.4209
-46.4362
-46.4441
-46.4475
-46.4491
-46.4306
-46.4341
-46.4421
-46.4462
-46.43
-46.4192
-46.4076
-46.3961
-46.3865
-46.3479
-46.2997
-46.2352
-46.2124
-46.2074
-46.2068
-46.2073
-46.2048
-46.1755
-46.1227
-46.0741
-46.0011
-45.9374
-45.8119
-45.7193
-45.6068
-45.4535
-45.2622
-45.0251
-44.7787
-44.5331
-44.263
-43.928
-43.5221
-43.0714
-42.5585
-41.9956
-41.4131
-40.8294
-40.3138
-40.0991
-40.5755
-42.7648
-47.9655
-55.23
-64.8351
-75.873
-83.3201
-85.5916
-87.5706
-89.2838
-90.5516
-91.6313
-92.513
-93.394
-94.249
-95.1128
-95.7656
-96.3774
-96.856
-97.1282
-97.3926
-97.6202
-97.8544
-98.1827
-98.5146
-98.892
-99.2061
-99.3834
-99.3688
-99.2506
-99.0046
-98.7206
-98.2834
-97.6327
-96.7633
-95.7319
-94.4898
-93.0269
-91.2705
-89.2403
-86.8276
-84.0182
-80.6536
-76.6825
-72.0301
-66.6025
-60.395
-53.2656
-45.2207
-36.0633
-25.6782
-13.9092
-0.611407
14.4551
31.2282
49.6471
69.1082
89.5688
111.448
140.505
183.882
241.4
-62.5552
-58.2275
-55.1609
-53.06
-51.6706
-50.7558
-50.084
-49.5707
-49.145
-48.7765
-48.4491
-48.1672
-47.9424
-47.7362
-47.5836
-47.4942
-47.4427
-47.398
-47.3446
-47.288
-47.229
-47.1788
-47.134
-47.1076
-47.0768
-47.0627
-47.031
-46.9911
-46.9537
-46.9081
-46.8692
-46.8302
-46.8096
-46.799
-46.8078
-46.8172
-46.8291
-46.8395
-46.8516
-46.8575
-46.8724
-46.8711
-46.8664
-46.8479
-46.8249
-46.806
-46.7866
-46.7785
-46.768
-46.777
-46.7764
-46.7768
-46.7754
-46.7846
-46.7944
-46.8026
-46.807
-46.821
-46.8243
-46.8258
-46.7948
-46.7764
-46.7605
-46.7491
-46.733
-46.7123
-46.717
-46.7203
-46.745
-46.7405
-46.7547
-46.7863
-46.8078
-46.8061
-46.8156
-46.8104
-46.819
-46.7829
-46.7627
-46.7424
-46.7338
-46.7104
-46.6758
-46.6712
-46.6787
-46.7156
-46.7017
-46.6939
-46.7288
-46.7671
-46.7784
-46.7857
-46.7575
-46.7442
-46.7228
-46.6969
-46.6691
-46.6535
-46.6477
-46.6355
-46.622
-46.587
-46.5893
-46.5761
-46.5835
-46.5523
-46.5431
-46.5533
-46.5253
-46.4793
-46.424
-46.3885
-46.3157
-46.2369
-46.1323
-46.0014
-45.8707
-45.7014
-45.5214
-45.3169
-45.1052
-44.87
-44.599
-44.2439
-43.8223
-43.3598
-42.8473
-42.3509
-41.8722
-41.5087
-41.422
-41.8427
-43.4257
-47.9553
-56.1531
-65.8308
-75.9056
-82.4305
-86.8923
-89.1991
-90.2831
-91.4526
-92.6396
-93.5691
-94.3555
-95.118
-95.8657
-96.5431
-97.0745
-97.6563
-98.1707
-98.5518
-98.9304
-99.4124
-99.6548
-100.167
-100.567
-100.915
-101.209
-101.568
-101.869
-102.027
-102.135
-102.272
-102.326
-102.323
-101.879
-101.686
-100.853
-99.6653
-97.949
-95.8424
-93.2688
-90.2547
-86.6511
-82.4661
-77.5645
-71.9191
-65.3944
-57.9968
-49.6799
-40.2577
-29.6602
-17.7882
-4.61647
9.8835
25.606
42.6396
61.3494
83.4449
111.606
146.921
185.618
-62.1794
-58.543
-55.6699
-53.5414
-52.0122
-50.9222
-50.1178
-49.5218
-49.044
-48.6643
-48.3354
-48.053
-47.7956
-47.5899
-47.4103
-47.2713
-47.1485
-47.0869
-47.0647
-47.0216
-46.9527
-46.8666
-46.7852
-46.7046
-46.6427
-46.573
-46.5816
-46.5937
-46.6032
-46.61
-46.5823
-46.5535
-46.5233
-46.5035
-46.4806
-46.4746
-46.4886
-46.5081
-46.5037
-46.4899
-46.4613
-46.4605
-46.4548
-46.463
-46.468
-46.4846
-46.4919
-46.4813
-46.475
-46.4457
-46.4319
-46.4142
-46.4209
-46.4419
-46.4678
-46.4726
-46.4624
-46.4337
-46.4225
-46.4159
-46.4385
-46.4352
-46.4557
-46.452
-46.4638
-46.4581
-46.4252
-46.4091
-46.3729
-46.3858
-46.4104
-46.4144
-46.4064
-46.3945
-46.3678
-46.3699
-46.3603
-46.3835
-46.3794
-46.399
-46.4036
-46.4137
-46.4061
-46.3716
-46.3574
-46.3291
-46.37
-46.3855
-46.3612
-46.3458
-46.3443
-46.3295
-46.3466
-46.3502
-46.3656
-46.3716
-46.3832
-46.3782
-46.3584
-46.3379
-46.3007
-46.286
-46.219
-46.1921
-46.1672
-46.1935
-46.1904
-46.1571
-46.1352
-46.0968
-46.09
-46.038
-46.0335
-45.9498
-45.8883
-45.8304
-45.7259
-45.6057
-45.4572
-45.3078
-45.1474
-44.9799
-44.7812
-44.5537
-44.3018
-44.0023
-43.6827
-43.3315
-43.0244
-42.8271
-42.8594
-43.3123
-44.6009
-47.671
-53.3242
-61.468
-71.0025
-78.9153
-83.9002
-86.8585
-88.9296
-89.3193
-90.0766
-91.114
-92.1779
-93.2066
-94.2207
-94.8355
-95.3783
-95.8996
-96.4216
-96.6782
-97.085
-97.3995
-97.862
-98.0703
-98.4501
-98.704
-98.8459
-98.9723
-98.9164
-98.7874
-98.6258
-98.1685
-97.6697
-97.091
-96.3993
-95.5324
-94.8149
-93.8804
-92.7312
-91.2353
-89.3824
-87.0839
-84.2752
-80.8281
-76.7549
-72.0451
-66.4815
-59.9394
-52.3995
-43.8204
-34.1368
-23.4074
-11.7297
0.707816
13.8845
27.8869
43.5038
62.2659
85.8302
114.19
142.297
-60.8784
-58.0131
-55.68
-53.7912
-52.3403
-51.2123
-50.3591
-49.7006
-49.1857
-48.7805
-48.455
-48.1855
-47.9542
-47.7359
-47.5836
-47.4888
-47.4575
-47.4098
-47.3484
-47.3073
-47.2479
-47.2141
-47.1799
-47.1832
-47.1536
-47.1359
-47.0977
-47.0496
-47.0108
-46.9698
-46.9386
-46.906
-46.8891
-46.88
-46.89
-46.8946
-46.8937
-46.8868
-46.8956
-46.9032
-46.9216
-46.9201
-46.9324
-46.9163
-46.9008
-46.8772
-46.8497
-46.8387
-46.8308
-46.8509
-46.8573
-46.8689
-46.8601
-46.8499
-46.842
-46.8494
-46.8596
-46.8821
-46.8855
-46.8912
-46.8612
-46.8506
-46.8194
-46.81
-46.7893
-46.7765
-46.7948
-46.8072
-46.8499
-46.8292
-46.8195
-46.8395
-46.858
-46.8694
-46.8887
-46.8844
-46.8939
-46.8553
-46.845
-46.8167
-46.8133
-46.7744
-46.747
-46.7592
-46.7729
-46.8128
-46.7743
-46.7636
-46.7959
-46.8246
-46.8361
-46.8533
-46.8325
-46.8181
-46.7848
-46.7614
-46.7325
-46.7205
-46.7171
-46.7142
-46.7176
-46.688
-46.7253
-46.7061
-46.6938
-46.662
-46.6536
-46.6533
-46.6248
-46.5771
-46.549
-46.5379
-46.5011
-46.4568
-46.3564
-46.247
-46.1575
-46.041
-45.9153
-45.7691
-45.6268
-45.4686
-45.2908
-45.0877
-44.8719
-44.6428
-44.4021
-44.1902
-44.0428
-44.0147
-44.1941
-44.749
-45.9907
-48.4634
-52.7468
-59.1111
-67.1547
-75.2758
-82.1221
-87.1698
-89.4176
-90.5108
-91.5637
-92.8918
-93.7068
-94.218
-95.2073
-96.1093
-96.7379
-97.3551
-97.7952
-98.3303
-98.869
-99.4774
-99.8416
-100.301
-100.598
-101.034
-101.443
-101.812
-102.337
-102.744
-103.06
-103.34
-103.644
-103.84
-103.752
-103.521
-102.916
-102.061
-100.81
-99.1049
-96.9667
-94.4532
-91.5473
-88.171
-84.2463
-79.8029
-74.63
-68.526
-61.4788
-53.4752
-44.4651
-34.4974
-23.7679
-12.3474
-0.241243
12.6015
26.7086
43.3068
63.0537
85.8643
107.334
-58.402
-56.3177
-54.6297
-53.1606
-51.9124
-50.9109
-50.1271
-49.4796
-48.961
-48.5505
-48.2173
-47.9551
-47.7308
-47.5463
-47.3753
-47.213
-47.0416
-46.9407
-46.9357
-46.9242
-46.8857
-46.802
-46.7077
-46.6153
-46.5659
-46.4825
-46.5037
-46.5148
-46.5308
-46.5504
-46.5391
-46.524
-46.4895
-46.4631
-46.4359
-46.4276
-46.434
-46.4487
-46.4397
-46.4242
-46.3934
-46.39
-46.3765
-46.3977
-46.4079
-46.4296
-46.4436
-46.4347
-46.4273
-46.3975
-46.3839
-46.3508
-46.3578
-46.3883
-46.4127
-46.4129
-46.4008
-46.3705
-46.3608
-46.3502
-46.3783
-46.3804
-46.4014
-46.4044
-46.4195
-46.4166
-46.3811
-46.3597
-46.3137
-46.3362
-46.3573
-46.3468
-46.3331
-46.3188
-46.2943
-46.2966
-46.2855
-46.3229
-46.322
-46.3425
-46.3475
-46.3714
-46.3709
-46.3338
-46.3148
-46.2684
-46.3033
-46.3238
-46.2952
-46.2804
-46.2707
-46.2599
-46.2813
-46.2877
-46.3198
-46.3303
-46.3437
-46.3374
-46.3354
-46.3161
-46.2817
-46.2799
-46.199
-46.1926
-46.1652
-46.2251
-46.2448
-46.1725
-46.1711
-46.1431
-46.1298
-46.1036
-46.1058
-46.0784
-46.0753
-46.0492
-45.9738
-45.9045
-45.8319
-45.7774
-45.7015
-45.6082
-45.5041
-45.407
-45.3068
-45.191
-45.071
-44.9662
-44.9263
-45.0005
-45.2711
-45.8655
-47.0062
-49.0163
-52.2944
-57.1104
-63.3773
-70.2995
-76.8048
-82.0216
-85.3474
-87.2355
-88.537
-89.8181
-91.2718
-92.8655
-93.8818
-93.9266
-94.5525
-95.3037
-96.0014
-96.4546
-96.7578
-97.1286
-97.597
-97.8101
-98.1857
-98.5533
-98.6141
-98.7304
-98.7963
-98.8974
-98.7984
-98.6093
-98.3795
-98.1121
-98.0208
-97.6453
-97.423
-97.1404
-96.9397
-96.4224
-95.4319
-93.9493
-92.0192
-89.5703
-86.4782
-82.7822
-78.445
-73.2942
-67.2369
-60.2942
-52.5546
-43.9935
-34.6091
-24.4712
-13.6195
-1.9438
10.9091
25.6712
42.5624
61.3396
78.4419
-55.4548
-54.2205
-53.1185
-52.1729
-51.264
-50.4838
-49.8583
-49.3061
-48.8608
-48.4947
-48.2061
-47.9724
-47.7866
-47.6219
-47.4922
-47.37
-47.3441
-47.3215
-47.2577
-47.2364
-47.1907
-47.1943
-47.1495
-47.2178
-47.1676
-47.1744
-47.1295
-47.0846
-47.0472
-47.0075
-46.9786
-46.9537
-46.9543
-46.9514
-46.9679
-46.9686
-46.9478
-46.9279
-46.9344
-46.9439
-46.9636
-46.9564
-46.9788
-46.9464
-46.9292
-46.9173
-46.8927
-46.8871
-46.8834
-46.9067
-46.9124
-46.9381
-46.9243
-46.8972
-46.8842
-46.8938
-46.9077
-46.9324
-46.9336
-46.9391
-46.9083
-46.9075
-46.8735
-46.8728
-46.8343
-46.8262
-46.8532
-46.8655
-46.9103
-46.8839
-46.8717
-46.8954
-46.91
-46.9225
-46.9442
-46.9376
-46.9433
-46.9024
-46.8951
-46.859
-46.8559
-46.8124
-46.796
-46.8197
-46.8314
-46.8784
-46.8393
-46.8223
-46.8509
-46.8741
-46.8876
-46.9005
-46.8771
-46.867
-46.8283
-46.8198
-46.7938
-46.7923
-46.7674
-46.7611
-46.7772
-46.7605
-46.8192
-46.7953
-46.7892
-46.7581
-46.7442
-46.7464
-46.7279
-46.7047
-46.6882
-46.6591
-46.6324
-46.609
-46.544
-46.4683
-46.4178
-46.3489
-46.2697
-46.1729
-46.1019
-46.0272
-45.936
-45.8329
-45.7446
-45.6804
-45.6303
-45.6239
-45.6808
-45.8387
-46.1596
-46.7516
-47.7703
-49.4269
-51.9728
-55.6306
-60.4674
-66.1477
-72.0212
-77.4039
-81.7858
-85.0763
-87.6452
-89.7677
-91.5245
-93.1205
-94.2579
-95.5509
-96.3247
-96.6911
-97.2047
-97.8715
-98.3405
-98.9718
-99.3778
-100.012
-100.482
-100.871
-101.265
-101.777
-102.291
-102.694
-103.215
-103.712
-104.115
-104.242
-104.33
-104.242
-103.9
-103.263
-102.406
-101.446
-100.204
-98.595
-96.6938
-94.3953
-91.487
-88.0261
-84.0227
-79.2891
-73.7385
-67.5443
-60.7576
-53.1973
-44.8808
-35.9321
-26.2518
-15.6677
-3.9719
9.18402
23.8785
39.7664
53.8672
-52.1305
-51.6224
-51.0861
-50.6089
-50.0741
-49.579
-49.1384
-48.7263
-48.3687
-48.0694
-47.8249
-47.626
-47.4508
-47.3003
-47.1604
-47.0305
-46.9003
-46.8162
-46.808
-46.791
-46.7674
-46.7
-46.618
-46.5297
-46.489
-46.4222
-46.4448
-46.4582
-46.4691
-46.4909
-46.4933
-46.4889
-46.4472
-46.4248
-46.3871
-46.3747
-46.3954
-46.4093
-46.4008
-46.3867
-46.3581
-46.3524
-46.3255
-46.3445
-46.3568
-46.3863
-46.4086
-46.4013
-46.3949
-46.3659
-46.3518
-46.3163
-46.3241
-46.3577
-46.3791
-46.3753
-46.3616
-46.3314
-46.3205
-46.3069
-46.3382
-46.3352
-46.3564
-46.3636
-46.3903
-46.3879
-46.352
-46.331
-46.2812
-46.3064
-46.3215
-46.2989
-46.2885
-46.2736
-46.2481
-46.2512
-46.2442
-46.2881
-46.2862
-46.309
-46.3095
-46.3474
-46.3455
-46.3055
-46.2857
-46.2318
-46.2642
-46.286
-46.2591
-46.2363
-46.2275
-46.2168
-46.2424
-46.2529
-46.2876
-46.2958
-46.3151
-46.3142
-46.3167
-46.301
-46.2687
-46.2766
-46.1979
-46.2097
-46.1308
-46.2207
-46.2505
-46.2156
-46.1915
-46.1921
-46.2059
-46.218
-46.2254
-46.2247
-46.2305
-46.2286
-46.1898
-46.1626
-46.1242
-46.1236
-46.1236
-46.112
-46.0779
-46.0612
-46.0689
-46.0758
-46.1018
-46.1675
-46.3087
-46.5341
-46.8969
-47.479
-48.4118
-49.8217
-51.8699
-54.711
-58.4469
-62.9634
-67.9025
-72.7696
-77.136
-80.7299
-83.604
-85.9281
-87.9018
-89.6773
-91.1746
-92.466
-93.7331
-95.0653
-95.8474
-96.2291
-96.5796
-96.8403
-97.4283
-97.8103
-98.1684
-98.5546
-98.8016
-98.9125
-99.0428
-99.2766
-99.3561
-99.3905
-99.4371
-99.6826
-99.9011
-100.156
-100.463
-100.719
-100.838
-100.787
-100.591
-100.048
-99.0437
-97.5779
-95.4666
-92.6095
-89.1174
-85.0155
-80.2209
-74.7806
-68.7572
-62.0897
-54.7852
-46.8304
-38.1558
-28.6194
-18.0217
-6.24523
6.70364
20.4687
32.4643
-48.7276
-48.8448
-48.8389
-48.8059
-48.6905
-48.5262
-48.3225
-48.1145
-47.9108
-47.7475
-47.6001
-47.4717
-47.377
-47.2782
-47.2062
-47.1364
-47.1183
-47.0925
-47.0611
-47.081
-47.0741
-47.1092
-47.0943
-47.139
-47.1244
-47.144
-47.1062
-47.0701
-47.0444
-47.0114
-46.9839
-46.9545
-46.9563
-46.9542
-46.9837
-46.9917
-46.9651
-46.9485
-46.9548
-46.9674
-46.9933
-46.9928
-47.011
-46.9952
-46.978
-46.9416
-46.9172
-46.9154
-46.9122
-46.9353
-46.9405
-46.9694
-46.956
-46.9248
-46.9089
-46.9185
-46.9349
-46.9623
-46.9641
-46.9694
-46.936
-46.9389
-46.9058
-46.9031
-46.858
-46.8544
-46.8857
-46.8978
-46.9452
-46.9167
-46.9055
-46.9324
-46.9423
-46.9562
-46.9791
-46.9704
-46.9725
-46.9299
-46.9271
-46.8889
-46.8806
-46.8308
-46.8255
-46.8544
-46.8625
-46.9137
-46.8772
-46.8579
-46.8844
-46.9069
-46.9175
-46.9297
-46.9052
-46.8948
-46.8568
-46.8555
-46.8297
-46.8264
-46.8042
-46.8055
-46.8248
-46.7959
-46.8542
-46.8555
-46.8581
-46.814
-46.8046
-46.8163
-46.8101
-46.7846
-46.7688
-46.7598
-46.7532
-46.742
-46.7037
-46.6562
-46.6419
-46.6001
-46.5688
-46.5264
-46.5006
-46.4801
-46.4672
-46.4409
-46.4258
-46.4461
-46.4981
-46.616
-46.8037
-47.0848
-47.4766
-48.0417
-48.8849
-50.1125
-51.8221
-54.1063
-57.0602
-60.6676
-64.7645
-69.0255
-73.145
-76.8659
-80.1347
-83.0087
-85.5958
-88.0096
-90.2832
-92.3573
-94.0905
-95.3182
-96.4148
-97.5856
-98.0748
-98.4181
-98.882
-99.5179
-99.9005
-100.307
-100.862
-101.437
-101.953
-102.361
-102.818
-103.255
-103.523
-103.789
-104.009
-104.001
-104.072
-103.9
-103.522
-103.073
-102.716
-102.314
-101.65
-100.681
-99.1763
-96.8895
-93.9558
-90.5494
-86.5202
-81.7683
-76.494
-70.7335
-64.2946
-57.1951
-49.4817
-40.908
-31.3166
-20.7521
-9.19316
2.95788
13.4228
-45.3383
-45.9492
-46.4043
-46.7453
-47.0111
-47.1453
-47.1799
-47.1909
-47.1368
-47.0818
-47.0269
-46.9631
-46.9068
-46.8513
-46.7877
-46.7209
-46.6522
-46.6197
-46.6172
-46.5893
-46.5884
-46.5657
-46.5261
-46.4681
-46.4205
-46.3954
-46.3996
-46.4034
-46.4105
-46.4414
-46.4579
-46.4619
-46.4235
-46.3974
-46.3573
-46.3473
-46.3725
-46.3842
-46.3793
-46.3648
-46.3352
-46.3301
-46.3069
-46.3242
-46.3377
-46.3712
-46.3922
-46.3867
-46.3818
-46.3524
-46.3366
-46.3017
-46.3108
-46.3438
-46.3638
-46.3593
-46.3436
-46.3131
-46.3025
-46.2891
-46.3205
-46.3155
-46.3392
-46.3452
-46.3762
-46.3729
-46.3376
-46.3201
-46.2661
-46.2897
-46.3007
-46.2757
-46.2704
-46.2548
-46.2303
-46.2323
-46.2244
-46.2694
-46.2697
-46.2962
-46.3
-46.3422
-46.3337
-46.2946
-46.277
-46.2192
-46.2504
-46.2716
-46.2415
-46.2212
-46.2106
-46.2025
-46.2297
-46.2392
-46.2795
-46.2818
-46.3069
-46.308
-46.3153
-46.3045
-46.2744
-46.2833
-46.2132
-46.2124
-46.1967
-46.2344
-46.2534
-46.2498
-46.2449
-46.2614
-46.2809
-46.2944
-46.3072
-46.3371
-46.3624
-46.3805
-46.346
-46.3481
-46.3555
-46.3871
-46.4117
-46.4568
-46.4968
-46.5489
-46.6237
-46.7084
-46.8383
-47.0202
-47.2549
-47.5521
-47.953
-48.4908
-49.2585
-50.3386
-51.8004
-53.6931
-56.0893
-59.0153
-62.4079
-66.0687
-69.7762
-73.3118
-76.5974
-79.6065
-82.3373
-84.8235
-87.0882
-89.1356
-90.9733
-92.5699
-93.8984
-94.853
-96.3365
-97.4179
-97.5034
-97.9023
-98.4115
-98.6857
-98.885
-99.0942
-99.2924
-99.6756
-100.012
-100.414
-100.803
-101.099
-101.535
-102.359
-103
-103.657
-104.03
-104.199
-104.299
-104.324
-104.09
-103.561
-102.625
-100.962
-98.6078
-95.8216
-92.5062
-88.4999
-83.9734
-79
-73.3986
-67.1655
-60.3002
-52.6064
-43.9802
-34.4365
-24.0098
-13.1411
-3.84204
-42.1209
-43.0803
-43.9388
-44.6256
-45.2251
-45.6653
-45.9658
-46.2242
-46.37
-46.461
-46.5608
-46.6125
-46.6584
-46.687
-46.7139
-46.7237
-46.7592
-46.7864
-46.8017
-46.8449
-46.8708
-46.925
-46.9574
-47.0132
-47.016
-47.043
-47.0347
-47.0114
-46.9988
-46.9745
-46.959
-46.9343
-46.9441
-46.9588
-46.994
-46.9959
-46.97
-46.953
-46.9555
-46.9705
-47.0001
-46.9993
-47.0079
-46.9925
-46.9771
-46.9417
-46.9216
-46.9235
-46.9202
-46.9435
-46.9497
-46.9781
-46.9637
-46.9294
-46.9127
-46.9236
-46.9407
-46.9691
-46.9742
-46.9803
-46.9479
-46.9525
-46.9212
-46.9166
-46.868
-46.8647
-46.8965
-46.9085
-46.9548
-46.9268
-46.9164
-46.9478
-46.9537
-46.9687
-46.9902
-46.9807
-46.9818
-46.9391
-46.9375
-46.9002
-46.8889
-46.8365
-46.8377
-46.866
-46.8716
-46.9189
-46.8832
-46.8669
-46.8983
-46.9166
-46.9258
-46.9348
-46.9095
-46.9035
-46.8692
-46.8647
-46.8385
-46.8371
-46.8161
-46.8214
-46.8436
-46.8202
-46.8701
-46.8679
-46.9108
-46.8365
-46.8142
-46.8447
-46.8604
-46.8714
-46.8516
-46.8461
-46.832
-46.8345
-46.8207
-46.7901
-46.8081
-46.7989
-46.8126
-46.7961
-46.7909
-46.8166
-46.8712
-46.9106
-46.9459
-47.0169
-47.1325
-47.321
-47.5723
-47.8933
-48.2941
-48.8139
-49.5238
-50.4928
-51.763
-53.3724
-55.363
-57.7748
-60.5981
-63.7179
-66.9911
-70.2427
-73.3906
-76.3921
-79.2171
-81.8655
-84.3524
-86.7052
-88.9494
-91.1054
-93.1615
-94.9691
-96.455
-97.9053
-99.1049
-99.2018
-99.6218
-100.169
-100.703
-100.998
-101.432
-101.685
-102.116
-102.479
-102.756
-102.993
-103.198
-103.393
-103.81
-104.237
-104.599
-104.935
-105.405
-105.946
-106.222
-106.165
-105.788
-104.773
-103.027
-100.84
-98.2312
-94.9603
-91.1145
-86.8921
-82.1539
-76.7163
-70.6315
-63.8225
-56.0775
-47.4228
-37.9817
-28.1501
-19.7144
-39.0224
-40.28
-41.4594
-42.4468
-43.319
-44.033
-44.5814
-45.03
-45.3554
-45.5909
-45.8009
-45.9455
-46.058
-46.155
-46.2179
-46.2542
-46.2645
-46.2824
-46.3201
-46.343
-46.3846
-46.389
-46.3679
-46.3191
-46.3114
-46.2817
-46.3173
-46.3385
-46.3531
-46.3871
-46.4093
-46.4233
-46.3925
-46.3647
-46.333
-46.3218
-46.3533
-46.3741
-46.3748
-46.3632
-46.336
-46.332
-46.3101
-46.3317
-46.3427
-46.3747
-46.395
-46.3915
-46.3874
-46.3525
-46.3286
-46.2988
-46.3183
-46.3533
-46.372
-46.3645
-46.3453
-46.3158
-46.3089
-46.3
-46.3294
-46.3236
-46.3481
-46.3495
-46.3802
-46.3759
-46.3407
-46.3228
-46.2673
-46.2923
-46.3001
-46.2783
-46.2782
-46.2588
-46.2387
-46.2423
-46.2343
-46.2779
-46.2802
-46.3074
-46.3086
-46.348
-46.3395
-46.3029
-46.2849
-46.2264
-46.2575
-46.2727
-46.244
-46.2342
-46.2184
-46.2093
-46.2364
-46.2472
-46.289
-46.2986
-46.3253
-46.3272
-46.3367
-46.3233
-46.2939
-46.3052
-46.2455
-46.2377
-46.221
-46.258
-46.2749
-46.2688
-46.2752
-46.301
-46.3259
-46.3452
-46.3759
-46.4048
-46.441
-46.435
-46.4615
-46.5061
-46.5223
-46.5516
-46.5941
-46.6808
-46.7589
-46.8567
-46.985
-47.1039
-47.2591
-47.4885
-47.815
-48.2073
-48.6301
-49.1137
-49.7568
-50.6096
-51.7197
-53.1145
-54.8099
-56.8381
-59.2068
-61.8622
-64.725
-67.6542
-70.5792
-73.4546
-76.2414
-78.9088
-81.4544
-83.8842
-86.2007
-88.4128
-90.5091
-92.4498
-94.2243
-95.77
-96.6923
-97.959
-98.8493
-98.89
-99.1
-99.5308
-99.8047
-100.156
-100.514
-101.041
-101.586
-102.12
-102.687
-103.252
-103.991
-104.7
-105.314
-105.939
-106.682
-107.485
-108.09
-108.378
-108.469
-108.197
-107.229
-105.642
-103.652
-101.106
-97.9594
-94.4434
-90.4698
-85.8233
-80.5484
-74.5516
-67.6554
-59.8992
-51.3236
-42.2723
-34.4724
-36.1094
-37.6201
-39.0484
-40.3198
-41.4517
-42.4189
-43.1922
-43.8367
-44.3734
-44.7767
-45.1293
-45.4191
-45.6632
-45.8561
-46.021
-46.1458
-46.2675
-46.3637
-46.4376
-46.5245
-46.6011
-46.7018
-46.7511
-46.8175
-46.8446
-46.8858
-46.9071
-46.9095
-46.9086
-46.8959
-46.8963
-46.8816
-46.8967
-46.9199
-46.96
-46.9649
-46.9369
-46.9196
-46.9256
-46.9458
-46.9792
-46.9827
-46.9886
-46.9775
-46.9612
-46.9251
-46.9064
-46.9084
-46.9069
-46.9359
-46.9505
-46.9624
-46.9378
-46.9125
-46.8982
-46.9046
-46.9247
-46.9564
-46.9604
-46.9645
-46.9378
-46.9451
-46.9184
-46.9101
-46.8636
-46.8612
-46.8887
-46.896
-46.9381
-46.9086
-46.8954
-46.9207
-46.9222
-46.9518
-46.9731
-46.9645
-46.9658
-46.9263
-46.9261
-46.8954
-46.8828
-46.8332
-46.8348
-46.8582
-46.8598
-46.9011
-46.8638
-46.8475
-46.8775
-46.8773
-46.9031
-46.9145
-46.8884
-46.8849
-46.8562
-46.856
-46.8309
-46.8294
-46.8144
-46.8206
-46.8407
-46.8216
-46.8695
-46.8705
-46.9256
-46.8338
-46.8053
-46.8475
-46.8838
-46.9079
-46.8977
-46.8786
-46.8661
-46.8696
-46.8695
-46.9117
-46.9289
-46.9455
-46.979
-46.995
-47.0217
-47.0536
-47.1294
-47.2155
-47.2932
-47.4053
-47.5497
-47.7583
-48.0559
-48.4219
-48.8247
-49.285
-49.8683
-50.6422
-51.6372
-52.8691
-54.3457
-56.0878
-58.1063
-60.3839
-62.8758
-65.4893
-68.1622
-70.847
-73.5066
-76.107
-78.6319
-81.0793
-83.4449
-85.7475
-87.9989
-90.1841
-92.3265
-94.4028
-96.2282
-97.7692
-99.0225
-100.197
-100.39
-100.603
-100.887
-101.116
-101.488
-101.744
-102.001
-102.292
-102.647
-103.115
-103.727
-104.518
-105.299
-106.019
-106.906
-107.963
-108.995
-109.848
-110.668
-111.267
-111.121
-110.166
-108.778
-106.948
-104.518
-101.601
-98.2865
-94.4679
-90.0119
-84.8234
-78.8311
-71.9511
-64.1181
-55.6626
-48.3618
-33.3434
-35.0543
-36.7094
-38.2223
-39.5541
-40.7334
-41.6906
-42.5205
-43.2154
-43.763
-44.2387
-44.634
-44.9589
-45.2322
-45.4473
-45.611
-45.7293
-45.8373
-45.9506
-46.0371
-46.1095
-46.1355
-46.1651
-46.1726
-46.201
-46.2109
-46.2439
-46.2807
-46.3096
-46.3468
-46.3642
-46.3845
-46.3705
-46.3533
-46.3352
-46.3334
-46.3638
-46.38
-46.3786
-46.37
-46.3495
-46.35
-46.3317
-46.3566
-46.371
-46.4
-46.4179
-46.414
-46.4078
-46.376
-46.3587
-46.3364
-46.3487
-46.3778
-46.3921
-46.3829
-46.3658
-46.3421
-46.337
-46.3317
-46.3629
-46.3608
-46.3856
-46.3827
-46.4143
-46.4001
-46.3635
-46.3447
-46.2896
-46.3141
-46.3199
-46.3027
-46.3043
-46.2829
-46.2707
-46.2775
-46.2712
-46.3122
-46.3197
-46.3506
-46.3535
-46.3884
-46.3669
-46.3306
-46.3128
-46.2552
-46.2824
-46.2938
-46.2667
-46.2565
-46.2426
-46.2357
-46.2622
-46.2798
-46.3211
-46.3331
-46.3613
-46.3625
-46.3739
-46.3599
-46.3306
-46.3376
-46.28
-46.276
-46.2654
-46.3029
-46.3093
-46.2936
-46.2983
-46.3328
-46.3748
-46.418
-46.4574
-46.5024
-46.5299
-46.548
-46.5691
-46.6166
-46.6237
-46.6641
-46.7177
-46.8152
-46.9024
-47.0129
-47.1705
-47.3251
-47.4987
-47.7302
-48.0493
-48.4444
-48.897
-49.4
-49.9877
-50.7023
-51.5977
-52.6762
-53.963
-55.4735
-57.2147
-59.1845
-61.3684
-63.6933
-66.1113
-68.5855
-71.0784
-73.5713
-76.0322
-78.4318
-80.7684
-83.0621
-85.3335
-87.5804
-89.7983
-91.9607
-94.0077
-95.8685
-97.4243
-98.3204
-99.4671
-100.358
-100.396
-100.564
-100.906
-101.419
-101.916
-102.299
-102.671
-103.137
-103.767
-104.606
-105.612
-106.558
-107.585
-108.994
-110.547
-111.906
-113.039
-113.955
-114.423
-114.245
-113.597
-112.524
-110.755
-108.322
-105.586
-102.549
-98.9784
-94.6902
-89.5701
-83.5492
-76.4462
-68.5408
-61.6766
-30.7623
-32.6607
-34.5081
-36.2005
-37.7319
-39.1035
-40.2621
-41.268
-42.1333
-42.8558
-43.4745
-44.0034
-44.4585
-44.8384
-45.1628
-45.4227
-45.6492
-45.8369
-45.9936
-46.1449
-46.2685
-46.4023
-46.485
-46.578
-46.6403
-46.7252
-46.7528
-46.7794
-46.7951
-46.7974
-46.8067
-46.8061
-46.8243
-46.8418
-46.8736
-46.8883
-46.879
-46.8745
-46.8829
-46.9025
-46.9311
-46.9387
-46.9444
-46.937
-46.9236
-46.8934
-46.8777
-46.8776
-46.8775
-46.9011
-46.9016
-46.8998
-46.8838
-46.865
-46.861
-46.8696
-46.8912
-46.9168
-46.9207
-46.9283
-46.9102
-46.9168
-46.8939
-46.8804
-46.8471
-46.8444
-46.862
-46.8595
-46.8932
-46.8677
-46.858
-46.88
-46.8804
-46.9084
-46.926
-46.9202
-46.9217
-46.8895
-46.8912
-46.8673
-46.8541
-46.8242
-46.8186
-46.8312
-46.8246
-46.857
-46.8236
-46.8129
-46.8602
-46.8576
-46.8683
-46.8666
-46.8406
-46.8384
-46.8162
-46.8208
-46.8043
-46.8077
-46.8073
-46.8117
-46.8264
-46.8126
-46.8514
-46.848
-46.8835
-46.8
-46.7824
-46.8288
-46.8679
-46.8735
-46.8669
-46.8584
-46.8713
-46.8873
-46.91
-46.9566
-46.9387
-46.9705
-47.0679
-47.1078
-47.1633
-47.2014
-47.2733
-47.3725
-47.4794
-47.6239
-47.7987
-48.0159
-48.3082
-48.6712
-49.0693
-49.5091
-50.029
-50.6805
-51.4813
-52.4411
-53.5878
-54.9181
-56.4477
-58.1883
-60.1198
-62.1885
-64.3681
-66.6339
-68.953
-71.3061
-73.6566
-75.9772
-78.2608
-80.5013
-82.7332
-84.9711
-87.2057
-89.4123
-91.5808
-93.6965
-95.7051
-97.4071
-98.8158
-99.6745
-100.682
-101.208
-101.085
-101.364
-101.726
-102.078
-102.447
-102.842
-103.33
-103.995
-104.941
-106.053
-107.337
-108.785
-110.379
-111.967
-113.411
-114.921
-116.466
-117.692
-118.226
-117.854
-116.544
-114.609
-112.441
-110.058
-107.354
-104.006
-99.8137
-94.6889
-88.4081
-81.1752
-74.7149
-28.3534
-30.422
-32.4174
-34.2606
-35.939
-37.4539
-38.7801
-39.9294
-40.9411
-41.7951
-42.5216
-43.1647
-43.6948
-44.1537
-44.5327
-44.8488
-45.0926
-45.3098
-45.5107
-45.6654
-45.7871
-45.8632
-45.932
-45.9832
-46.0387
-46.0911
-46.1661
-46.2283
-46.2785
-46.3266
-46.3482
-46.3665
-46.3614
-46.3527
-46.3511
-46.3552
-46.3719
-46.3885
-46.3916
-46.3906
-46.3807
-46.3886
-46.3926
-46.4187
-46.4359
-46.4563
-46.472
-46.4643
-46.4516
-46.4218
-46.4104
-46.3943
-46.4081
-46.4337
-46.4293
-46.419
-46.4056
-46.3886
-46.3837
-46.3834
-46.4166
-46.4228
-46.4481
-46.4251
-46.4501
-46.437
-46.4064
-46.386
-46.3316
-46.3521
-46.3638
-46.3493
-46.351
-46.3365
-46.3272
-46.3334
-46.3329
-46.3696
-46.3807
-46.4101
-46.3943
-46.4223
-46.4097
-46.3778
-46.3571
-46.2978
-46.3215
-46.333
-46.3104
-46.3036
-46.3
-46.2939
-46.3144
-46.3305
-46.3674
-46.3814
-46.406
-46.3963
-46.4256
-46.4171
-46.3916
-46.3879
-46.3344
-46.3308
-46.3272
-46.362
-46.3593
-46.3389
-46.3468
-46.3893
-46.4243
-46.4708
-46.5148
-46.5612
-46.5774
-46.5978
-46.639
-46.6464
-46.6888
-46.754
-46.7973
-46.8865
-46.9724
-47.079
-47.2343
-47.4033
-47.5814
-47.8041
-48.105
-48.4741
-48.8955
-49.3607
-49.906
-50.5588
-51.3354
-52.247
-53.2911
-54.4805
-55.8477
-57.3888
-59.1061
-60.9486
-62.9086
-64.9737
-67.114
-69.3139
-71.5372
-73.7741
-75.9899
-78.1639
-80.3268
-82.5176
-84.7208
-86.9077
-89.0761
-91.231
-93.362
-95.3771
-97.1945
-98.6511
-99.7633
-100.36
-101.203
-101.824
-101.979
-102.189
-102.403
-102.804
-103.333
-103.931
-104.87
-106.05
-107.399
-109.141
-111.099
-113.14
-115.17
-117.199
-119.416
-121.482
-122.69
-122.664
-121.82
-120.575
-118.979
-117.072
-114.925
-112.485
-109.433
-105.387
-100.207
-93.865
-87.7682
-26.147
-28.3659
-30.4967
-32.4947
-34.3126
-35.9655
-37.4322
-38.7289