/*--------------------------------*- C++ -*----------------------------------*\
| =========                 |                                                 |
| \\      /  F ield         | OpenFOAM: The Open Source CFD Toolbox           |
|  \\    /   O peration     | Version:  4.1                                   |
|   \\  /    A nd           | Web:      www.OpenFOAM.org                      |
|    \\/     M anipulation  |                                                 |
\*---------------------------------------------------------------------------*/
FoamFile
{
    version     2.0;
    format      ascii;
    class       volScalarField;
    location    "3";
    object      p;
}
// * * * * * * * * * * * * * * * * * * * * * * * * * * * * * * * * * * * * * //

dimensions      [0 2 -2 0 0 0 0];

internalField   nonuniform List<scalar> 
6750
(
-265.886
-135.547
-198.699
-192.595
-196.998
-192.986
-187.51
-182.175
-179.073
-176.183
-180.527
-182.149
-199.262
-188.969
-251.963
-264.991
-136.798
-198.317
-192.838
-197.088
-192.492
-186.153
-180.362
-176.502
-173.978
-179.686
-182.517
-199.674
-192.886
-243.205
-264.555
-137.343
-197.695
-192.875
-197.21
-192.261
-185.78
-179.47
-175.183
-173.127
-179.81
-182.8
-199.213
-193.693
-239.77
-263.846
-138.402
-197.329
-192.895
-197.219
-191.835
-185.132
-178.094
-173.636
-172.424
-179.96
-182.964
-199.098
-195.499
-234.176
-263.295
-139.207
-196.946
-192.887
-197.282
-191.544
-184.671
-176.939
-172.322
-171.913
-180.114
-183.192
-199.027
-196.223
-232.667
-262.69
-140.168
-196.811
-192.9
-197.343
-191.287
-184.288
-176.013
-171.294
-171.524
-180.16
-183.44
-199.448
-197.308
-229.657
-262.133
-140.978
-197.007
-192.936
-197.244
-191.091
-184.107
-175.482
-170.625
-171.28
-180.154
-183.646
-200.661
-198.342
-223.65
-261.864
-141.369
-197.576
-192.944
-196.913
-191.025
-184.034
-175.282
-170.387
-171.212
-180.156
-183.737
-201.447
-199.202
-219.761
-262.131
-140.963
-197.01
-192.937
-197.243
-191.094
-184.112
-175.489
-170.631
-171.288
-180.156
-183.643
-200.634
-198.299
-223.735
-262.685
-140.148
-196.815
-192.902
-197.343
-191.294
-184.299
-176.025
-171.305
-171.535
-180.165
-183.436
-199.426
-197.253
-229.758
-263.286
-139.183
-196.952
-192.891
-197.284
-191.556
-184.687
-176.956
-172.338
-171.926
-180.122
-183.186
-199.005
-196.155
-232.767
-263.834
-138.376
-197.337
-192.9
-197.223
-191.85
-185.151
-178.114
-173.656
-172.439
-179.971
-182.958
-199.076
-195.428
-234.268
-264.541
-137.316
-197.704
-192.882
-197.215
-192.278
-185.802
-179.493
-175.207
-173.144
-179.823
-182.795
-199.196
-193.622
-239.839
-264.975
-136.77
-198.327
-192.845
-197.094
-192.51
-186.176
-180.383
-176.523
-173.994
-179.703
-182.512
-199.659
-192.818
-243.264
-265.869
-135.519
-198.709
-192.604
-197.006
-193.007
-187.534
-182.196
-179.095
-176.206
-180.551
-182.147
-199.251
-188.902
-251.986
-413.034
-102.715
-186.45
-197.613
-194.063
-185.363
-181.025
-176.809
-173.473
-171.655
-186.86
-187.779
-189.264
-152.869
-475.712
-412.564
-103.187
-187.037
-197.846
-193.786
-184.729
-180.121
-175.599
-171.834
-170.294
-184.91
-188.142
-189.856
-160.314
-472.818
-412.401
-103.429
-187.205
-197.984
-193.801
-184.607
-179.699
-175.077
-171.487
-170.253
-185.067
-189.17
-190.637
-163.371
-471.786
-412.045
-103.915
-187.581
-198.24
-193.687
-184.034
-178.857
-174.296
-170.884
-169.713
-184.31
-189.811
-191.383
-167.898
-469.533
-411.76
-104.275
-187.812
-198.286
-193.382
-183.711
-178.461
-173.804
-170.413
-169.354
-183.823
-190.521
-191.993
-169.414
-468.241
-411.427
-104.734
-188.15
-198.334
-193.132
-183.432
-178.092
-173.371
-170.015
-168.959
-182.964
-190.931
-192.442
-171.548
-467.078
-410.932
-105.217
-188.219
-198.083
-192.815
-183.348
-177.95
-173.071
-169.656
-168.575
-181.946
-191.188
-192.695
-174.433
-466.492
-410.584
-105.528
-188.226
-197.856
-192.748
-183.342
-177.836
-172.892
-169.479
-168.39
-181.343
-191.19
-192.89
-177.065
-465.352
-410.907
-105.224
-188.214
-198.085
-192.818
-183.351
-177.954
-173.074
-169.657
-168.577
-181.944
-191.174
-192.695
-174.346
-466.456
-411.399
-104.736
-188.146
-198.336
-193.138
-183.44
-178.1
-173.375
-170.016
-168.963
-182.968
-190.918
-192.438
-171.455
-467.037
-411.723
-104.275
-187.807
-198.287
-193.391
-183.725
-178.472
-173.81
-170.416
-169.361
-183.833
-190.51
-191.983
-169.313
-468.199
-412.004
-103.915
-187.577
-198.243
-193.699
-184.051
-178.87
-174.303
-170.888
-169.722
-184.326
-189.805
-191.371
-167.8
-469.491
-412.357
-103.427
-187.201
-197.988
-193.816
-184.625
-179.715
-175.084
-171.492
-170.264
-185.089
-189.167
-190.622
-163.281
-471.743
-412.517
-103.184
-187.034
-197.852
-193.803
-184.749
-180.138
-175.607
-171.84
-170.305
-184.937
-188.142
-189.84
-160.228
-472.776
-412.984
-102.711
-186.446
-197.62
-194.082
-185.385
-181.043
-176.817
-173.478
-171.668
-186.896
-187.783
-189.249
-152.804
-475.665
-483.976
-95.5178
-136.543
-191.014
-182.337
-179.279
-175.945
-167.805
-162.996
-166.75
-177.528
-192.988
-184.619
-59.7366
-670.104
-483.93
-95.1388
-136.845
-191.247
-182.489
-179.654
-176.056
-168.304
-162.726
-166.533
-176.764
-191.435
-186.026
-61.6436
-669.827
-483.926
-95.0006
-136.97
-191.325
-182.55
-179.84
-176.024
-168.312
-161.726
-166.365
-176.74
-191.83
-187.108
-62.5419
-669.941
-483.889
-94.7161
-137.181
-191.468
-182.564
-179.905
-176.146
-168.863
-162.089
-166.254
-176.243
-191.412
-188.198
-64.0075
-669.601
-483.876
-94.5455
-137.381
-191.546
-182.66
-180.205
-176.454
-169.165
-162.178
-165.859
-176.109
-191.139
-188.956
-65.0145
-669.483
-483.858
-94.3024
-137.602
-191.62
-182.761
-180.377
-176.61
-169.362
-162.514
-165.53
-175.836
-190.388
-189.404
-65.956
-669.379
-483.881
-94.1661
-137.94
-191.631
-182.837
-180.557
-176.642
-169.285
-162.777
-165.032
-175.549
-189.309
-189.487
-67.3227
-669.726
-483.841
-94.1226
-138.131
-191.608
-182.82
-180.504
-176.49
-169.165
-162.851
-164.679
-175.301
-188.718
-189.542
-68.5788
-669.579
-483.83
-94.2122
-137.94
-191.63
-182.837
-180.557
-176.646
-169.288
-162.78
-165.034
-175.553
-189.309
-189.481
-67.4241
-669.585
-483.803
-94.3437
-137.597
-191.619
-182.763
-180.378
-176.614
-169.364
-162.515
-165.535
-175.846
-190.394
-189.393
-66.0344
-669.29
-483.801
-94.5881
-137.377
-191.546
-182.664
-180.207
-176.458
-169.164
-162.178
-165.866
-176.123
-191.153
-188.945
-65.065
-669.363
-483.808
-94.758
-137.175
-191.467
-182.568
-179.907
-176.148
-168.858
-162.084
-166.262
-176.261
-191.433
-188.184
-64.0523
-669.486
-483.839
-95.0361
-136.961
-191.322
-182.552
-179.842
-176.024
-168.301
-161.715
-166.372
-176.761
-191.856
-187.087
-62.575
-669.815
-483.84
-95.1715
-136.836
-191.244
-182.492
-179.655
-176.055
-168.292
-162.718
-166.542
-176.787
-191.467
-186.004
-61.6743
-669.7
-483.882
-95.5451
-136.531
-191.009
-182.338
-179.278
-175.941
-167.785
-162.981
-166.761
-177.555
-193.027
-184.593
-59.7675
-669.972
-526.716
-130.487
-118.601
-187.875
-169.576
-163.08
-156.963
-146.693
-136.473
-147.656
-158.891
-185.505
-149.657
-54.246
-780.701
-526.648
-130.3
-118.632
-188.071
-169.93
-163.702
-157.421
-148.406
-138.003
-146.955
-158.546
-184.327
-149.473
-53.049
-780.231
-526.666
-130.272
-118.691
-188.24
-170.168
-164.108
-157.328
-148.477
-136.675
-145.241
-158.151
-184.092
-149.491
-52.9273
-779.96
-526.624
-130.104
-118.71
-188.401
-170.436
-164.631
-157.842
-149.398
-137.318
-144.153
-157.402
-183.131
-149.251
-52.332
-779.304
-526.646
-130.078
-118.786
-188.577
-170.652
-165.01
-158.036
-149.761
-137.724
-143.181
-157.189
-182.818
-149.248
-52.4336
-778.783
-526.598
-129.939
-118.791
-188.651
-170.787
-165.277
-158.343
-150.321
-138.571
-142.622
-156.921
-182.381
-148.96
-51.9597
-778.189
-526.628
-129.915
-118.88
-188.724
-170.897
-165.449
-158.535
-150.838
-139.761
-142.251
-156.881
-182.218
-148.875
-51.7874
-778.102
-526.573
-129.836
-118.905
-188.687
-170.875
-165.442
-158.588
-151.057
-140.371
-142.066
-156.69
-182.025
-148.884
-51.6879
-777.593
-526.624
-129.908
-118.881
-188.722
-170.896
-165.445
-158.53
-150.831
-139.761
-142.257
-156.886
-182.228
-148.899
-52.0383
-777.876
-526.584
-129.932
-118.783
-188.643
-170.784
-165.27
-158.332
-150.306
-138.557
-142.622
-156.924
-182.39
-148.941
-52.1133
-778.131
-526.61
-130.081
-118.774
-188.569
-170.649
-165.001
-158.02
-149.74
-137.701
-143.177
-157.19
-182.837
-149.241
-52.5728
-778.659
-526.573
-130.118
-118.693
-188.389
-170.43
-164.618
-157.822
-149.372
-137.283
-144.146
-157.401
-183.15
-149.234
-52.4835
-779.195
-526.598
-130.286
-118.67
-188.225
-170.16
-164.092
-157.303
-148.445
-136.632
-145.231
-158.148
-184.113
-149.468
-53.0682
-779.826
-526.569
-130.319
-118.612
-188.054
-169.92
-163.684
-157.395
-148.371
-137.959
-146.943
-158.542
-184.349
-149.45
-53.1948
-780.095
-526.626
-130.502
-118.577
-187.853
-169.562
-163.058
-156.93
-146.653
-136.413
-147.644
-158.884
-185.525
-149.627
-54.3819
-780.556
-576.7
-152.039
-116.738
-191.685
-167.801
-158.97
-150.22
-136.356
-125.997
-132.912
-142.453
-192.024
-161.965
-85.9804
-916.617
-576.597
-152.026
-116.81
-191.963
-168.293
-159.817
-151.253
-138.57
-127.483
-133.184
-141
-190.849
-161.464
-85.3262
-915.489
-576.639
-152.126
-116.86
-192.175
-168.563
-160.233
-151.011
-138.46
-125.427
-131.029
-140.328
-190.717
-161.243
-85.6697
-915.083
-576.566
-152.11
-116.901
-192.402
-168.935
-160.944
-151.913
-139.666
-125.78
-130.09
-139.253
-189.894
-160.781
-85.5713
-913.748
-576.592
-152.278
-116.984
-192.646
-169.212
-161.383
-152.137
-140.054
-125.528
-129.223
-138.529
-189.491
-160.502
-86.3704
-912.783
-576.513
-152.263
-116.963
-192.779
-169.402
-161.786
-152.672
-140.886
-125.76
-129.208
-137.625
-188.738
-159.903
-86.3276
-911.689
-576.602
-152.37
-116.989
-192.921
-169.562
-162.029
-152.91
-141.586
-126.381
-129.665
-136.82
-187.914
-159.584
-86.732
-911.619
-576.522
-152.319
-116.971
-192.892
-169.537
-162.069
-153.055
-142.001
-126.833
-129.959
-136.367
-187.302
-159.73
-86.9224
-910.466
-576.576
-152.371
-116.998
-192.915
-169.559
-162.022
-152.901
-141.58
-126.381
-129.677
-136.832
-187.939
-159.698
-87.0854
-911.2
-576.458
-152.285
-116.953
-192.761
-169.395
-161.771
-152.653
-140.869
-125.745
-129.214
-137.631
-188.745
-159.878
-86.4627
-911.701
-576.445
-152.354
-116.98
-192.629
-169.203
-161.362
-152.11
-140.03
-125.505
-129.223
-138.533
-189.524
-160.5
-86.4966
-912.659
-576.386
-152.206
-116.893
-192.377
-168.92
-160.917
-151.878
-139.632
-125.748
-130.079
-139.25
-189.918
-160.75
-85.7395
-913.645
-576.462
-152.199
-116.84
-192.145
-168.544
-160.2
-150.969
-138.417
-125.388
-131.01
-140.321
-190.745
-161.203
-85.8294
-914.934
-576.416
-152.091
-116.788
-191.93
-168.271
-159.78
-151.208
-138.522
-127.444
-133.16
-140.992
-190.876
-161.421
-85.4991
-915.338
-576.513
-152.093
-116.707
-191.645
-167.773
-158.927
-150.165
-136.299
-125.942
-132.878
-142.441
-192.046
-161.913
-86.1401
-916.449
-633.737
-165.508
-119.999
-199.755
-172.91
-163.834
-154.97
-140.562
-133.816
-143.237
-155.958
-212.33
-195.989
-89.8352
-1091.2
-633.572
-165.499
-120.108
-200.067
-173.499
-164.883
-156.455
-143.338
-135.186
-143.545
-154.362
-211.617
-195.941
-89.5444
-1088.31
-633.634
-165.645
-120.155
-200.294
-173.794
-165.307
-156.065
-143.369
-132.104
-141.002
-153.526
-211.602
-195.302
-90.3476
-1087.57
-633.525
-165.61
-120.211
-200.553
-174.237
-166.172
-157.152
-144.929
-132.172
-139.782
-152.396
-211.141
-195.049
-90.7456
-1084.54
-633.595
-165.815
-120.311
-200.821
-174.555
-166.657
-157.365
-145.25
-131.29
-138.202
-151.449
-210.869
-194.508
-92.268
-1082.83
-633.421
-165.854
-120.313
-200.973
-174.783
-167.141
-157.99
-146.053
-131.241
-137.592
-150.472
-210.366
-193.832
-92.1981
-1081.28
-633.47
-166.07
-120.352
-201.138
-174.977
-167.426
-158.207
-146.596
-131.426
-137.379
-149.444
-209.619
-193.712
-93.1369
-1081.33
-633.352
-166.015
-120.316
-201.104
-174.957
-167.497
-158.394
-146.998
-131.767
-137.527
-148.929
-209.273
-194.951
-93.8876
-1078.23
-633.345
-166.148
-120.373
-201.132
-174.974
-167.416
-158.193
-146.583
-131.423
-137.389
-149.462
-209.669
-193.996
-93.6429
-1080.53
-633.241
-165.983
-120.304
-200.948
-174.772
-167.117
-157.961
-146.027
-131.219
-137.586
-150.47
-210.368
-193.804
-92.3142
-1081.45
-633.364
-165.952
-120.304
-200.799
-174.541
-166.624
-157.324
-145.213
-131.259
-138.189
-151.446
-210.917
-194.508
-92.3657
-1082.74
-633.315
-165.727
-120.185
-200.517
-174.212
-166.128
-157.099
-144.881
-132.129
-139.758
-152.38
-211.171
-194.998
-90.9384
-1084.47
-633.413
-165.738
-120.116
-200.251
-173.763
-165.253
-156.001
-143.307
-132.05
-140.968
-153.504
-211.639
-195.237
-90.5376
-1087.42
-633.349
-165.584
-120.065
-200.016
-173.462
-164.823
-156.385
-143.269
-135.128
-143.505
-154.335
-211.65
-195.868
-89.7613
-1088.15
-633.502
-165.577
-119.948
-199.694
-172.864
-163.764
-154.886
-140.479
-133.735
-143.186
-155.922
-212.354
-195.904
-90.0371
-1091.01
-698.392
-179.408
-127.01
-213.058
-183.808
-175.906
-169.352
-157.819
-156.496
-169.804
-185.196
-237.769
-243.23
-72.6077
-1321.83
-698.198
-179.363
-127.112
-213.342
-184.426
-177.045
-171.07
-160.903
-158.04
-170.465
-183.949
-237.361
-243.754
-72.7879
-1315.87
-698.274
-179.54
-127.167
-213.583
-184.746
-177.451
-170.56
-160.931
-154.626
-167.884
-182.958
-237.42
-242.369
-74.402
-1314.8
-698.155
-179.473
-127.209
-213.829
-185.221
-178.415
-171.717
-162.681
-154.713
-166.736
-182.152
-237.303
-242.375
-75.4553
-1309.21
-698.252
-179.7
-127.319
-214.108
-185.561
-178.905
-171.896
-162.906
-153.64
-165.038
-181.333
-237.141
-241.268
-77.7129
-1307.2
-698.066
-179.718
-127.311
-214.248
-185.803
-179.436
-172.573
-163.644
-153.614
-164.459
-180.747
-236.917
-240.479
-77.0103
-1306.05
-698.138
-179.957
-127.36
-214.411
-186.011
-179.739
-172.772
-163.998
-153.574
-164.049
-180.131
-236.205
-240.928
-78.7219
-1306.24
-698.014
-179.865
-127.307
-214.345
-185.988
-179.839
-172.998
-164.357
-153.844
-164.265
-180.02
-236.22
-244.507
-80.6681
-1298.57
-698.002
-180.04
-127.386
-214.4
-186.007
-179.725
-172.752
-163.979
-153.565
-164.06
-180.165
-236.284
-241.469
-79.4954
-1304.81
-697.85
-179.871
-127.299
-214.212
-185.783
-179.4
-172.529
-163.604
-153.577
-164.445
-180.739
-236.913
-240.472
-77.129
-1306.42
-697.956
-179.866
-127.305
-214.074
-185.535
-178.853
-171.832
-162.85
-153.588
-165.014
-181.316
-237.204
-241.272
-77.7619
-1307.18
-697.88
-179.614
-127.169
-213.772
-185.177
-178.345
-171.634
-162.606
-154.64
-166.694
-182.108
-237.339
-242.3
-75.6724
-1309.21
-697.979
-179.653
-127.114
-213.515
-184.692
-177.366
-170.461
-160.837
-154.535
-167.827
-182.9
-237.464
-242.274
-74.6257
-1314.64
-697.897
-179.467
-127.052
-213.263
-184.363
-176.95
-170.961
-160.8
-157.941
-170.398
-183.88
-237.398
-243.644
-73.0601
-1315.7
-698.075
-179.491
-126.937
-212.966
-183.731
-175.797
-169.223
-157.695
-156.366
-169.718
-185.108
-237.794
-243.102
-72.8633
-1321.61
-770.753
-195.995
-137.297
-232.202
-200.789
-194.639
-191.969
-184.825
-189.704
-206.294
-226.945
-269.15
-310.925
-42.5608
-1640.96
-770.536
-195.914
-137.375
-232.434
-201.387
-195.746
-193.716
-187.865
-191.7
-207.285
-225.921
-268.635
-311.834
-42.8705
-1629.16
-770.618
-196.112
-137.437
-232.689
-201.734
-196.128
-193.128
-187.726
-188.407
-204.595
-224.582
-268.834
-309.162
-45.4876
-1627.15
-770.481
-196.017
-137.456
-232.906
-202.216
-197.138
-194.327
-189.514
-188.646
-203.888
-224.068
-268.973
-309.105
-46.9654
-1617.31
-770.588
-196.262
-137.573
-233.19
-202.572
-197.611
-194.47
-189.608
-187.623
-202.271
-223.29
-268.88
-306.873
-49.8835
-1614.93
-770.385
-196.259
-137.546
-233.306
-202.812
-198.167
-195.179
-190.3
-187.675
-201.973
-223.13
-268.9
-306.11
-48.1379
-1614
-770.461
-196.515
-137.6
-233.461
-203.024
-198.465
-195.356
-190.502
-187.551
-201.553
-223.03
-268.008
-307.732
-51.7974
-1613.13
-770.326
-196.393
-137.526
-233.355
-202.982
-198.58
-195.609
-190.839
-187.798
-201.916
-223.492
-268.192
-315.781
-56.3809
-1595.56
-770.33
-196.576
-137.623
-233.439
-203.014
-198.444
-195.324
-190.474
-187.53
-201.567
-223.097
-268.108
-308.696
-52.9683
-1610.72
-770.128
-196.43
-137.528
-233.25
-202.779
-198.111
-195.111
-190.239
-187.615
-201.951
-223.124
-268.888
-306.21
-48.3028
-1614.72
-770.201
-196.48
-137.551
-233.134
-202.528
-197.531
-194.372
-189.521
-187.535
-202.232
-223.26
-268.965
-306.915
-49.8562
-1615.12
-770.128
-196.202
-137.399
-232.818
-202.147
-197.031
-194.201
-189.399
-188.525
-203.823
-223.989
-269.022
-309.025
-47.2178
-1617.53
-770.237
-196.256
-137.363
-232.585
-201.647
-195.998
-192.973
-187.581
-188.254
-204.503
-224.472
-268.892
-309.05
-45.765
-1627.11
-770.148
-196.046
-137.29
-232.315
-201.285
-195.6
-193.545
-187.705
-191.53
-207.178
-225.789
-268.683
-311.697
-43.233
-1629.09
-770.342
-196.099
-137.193
-232.064
-200.667
-194.471
-191.768
-184.633
-189.485
-206.157
-226.78
-269.18
-310.765
-42.912
-1640.81
-851.538
-216.371
-150.636
-257.374
-224.611
-220.522
-223.639
-220.542
-235.129
-250.888
-285.918
-308.03
-413.001
8.51087
-2046.39
-851.3
-216.255
-150.686
-257.558
-225.174
-221.512
-225.181
-223.295
-237.442
-251.929
-284.656
-306.76
-413.224
7.1157
-2027.25
-851.378
-216.465
-150.753
-257.819
-225.537
-221.87
-224.544
-222.981
-234.14
-249.194
-282.556
-307.029
-407.541
2.65461
-2025.23
-851.223
-216.345
-150.747
-258.007
-226.013
-222.873
-225.72
-224.648
-234.335
-249.063
-281.965
-307.162
-406.416
-0.239599
-2010.99
-851.331
-216.601
-150.866
-258.294
-226.376
-223.309
-225.783
-224.565
-233.297
-247.53
-280.892
-306.943
-401.642
-4.18796
-2010.5
-851.108
-216.583
-150.821
-258.382
-226.599
-223.856
-226.461
-225.197
-233.314
-247.567
-281.045
-306.918
-401.008
-1.56813
-2011.58
-851.174
-216.859
-150.878
-258.531
-226.808
-224.128
-226.578
-225.247
-233.139
-247.191
-281.506
-305.389
-404.797
-9.41866
-2009.61
-851.018
-216.718
-150.785
-258.39
-226.738
-224.236
-226.828
-225.568
-233.392
-247.755
-282.77
-305.323
-421.721
-19.3484
-1973.65
-851.052
-216.889
-150.889
-258.489
-226.784
-224.091
-226.525
-225.194
-233.098
-247.204
-281.638
-305.498
-406.567
-11.2347
-2005.43
-850.807
-216.764
-150.792
-258.296
-226.54
-223.767
-226.347
-225.09
-233.208
-247.529
-281.052
-306.886
-401.346
-1.88556
-2012.79
-850.837
-216.874
-150.835
-258.203
-226.295
-223.18
-225.619
-224.411
-233.137
-247.462
-280.84
-307.055
-401.778
-4.02529
-2010.96
-850.778
-216.573
-150.663
-257.874
-225.894
-222.702
-225.508
-224.451
-234.117
-248.95
-281.821
-307.222
-406.345
-0.504641
-2011.52
-850.897
-216.634
-150.644
-257.662
-225.39
-221.661
-224.286
-222.738
-233.864
-249.036
-282.348
-307.098
-407.417
2.3566
-2025.3
-850.807
-216.408
-150.562
-257.379
-225.004
-221.28
-224.895
-223.028
-237.134
-251.746
-284.406
-306.813
-413.066
6.68191
-2027.23
-851.011
-216.487
-150.486
-257.169
-224.411
-220.255
-223.305
-220.226
-234.745
-250.658
-285.607
-308.055
-412.815
8.08721
-2046.24
-941.093
-242.655
-167.351
-288.825
-255.586
-253.146
-264.416
-263.655
-293.118
-302.18
-365.289
-348.401
-554.978
85.3396
-2643.48
-940.856
-242.51
-167.377
-288.989
-256.16
-254.051
-265.614
-266.014
-295.713
-302.927
-363.926
-346.556
-557.448
79.3638
-2595.93
-940.936
-242.725
-167.449
-289.258
-256.533
-254.408
-265.026
-265.674
-292.58
-299.996
-360.775
-347.778
-545.716
73.2298
-2593.17
-940.778
-242.584
-167.423
-289.429
-257.019
-255.402
-266.135
-267.137
-292.736
-300.402
-360.022
-348.673
-543.177
69.2101
-2566.58
-940.885
-242.847
-167.548
-289.721
-257.388
-255.807
-266.106
-266.897
-291.662
-299.024
-358.482
-348.848
-533.676
63.4502
-2566.43
-940.652
-242.809
-167.482
-289.787
-257.596
-256.336
-266.71
-267.476
-291.644
-299.501
-359.252
-349.06
-535.628
65.8474
-2566.46
-940.717
-243.093
-167.536
-289.934
-257.799
-256.578
-266.756
-267.401
-291.457
-299.185
-360.692
-346.363
-544.109
47.0329
-2559.47
-940.551
-242.929
-167.423
-289.765
-257.701
-256.668
-266.978
-267.706
-291.754
-299.953
-363.517
-345.022
-586.368
22.3219
-2471.27
-940.635
-243.06
-167.523
-289.864
-257.752
-256.515
-266.667
-267.313
-291.377
-299.189
-360.954
-346.455
-547.577
44.3736
-2551.97
-940.397
-242.92
-167.418
-289.657
-257.489
-256.191
-266.523
-267.301
-291.449
-299.427
-359.313
-348.974
-536.619
65.0162
-2568.93
-940.351
-243.106
-167.487
-289.577
-257.238
-255.598
-265.832
-266.643
-291.369
-298.895
-358.411
-348.97
-534.033
63.8902
-2567.76
-940.243
-242.835
-167.301
-289.233
-256.815
-255.131
-265.782
-266.807
-292.34
-300.2
-359.782
-348.721
-543.157
68.9298
-2568.15
-940.354
-242.908
-167.29
-289.024
-256.284
-254.076
-264.594
-265.267
-292.083
-299.713
-360.402
-347.829
-545.601
72.914
-2594.01
-940.251
-242.672
-167.195
-288.723
-255.878
-253.685
-265.138
-265.565
-295.156
-302.603
-363.47
-346.572
-557.274
78.8549
-2596.61
-940.443
-242.768
-167.133
-288.52
-255.259
-252.725
-263.863
-263.13
-292.442
-301.778
-364.723
-348.369
-554.772
84.8468
-2644
-1036.55
-275.049
-186.724
-326.725
-295.3
-294.331
-318.533
-317.022
-372.856
-362.897
-486.307
-394.688
-787.163
185.457
-3343.8
-1036.33
-274.865
-186.712
-326.879
-295.926
-295.198
-319.208
-318.721
-374.741
-362.485
-482.723
-390.351
-777.547
192.021
-3292.27
-1036.42
-275.064
-186.787
-327.15
-296.288
-295.535
-318.674
-318.308
-371.581
-359.054
-476.357
-391.284
-751.297
173.347
-3288.29
-1036.27
-274.894
-186.732
-327.3
-296.774
-296.487
-319.534
-319.328
-371.24
-359.166
-473.514
-391.651
-741.225
163.087
-3251.42
-1036.37
-275.139
-186.851
-327.59
-297.132
-296.845
-319.345
-318.878
-369.785
-357.467
-470.128
-391.238
-720.482
153.59
-3260.36
-1036.15
-275.072
-186.758
-327.633
-297.314
-297.324
-319.775
-319.282
-369.538
-357.845
-471.308
-389.978
-724.933
151.237
-3267.27
-1036.22
-275.335
-186.804
-327.779
-297.506
-297.529
-319.712
-319.069
-369.236
-357.283
-474.264
-384.858
-741.59
108.608
-3250.7
-1036.06
-275.142
-186.67
-327.585
-297.374
-297.585
-319.87
-319.326
-369.6
-358.053
-480.542
-379.908
-831.94
55.1548
-3074
-1036.16
-275.234
-186.769
-327.677
-297.419
-297.425
-319.559
-318.932
-369.087
-357.257
-474.897
-384.685
-749.489
103.835
-3233.67
-1036
-275.009
-186.64
-327.441
-297.121
-297.092
-319.454
-319.003
-369.184
-357.698
-471.56
-389.683
-727.529
148.532
-3271.15
-1035.96
-275.196
-186.722
-327.361
-296.853
-296.506
-318.872
-318.461
-369.244
-357.223
-470.084
-391.293
-721.579
154.36
-3262.22
-1035.72
-275.038
-186.558
-327.013
-296.41
-296.053
-318.929
-318.783
-370.501
-358.797
-473.121
-391.638
-741.436
162.786
-3254.11
-1035.77
-275.188
-186.551
-326.807
-295.853
-295.005
-317.932
-317.628
-370.656
-358.544
-475.678
-391.255
-751.318
173.212
-3289.79
-1035.65
-274.971
-186.437
-326.484
-295.444
-294.612
-318.39
-317.959
-373.706
-361.903
-481.879
-390.272
-777.56
191.579
-3293.22
-1035.78
-275.101
-186.404
-326.269
-294.754
-293.66
-317.591
-316.137
-371.628
-362.184
-485.258
-394.531
-787.233
184.871
-3344.3
-1138.49
-318.875
-210.405
-371.51
-343.186
-341.451
-382.795
-375.721
-469.478
-423.732
-635.932
-413.844
-1040.22
395.81
-4560.07
-1138.35
-318.69
-210.378
-371.748
-344.034
-342.568
-383.241
-376.969
-470.856
-422.456
-632.788
-406.641
-1096.83
320.941
-4272.29
-1138.45
-318.873
-210.473
-372.046
-344.394
-342.898
-382.84
-376.757
-468.215
-419.747
-624.304
-416.277
-1011.88
349.355
-4343.01
-1138.33
-318.721
-210.403
-372.225
-344.97
-343.935
-383.563
-377.535
-467.83
-420.121
-621.78
-420.835
-995.062
338.461
-4271.48
-1138.44
-318.957
-210.513
-372.523
-345.341
-344.275
-383.295
-377.133
-466.383
-418.881
-617.302
-422.538
-947.183
323.947
-4289.7
-1138.27
-318.841
-210.403
-372.568
-345.548
-344.762
-383.619
-377.483
-466.355
-419.49
-622.257
-420.62
-974.678
308.915
-4289.55
-1138.38
-319.058
-210.446
-372.719
-345.737
-344.95
-383.49
-377.264
-466.23
-418.786
-628.419
-413.004
-988.083
229.105
-4296.91
-1138.24
-318.806
-210.29
-372.511
-345.577
-344.989
-383.591
-377.474
-466.907
-419.046
-643.881
-393.154
-1249.43
77.9862
-3858.58
-1138.35
-318.856
-210.374
-372.577
-345.578
-344.786
-383.224
-377.044
-465.956
-418.709
-629.843
-412.769
-1006.63
226.604
-4266.26
-1138.19
-318.558
-210.226
-372.306
-345.216
-344.406
-383.074
-377.03
-465.709
-419.197
-622.956
-419.793
-981.541
301.124
-4297.91
-1138.25
-318.594
-210.26
-372.17
-344.86
-343.749
-382.489
-376.445
-465.371
-418.388
-617.323
-422.263
-949.715
325.514
-4293.56
-1138.07
-318.398
-210.099
-371.78
-344.361
-343.262
-382.537
-376.637
-466.451
-419.386
-621.059
-420.428
-995.513
337.804
-4277.61
-1137.94
-318.697
-210.13
-371.534
-343.676
-342.077
-381.586
-375.632
-466.5
-418.745
-623.006
-415.82
-1011.93
349.184
-4347.32
-1137.68
-318.625
-209.99
-371.175
-343.246
-341.66
-381.862
-375.708
-468.935
-421.297
-631.141
-406.047
-1096.79
320.496
-4275.89
-1137.66
-318.765
-209.946
-370.848
-342.302
-340.413
-381.223
-374.263
-467.234
-422.313
-633.894
-413.091
-1040.07
395.872
-4564.65
-1234.27
-371.892
-238.597
-424.158
-405.737
-402.794
-472.71
-450.37
-614.252
-493.859
-895.994
-439.379
-1529.33
421.816
-5654.14
-1234.21
-371.686
-238.526
-424.455
-406.831
-404.173
-472.729
-450.743
-612.478
-490.069
-880.648
-429.96
-1443.21
423.862
-5503.6
-1234.33
-371.796
-238.601
-424.763
-407.162
-404.403
-472.129
-450.368
-608.909
-486.361
-863.841
-434.975
-1389.83
411.895
-5497.82
-1234.27
-371.6
-238.489
-424.96
-407.786
-405.439
-472.368
-450.461
-606.411
-484.309
-852.139
-432.436
-1370.28
385.578
-5381.44
-1234.4
-371.732
-238.556
-425.274
-408.151
-405.7
-471.729
-449.787
-603.364
-482.277
-838.867
-435.152
-1271.42
414.45
-5458.61
-1234.33
-371.529
-238.423
-425.319
-408.353
-406.133
-471.711
-449.766
-602.372
-481.487
-843.506
-426.739
-1293.88
368.793
-5552.56
-1234.46
-371.662
-238.455
-425.469
-408.529
-406.273
-471.364
-449.396
-601.685
-480.649
-850.712
-422.76
-1371.6
201.253
-5348.78
-1234.35
-371.381
-238.273
-425.234
-408.321
-406.27
-471.347
-449.446
-602.513
-479.787
-869.647
-389.263
-1582.54
63.1262
-4823.85
-1234.44
-371.383
-238.344
-425.267
-408.256
-406.015
-470.9
-449.037
-601.185
-480.375
-854.303
-416.313
-1445.17
173.92
-5201.5
-1234.28
-371.073
-238.193
-424.948
-407.804
-405.58
-470.77
-449.028
-601.169
-480.884
-845.485
-424.82
-1310.6
330.25
-5577.11
-1234.33
-371.061
-238.22
-424.752
-407.36
-404.877
-470.338
-448.655
-601.439
-481.314
-839.303
-433.438
-1279.16
416.325
-5459.79
-1234.17
-370.793
-238.063
-424.289
-406.783
-404.382
-470.598
-448.993
-603.796
-482.996
-850.992
-431.531
-1370.65
383.873
-5392.26
-1234.06
-371.007
-238.095
-423.973
-405.972
-403.106
-469.968
-448.518
-605.634
-484.591
-861.385
-433.882
-1389.29
414.072
-5506.11
-1233.79
-371.069
-237.954
-423.578
-405.523
-402.741
-470.351
-448.674
-608.808
-488.025
-877.462
-428.579
-1443.46
425.299
-5509.48
-1233.59
-371.333
-237.933
-423.16
-404.27
-401.156
-470.014
-447.971
-610.021
-491.352
-892.14
-437.652
-1531.21
421.89
-5658.12
-1332.43
-443.948
-272.768
-483.159
-473.629
-463.101
-565.71
-522.061
-768.322
-558.178
-1123.9
-446.771
-1596.09
1072.02
-8214.85
-1332.62
-443.826
-272.798
-483.762
-475.471
-465.654
-566.923
-522.991
-767.616
-555.185
-1117.53
-449.012
-1554.66
970.484
-7758.1
-1332.82
-443.868
-272.873
-484.163
-475.879
-465.767
-566.258
-522.659
-764.781
-552.339
-1098.01
-456.67
-1496.37
920.53
-7649.59
-1332.9
-443.678
-272.826
-484.554
-476.885
-467.239
-566.845
-523.017
-763.313
-552.289
-1098.55
-472.966
-1516.25
813.528
-7403.98
-1333.04
-443.802
-272.907
-484.95
-477.373
-467.468
-566.057
-522.441
-760.573
-552.967
-1088.03
-482.927
-1458.86
771.167
-7355.99
-1332.97
-443.635
-272.79
-485.069
-477.746
-468.013
-566.035
-522.505
-760.314
-553.77
-1105.3
-477.477
-1561.83
568.29
-7296.89
-1333.08
-443.781
-272.844
-485.245
-477.954
-468.1
-565.508
-522.148
-759.616
-554.659
-1115.62
-485.34
-1704.29
243.939
-6849.98
-1332.97
-443.485
-272.636
-484.985
-477.707
-468.084
-565.427
-522.104
-760.859
-553.15
-1140.05
-445.484
-1925.56
22.4435
-6168.44
-1333
-443.446
-272.704
-484.99
-477.547
-467.734
-564.726
-521.56
-758.582
-554.122
-1121.02
-476.894
-1821.79
187.34
-6615.99
-1332.79
-443.069
-272.512
-484.593
-476.953
-467.241
-564.464
-521.303
-757.944
-552.593
-1107.82
-474.42
-1590.49
487.638
-7323.89
-1332.71
-442.991
-272.487
-484.25
-476.228
-466.301
-563.745
-520.591
-756.866
-550.994
-1087.66
-478.779
-1471.91
768.248
-7349.77
-1332.45
-442.643
-272.273
-483.641
-475.424
-465.725
-563.912
-520.613
-758.338
-549.585
-1095.18
-469.348
-1518.08
811.665
-7411.71
-1332.24
-442.615
-272.167
-483.043
-474.12
-463.889
-562.689
-519.638
-758.593
-548.846
-1092.37
-452.568
-1495.92
925.783
-7667.05
-1331.99
-442.571
-271.998
-482.528
-473.538
-463.57
-562.997
-519.614
-760.687
-551.186
-1110.35
-444.782
-1552.7
977.583
-7780.23
-1331.77
-442.644
-271.829
-481.776
-471.468
-460.711
-561.284
-518.134
-760.466
-553.275
-1114.99
-441.943
-1593.52
1076.01
-8244.79
-1386.94
-543.891
-323.864
-548.247
-577.99
-558.697
-726.221
-624.115
-1034.97
-616.716
-1594.78
-421.882
-2512.64
1540.39
-12612.7
-1387.11
-543.498
-323.668
-548.828
-580.431
-562
-728.171
-625.486
-1033.24
-601.655
-1589.83
-308.723
-2751.26
891.971
-10716.2
-1387.45
-543.316
-323.838
-549.34
-580.905
-561.966
-726.663
-624.413
-1025.89
-596.561
-1530.43
-331.899
-2297.92
1165.71
-10573.9
-1387.55
-542.875
-323.668
-549.749
-582.107
-563.625
-726.811
-624.417
-1017.83
-590.335
-1462.3
-321.971
-2016.07
1119.31
-10284.5
-1387.62
-542.838
-323.762
-550.198
-582.604
-563.725
-725.036
-623.534
-1008.04
-591.43
-1392.32
-370.182
-1791.81
1200.89
-10126.3
-1387.57
-542.577
-323.604
-550.316
-582.985
-564.284
-724.516
-623.522
-1004.24
-593.792
-1388.83
-385.503
-1834.05
1141.79
-10017.7
-1387.58
-542.566
-323.689
-550.504
-583.12
-564.212
-723.3
-623.075
-1000.22
-597.146
-1381.83
-417.375
-1774.3
780.805
-9969.2
-1387.49
-542.24
-323.456
-550.172
-582.758
-564.072
-723.019
-622.897
-1002.62
-597.103
-1442.38
-389.51
-2387.76
116.9
-8676.64
-1387.49
-542.135
-323.514
-550.146
-582.476
-563.555
-721.886
-622.098
-997.89
-595.966
-1387.27
-416.875
-1825.9
738.4
-9832.17
-1387.34
-541.773
-323.221
-549.643
-581.749
-562.971
-721.745