/*--------------------------------*- C++ -*----------------------------------*\
| =========                 |                                                 |
| \\      /  F ield         | OpenFOAM: The Open Source CFD Toolbox           |
|  \\    /   O peration     | Version:  4.1                                   |
|   \\  /    A nd           | Web:      www.OpenFOAM.org                      |
|    \\/     M anipulation  |                                                 |
\*---------------------------------------------------------------------------*/
FoamFile
{
    version     2.0;
    format      ascii;
    class       surfaceScalarField;
    location    "3";
    object      phi;
}
// * * * * * * * * * * * * * * * * * * * * * * * * * * * * * * * * * * * * * //

dimensions      [0 3 -1 0 0 0 0];

internalField   nonuniform List<scalar> 
19125
(
289.025
-12.4917
868.843
200.251
19.021
731.981
65.9019
-2.29478
303.077
-80.6435
30.1088
161.432
-188.523
12.324
-13.6491
-186.086
-71.2321
-86.3188
-130.516
-172.964
-107.377
-58.4527
-240.657
-142.361
53.9591
-235.394
-187.3
187.736
-159.916
-164.791
296.583
-44.7965
-90.164
391.973
-4.37823
8.71299
275.501
-18.4139
-38.6797
-100.484
69.3755
539.723
-47.2053
1536.75
282.267
-12.2794
881.788
196.637
18.6184
730.114
57.9478
-7.54241
299.161
-86.3459
27.8711
152.597
-196.458
22.3207
-24.4261
-199.148
-56.0708
-95.9426
-145.105
-143.113
-111.868
-75.9284
-195.582
-116.007
29.0877
-176.541
-131.702
144.641
-104.834
-88.52
258.88
-12.6928
-42.9683
378.58
2.76747
15.0509
310.941
-39.8337
-63.9302
-59.1901
38.0122
432.729
-37.2168
1574.1
281.691
-12.5796
885.13
194.037
19.9461
730.578
44.511
-4.27376
300.216
-106.251
24.3672
147.928
-213.12
19.4625
-32.1955
-222.436
-52.6401
-103.035
-162.936
-128.74
-116.95
-80.2863
-163.992
-101.96
42.4103
-138.305
-126.016
187.915
-74.4159
-111.434
321.86
-10.0858
-87.963
438.975
-2.65826
-26.2768
346.317
-41.2534
-68.5273
-59.958
35.5026
432.025
-32.4212
1580.48
279.279
-12.4584
892.843
190.661
19.9472
728.658
41.2317
-3.14329
298.833
-112.264
21.2461
145.9
-220.936
12.6476
-39.361
-233.729
-51.8791
-105.985
-171.481
-110.162
-118.155
-79.4484
-130.043
-86.2291
51.4871
-104.582
-100.727
207.212
-52.1777
-110.233
345.249
-14.7513
-107.681
464.233
-14.705
-46.078
379.104
-42.3904
-75.315
-45.46
28.1408
398.957
-20.5668
1595.11
277.899
-12.3944
897.982
187.955
20.2593
728.643
29.2058
4.51224
298.168
-128.44
16.9258
140.026
-232.144
-0.850501
-46.2019
-247.226
-48.7655
-111.128
-180.115
-87.1361
-126.294
-77.6753
-94.3897
-78.531
60.6534
-73.8895
-83.329
223.854
-34.8423
-111.827
360.735
-19.6552
-123.415
471.778
-19.3049
-58.0232
378.418
-32.7695
-77.4109
-55.8372
34.7105
412.347
-21.4607
1597.37
274.901
-10.9774
905.442
185.379
17.7718
727.119
16.3234
19.2312
294.756
-142.51
8.80842
133.137
-238.288
-21.915
-51.4419
-256.526
-39.097
-114.785
-186.322
-56.7755
-132.941
-75.7178
-56.6187
-72.1769
66.4934
-45.2108
-67.3999
229.786
-19.1088
-105.052
361.888
-18.8201
-130.195
470.612
-16.8311
-64.8878
380.575
-14.0754
-84.793
-57.8096
40.6962
404.557
-29.7116
1603.62
268.475
-4.71234
914.768
182.965
7.61755
724.539
30.5853
17.2799
288.613
-126.867
1.25357
126.868
-240.21
-20.0919
-58.4314
-264.738
-15.1663
-126.423
-192.031
-20.0438
-144.797
-74.4727
-19.3185
-66.4093
69.3874
-15.7065
-56.9702
231.038
-5.67881
-94.2191
359.399
-8.06233
-140.615
468.072
-6.64139
-73.6036
418.136
-2.59406
-113.444
-24.0596
24.3882
352.104
-16.3153
1616.67
264.518
4.676
919.951
181.686
-7.87303
721.277
65.3265
-17.1782
284.417
-87.484
-1.67327
130.021
-236.265
19.7893
-60.859
-265.582
15.4607
-132.141
-193.786
20.4642
-149.573
-73.8673
19.4428
-64.471
69.6425
15.6611
-53.8183
230.525
5.72516
-86.07
359.769
7.63979
-149.551
469.207
6.34738
-81.1767
451.387
1.35505
-137.226
3.6119
-27.2594
288.197
16.8952
1627.28
268.579
10.911
914.538
183.026
-17.9046
724.617
30.7708
-19.1738
288.692
-126.866
-8.94532
126.907
-240.314
21.6779
-58.4397
-264.769
39.2901
-126.415
-192.118
57.1703
-144.758
-74.5604
56.7851
-66.6834
69.3898
45.2332
-57.2996
231.138
19.0249
-94.2874
359.349
18.5534
-140.692
468.057
16.5517
-73.6376
417.489
13.3396
-113.104
-24.7707
-41.8489
354.086
29.782
1615.98
274.973
12.3233
905.233
185.456
-20.3399
727.2
16.4861
-4.48629
294.817
-142.449
-16.8826
133.203
-238.337
0.718018
-51.3855
-256.579
48.895
-114.778
-186.43
87.4684
-132.971
-75.8191
94.6175
-72.515
66.5062
74.008
-67.8128
229.879
34.7415
-105.281
361.869
19.5237
-130.303
470.586
19.0646
-64.9348
380.225
32.2413
-84.4955
-58.2352
-35.1848
405.767
21.3299
1603.05
277.968
12.3975
897.749
188.052
-19.9983
728.707
29.3738
3.14654
298.225
-128.275
-21.1329
140.114
-232.094
-12.6386
-46.0884
-247.267
52.02
-111.098
-180.227
110.407
-126.37
-77.7758
130.316
-78.9033
60.6711
104.767
-83.7594
223.948
52.1667
-112.215
360.779
14.7379
-123.6
471.773
14.5198
-58.1094
378.063
41.9972
-77.1213
-56.0723
-28.3012
413.22
20.4497
1596.8
279.346
12.5322
892.611
190.769
-19.9789
728.72
41.397
4.27246
298.891
-112.056
-24.2383
145.978
-220.808
-19.3536
-39.2543
-233.71
52.8251
-105.948
-171.576
128.973
-118.272
-79.5437
164.321
-86.6518
51.5094
138.544
-101.222
207.327
74.5508
-110.726
345.323
10.1971
-107.914
464.221
2.516
-46.1221
378.673
40.9977
-75.0026
-45.718
-35.4371
399.836
32.2873
1594.59
281.76
12.2454
884.896
194.155
-18.6394
730.626
44.6947
7.53183
300.267
-105.989
-27.7714
147.999
-212.919
-22.1562
-32.1086
-222.347
56.2879
-103.016
-162.999
143.374
-117.107
-80.3592
195.942
-102.456
42.4473
176.785
-126.599
188.046
105.093
-111.949
321.926
12.9317
-88.1874
438.896
-2.85712
-26.239
345.869
39.642
-68.2114
-60.1547
-37.877
432.753
37.1065
1580
282.336
12.4674
881.55
196.759
-19.0322
730.155
58.1491
2.26356
299.212
-86.073
-30.005
152.664
-196.227
-12.1542
-24.3585
-199.06
71.4802
-95.9404
-145.197
173.281
-112.018
-76.0114
241.019
-116.51
29.1292
235.601
-132.279
144.781
160.317
-88.9948
258.906
45.218
-43.1993
378.398
4.4079
15.0934
310.384
18.2849
-63.6239
-59.4344
-69.2257
433.5
47.0624
1573.62
289.096
868.614
200.381
732.012
66.0809
303.119
-80.3622
161.48
-188.23
-13.604
-185.859
-86.3666
-130.343
-107.548
-58.2274
-142.755
54.2635
-187.868
188.057
-165.342
296.78
-90.5336
391.92
8.70098
275.116
-38.4048
-100.589
540.211
1536.34
961.728
-14.7873
557.667
909.863
1.79241
781.628
720.919
11.4968
488.792
531.29
18.3565
347.067
322.676
6.8011
189.578
165.295
-27.3905
66.5936
93.3445
-112.317
-14.075
105.788
-173.376
-124.026
193.133
-118.773
-229.869
332.686
-102.538
-270.467
402.805
-112.348
-131.747
245.777
-21.8579
153.846
-243.96
34.3533
437.417
-755.014
75.6038
1014.61
-61.9408
1329.33
958.282
-14.848
566.106
902.186
2.43459
785.563
714.875
9.53956
488.427
524.39
17.9777
343.462
301.138
21.2851
184.347
118.297
6.28651
53.2315
28.0585
-90.0504
-43.8836
40.7164
-156.533
-145.498
159.657
-106.663
-262.745
334.218
-89.7202
-275.892
423.719
-81.0833
-163.729
284.595
8.36736
123.954
-188.518
44.2464
399.29
-730.787
55.8568
994.744
-56.2083
1362.75
958.431
-15.3511
568.449
901.54
3.43532
786.465
711.672
10.1042
489.517
516.767
16.4529
344.359
298.341
20.6564
186.864
134.846
5.42276
61.3336
46.9074
-81.9957
-37.0514
51.3571
-135.563
-127.367
171.341
-76.8363
-275.817
337.421
-59.7883
-307.439
415.582
-67.172
-180.029
282.931
7.8527
106.893
-176.578
39.2758
395.954
-730.437
48.3918
993.347
-50.3696
1368.34
957.894
-15.7914
573.867
898.817
3.00272
788.163
707.919
10.5628
489.271
512.59
14.5791
343.105
296.844
10.6032
186.443
132.285
-1.63469
65.6426
30.5562
-64.6238
-33.7829
31.9039
-108.313
-114.811
163.851
-51.4131
-258.086
337.045
-32.2873
-310.92
416.284
-58.9829
-195.103
292.737
-5.13783
90.4643
-155.154
27.6955
384.157
-725.899
30.4524
987.641
-42.8338
1382.32
957.761
-16.8135
577.599
897.126
2.52296
789.754
703.092
12.1975
490.565
500.734
13.01
343.954
276.093
2.32089
186.727
106.719
-9.81039
66.4343
4.22732
-51.1609
-37.2451
12.9734
-79.354
-116.215
157.347
-30.7904
-248.31
338.964
-10.7898
-314.932
422.732
-55.0988
-211.062
300.335
-18.8978
78.1389
-148.725
18.9844
380.36
-727.676
32.0133
989.736
-40.2806
1386.52
957.002
-17.6156
582.828
894.178
0.767597
791.694
697.898
12.6628
490.569
492.074
9.19283
342.78
262.951
-4.89621
184.905
85.7421
-11.6586
64.2852
-25.2073
-31.6202
-41.5104
-10.5445
-50.5736
-115.597
146.955
-19.4423
-236.232
338.547
1.51315
-308.938
431.207
-48.549
-229.399
312.079
-26.4806
61.828
-135.963
14.4977
367.736
-727.12
39.3672
988.359
-41.5101
1394.62
948.911
-8.73177
589.883
878.859
-0.0155613
795.369
685.041
6.24567
488.847
479.637
2.92711
338.539
241.538
-2.92106
177.699
55.9855
-5.24822
52.7338
-54.0049
-12.4184
-53.985
-31.2741
-19.3902
-120.297
133.084
-8.05022
-232.702
340.21
2.10786
-301.93
447.059
-21.1428
-274.865
332.205
-14.0903
28.8655
-101.786
7.43877
327.607
-704.837
24.6595
969.862
-22.6162
1411.09
942.388
8.29719
594.102
866.9
-0.346546
797.092
678.585
-6.52974
485.505
481.087
-3.20264
333.651
242.808
2.73496
171.771
54.8971
5.30481
45.2315
-59.0731
12.8074
-60.8052
-37.8268
19.5747
-124.656
125.902
7.78842
-233.368
341.507
-2.46189
-297.095
457.386
20.7326
-307.299
345.245
13.3247
3.55481
-68.866
-8.79739
293.122
-676.496
-27.4839
947.969
22.5026
1425.25
948.819
17.3931
589.706
878.8
-1.05925
795.344
685.008
-12.8687
488.821
479.602
-9.40907
338.521
241.497
4.72262
177.685
55.9734
11.7012
52.7261
-53.9149
31.9287
-53.9669
-31.1321
50.5369
-120.402
133.142
19.0271
-232.794
340.197
-2.03731
-301.757
447.134
48.1318
-275.022
332.103
25.9672
28.7571
-102.056
-15.4658
327.724
-705.168
-40.4223
970.137
41.3449
1410.27
956.98
16.6578
582.67
894.173
-2.74278
791.686
697.925
-12.3697
490.564
492.114
-13.1655
342.773
263.008
-2.44869
184.899
85.8556
9.81195
64.2773
-24.9805
51.3508
-41.5343
-10.2937
79.1553
-115.796
147.097
30.3009
-236.461
338.574
10.1675
-308.954
431.229
54.6533
-229.472
311.99
18.4299
61.8475
-136.26
-19.6535
367.943
-727.238
-32.3259
988.648
40.1217
1394.03
957.762
15.6779
577.396
897.169
-3.16581
789.718
703.167
-10.7033
490.56
500.841
-14.6793
343.956
276.243
-10.6624
186.73
106.945
1.6042
66.4216
4.59661
64.6638
-37.3148
13.3277
108.017
-116.476
157.527
50.9003
-248.544
339.033
31.6241
-315.169
422.724
58.5626
-211.193
300.132
4.69279
78.2259
-149.198
-28.1243
380.681
-727.803
-30.4725
989.971
42.7307
1385.88
957.905
15.2697
573.647
898.885
-3.55518
788.123
708.029
-10.222
489.26
512.753
-16.5173
343.093
297.064
-20.6546
186.431
132.565
-5.44117
65.6057
30.9607
81.9089
-33.8991
32.2963
135.213
-115.171
164.07
76.3087
-258.395
337.137
59.1747
-311.337
416.206
66.8202
-195.236
292.403
-8.2553
90.6338
-155.735
-39.5346
384.546
-726.054
-48.2145
987.894
50.2786
1381.71
958.453
14.788
568.213
901.64
-2.52268
786.399
711.832
-9.63677
489.487
517.009
-18.0219
344.33
298.673
-21.2587
186.84
135.233
-6.27848
61.2773
47.3605
89.9028
-37.2086
51.7725
156.173
-127.81
171.594
106.014
-276.112
337.548
89.1377
-307.856
415.461
80.8365
-180.109
282.49
-8.66436
107.149
-177.246
-44.3715
396.365
-730.626
-55.6401
993.558
56.1235
1367.73
958.307
14.7439
565.857
902.303
-1.85173
785.481
715.06
-11.5725
488.389
524.673
-18.3904
343.424
301.551
-6.79947
184.315
118.784
27.4029
53.1642
28.5316
112.22
-44.0589
41.1281
173.039
-145.954
159.948
117.931
-263.001
334.395
101.999
-276.29
423.607
112.21
-163.774
284.1
21.7177
124.228
-189.247
-34.362
399.719
-731.003
-75.3317
994.947
61.8429
1362.14
961.762
557.418
910.009
781.53
721.144
488.736
531.624
347.007
323.14
189.521
165.828
66.4903
93.8683
-14.3043
106.271
-124.47
193.428
-230.221
332.761
-270.809
402.541
-131.671
245.197
154.155
-244.668
437.814
-755.22
1014.74
1328.76
1122.26
-2.67654
267.937
1265.3
-10.6476
640.428
1198.94
-5.71048
554.689
1065.38
-5.80788
480.03
883.529
-19.5857
365.973
673.333
-41.9235
257.503
470.4
-81.5663
164.106
311.579
-67.7684
9.74878
212.774
75.1551
-114.633
70.516
-12.4802
-123.152
-276.105
-114.036
211.523
-715.525
-42.2029
594.735
-1133.31
13.1438
846.415
-1246.2
2.77138
1121.91
-30.5141
846.69
1124.85
-2.79936
270.083
1264.95
-9.70323
644.51
1196.83
-6.1503
556.984
1059.76
-6.21227
480.937
868.47
-10.8469
366.901
640.67
-14.7519
253.863
406.996
-41.4172
149.646
247.402
-42.3511
-11.3149
220.016
22.9985
-183.197
143.184
-32.6691
-178.863
-201.897
-72.9024
140.224
-678.311
-14.1101
572.276
-1117.89
15.6449
836.364
-1249.31
0.223883
1128.72
-29.5582
863.133
1125.51
-2.92851
270.876
1266.41
-9.54948
645.404
1197.75
-5.82165
557.845
1059.35
-6.20348
482.749
872.859
-8.22078
370.734
665.227
-6.29687
260.514
449.655
-18.9288
156.037
283.509
-13.6611
10.0959
226.627
24.8709
-220.8
117.6
-31.9563
-199.117
-219.999
-60.4844
145.159
-682.466
-17.3051
572.557
-1118.34
11.976
835.494
-1251.19
-2.13029
1128.55
-27.7856
865.195
1127.22
-2.87405
272.404
1267.61
-9.52427
647.744
1197.25
-5.41916
559.227
1056.66
-6.04194
483.523
870.63
-7.82412
372.083
669.006
-2.69177
263.665
460.285
-4.82121
160.836
296.305
3.42062
32.0934
230.081
42.5883
-209.572
117.574
-12.2452
-218.118
-212.883
-53.0893
127.966
-674.223
-29.7439
564.245
-1115.36
6.29359
830.974
-1254.69
-5.71343
1130.56
-25.5245
871.989
1128.47
-2.89895
273.564
1269.43
-10.1135
649.381
1198.55
-4.8451
560.866
1055.45
-5.12161
486.13
864.908
-6.32682
375.775
660.895
-0.120589
267.88
453.277
3.43563
162.121
291.942
10.3028
38.2458
230.736
51.8701
-196.379
133.698
4.69061
-234.822
-195.284
-45.6946
110.533
-666.499
-41.2761
560.889
-1115.05
4.52148
830.688
-1257.15
-5.68344
1131.8
-24.1546
873.72
1130.54
-3.20654
274.97
1271.04
-10.5568
651.628
1198.61
-4.21125
562.369
1052.7
-3.8312
487.4
858.785
-4.35476
376.846
653.224
0.935463
268.794
446.201
5.52046
163.434
286.066
8.5631
46.2861
230.816
51.2879
-180.391
157.842
18.6889
-249.954
-165.433
-32.231
80.4207
-650.824
-44.4229
550.369
-1112.15
6.61205
826.972
-1260.71
-2.94906
1134.18
-25.2378
878.215
1131.92
-2.16797
277.082
1265.83
-5.27734
656.178
1187.03
-1.84795
565.277
1034.14
-1.39335
488.995
832.658
-1.37667
376.205
620.5
0.577114
265.255
412.205
2.49667
157.34
258.381
3.05168
39.0475
230.156
22.3191
-175.5
220.353
10.0194
-283.45
-84.053
-11.6265
8.94594
-598.467
-20.91
519.77
-1081.76
4.1761
813.337
-1252.98
-0.113585
1138.24
-14.1205
889.291
1131.74
1.18283
278.345
1259.43
4.86217
659.259
1175.22
1.53789
566.322
1018.51
1.14853
487.822
815.194
1.19864
372.513
602.331
-0.748332
259.424
395.671
-2.66146
151.019
244.651
-3.14571
32.5712
230.855
-22.7329
-174.511
259.985
-10.6433
-305.555
-28.2212
11.7216
-42.4318
-557.24
20.3641
491.303
-1053.35
-5.28854
798.696
-1243.16
-1.26631
1138.93
12.2627
898.109
1131.49
2.82472
277.111
1265.42
10.1763
656.092
1186.7
3.8584
565.217
1033.9
3.50889
488.959
832.52
4.09341
376.177
620.445
-1.1636
265.22
412.252
-5.7327
157.304
258.501
-8.86272
39.0758
230.179
-51.9751
-175.221
220.584
-19.472
-283.326
-83.4159
32.0652
8.64405
-597.81
43.9099
519.608
-1081.11
-7.50618
813.244
-1252.26
2.08359
1137.93
24.8631
888.304
1130.4
2.62609
274.981
1270.94
9.78923
651.526
1198.54
4.52239
562.304
1052.66
4.81538
487.34
858.801
6.06488
376.793
653.301
-0.109073
268.727
446.372
-3.65468
163.324
286.261
-10.7265
46.189
230.867
-52.7564
-180.277
157.901
-5.51599
-249.934
-165.227
45.3845
80.3457
-650.631
40.7913
550.373
-1111.96
-5.21717
826.988
-1260.51
5.15989
1134.12
23.9927
877.797
1128.37
2.67876
273.475
1269.42
9.23434
649.222
1198.58
5.13812
560.78
1055.51
5.78137
486.064
864.995
7.59139
375.716
661.057
2.46756
267.787
453.569
4.58517
161.939
292.25
-3.91358
38.0378
230.848
-43.5863
-196.305
133.721
11.3955
-234.944
-195.304
52.7304
110.494
-666.621
29.3226
561.014
-1115.13
-6.7892
830.765
-1257.08
5.40762
1131.66
25.4326
873.191
1127.13
2.81293
272.26
1267.6
9.31103
647.575
1197.29
5.57566
559.131
1056.75
5.97912
483.433
870.77
8.01881
371.992
669.233
6.08433
263.533
460.646
18.6789
160.603
296.675
13.151
31.7491
230.189
-25.911
-209.571
117.463
31.135
-218.336
-213.13
60.1234
127.976
-674.522
16.9683
564.384
-1115.51
-12.3081
831.06
-1254.66
1.9703
1130.47
27.6989
871.497
1125.42
2.73181
270.722
1266.39
9.51867
645.217
1197.8
5.93985
557.71
1059.47
6.01737
482.622
873.053
10.6711
370.612
665.506
14.5647
260.35
450.03
41.1955
155.76
283.864
41.8897
9.63079
226.734
-24.1214
-220.76
117.416
31.9108
-199.3
-220.429
72.6358
145.235
-682.918
13.9062
572.704
-1118.57
-15.8402
835.547
-1251.16
-0.299852
1128.42
29.4872
864.674
1124.77
2.62932
269.908
1264.94
10.5132
644.312
1196.89
5.54687
556.833
1059.89
5.65044
480.788
868.696
19.43
366.756
640.998
41.76
253.674
407.426
81.3759
149.341
247.878
67.2886
-11.792
220.202
-76.277
-183.158
142.893
11.9884
-179.042
-202.494
113.904
140.355
-678.861
42.0806
572.425
-1118.15
-13.2431
836.409
-1249.29
-2.78842
1128.58
30.4472
862.605
1122.19
267.753
1265.3
640.215
1199.02
554.513
1065.55
479.85
883.784
365.794
673.681
257.278
470.815
163.75
311.881
9.23199
212.611
-114.743
69.835
-123.297
-276.947
211.747
-716.168
594.846
-1133.6
846.414
-1246.19
1121.74
846.181
1054.89
0.583112
206.891
1196.88
-5.99686
498.935
1220
-8.95038
531.792
1163.93
-13.1401
536.413
1035.21
-31.7595
489.412
838.109
-72.3005
431.735
599.9
-129.977
369.954
323.946
-32.7321
253.119
9.65203
189.959
189.681
-418.406
-150.857
294.296
-842.449
-128.164
625.213
-1153.33
-69.4762
909.511
-1338.37
-27.8282
1033.89
-1236.93
-27.2517
1025.29
-8.80835
615.516
1056.26
1.07651
206.425
1199.38
-4.81702
500.209
1222.19
-8.4143
533.634
1163.7
-13.0297
539.31
1028.22
-23.6559
494.279
814.386
-38.3498
433.751
548.525
-79.5078
365.041
299.875
-28.9632
233.571
93.2131
104.648
108.782
-313.417
-140.468
217.383
-795.365
-94.8905
588.9
-1141.04
-58.6668
907.143
-1340.7
-27.4002
1035.6
-1244.44
-25.1202
1030.32
-9.84665
616.589
1057.17
0.901414
206.437
1201.81
-4.65123
500.595
1225.64
-8.20726
533.803
1168.36
-13.0834
540.077
1039.66
-20.8764
496.662
849.301
-24.7691
437.293
599.849
-43.3298
369.314
344.986
-7.75891
243.76
101.114
75.5966
52.1299
-338.005
-114.77
214.311
-807.009
-78.1738
597.448
-1145.6
-57.193
909.672
-1344.33
-27.7413
1034.56
-1246.13
-25.1499
1030.38
-11.7107
616.258
1058.05
1.11269
206.082
1203.87
-4.22299
501.492
1227.52
-7.84252
535.206
1168.7
-12.8489
542.111
1039.56
-19.224
499.575
857.226
-19.099
440.326
623.836
-22.5167
373.416
376.277
8.44464
263.454
119.614
78.679
44.0159
-324.591
-79.7272
191.05
-797.669
-66.6062
589.479
-1141.84
-57.3465
908.57
-1345.81
-27.143
1034.34
-1248.68
-23.5932
1031.88
-11.1105
615.477
1059.19
0.917643
205.926
1207.03
-4.81507
502.125
1232.28
-8.14225
535.914
1174.6
-12.7669
543.727
1044.65
-16.3472
502.852
861.183
-12.1938
444.442
632.542
-7.13909
375.387
390.502
17.0774
271.659
136.924
90.4989
45.3869
-301.064
-41.5699
165.016
-789.571
-50.766
583.202
-1143.55
-52.9774
910.504
-1349.72
-25.143
1034.85
-1250.33
-23.8795
1032.7
-9.51761
614.081
1059.95
1.19
205.56
1208.98
-5.15945
502.942
1234.62
-8.34119
536.923
1175.82
-11.9377
545.368
1043.96
-12.8763
505.236
861.108
-7.34617
446.803
638.356
1.47611
377.574
400.955
21.1022
279.667
157.071
98.6481
55.3503
-265.313
-4.50604
135.374
-769.84
-33.6525
567.837
-1139.23
-41.8474
908.63
-1353.35
-19.0899
1035.03
-1254.06
-23.3204
1034.33
-8.88303
613.929
1062.58
0.168254
205.338
1212.08
-3.03394
504.544
1233.85
-4.18945
539.353
1167.35
-5.37576
548.928
1026.46
-4.83739
509.056
836.82
-1.64324
449.197
615.97
2.9378
376.732
388.544
10.0632
277.518
203.786
46.9512
60.9625
-163.783
5.93913
73.6826
-701.516
-11.9072
524.937
-1106.97
-16.3473
899.721
-1343.21
-6.99231
1037.48
-1258.31
-11.7718
1041.79
-7.40378
616.526
1063.4
-0.445586
205.014
1211.4
2.41546
505.806
1228.54
3.65989
541.329
1154.99
4.98534
551.01
1008.17
4.58466
509.91
816.613
1.36948
447.972
599.968
-3.38879
373.995
378.961
-10.8168
274.464
235.189
-48.4676
64.6888
-90.544
-6.66574
32.7915
-644.247
12.1422
487.226
-1073.99
16.3177
888.383
-1326.76
6.66629
1037.81
-1256.59
10.9152
1046.07
3.85713
616.512
1062.57
-1.45999
205.23
1211.82
4.78315
504.473
1233.48
7.85451
539.361
1167.03
11.4349
548.958
1026.27
12.446
509.076
836.738
6.94342
449.178
615.958
-1.97081
376.669
388.563
-21.8401
277.5
203.814
-100.15
61.2164
-163.263
3.52472
73.5688
-700.495
33.3028
524.719
-1105.58
41.2568
899.755
-1341.41
18.152
1037.58
-1256.4
22.4973
1041.34
8.89158
615.316
1060.08
-1.2906
205.366
1209.03
4.51569
502.828
1234.61
7.72465
536.851
1175.8
12.2978
545.287
1043.97
15.9054
505.168
861.155
11.7731
446.715
638.431
6.66614
377.413
401.007
-17.744
279.521
157.015
-91.9055
55.4778
-265.23
40.6254
135.216
-769.583
50.2114
567.793
-1138.88
52.307
908.619
-1352.98
24.2849
1034.96
-1253.87
23.3426
1034.16
9.5307
613.816
1059.31
-1.4548
205.537
1207.16
3.93807
501.941
1232.38
7.47988
535.801
1174.67
12.4427
543.623
1044.71
18.8237
502.764
861.265
18.6927
444.316
632.651
22.068
375.155
390.598
-9.06923
271.421
136.979
-80.0889
45.5056
-301.01
78.8853
164.792
-789.572
66.0644
583.206
-1143.58
56.7779
910.549
-1349.73
26.4948
1034.71
-1250.29
23.2067
1032.35
11.028
613.771
1058.15
-1.19771
205.669
1203.99
4.36038
501.313
1227.62
7.89143
535.08
1168.78
12.7391
541.971
1039.64
20.5238
499.436
857.333
24.3865
440.14
623.958
42.9216
373.123
376.359
7.15684
263.122
119.591
-76.9856
44.0935
-324.743
114.01
190.874
-797.842
77.6702
589.469
-1141.96
56.7224
908.553
-1345.83
27.2526
1034.18
-1248.66
24.8568
1031.64
11.5741
615.18
1057.22
-1.32166
206.069
1201.87
4.54964
500.373
1225.71
8.1386
533.614
1168.45
12.7413
539.881
1039.75
23.3564
496.475
849.415
38.0122
437.058
599.973
79.1582
368.967
345.032
28.3731
243.359
101.002
-105.927
52.2175
-338.311
139.868
214.16
-807.306
94.4672
597.436
-1145.78
58.2913
909.608
-1344.34
27.0272
1034.33
-1246.05
24.8791
1030.1
9.74636
615.905
1056.27
-0.747352
206.08
1199.37
5.77645
499.972
1222.2
8.72182
533.418
1163.74
12.9023
539.078
1028.3
31.502
494.054
814.501
72.0061
433.478
548.7
129.653
364.65
299.952
32.1734
233.161
93.0106
-190.907
108.77
-313.868
150.489
217.222
-795.742
127.818
588.881
-1141.24
69.178
907.041
-1340.71
27.5551
1035.34
-1244.36
27.0607
1030.04
8.72322
616.23
1054.88
206.558
1196.85
498.684
1219.99
531.543
1163.95
536.139
1035.27
489.142
838.21
431.417
600.003
369.515
323.81
252.681
9.1747
189.562
-419.089
294.193
-842.905
625.151
-1153.56
909.341
-1338.37
1033.59
-1236.85
1024.99
615.158
1041.79
-1.05758
237.272
1085.13
-2.45135
454.595
1101.52
-3.72255
514.156
1073.93
-7.07058
562.837
985.383
-30.3029
570.636
816.599
-89.8724
573.863
577.66
-164.57
575.418
252.03
37.6015
557.123
-148.823
200.261
573.228
-567.906
-220.036
700.817
-895.962
-169.299
944.349
-1090
-84.5421
1108.92
-1185.24
-40.4155
1133.73
-1135.16
-25.9623
977.874
-9.53968
680.065
1041.15
-0.516448
236.876
1085.3
-0.626434
454.227
1103.03
-2.32336
514.504
1075.81
-6.23818
565.69
984.613
-21.1494
576.326
801.461
-50.0509
577.083
541.3
-113.87
574.504
264.299
14.1427
534.033
-41.317
118.455
496.207
-480.513
-205.953
642.498
-867.829
-126.967
933.885
-1085.88
-75.3662
1116.02
-1187.51
-40.0557
1136.86
-1136.66
-22.6334
976.145
-10.1546
674.465
1042.11
-1.06954
236.809
1088.12
-0.229795
454.187
1107.25
-1.75775
514.099
1082.01
-6.24201
565.322
998.94
-18.2065
576.789
841.664
-31.923
576.441
589.303
-66.5751
574.382
305.533
11.8499
529.826
-34.3117
75.1431
435.291
-512.68
-158.11
644.838
-881.319
-103.132
942.253
-1092.38
-72.0789
1117.45
-1193.42
-38.6725
1134.21
-1140.11
-21.9502
976.389
-14.8441
672.782
1041.48
-0.7864
236.502
1087.63
1.04907
454.058
1107.53
-1.10155
514.645
1082.35
-6.22024
567.264
1000.16
-16.6129
580.167
854.582
-24.6545
578.641
624.126
-38.0334
575.332
343.788
17.4558
538.188
-16.0889
63.8165
415.224
-505.625
-106.912
629.391
-873.31
-88.239
942.271
-1088.76
-68.8757
1120.81
-1191.6
-36.701
1135.21
-1138.31
-18.147
974.781
-13.5509
667.752
1041.69
-0.498228
236.377
1089.83
1.05954
453.959
1112.32
-2.08088
514.401
1090.23
-7.77918
567.38
1009.73
-14.9935
581.731
865.104
-16.3946
580.808
644.179
-17.53
575.81
368.772
22.4848
542.039
3.38104
68.6367
405.963
-495.626
-53.3489
610.462
-875.376
-68.6429
943.358
-1096.13
-61.3179
1123.7
-1197.08
-34.6784
1133.77
-1138.97
-18.1184
974.56
-9.70773
664.471
1041.18
0.785304
235.881
1090.5
0.854741
453.82
1114.5
-3.61914
514.455
1093.03
-9.20082
568.258
1012.52
-13.2938
584.046
870.797
-11.0455
583.178
659.371
-5.57419
577.046
389.755
25.617
546.153
28.1949
78.2788
407.272
-473.816
-4.33682
588.376
-866.735
-48.0244
940.139
-1098.56
-47.672
1126.81
-1203.45
-28.457
1133.7
-1141.55
-19.2192
973.534
-6.48205
662.679
1043.38
-0.195475
235.449
1095.62
-0.574982
453.729
1118.69
-2.41555
515.074
1092.37
-4.72424
570.77
1004.86
-5.45851
588.732
857.934
-3.05393
588.134
649.447
0.509791
579.138
394.148
12.4165
546.02
88.4529
38.5503
406.39
-390.746
9.16991
539.379
-821.359
-16.1251
923.653
-1083.25
-17.8497
1131.79
-1205.03
-10.3608
1141.16
-1149.12
-11.0451
977.71
-9.06703
661.351
1042.94
-0.474608
235.16
1094.74
-0.412858
453.837
1115.73
1.7138
516.208
1084.32
4.19912
573.495
991.481
5.12269
592.166
843.201
2.67128
590.528
639.395
-1.16913
579.482
394.639
-13.4937
545.132
130.824
-40.2422
407.3
-323.827
-9.43558
506.052
-775.071
16.6162
905.73
-1057.77
18.4974
1134.74
-1190.91
10.8919
1149.7
-1143.39
9.87752
977.619
3.44672
654.808
1043.49
-1.57238
235.113
1095.19
-1.33171
453.687
1118.07
3.03039
515.156
1091.85
8.48692
570.895
1004.57
12.6494
588.826
857.844
10.4251
588.152
649.455
4.8401
579.051
394.122
-26.6204
545.962
88.4385
-79.9428
406.605
-390.213
3.52311
539.266
-820.026
47.5409
923.609
-1080.75
46.8266
1132.14
-1200.98
27.0339
1141.68
-1144.96
18.3089
976.889
7.81914
659.815
1041.65
-0.779742
235.405
1090.88
-1.44399
453.702
1114.67
1.69297
514.398
1093.05
7.20732
568.189
1012.51
14.3701
583.982
870.831
15.7449
583.077
659.423
16.8183
576.845
389.744
-23.3916
545.975
28.07
-70.1807
407.395
-473.815
52.3906
588.238
-866.461
67.8768
940.105
-1098.14
60.3096
1126.82
-1203.17
33.3939
1133.62
-1141.83
17.741
973.381
10.0808
662.829
1041.54
0.0225421
235.896
1089.87
-1.52808
453.687
1112.44
0.67938
514.245
1090.3
5.71206
567.254
1009.76
16.0538
581.621
865.129
24.0388
580.651
644.199
37.3689
575.535
368.791
-18.341
541.78
3.38931
-65.3222
406.053
-495.616
105.96
610.23
-875.369
87.5108
943.326
-1096.23
68.05
1123.67
-1197.4
35.7913
1133.48
-1139.27
17.8274
974.135
13.37
664.297
1041.12
0.945204
236.158
1087.35
-0.231288
453.788
1107.43
1.23258
514.438
1082.33
5.71671
567.067
1000.17
17.679
579.979
854.598
31.3482
578.404
624.124
65.9898
574.983
343.78
-12.7176
537.85
-16.1568
-76.5431
415.263
-505.749
157.273
629.16
-873.398
102.474
942.159
-1088.85
71.3874
1120.67
-1191.73
37.9798
1134.87
-1138.42
21.6349
974.52
14.5747
667.55
1042.04
0.488903
236.464
1088.03
0.266923
453.877
1107.21
1.84151
513.83
1081.98
5.76055
565.059
998.926
20.6774
576.537
841.659
49.5413
576.135
589.294
113.362
573.963
305.486
-14.9799
529.435
-34.484
-119.647
435.3
-512.896
205.259
644.591
-881.458
126.399
942.076
-1092.47
74.7851
1117.22
-1193.44
39.4912
1133.79
-1140.08
22.3043
976.076
9.98734
672.489
1041.14
1.00421
236.548
1085.29
2.17122
453.912
1102.99
3.35227
514.205
1075.76
6.68556
565.378
984.571
29.9007
576.023
801.435
89.4304
576.727
541.326
164.096
574.029
264.239
-38.3513
533.625
-41.6069
-201.111
496.085
-480.801
219.461
642.218
-867.971
168.798
933.653
-1085.94
84.058
1115.73
-1187.49
39.9767
1136.41
-1136.67
25.6624
975.863
9.4079
674.16
1041.75
236.945
1085.08
454.263
1101.45
513.818
1073.86
562.469
985.32
570.27
816.549
573.445
577.586
574.889
251.808
556.704
-149.196
572.971
-568.235
700.503
-896.099
944.027
-1090.03
1108.55
-1185.18
1133.24
-1135.14
977.572
679.752
1086.79
-2.12732
264.679
1070.14
-3.24123
469.859
1046.78
-1.92501
535.356
1002.35
-2.83845
604.776
917.715
-29.0184
645.287
761.876
-100.744
699.953
535.38
-177.671
771.165
219.642
106.311
855.499
-156.307
208.897
931.639
-498.034
-270.776
1038.87
-756.884
-204.295
1191.01
-911.579
-90.3346
1266.53
-1035.08
-43.0878
1261.01
-1111.13
-30.0339
1053.8
-24.8329
871.516
1085.35
-1.28498
264.629
1067.87
-0.813449
469.265
1045.46
0.0157316
534.97
1001.83
-1.02705
607.515
915.843
-17.2255
650.516
746.944
-55.8818
701.121
506.143
-132.112
769.748
247.085
68.5398
830.864
-49.9347
131.521
870.605
-423.179
-257.698
1002.67
-734.282
-153
1193.69
-903.41
-79.7464
1274.56
-1027.34
-44.6258
1262.33
-1103.28
-23.6594
1045.71
-22.9466
863.442
1086.62
-1.94496
264.576
1071.53
-0.535053
468.992
1050.55
0.819894
534.274
1008.93
-0.636042
606.555
931.982
-13.0022
649.511
789.017
-33.0095
696.535
546.611
-79.8053
764.483
286.849
41.3362
816.793
-39.9601
76.2325
817.391
-461.179
-198.434
1006.79
-751.657
-120.526
1200.26
-913.98
-74.1644
1274.19
-1040.2
-41.2141
1257.02
-1112.07
-21.7617
1046.36
-30.9628
859.959
1085.66
-1.78807
264.54
1069.24
1.15537
468.773
1048.25
2.13019
534.323
1007.05
-0.276545
608.107
932.582
-10.9936
652.624
805.146
-23.9288
696.998
585.982
-46.03
760.723
324.058
28.5942
812.855
-30.2387
52.1362
793.62
-461.934
-138.085
1000.74
-744.173
-101.306
1205.29
-906.463
-69.6783
1278.62
-1029.51
-39.7075
1256.75
-1102.04
-14.9736
1040.52
-24.5973
853.053
1086.23
-2.52639
264.535
1071.12
1.7608
468.465
1052.49
1.54248
533.615
1014.72
-2.49721
607.369
942.819
-10.1441
652.78
817.68
-14.8045
696.823
611.293
-22.3666
758.536
347.537
24.5823
809.81
-20.9544
46.5923
780
-460.906
-78.985
991.316
-751.893
-76.8435
1209.88
-918.369
-59.4934
1279.99
-1040.13
-36.1545
1251.98
-1104.34
-15.5766
1039.36
-15.5821
848.313
1084.43
-0.917045
264.344
1069.96
1.99075
468.057
1053.48
-0.645067
533.117
1017.07
-5.39966
607.577
946.362
-9.95044
654.556
826.104
-9.63119
698.264
631.873
-8.61444
757.527
369.512
24.603
808.495
-5.95253
53.0663
776.266
-451.346
-25.8961
980.683
-749.895
-52.3792
1214.23
-925.222
-41.8531
1284.5
-1053.21
-24.872
1250.4
-1112.13
-19.8112
1036.68
-15.0673
846.601
1086.32
-1.25558
264.061
1074.97
-0.408358
467.467
1057.9
-1.3599
532.854
1017.63
-3.35498
608.994
941.924
-4.22408
658.716
819.383
-2.36427
703.409
630.312
-0.628453
760.225
381.803
11.4645
807.669
44.1846
26.3085
770.769
-392.719
0.0575802
950.331
-719.714
-16.6051
1214.88
-911.748
-12.448
1294.42
-1050.76
-4.20496
1259.51
-1117.89
-12.994
1038.01
-21.4848