/*--------------------------------*- C++ -*----------------------------------*\
| =========                 |                                                 |
| \\      /  F ield         | OpenFOAM: The Open Source CFD Toolbox           |
|  \\    /   O peration     | Version:  4.1                                   |
|   \\  /    A nd           | Web:      www.OpenFOAM.org                      |
|    \\/     M anipulation  |                                                 |
\*---------------------------------------------------------------------------*/
FoamFile
{
    version     2.0;
    format      ascii;
    class       volVectorField;
    location    "3";
    object      U;
}
// * * * * * * * * * * * * * * * * * * * * * * * * * * * * * * * * * * * * * //

dimensions      [0 1 -1 0 0 0 0];

internalField   nonuniform List<vector> 
6750
(
(9.83313 -0.0544902 10.0258)
(-0.426903 0.0804587 7.17771)
(3.32411 0.0103828 1.68558)
(-0.713683 0.127658 0.418597)
(-1.67932 0.0349117 -1.38144)
(-2.3148 -0.38646 -1.18391)
(-1.82545 -0.940072 -0.865577)
(-1.06796 -1.34647 -1.0119)
(-0.280511 -1.32667 -1.11136)
(1.63309 -0.923127 -0.567938)
(2.4113 -0.302415 0.36494)
(4.5049 -0.0541702 1.32359)
(3.72531 -0.0538595 -1.96409)
(3.3927 0.274356 1.92195)
(-7.35995 -0.20401 16.5875)
(9.74277 -0.0772512 10.1909)
(-0.531796 0.117923 7.10941)
(3.34045 -0.0325244 1.60399)
(-0.843658 0.183072 0.248199)
(-1.72905 0.10061 -1.50048)
(-2.45216 -0.378465 -1.10644)
(-1.97116 -0.919555 -0.430272)
(-1.26067 -1.27076 -0.106815)
(-0.456466 -1.1865 0.276833)
(1.23063 -0.735764 0.860273)
(1.84491 -0.130352 1.25042)
(4.19823 -0.00798472 1.66794)
(3.82553 -0.194174 -1.85382)
(4.12472 0.372798 -0.0288994)
(-7.18008 -0.265236 16.9617)
(9.72093 -0.0654793 10.2315)
(-0.543812 0.10152 7.10998)
(3.31398 -0.0376926 1.59785)
(-1.13171 0.145108 0.124457)
(-1.86796 0.139765 -1.68648)
(-2.70291 -0.272076 -1.37499)
(-2.26324 -0.743638 -0.596266)
(-1.35839 -0.984441 0.054754)
(-0.438323 -0.856904 0.31735)
(1.51051 -0.487155 0.672295)
(2.50557 -0.0440645 0.640336)
(4.96336 0.038131 1.04501)
(4.48651 -0.221925 -1.93167)
(4.14233 0.150619 -0.0973223)
(-7.13021 -0.182644 17.0186)
(9.6678 -0.0732295 10.3264)
(-0.578203 0.116592 7.05944)
(3.28646 -0.0169196 1.5661)
(-1.19698 0.129672 0.0854683)
(-1.92412 0.0883581 -1.83104)
(-2.81763 -0.306202 -1.47333)
(-2.41843 -0.687127 -0.536897)
(-1.37616 -0.833059 0.376144)
(-0.388971 -0.676965 0.662567)
(1.647 -0.347385 0.710555)
(2.78391 -0.0715696 0.367144)
(5.22003 -0.0646969 0.774269)
(4.842 -0.252951 -1.90491)
(4.46097 0.193973 -0.758321)
(-7.04435 -0.154183 17.1574)
(9.63311 -0.0682295 10.3893)
(-0.600648 0.111041 7.04584)
(3.25948 -0.0112505 1.53257)
(-1.45672 0.112856 -0.0399475)
(-2.01567 0.0514024 -1.93309)
(-2.97279 -0.281399 -1.52412)
(-2.5829 -0.558398 -0.523587)
(-1.38471 -0.629893 0.610717)
(-0.328648 -0.494699 0.924112)
(1.77049 -0.242216 0.723651)
(3.02459 -0.100366 0.162646)
(5.33106 -0.102961 0.639527)
(4.92036 -0.213478 -1.89228)
(4.28433 0.164434 -0.527275)
(-7.0212 -0.100097 17.1698)
(9.5812 -0.0705627 10.4807)
(-0.643802 0.114249 6.99883)
(3.24974 0.0646978 1.46149)
(-1.73476 0.0777989 -0.168727)
(-2.05107 -0.0683809 -1.99029)
(-3.07588 -0.265794 -1.52527)
(-2.70329 -0.419059 -0.486185)
(-1.38339 -0.425404 0.805655)
(-0.276488 -0.330079 1.13677)
(1.82982 -0.148247 0.781793)
(3.09402 -0.12059 0.0810665)
(5.29186 -0.116482 0.617766)
(4.93408 -0.149374 -1.83723)
(4.27398 0.215801 -0.669894)
(-6.98401 -0.147191 17.2122)
(9.51187 -0.0514526 10.591)
(-0.736564 0.0833345 6.92534)
(3.28819 0.1525 1.39003)
(-1.43458 0.016315 -0.216967)
(-2.01329 -0.180621 -2.01214)
(-3.16025 -0.171147 -1.56532)
(-2.81561 -0.224319 -0.525632)
(-1.38125 -0.212955 0.945557)
(-0.241254 -0.172646 1.28791)
(1.84284 -0.0649961 0.855378)
(3.10554 -0.0906364 0.0160542)
(5.24066 -0.0752502 0.607925)
(4.89613 -0.0495519 -1.80146)
(5.09701 0.239136 -1.54546)
(-6.92311 -0.163785 17.2817)
(9.47221 -6.55769e-05 10.6502)
(-0.787868 -0.000844138 6.85675)
(3.31104 0.000311315 1.37724)
(-0.649929 -0.0014636 -0.0733326)
(-1.94569 -0.000918644 -2.01037)
(-3.14299 0.000965254 -1.60977)
(-2.85076 0.00117593 -0.553223)
(-1.37681 0.000226946 1.00953)
(-0.228194 -0.000251663 1.34132)
(1.82698 0.000248514 0.912906)
(3.10853 -0.00135894 -0.0294754)
(5.25837 -0.000828599 0.563119)
(4.89416 -0.00375391 -1.79611)
(5.76628 -0.0105188 -2.68724)
(-6.87156 0.00225743 17.3457)
(9.51294 0.0511557 10.5886)
(-0.734972 -0.0844168 6.92726)
(3.28835 -0.152026 1.39179)
(-1.43157 -0.0180227 -0.215832)
(-2.01558 0.179146 -2.01267)
(-3.16028 0.172555 -1.56546)
(-2.81617 0.226703 -0.525972)
(-1.38281 0.213762 0.942849)
(-0.241549 0.172504 1.28584)
(1.84305 0.064826 0.854119)
(3.10759 0.0886261 0.0152318)
(5.23738 0.0735923 0.607999)
(4.89875 0.0437836 -1.79905)
(5.08144 -0.249666 -1.50435)
(-6.92544 0.165538 17.2751)
(9.58193 0.0701321 10.4785)
(-0.642544 -0.114758 7.00051)
(3.25035 -0.0644929 1.46272)
(-1.73201 -0.0778238 -0.167304)
(-2.05211 0.0670944 -1.98964)
(-3.07616 0.266507 -1.52589)
(-2.7041 0.421133 -0.487734)
(-1.38514 0.426543 0.802455)
(-0.276988 0.33048 1.13427)
(1.83059 0.147536 0.779757)
(3.09529 0.11953 0.0801222)
(5.29026 0.114993 0.617494)
(4.93461 0.146173 -1.83514)
(4.26534 -0.21912 -0.647296)
(-6.98564 0.146366 17.2068)
(9.63377 0.067859 10.387)
(-0.599314 -0.111418 7.04734)
(3.26035 0.0113223 1.53368)
(-1.45374 -0.112318 -0.0382479)
(-2.01486 -0.0516381 -1.93141)
(-2.97277 0.282092 -1.52463)
(-2.58376 0.559924 -0.526159)
(-1.38644 0.631209 0.606936)
(-0.329262 0.4955 0.92105)
(1.7716 0.241763 0.720996)
(3.02548 0.0999056 0.161366)
(5.33135 0.101754 0.638587)
(4.91932 0.210866 -1.89141)
(4.27853 -0.166149 -0.511348)
(-7.02261 0.099485 17.1647)
(9.66834 0.0729168 10.3242)
(-0.576804 -0.116812 7.0609)
(3.28745 0.0169038 1.56718)
(-1.19406 -0.128969 0.0868855)
(-1.92249 -0.087993 -1.82956)
(-2.8166 0.307117 -1.47362)
(-2.41892 0.688462 -0.53964)
(-1.37781 0.83486 0.371727)
(-0.389616 0.678295 0.658559)
(1.64829 0.34776 0.707532)
(2.78505 0.0719027 0.365504)
(5.22086 0.0638446 0.773283)
(4.84019 0.251205 -1.90459)
(4.45436 -0.194047 -0.742708)
(-7.04552 0.153438 17.1528)
(9.7214 0.0652595 10.2293)
(-0.542318 -0.101668 7.11131)
(3.31508 0.0376831 1.5989)
(-1.12841 -0.144441 0.125742)
(-1.8656 -0.138934 -1.68553)
(-2.70092 0.273176 -1.37568)
(-2.26317 0.744795 -0.599486)
(-1.3598 0.986219 0.0490454)
(-0.438796 0.858036 0.311612)
(1.51198 0.488154 0.668795)
(2.50686 0.0449936 0.638602)
(4.96397 -0.0389034 1.04444)
(4.48314 0.220657 -1.93169)
(4.13713 -0.149983 -0.0848299)
(-7.13117 0.182007 17.0144)
(9.74321 0.0770802 10.1887)
(-0.53024 -0.118015 7.1107)
(3.34155 0.032368 1.60507)
(-0.840285 -0.182425 0.249535)
(-1.72626 -0.0995471 -1.50012)
(-2.44986 0.379913 -1.10767)
(-1.97147 0.921416 -0.433399)
(-1.2623 1.27327 -0.112686)
(-0.456908 1.18851 0.270952)
(1.23212 0.738119 0.857503)
(1.84627 0.132245 1.24865)
(4.19807 0.00783663 1.66746)
(3.82035 0.19327 -1.85419)
(4.11883 -0.371704 -0.0157282)
(-7.18099 0.264475 16.9578)
(9.83353 0.0543986 10.0236)
(-0.425329 -0.0804955 7.17882)
(3.32536 -0.0105356 1.68655)
(-0.710898 -0.127357 0.419528)
(-1.67595 -0.0342412 -1.38139)
(-2.31157 0.387656 -1.18566)
(-1.82351 0.941739 -0.868339)
(-1.06587 1.34803 -1.01661)
(-0.277563 1.32713 -1.11796)
(1.6365 0.925184 -0.574006)
(2.41504 0.304786 0.359071)
(4.50646 0.054494 1.32094)
(3.72105 0.0532259 -1.96491)
(3.38988 -0.274048 1.92963)
(-7.36058 0.203435 16.5841)
(19.0273 -0.0666737 8.70928)
(9.17909 0.00139962 9.52981)
(9.32394 0.0529016 5.07348)
(7.18506 0.0841947 2.98415)
(4.80862 0.000828309 1.05704)
(2.60803 -0.202835 -0.556765)
(1.04219 -0.554564 -1.39495)
(1.07984 -0.845979 -2.16707)
(1.31451 -0.467479 -3.07484)
(3.21794 -0.42021 -3.04669)
(3.8789 -0.52017 -2.70978)
(5.35301 -0.177911 -1.22625)
(-0.29687 0.131664 1.2881)
(-3.00877 0.294705 10.2076)
(-19.7063 -0.289436 17.4293)
(19.0213 -0.0927772 8.84205)
(9.07199 0.0130658 9.56116)
(9.24992 0.0655501 5.05179)
(7.12703 0.117617 2.91349)
(4.71777 0.090759 0.948691)
(2.22746 -0.0610149 -0.823132)
(0.351471 -0.639589 -1.9112)
(0.306707 -1.02854 -2.46747)
(0.639704 -0.769655 -3.22538)
(3.12998 -0.661921 -2.78397)
(4.03385 -0.63853 -2.47241)
(5.59487 -0.0594776 -1.45501)
(0.438496 0.243299 0.609288)
(-2.49828 0.429631 9.78058)
(-19.6505 -0.376176 17.8791)
(19.0125 -0.0786123 8.87704)
(9.06962 0.0180639 9.57165)
(9.24008 0.0482171 5.06741)
(7.06325 0.0873111 2.91308)
(4.61386 0.13985 0.95603)
(2.26021 0.0900408 -0.729039)
(0.701138 -0.426627 -1.84991)
(0.38382 -0.775369 -2.31439)
(0.797883 -0.485804 -3.17611)
(3.2245 -0.39713 -3.13353)
(4.02862 -0.349035 -2.88189)
(5.3871 0.116929 -1.79906)
(0.659034 0.248219 0.542884)
(-2.49107 0.259786 9.7809)
(-19.6214 -0.275077 17.956)
(18.9983 -0.0917157 8.95889)
(9.04528 0.0174769 9.58139)
(9.2044 0.0616431 5.05532)
(7.01272 0.0926138 2.89212)
(4.57273 0.0922236 0.942084)
(2.27184 0.00125618 -0.684869)
(0.638954 -0.445307 -1.88839)
(0.0790593 -0.72106 -2.28558)
(0.664807 -0.362019 -2.9914)
(3.19289 -0.255901 -3.14292)
(4.06259 -0.377221 -3.01955)
(5.32602 -0.0151839 -2.00377)
(1.00121 0.189479 0.344285)
(-2.39368 0.231244 9.6766)
(-19.5718 -0.276841 18.1352)
(18.9876 -0.086941 9.01418)
(9.03241 0.0179879 9.59667)
(9.18134 0.0599363 5.06454)
(6.92523 0.0744207 2.88267)
(4.399 0.03411 0.902618)
(1.98137 -0.0291911 -0.736303)
(0.352386 -0.310008 -2.03982)
(-0.209303 -0.508614 -2.36556)
(0.528757 -0.215219 -2.90798)
(3.17909 -0.111976 -3.19622)
(4.1285 -0.301571 -3.14142)
(5.36775 -0.0565855 -2.16422)
(1.15853 0.121249 0.270533)
(-2.42914 0.153266 9.70697)
(-19.546 -0.210007 18.1769)
(18.9769 -0.103114 9.09381)
(9.00059 0.00952682 9.61148)
(9.14536 0.0730538 5.05063)
(6.84465 0.0671781 2.85002)
(4.28891 -0.0107068 0.851162)
(1.79526 -0.0750398 -0.804835)
(0.0679869 -0.249927 -2.18575)
(-0.57174 -0.373261 -2.42678)
(0.361188 -0.129116 -2.79643)
(3.11031 -0.00642602 -3.09952)
(4.20169 -0.312904 -3.17588)
(5.44765 -0.152118 -2.31495)
(1.37726 0.0917202 0.0530281)
(-2.39267 0.209177 9.66013)
(-19.5292 -0.240644 18.2697)
(18.9796 -0.0922865 9.19777)
(8.81331 -0.00266054 9.62976)
(8.97583 0.0720724 4.98469)
(6.72997 0.0412282 2.75818)
(4.1271 -0.0359968 0.723625)
(1.47746 -0.0623182 -1.01174)
(-0.289237 -0.12137 -2.39269)
(-0.850369 -0.192706 -2.43921)
(0.174236 -0.0770314 -2.72039)
(2.98023 0.0312654 -2.92478)
(4.39049 -0.220117 -3.30467)
(5.57415 -0.148832 -2.52245)
(1.74915 0.0777264 -0.594999)
(-1.94886 0.223152 9.2988)
(-19.5457 -0.23702 18.4638)
(18.9839 -0.00145342 9.25794)
(8.67172 -0.00116576 9.6268)
(8.83749 -0.000897531 4.90974)
(6.73066 -0.000875287 2.68447)
(4.15506 -0.000514322 0.663253)
(1.47809 0.000218347 -1.09463)
(-0.309261 0.00110739 -2.46423)
(-0.938225 0.000792764 -2.4594)
(0.110797 -0.000465661 -2.70391)
(2.87878 -0.000733715 -2.79714)
(4.53366 -0.00104141 -3.43734)
(5.64491 -0.0022897 -2.65691)
(2.00193 -0.0044057 -1.12247)
(-1.38971 -0.0102774 8.90931)
(-19.5626 -0.000122704 18.6269)
(18.9792 0.0904572 9.19479)
(8.81293 0.000859645 9.62953)
(8.97514 -0.073428 4.98483)
(6.72972 -0.0426206 2.75835)
(4.12654 0.0349493 0.72384)
(1.47717 0.0626398 -1.01155)
(-0.289398 0.123446 -2.39189)
(-0.848195 0.193015 -2.44233)
(0.175547 0.0750094 -2.72545)
(2.9797 -0.0338027 -2.92483)
(4.39095 0.217738 -3.3055)
(5.57571 0.145267 -2.52299)
(1.74426 -0.0842987 -0.590421)
(-1.95342 -0.233467 9.30486)
(-19.5457 0.236143 18.4552)
(18.9763 0.102231 9.09114)
(9.00094 -0.010899 9.61155)
(9.14542 -0.0740752 5.05092)
(6.84509 -0.0681878 2.85024)
(4.28931 0.00975883 0.851546)
(1.79609 0.0750493 -0.804305)
(0.0696567 0.251364 -2.18529)
(-0.568178 0.37258 -2.43083)
(0.363478 0.126424 -2.80281)
(3.11081 0.00304893 -3.10235)
(4.20171 0.310419 -3.17738)
(5.44864 0.14949 -2.31537)
(1.37313 -0.095958 0.0571425)
(-2.39562 -0.211574 9.66448)
(-19.5287 0.239493 18.2626)
(18.9869 0.0861545 9.0111)
(9.03328 -0.0191145 9.59655)
(9.18195 -0.0608292 5.06491)
(6.92624 -0.0751299 2.88303)
(4.40033 -0.0346155 0.903205)
(1.98326 0.0291078 -0.735525)
(0.355584 0.310625 -2.03955)
(-0.204078 0.507089 -2.36964)
(0.531618 0.212319 -2.91398)
(3.18022 0.108297 -3.20207)
(4.12851 0.299019 -3.1444)
(5.36814 0.0539766 -2.16483)
(1.1525 -0.124386 0.275894)
(-2.43334 -0.154237 9.71096)
(-19.5452 0.209361 18.1696)
(18.9975 0.0911947 8.95578)
(9.04639 -0.0182231 9.58126)
(9.20531 -0.0623513 5.0557)
(7.01422 -0.0930536 2.89244)
(4.57479 -0.0923799 0.942671)
(2.27452 -0.00149563 -0.684218)
(0.642654 0.445136 -1.88875)
(0.0846325 0.719179 -2.2903)
(0.668096 0.359141 -2.99795)
(3.19445 0.252164 -3.15079)
(4.0626 0.375025 -3.0234)
(5.32498 0.0126988 -2.00338)
(0.993698 -0.191261 0.350778)
(-2.39871 -0.230514 9.68086)
(-19.5709 0.276293 18.1283)
(19.0115 0.078222 8.87386)
(9.07103 -0.0186408 9.57131)
(9.24139 -0.0488146 5.0677)
(7.06546 -0.0875958 2.91336)
(4.61697 -0.139675 0.956658)
(2.26438 -0.0900066 -0.728451)
(0.705751 0.425836 -1.85069)
(0.389645 0.773392 -2.31951)
(0.801387 0.482755 -3.18299)
(3.22663 0.393887 -3.14148)
(4.02874 0.347211 -2.88557)
(5.38506 -0.119022 -1.79726)
(0.65031 -0.249331 0.549952)
(-2.49696 -0.258689 9.78508)
(-19.6203 0.274638 17.9494)
(19.0203 0.0924768 8.83888)
(9.0736 -0.0134934 9.56076)
(9.25148 -0.0660729 5.05207)
(7.12963 -0.117847 2.91379)
(4.72145 -0.0906656 0.949396)
(2.23293 0.0610957 -0.82252)
(0.357051 0.638712 -1.91204)
(0.312041 1.02636 -2.47277)
(0.643562 0.765287 -3.23219)
(3.13274 0.658742 -2.7918)
(4.03438 0.637735 -2.47622)
(5.59268 0.0583552 -1.45322)
(0.428844 -0.243564 0.616664)
(-2.50478 -0.428004 9.78494)
(-19.6494 0.37561 17.8727)
(19.0262 0.0665133 8.70612)
(9.18082 -0.00162727 9.52923)
(9.32577 -0.0532165 5.07359)
(7.1881 -0.0843693 2.98427)
(4.81293 -0.000933239 1.05752)
(2.61401 0.202848 -0.556643)
(1.04824 0.554368 -1.39648)
(1.08581 0.844511 -2.1713)
(1.31943 0.462519 -3.08101)
(3.21969 0.417271 -3.05306)
(3.87782 0.519032 -2.71286)
(5.34913 0.177215 -1.22357)
(-0.306573 -0.131633 1.2952)
(-3.01484 -0.293766 10.2111)
(-19.7052 0.288968 17.4234)
(19.7479 -0.0120379 4.03264)
(13.5769 -0.0522043 8.10864)
(13.4234 -0.0323534 6.25856)
(13.2256 -0.0339892 4.9294)
(11.0478 -0.139306 3.31968)
(8.80132 -0.339257 1.96128)
(6.31277 -0.596124 0.927728)
(4.36409 -0.509651 -0.700091)
(2.70688 0.508959 -2.19527)
(2.11901 -0.0511686 -3.35254)
(-0.631202 -0.681975 -0.2062)
(-5.8045 -0.250818 4.61884)
(-10.6325 0.0364244 8.34758)
(-12.1823 -0.00424958 13.168)
(-24.2513 -0.148021 12.2952)
(19.7757 -0.0172146 4.08629)
(13.5833 -0.0631928 8.16932)
(13.4075 -0.0355535 6.28197)
(13.196 -0.0347826 4.92117)
(10.9545 -0.0835599 3.29906)
(8.54993 -0.140428 1.88832)
(5.8349 -0.32602 0.730403)
(3.4067 -0.27903 -0.930386)
(2.26746 0.322801 -2.82162)
(2.64203 -0.078299 -3.70186)
(0.526872 -0.556925 -1.22221)
(-5.28559 -0.173123 4.21229)
(-10.35 0.0966131 8.14321)
(-12.0893 0.0163038 13.2355)
(-24.3434 -0.19115 12.6004)
(19.7745 -0.0149815 4.10334)
(13.5929 -0.0486108 8.18101)
(13.4288 -0.0316691 6.29574)
(13.1968 -0.0332271 4.94458)
(10.9448 -0.0376465 3.34475)
(8.6548 -0.0244479 1.97311)
(6.28732 -0.134536 0.807549)
(3.89429 -0.168288 -0.676726)
(2.62912 -0.00603074 -3.12165)
(2.39288 -0.288006 -4.05491)
(0.227434 -0.298406 -1.18941)
(-5.40384 -0.0300229 4.1949)
(-10.3283 0.0823464 8.14046)
(-12.1221 -0.00448494 13.2364)
(-24.3381 -0.146784 12.6482)
(19.783 -0.0174245 4.14114)
(13.6083 -0.0570005 8.21312)
(13.4382 -0.0345505 6.3079)
(13.1775 -0.0377801 4.94138)
(10.9054 -0.0534036 3.34671)
(8.64278 -0.0416159 2.00738)
(6.38689 -0.0792232 0.868474)
(4.02275 -0.00965843 -0.446677)
(2.79189 0.239202 -2.89595)
(2.31572 -0.0808321 -4.14735)
(0.313758 -0.35296 -1.42323)
(-5.33364 -0.150136 4.05719)
(-10.2325 0.0491964 8.06945)
(-12.1479 -0.026676 13.2614)
(-24.3522 -0.161543 12.7817)
(19.7842 -0.0151584 4.16823)
(13.6246 -0.0513789 8.23639)
(13.4623 -0.0261742 6.33139)
(13.1858 -0.0296982 4.97192)
(10.8704 -0.0354547 3.38475)
(8.5467 0.00586823 2.05204)
(6.30091 0.0171834 0.887165)
(3.9502 0.0524868 -0.400271)
(2.76526 0.254531 -2.73217)
(2.37246 -0.0432801 -4.18306)
(0.604489 -0.260147 -1.68756)
(-5.21747 -0.19543 3.96826)
(-10.1885 0.0219684 8.05941)
(-12.1875 -0.0353248 13.2846)
(-24.3498 -0.126944 12.8272)
(19.7933 -0.017003 4.20334)
(13.6455 -0.0611858 8.2682)
(13.4762 -0.0276404 6.34896)
(13.1754 -0.0284996 4.97948)
(10.8187 -0.0360953 3.38658)
(8.45917 -0.00538967 2.05424)
(6.21669 0.0219232 0.898989)
(3.877 0.0600248 -0.321899)
(2.69594 0.320236 -2.55843)
(2.45864 0.0910311 -4.1341)
(1.04959 -0.248406 -2.10713)
(-4.97823 -0.267554 3.77754)
(-10.092 0.0285181 7.98681)
(-12.213 -0.0256626 13.3151)
(-24.3769 -0.142018 12.9148)
(19.8372 -0.0200064 4.25412)
(13.6183 -0.0576751 8.33576)
(13.3808 -0.0217338 6.37674)
(13.0114 -0.0144481 4.97363)
(10.5681 -0.0136722 3.34482)
(8.11856 0.0125007 1.97995)
(5.82286 0.0402567 0.805781)
(3.51482 0.0432233 -0.426355)
(2.42056 0.252683 -2.56583)
(2.73189 0.131129 -4.1211)
(2.16593 -0.110548 -3.06245)
(-4.2563 -0.21834 3.27411)
(-9.65834 0.0502419 7.70901)
(-11.9141 -0.00978624 13.313)
(-24.5138 -0.148401 13.1039)
(19.8731 -0.0034962 4.28666)
(13.5763 -0.00148324 8.37975)
(13.2738 -0.000836366 6.3751)
(12.8519 -0.000544243 4.93391)
(10.3793 -0.000333426 3.27514)
(7.91353 -0.000357988 1.89276)
(5.62085 -0.000414751 0.719975)
(3.34757 -7.08117e-06 -0.509709)
(2.27223 -0.00085859 -2.60446)
(2.90327 -0.00148236 -4.12192)
(2.87576 0.000772883 -3.68788)
(-3.71337 -0.00155549 2.85014)
(-9.28701 -0.00343604 7.44402)
(-11.5984 -0.00515834 13.2721)
(-24.6318 -0.00691769 13.2617)
(19.835 0.0163579 4.25352)
(13.6136 0.0556186 8.3351)
(13.3763 0.0198811 6.37596)
(13.0082 0.012783 4.97306)
(10.5661 0.0123472 3.34441)
(8.11747 -0.0137007 1.97964)
(5.82268 -0.0413492 0.805597)
(3.51611 -0.044356 -0.425727)
(2.42177 -0.255774 -2.56273)
(2.73129 -0.135188 -4.11685)
(2.17178 0.110123 -3.06557)
(-4.24802 0.215431 3.27188)
(-9.65094 -0.0558606 7.7079)
(-11.9068 0.00385722 13.3105)
(-24.5102 0.1425 13.0939)
(19.7918 0.015751 4.20284)
(13.6447 0.0593528 8.2676)
(13.475 0.0256111 6.3485)
(13.1748 0.0265508 4.97909)
(10.8187 0.0344684 3.3862)
(8.45958 0.00401567 2.05373)
(6.21797 -0.0231536 0.898222)
(3.87958 -0.0622448 -0.322426)
(2.69749 -0.324746 -2.55708)
(2.45832 -0.0957525 -4.13121)
(1.0513 0.246859 -2.10772)
(-4.97542 0.26461 3.77791)
(-10.0895 -0.0329715 7.98782)
(-12.212 0.022588 13.3153)
(-24.3748 0.14198 12.9085)
(19.7821 0.0136245 4.16716)
(13.6248 0.0495064 8.23538)
(13.4623 0.0244975 6.33078)
(13.1863 0.0281694 4.97154)
(10.8712 0.0341201 3.38438)
(8.54789 -0.00708748 2.05131)
(6.30332 -0.0183903 0.885756)
(3.95441 -0.0549679 -0.402155)
(2.76764 -0.260075 -2.73141)
(2.37282 0.0386448 -4.18257)
(0.604629 0.258235 -1.68793)
(-5.21826 0.192864 3.97028)
(-10.1896 -0.0254072 8.06158)
(-12.1892 0.0326783 13.2844)
(-24.3468 0.12591 12.8199)
(19.7808 0.0166355 4.13971)
(13.6085 0.0555873 8.21207)
(13.4382 0.0330868 6.30717)
(13.1781 0.0363993 4.94074)
(10.9067 0.0521312 3.34605)
(8.64466 0.0403165 2.00632)
(6.39006 0.0777543 0.866554)
(4.02786 0.00657405 -0.450105)
(2.79478 -0.244773 -2.89615)
(2.31557 0.0758677 -4.14948)
(0.311254 0.35082 -1.42271)
(-5.33697 0.14793 4.05991)
(-10.2349 -0.0513387 8.07197)
(-12.1503 0.0257106 13.2615)
(-24.3491 0.161219 12.7748)
(19.7723 0.0144911 4.1016)
(13.5929 0.0474072 8.17965)
(13.4288 0.0303835 6.2947)
(13.1977 0.032088 4.94364)
(10.9466 0.0366597 3.34383)
(8.65738 0.0233779 1.97176)
(6.29095 0.133255 0.805172)
(3.89935 0.165872 -0.681583)
(2.63162 1.03437e-05 -3.12108)
(2.39306 0.283951 -4.05688)
(0.22291 0.296479 -1.18773)
(-5.40925 0.0284908 4.19814)
(-10.332 -0.0838656 8.14285)
(-12.1248 0.00373349 13.2359)
(-24.3346 0.146294 12.6411)
(19.7735 0.0169072 4.08425)
(13.5835 0.0622772 8.16777)
(13.4076 0.0344397 6.2808)
(13.197 0.0337148 4.92007)
(10.9565 0.0825565 3.29797)
(8.55312 0.139382 1.88677)
(5.83908 0.324738 0.727772)
(3.4126 0.27591 -0.935285)
(2.27178 -0.329746 -2.82012)
(2.6422 0.0736277 -3.70367)
(0.520045 0.555888 -1.21956)
(-5.29255 0.172312 4.21594)
(-10.3544 -0.0973515 8.14566)
(-12.0923 -0.0164481 13.2348)
(-24.3398 0.190762 12.5933)
(19.7456 0.0118626 4.03043)
(13.5771 0.0516638 8.10678)
(13.4237 0.0316683 6.25707)
(13.2269 0.0333087 4.92797)
(11.0501 0.138579 3.31823)
(8.80468 0.338482 1.95934)
(6.31707 0.595343 0.92449)
(4.36946 0.507774 -0.705564)
(2.70787 -0.514211 -2.19649)
(2.11442 0.0502662 -3.35496)
(-0.642022 0.681388 -0.201359)
(-5.81295 0.250193 4.62233)
(-10.6373 -0.0367525 8.34954)
(-12.1854 0.0041799 13.1669)
(-24.2476 0.147703 12.2883)
(20.0023 0.00281548 2.17083)
(12.95 -0.0323976 6.09779)
(12.7678 -0.0488249 6.16601)
(14.0239 -0.0706438 5.88853)
(12.5607 -0.20536 4.97515)
(10.6844 -0.529284 3.97052)
(8.15037 -0.907958 2.97373)
(5.37625 -0.331644 1.20428)
(2.12607 1.04195 -0.0284005)
(-2.11631 -0.924577 0.983783)
(-7.23347 -0.783059 5.12411)
(-12.0321 -0.377388 8.90871)
(-13.8708 -0.14394 10.9813)
(-13.7277 -0.132968 11.9298)
(-24.7031 -0.0379131 7.11406)
(19.9982 0.00536565 2.16704)
(12.9782 -0.0322997 6.12586)
(12.7973 -0.0518558 6.1953)
(14.0452 -0.0789024 5.91782)
(12.5349 -0.155737 5.01826)
(10.5501 -0.292231 3.97439)
(7.76073 -0.565408 2.87729)
(4.58575 -0.110925 1.00746)
(2.4525 0.989563 -0.858805)
(-0.589993 -0.780647 0.0569575)
(-6.4254 -0.654901 4.55664)
(-11.7858 -0.389566 8.8024)
(-13.8479 -0.166801 10.9786)
(-13.803 -0.160733 12.0173)
(-24.7434 -0.0565379 7.18281)
(19.9957 0.00525956 2.16828)
(12.9958 -0.0241795 6.13265)
(12.8345 -0.0433107 6.2011)
(14.0869 -0.0674863 5.93418)
(12.5972 -0.109044 5.05718)
(10.7412 -0.136034 4.03815)
(8.36218 -0.31581 2.94604)
(5.11976 -0.158734 1.22209)
(2.98935 0.321749 -1.40514)
(-0.969838 -0.760861 -0.0291849)
(-6.62463 -0.415349 4.6477)
(-11.8412 -0.282818 8.83008)
(-13.8962 -0.144076 10.9699)
(-13.8367 -0.130441 12.0138)
(-24.7334 -0.0584163 7.18655)
(19.9919 0.00615567 2.16591)
(13.0143 -0.0259008 6.15058)
(12.8628 -0.0482841 6.22088)
(14.1019 -0.0795208 5.95441)
(12.5901 -0.126391 5.08438)
(10.7439 -0.145181 4.07526)
(8.54157 -0.183372 3.0028)
(5.47283 0.0420528 1.49588)
(3.3231 0.460618 -1.37765)
(-0.835567 -0.541865 -0.324243)
(-6.48739 -0.451643 4.51143)
(-11.7667 -0.35046 8.7812)
(-13.8915 -0.164963 10.9521)
(-13.873 -0.145908 12.0385)
(-24.7337 -0.0696975 7.21044)
(19.9863 0.00497703 2.16574)
(13.0391 -0.0235019 6.1626)
(12.9111 -0.0409027 6.23532)
(14.1633 -0.0659076 5.98221)
(12.6609 -0.0900779 5.13071)
(10.7859 -0.0693959 4.13016)
(8.59266 -0.0647737 3.02728)
(5.61587 0.0675967 1.59639)
(3.46981 0.443966 -1.26301)
(-0.524966 -0.346675 -0.643557)
(-6.3089 -0.304599 4.39416)
(-11.761 -0.300832 8.78818)
(-13.9369 -0.143444 10.9623)
(-13.9211 -0.126572 12.0499)
(-24.7132 -0.0567597 7.20869)
(19.9817 0.0068874 2.16345)
(13.0549 -0.0288867 6.17888)
(12.9399 -0.0495454 6.2524)
(14.1881 -0.0769558 6.00336)
(12.6631 -0.0932741 5.15486)
(10.767 -0.0675635 4.15242)
(8.61136 -0.0184695 3.05108)
(5.7277 0.119605 1.69665)
(3.5563 0.569536 -1.0928)
(-0.0812316 -0.12668 -1.01675)
(-5.98793 -0.261521 4.15507)
(-11.6436 -0.292534 8.73095)
(-13.9557 -0.136384 10.9578)
(-13.9872 -0.137231 12.0778)
(-24.7113 -0.0460793 7.22572)
(19.9809 0.00480049 2.16244)
(13.1033 -0.0303822 6.2114)
(12.9644 -0.0453859 6.29202)
(14.1459 -0.0581997 6.04601)
(12.5165 -0.0525143 5.18517)
(10.5188 -0.0159595 4.1547)
(8.31537 0.034582 3.01695)
(5.5201 0.111872 1.65005)
(3.45283 0.513344 -0.982934)
(1.16472 0.0778052 -1.77585)
(-4.9987 -0.122053 3.53393)
(-11.1221 -0.181353 8.53135)
(-13.7429 -0.0788361 10.9392)
(-13.9636 -0.126124 12.1735)
(-24.8075 -0.0604169 7.29108)
(19.985 -0.000925207 2.15973)
(13.1155 -0.00218141 6.2358)
(12.9376 -0.0016314 6.31851)
(14.0514 -0.000893512 6.06062)
(12.3363 -0.00038176 5.17321)
(10.2872 -0.000519002 4.11415)
(8.09321 -0.00117862 2.96441)
(5.38298 -0.00210194 1.59624)
(3.36102 -0.00451919 -0.921091)
(2.01064 -0.00180348 -2.26669)
(-4.21666 0.0015626 3.01714)
(-10.6437 0.000813069 8.31198)
(-13.473 -0.000177145 10.8861)
(-13.8465 -0.00389225 12.2315)
(-24.8933 -0.0144279 7.33549)
(19.9826 -0.00614477 2.16304)
(13.1011 0.027852 6.2106)
(12.96 0.0426134 6.29147)
(14.1417 0.0555807 6.04575)
(12.5135 0.0504312 5.18498)
(10.5174 0.013929 4.15426)
(8.31491 -0.0373152 3.01634)
(5.52041 -0.116177 1.64996)
(3.4522 -0.521746 -0.980406)
(1.16679 -0.0827515 -1.77739)
(-4.98909 0.121447 3.53068)
(-11.109 0.179317 8.53019)
(-13.7241 0.0751014 10.9384)
(-13.9413 0.122365 12.1689)
(-24.7989 0.0520732 7.27884)
(19.9823 -0.00865637 2.16345)
(13.056 0.0272045 6.17774)
(12.9399 0.04697 6.25139)
(14.1879 0.0739694 6.00242)
(12.6631 0.0905342 5.1541)
(10.7673 0.0650685 4.15146)
(8.61217 0.0156854 3.04945)
(5.72862 -0.123535 1.69495)
(3.556 -0.577529 -1.0921)
(-0.0815181 0.120992 -1.01914)
(-5.98596 0.258309 4.1545)
(-11.6401 0.288092 8.7309)
(-13.9505 0.130328 10.9572)
(-13.9846 0.134152 12.0762)
(-24.7101 0.0500655 7.22264)
(19.9861 -0.00718566 2.16368)
(13.0409 0.0217326 6.1607)
(12.9122 0.0387247 6.23405)
(14.1642 0.0635588 5.98113)
(12.6617 0.0878278 5.1298)
(10.7865 0.0671491 4.12886)
(8.59392 0.0622356 3.02476)
(5.61709 -0.0711511 1.5935)
(3.47017 -0.452032 -1.26271)
(-0.523564 0.341746 -0.646382)
(-6.30899 0.30159 4.39425)
(-11.7613 0.297569 8.78922)
(-13.9365 0.139366 10.9618)
(-13.9228 0.123281 12.0469)
(-24.7103 0.0551788 7.204)
(19.9912 -0.00788878 2.16297)
(13.0162 0.0243899 6.14847)
(12.8639 0.0464054 6.21955)
(14.1028 0.0773369 5.95306)
(12.5911 0.124156 5.08303)
(10.7447 0.14286 4.0734)
(8.54313 0.18083 2.99967)
(5.47398 -0.0455611 1.49171)
(3.32343 -0.468158 -1.37801)
(-0.836238 0.537263 -0.326147)
(-6.48983 0.448571 4.51176)
(-11.7685 0.347421 8.7819)
(-13.8914 0.161911 10.9515)
(-13.8749 0.144565 12.0364)
(-24.7309 0.0694938 7.20611)
(19.9947 -0.0068184 2.1656)
(12.9969 0.0225334 6.13027)
(12.835 0.0416556 6.19918)
(14.0876 0.0657938 5.93228)
(12.5982 0.107319 5.05538)
(10.7422 0.134073 4.03583)
(8.36375 0.313822 2.94236)
(5.12088 0.15553 1.21683)
(2.98916 -0.329892 -1.4053)
(-0.972223 0.757003 -0.0305728)
(-6.62874 0.412756 4.64834)
(-11.8441 0.280534 8.83045)
(-13.8965 0.141631 10.9686)
(-13.8381 0.1287 12.0111)
(-24.73 0.0575281 7.18175)
(19.9969 -0.00658262 2.16435)
(12.9788 0.0308282 6.12339)
(12.7971 0.0503546 6.19317)
(14.0454 0.0773333 5.91563)
(12.5357 0.154073 5.01613)
(10.5512 0.290363 3.97174)
(7.76234 0.563358 2.8732)
(4.58812 0.107352 1.002)
(2.45195 -0.996097 -0.859722)
(-0.594335 0.777691 0.0555209)
(-6.43084 0.652698 4.5575)
(-11.7893 0.387624 8.80254)
(-13.8482 0.164982 10.9772)
(-13.8043 0.159591 12.0147)
(-24.74 0.0560775 7.17798)
(20.0008 -0.00334479 2.16814)
(12.9501 0.0314902 6.09513)
(12.7672 0.047812 6.16351)
(14.0238 0.0695845 5.88588)
(12.5613 0.204175 4.97255)
(10.6852 0.527896 3.96739)
(8.15178 0.906507 2.96908)
(5.37697 0.329208 1.19828)
(2.12259 -1.04557 -0.0299657)
(-2.12431 0.923396 0.983935)
(-7.24016 0.781407 5.12482)
(-12.036 0.375995 8.90803)
(-13.8711 0.142767 10.9792)
(-13.7286 0.132096 11.9267)
(-24.6997 0.0375482 7.10924)
(21.2689 -0.00479236 2.48266)
(12.1158 -0.0194974 5.14549)
(11.0653 -0.0273272 5.76081)
(12.8545 -0.0440417 6.17334)
(11.7781 -0.207574 6.02187)
(10.3319 -0.648035 5.72836)
(8.01848 -1.10404 5.33937)
(5.03112 0.121575 4.48917)
(0.737315 1.04894 4.27146)
(-4.18617 -1.30509 5.74957)
(-8.45367 -1.01387 9.06225)
(-12.1221 -0.452905 11.5549)
(-12.2831 -0.204469 12.207)
(-11.4565 -0.135035 10.9431)
(-26.6496 -0.0373946 6.78636)
(21.2642 -0.00459043 2.47594)
(12.1107 -0.00695932 5.14533)
(11.0732 -0.0152706 5.77198)
(12.8812 -0.0382383 6.20866)
(11.7939 -0.139046 6.08825)
(10.2973 -0.37422 5.76902)
(7.7177 -0.769362 5.32055)
(4.49772 0.234915 4.2527)
(1.61872 1.1134 3.31191)
(-2.70762 -1.20861 4.94872)
(-7.94632 -0.872554 8.83418)
(-12.0171 -0.483986 11.6106)
(-12.2969 -0.245403 12.2461)
(-11.4955 -0.146851 10.9585)
(-26.6312 -0.0566664 6.73993)
(21.2602 -0.00393767 2.47486)
(12.1326 -0.00196084 5.14666)
(11.116 -0.010742 5.76974)
(12.934 -0.0312182 6.20955)
(11.8797 -0.0961055 6.10349)
(10.5298 -0.182437 5.78613)
(8.39682 -0.487839 5.34891)
(4.87933 -0.0189066 4.27945)
(2.2366 0.345941 2.60425)
(-3.21248 -1.05754 4.95632)
(-8.18012 -0.565966 8.93477)
(-12.0843 -0.375086 11.6368)
(-12.3722 -0.208338 12.2283)
(-11.5629 -0.116487 10.9592)
(-26.6155 -0.0697119 6.72688)
(21.2584 -0.00592915 2.46936)
(12.1221 0.00200293 5.14795)
(11.1159 -0.00859947 5.7808)
(12.9401 -0.038961 6.23477)
(11.8817 -0.110227 6.14231)
(10.5538 -0.181713 5.81847)
(8.66451 -0.279919 5.38339)
(5.38677 0.12069 4.45114)
(2.60823 0.423617 2.41896)
(-3.1726 -0.737947 4.72321)
(-8.06797 -0.587515 8.89602)
(-12.0224 -0.428603 11.659)
(-12.3519 -0.224085 12.2388)
(-11.5412 -0.122218 10.9608)
(-26.597 -0.088023 6.68325)
(21.2498 -0.00509046 2.46646)
(12.1337 0.0068034 5.14943)
(11.1573 -0.00496452 5.78214)
(13.0086 -0.0319738 6.24349)
(11.9895 -0.0765276 6.17006)
(10.6596 -0.0935366 5.85629)
(8.79916 -0.137821 5.40181)
(5.69638 0.0936349 4.53497)
(2.86953 0.322868 2.35923)
(-2.98799 -0.451192 4.45376)
(-8.03533 -0.409599 8.87859)
(-12.1061 -0.351289 11.6967)
(-12.4309 -0.191745 12.239)
(-11.6006 -0.092597 10.9641)
(-26.5491 -0.0680127 6.6531)
(21.2432 0.00228995 2.46013)
(12.1306 0.00775834 5.15088)
(11.1752 -0.0172419 5.78716)
(13.0405 -0.0545903 6.25868)
(12.02 -0.0916475 6.19908)
(10.6907 -0.092029 5.8863)
(8.89712 -0.0658697 5.42554)
(5.93322 0.15077 4.61339)
(3.10025 0.445789 2.42646)
(-2.65125 -0.15527 4.14578)
(-7.86985 -0.359735 8.78373)
(-12.0891 -0.336697 11.7155)
(-12.4992 -0.194763 12.2462)
(-11.6891 -0.103652 10.9664)
(-26.5077 -0.0324817 6.63304)
(21.2309 0.0030403 2.45539)
(12.1849 -0.00048298 5.15416)
(11.2403 -0.0241819 5.80181)
(13.071 -0.0503327 6.29582)
(11.975 -0.0591513 6.25421)
(10.5624 -0.0326713 5.93651)
(8.73881 0.00517159 5.43986)
(5.8618 0.134709 4.61127)
(3.26572 0.420514 2.45691)
(-1.45736 0.0928013 3.49709)
(-7.1667 -0.177653 8.46656)
(-11.7996 -0.197635 11.7227)
(-12.439 -0.123993 12.3192)
(-11.796 -0.116542 11.0325)
(-26.5409 -0.0558898 6.62488)
(21.2278 -0.00212611 2.45086)
(12.1813 -0.00375759 5.15792)
(11.2243 -0.00227503 5.81947)
(13.0189 -0.00106044 6.32796)
(11.8485 -0.000335062 6.28519)