/*--------------------------------*- C++ -*----------------------------------*\
| =========                 |                                                 |
| \\      /  F ield         | OpenFOAM: The Open Source CFD Toolbox           |
|  \\    /   O peration     | Version:  4.1                                   |
|   \\  /    A nd           | Web:      www.OpenFOAM.org                      |
|    \\/     M anipulation  |                                                 |
\*---------------------------------------------------------------------------*/
FoamFile
{
    version     2.0;
    format      ascii;
    class       volScalarField;
    location    "15";
    object      epsilon;
}
// * * * * * * * * * * * * * * * * * * * * * * * * * * * * * * * * * * * * * //

dimensions      [0 2 -3 0 0 0 0];

internalField   nonuniform List<scalar> 
204246
(
2.88494
3.08941
3.10019
3.11383
3.12541
3.13731
3.14643
3.15768
3.16621
3.17731
3.18569
3.19667
3.204
3.21756
3.22604
3.23918
3.24807
3.25022
3.27587
3.27821
3.29479
3.30353
3.31547
3.32669
3.33849
3.34954
3.36158
3.37188
3.38693
3.39849
3.41331
3.4257
3.44097
3.45402
3.46796
3.4835
3.48717
3.51791
3.52234
3.5425
3.55556
3.57003
3.58515
3.5998
3.61387
3.63171
3.64712
3.66463
3.68091
3.69695
3.71462
3.73058
3.74789
3.75323
3.78867
3.79446
3.81894
3.83337
3.85236
3.86984
3.88697
3.90442
3.92506
3.94405
3.96444
3.98453
4.00342
4.02535
4.04423
4.06599
4.07351
4.11236
4.12224
4.15212
4.16777
4.19356
4.21338
4.23656
4.25722
4.28295
4.30716
4.33185
4.35761
4.38082
4.40911
4.4324
4.4608
4.47181
4.51949
4.53252
4.57114
4.59008
4.62508
4.64549
4.68313
4.7106
4.74163
4.77402
4.80511
4.83839
4.86796
4.90543
4.93513
4.97292
5.00361
5.04091
5.06219
5.12241
5.1398
5.19378
5.21357
5.27052
5.2975
5.3466
5.38526
5.42782
5.46881
5.51204
5.55606
5.5994
5.64759
5.69054
5.74146
5.76884
5.84923
5.87073
5.94544
5.97267
6.04536
6.07856
6.14919
6.18615
6.2565
6.29672
6.36764
6.4108
6.48175
6.52785
6.59993
6.64879
6.7024
6.78858
6.8289
6.91338
6.95617
7.04143
7.08508
7.17229
7.21648
7.3057
7.35005
7.44128
7.48531
7.57881
7.62259
7.7187
7.76221
7.83668
7.92399
7.97685
8.06504
8.11614
8.20712
8.25591
8.34987
8.39587
8.49402
8.53631
8.63911
8.67843
8.78777
8.82327
8.9411
8.97387
9.10472
9.13177
9.25111
9.34197
9.42414
9.5418
9.61943
9.76588
9.84797
10.0272
10.1252
10.3426
10.4709
10.7321
10.9051
11.1863
11.3665
11.5204
11.5403
0.432913
0.686943
0.696725
0.698116
0.707532
0.702744
0.711523
0.708009
0.716674
0.712927
0.721911
0.718376
0.727177
0.722024
0.731404
0.725396
0.735998
0.731193
0.730571
0.740821
0.735622
0.745644
0.739979
0.749896
0.746719
0.757204
0.75425
0.764737
0.760045
0.771392
0.765898
0.777237
0.771535
0.783307
0.777866
0.791227
0.789922
0.789589
0.802488
0.797593
0.810028
0.807232
0.820124
0.817394
0.830188
0.825559
0.839327
0.833981
0.847982
0.842689
0.856457
0.853688
0.869442
0.868243
0.86936
0.884319
0.879583
0.894596
0.892157
0.907715
0.905378
0.920909
0.916595
0.933235
0.928217
0.945218
0.940316
0.957184
0.954997
0.974162
0.973723
0.978429
0.995057
0.993771
1.01278
1.01122
1.03078
1.02912
1.0497
1.04679
1.06812
1.06391
1.08591
1.08192
1.10403
1.103
1.12842
1.12988
1.13942
1.1603
1.16072
1.18583
1.18565
1.21244
1.21098
1.23895
1.23626
1.26453
1.26138
1.29161
1.28961
1.32036
1.32196
1.35334
1.35511
1.38959
1.39133
1.41692
1.44263
1.44664
1.48248
1.48396
1.52239
1.52229
1.56266
1.5628
1.60598
1.60936
1.6536
1.65805
1.70275
1.70663
1.7576
1.7655
1.79887
1.83818
1.84516
1.89872
1.90698
1.9613
1.96915
2.0278
2.03748
2.0985
2.10927
2.17342
2.18518
2.25252
2.26568
2.33949
2.35661
2.40699
2.46733
2.48318
2.5614
2.579
2.66022
2.67865
2.76336
2.78297
2.87149
2.89255
2.98267
3.00379
3.09784
3.1204
3.2231
3.25033
3.31746
3.40134
3.42543
3.52575
3.54939
3.65032
3.67391
3.7736
3.79637
3.89416
3.91532
4.0101
4.03002
4.1215
4.13978
4.23039
4.25317
4.33859
4.35946
4.39537
4.46175
4.46555
4.53025
4.527
4.57636
4.56635
4.60122
4.58561
4.62147
4.60974
4.74771
4.87278
5.3476
5.62841
5.7716
0.590636
0.603615
0.609711
0.612889
0.617629
0.61993
0.624137
0.626367
0.630509
0.632911
0.636928
0.639561
0.643435
0.646174
0.650079
0.653157
0.657062
0.660389
0.663432
0.667241
0.67013
0.67389
0.67708
0.680906
0.68438
0.688227
0.691883
0.695714
0.699445
0.703202
0.707196
0.711086
0.715445
0.719579
0.724353
0.728578
0.73344
0.737208
0.7424
0.746421
0.751622
0.756143
0.761359
0.766263
0.771507
0.776684
0.781874
0.787473
0.792659
0.798665
0.804152
0.810664
0.816413
0.823106
0.828225
0.835293
0.840683
0.847634
0.85368
0.860527
0.867103
0.873881
0.880862
0.887506
0.895041
0.90163
0.909648
0.916605
0.925191
0.932531
0.941321
0.948028
0.957132
0.964143
0.973132
0.980863
0.989826
0.998304
1.00727
1.01617
1.02494
1.03445
1.04326
1.05342
1.06267
1.07353
1.08329
1.09441
1.10342
1.11491
1.12423
1.13583
1.14607
1.15773
1.16848
1.17998
1.19131
1.20296
1.21496
1.22716
1.23968
1.25194
1.26492
1.27793
1.29159
1.30528
1.31892
1.33188
1.34632
1.35896
1.37422
1.3868
1.40277
1.41536
1.43207
1.4446
1.46226
1.47491
1.49323
1.50577
1.52488
1.53755
1.55829
1.57029
1.58852
1.60406
1.61891
1.63768
1.65047
1.67088
1.68205
1.70441
1.71393
1.73699
1.746
1.76899
1.77751
1.80046
1.80865
1.83177
1.83945
1.85616
1.87023
1.87805
1.89562
1.89976
1.91647
1.91896
1.93331
1.93395
1.94591
1.94481
1.95193
1.94793
1.95213
1.94495
1.94839
1.9343
1.92731
1.92287
1.90064
1.89862
1.86795
1.86347
1.82708
1.82053
1.77948
1.77177
1.7274
1.71887
1.67156
1.66262
1.61279
1.60346
1.55475
1.54602
1.49384
1.47064
1.45203
1.41136
1.40586
1.36147
1.35727
1.31597
1.3138
1.27942
1.28109
1.26318
1.27323
1.26228
1.2703
1.15841
1.11671
0.740061
0.725012
0.737042
0.743114
0.747375
0.753755
0.755903
0.761735
0.763648
0.769267
0.771121
0.776724
0.77856
0.784394
0.785978
0.792083
0.793731
0.800272
0.803337
0.8065
0.811666
0.813228
0.81922
0.821029
0.826812
0.828761
0.834523
0.836487
0.842452
0.844173
0.850417
0.852234
0.858788
0.860793
0.867514
0.86975
0.876603
0.880115
0.884071
0.889979
0.892458
0.899126
0.901673
0.908573
0.911238
0.918493
0.921023
0.928569
0.931207
0.939096
0.94209
0.949917
0.953088
0.961264
0.965665
0.971126
0.97777
0.981813
0.989533
0.992934
1.0011
1.0046
1.01304
1.01644
1.02508
1.02857
1.03746
1.04124
1.05009
1.05404
1.06294
1.06796
1.07462
1.08095
1.08659
1.09389
1.09894
1.10695
1.11163
1.12022
1.12438
1.13323
1.13733
1.14634
1.15064
1.15961
1.1641
1.17281
1.1781
1.18511
1.19126
1.19758
1.2043
1.21018
1.2173
1.2227
1.23001
1.23513
1.24256
1.24767
1.25492
1.25997
1.26696
1.27233
1.27897
1.28461
1.2905
1.29585
1.30147
1.3062
1.31199
1.31572
1.32194
1.32442
1.33077
1.33242
1.33828
1.33984
1.34483
1.34579
1.35014
1.35036
1.35424
1.35375
1.35379
1.35484
1.35267
1.35376
1.34956
1.35013
1.34377
1.34377
1.33492
1.33408
1.3228
1.32103
1.30702
1.30408
1.28771
1.28386
1.26301
1.25315
1.23871
1.21963
1.20941
1.18312
1.17434
1.14353
1.13344
1.0998
1.08853
1.05211
1.03963
1.0007
0.987162
0.946707
0.932759
0.888782
0.867911
0.836774
0.805244
0.783591
0.744305
0.729633
0.688237
0.674094
0.634626
0.621462
0.585674
0.573761
0.541628
0.53125
0.502889
0.494077
0.469297
0.461942
0.44034
0.430819
0.417647
0.406013
0.398352
0.384602
0.380834
0.367147
0.364088
0.355359
0.355215
0.355098
0.368857
0.380986
0.403726
0.411319
0.416986
0.903623
0.870838
0.878522
0.883603
0.887754
0.893433
0.8954
0.90023
0.901753
0.906018
0.907357
0.911445
0.912724
0.916912
0.917988
0.922309
0.923419
0.927892
0.929953
0.932233
0.935683
0.93671
0.940757
0.941994
0.945871
0.947219
0.951083
0.95247
0.956384
0.957606
0.96163
0.962914
0.967089
0.968521
0.972776
0.97437
0.978544
0.980675
0.983458
0.986666
0.988723
0.992395
0.994211
0.998151
0.999889
1.00399
1.0057
1.00987
1.01164
1.01592
1.01784
1.02209
1.02408
1.02825
1.03069
1.03382
1.03689
1.03954
1.04288
1.04523
1.04875
1.05092
1.05456
1.05648
1.06009
1.06198
1.06553
1.06745
1.07092
1.07283
1.07609
1.07806
1.08063
1.08274
1.08495
1.08707
1.08901
1.09104
1.09284
1.09458
1.09635
1.09758
1.09936
1.10005
1.10188
1.10225
1.10387
1.10393
1.10405
1.10483
1.10428
1.10479
1.10374
1.1041
1.102
1.10243
1.09945
1.09969
1.09582
1.09589
1.09083
1.09026
1.08476
1.08373
1.07743
1.07608
1.06746
1.06374
1.05869
1.05092
1.04764
1.03689
1.03428
1.02152
1.01835
1.00405
0.999802
0.984878
0.979806
0.963542
0.957849
0.940176
0.934088
0.913858
0.904138
0.88934
0.873427
0.862049
0.841057
0.832427
0.808314
0.799674
0.774245
0.765161
0.738861
0.729476
0.702432
0.692721
0.665388
0.655547
0.62703
0.613497
0.592623
0.573457
0.557937
0.534374
0.523741
0.498227
0.488997
0.464041
0.455271
0.43167
0.423457
0.401434
0.393902
0.373813
0.367106
0.348333
0.339826
0.327853
0.317262
0.31002
0.298309
0.294338
0.283661
0.280558
0.271974
0.269678
0.262936
0.261314
0.256324
0.255387
0.252032
0.251765
0.24989
0.250231
0.249573
0.249868
0.251752
0.252049
0.255061
0.255786
0.258797
0.259486
0.261844
0.262274
0.265563
0.266896
0.274073
0.278883
0.287836
0.291446
0.294031
1.01861
0.993713
0.996764
0.999857
1.00203
1.00539
1.00627
1.00843
1.00873
1.01003
1.00996
1.01078
1.01055
1.01119
1.01075
1.01117
1.01058
1.01087
1.01075
1.00999
1.01005
1.00915
1.0092
1.00835
1.00828
1.0075
1.00741
1.00669
1.00661
1.00588
1.00581
1.00518
1.00513
1.00468
1.00463
1.00418
1.00405
1.0037
1.00331
1.00305
1.00256
1.00225
1.00178
1.00144
1.00102
1.00064
1.0002
0.999699
0.99922
0.998609
0.998204
0.997432
0.997144
0.996014
0.995248
0.99466
0.99312
0.992769
0.990867
0.990461
0.988238
0.987749
0.985071
0.984706
0.981545
0.98108
0.977481
0.976744
0.973062
0.972151
0.967494
0.965027
0.962509
0.958065
0.956434
0.950821
0.949102
0.942864
0.940936
0.933877
0.932148
0.92423
0.922248
0.913595
0.911057
0.902272
0.899362
0.889235
0.883971
0.877178
0.868818
0.863474
0.852803
0.848393
0.835889
0.831965
0.818205
0.813915
0.799365
0.794749
0.779299
0.773935
0.758272
0.752395
0.736121
0.729947
0.711866
0.703472
0.68959
0.677124
0.665882
0.649597
0.641681
0.622507
0.615761
0.595459
0.588107
0.56829
0.56064
0.540866
0.533223
0.513609
0.506056
0.485654
0.476121
0.461138
0.447924
0.437014
0.420723
0.413387
0.395861
0.389481
0.372417
0.366369
0.350244
0.344605
0.329454
0.324174
0.310156
0.305308
0.291862
0.28569
0.276818
0.268867
0.263012
0.2538
0.250336
0.241156
0.238105
0.229884
0.227203
0.219953
0.217629
0.211319
0.209344
0.203912
0.202256
0.197455
0.195353
0.192724
0.190196
0.188863
0.186346
0.185657
0.183709
0.183317
0.182054
0.181966
0.181471
0.181713
0.181682
0.182792
0.183067
0.184933
0.185604
0.188199
0.18928
0.192424
0.194428
0.197938
0.200864
0.204757
0.208617
0.212969
0.217802
0.222631
0.228368
0.233541
0.239957
0.245101
0.250311
0.252621
0.253926
1.1093
1.08786
1.08692
1.08679
1.0866
1.08682
1.08564
1.08535
1.08282
1.08187
1.07829
1.07677
1.07243
1.07054
1.06551
1.06328
1.05773
1.05502
1.04964
1.04544
1.0405
1.03527
1.03063
1.02481
1.02025
1.01424
1.00976
1.0038
0.999359
0.993563
0.989082
0.983658
0.979077
0.974146
0.969365
0.964819
0.959815
0.954834
0.950954
0.945191
0.941692
0.935664
0.932354
0.92599
0.92283
0.915904
0.913233
0.90586
0.903155
0.8955
0.892589
0.884984
0.881958
0.873807
0.869263
0.863689
0.85674
0.852347
0.844284
0.840414
0.831471
0.827887
0.818226
0.814891
0.804661
0.801199
0.790516
0.78666
0.775995
0.771873
0.760374
0.754362
0.745739
0.7372
0.729999
0.719533
0.713332
0.701275
0.695822
0.682409
0.677645
0.663336
0.658373
0.643505
0.638025
0.623261
0.617466
0.601792
0.593809
0.5819
0.570851
0.561127
0.547737
0.539728
0.524112
0.518239
0.501467
0.495539
0.478735
0.472805
0.455984
0.449736
0.433636
0.427321
0.411626
0.405467
0.389352
0.381962
0.369817
0.360217
0.350806
0.338983
0.332862
0.319647
0.314958
0.301797
0.297102
0.285149
0.280651
0.269567
0.265411
0.25517
0.251361
0.241405
0.236998
0.230126
0.224525
0.219843
0.213187
0.210531
0.203736
0.201463
0.195298
0.193291
0.187806
0.186064
0.181207
0.179687
0.175441
0.174138
0.170274
0.168555
0.166377
0.164123
0.162997
0.160632
0.159933
0.157823
0.157281
0.155554
0.155156
0.153794
0.153533
0.152523
0.152398
0.15173
0.151746
0.151428
0.151367
0.151681
0.151651
0.15236
0.15251
0.15357
0.153916
0.155316
0.155863
0.157697
0.158487
0.160774
0.161819
0.164595
0.165926
0.169184
0.170813
0.174522
0.176466
0.18044
0.183035
0.187116
0.190387
0.194583
0.198415
0.202806
0.207214
0.211925
0.216896
0.221907
0.22718
0.231791
0.235785
0.237719
0.238686
1.17015
1.15307
1.15076
1.14663
1.14452
1.14164
1.13855
1.13539
1.13098
1.12725
1.12152
1.11704
1.11017
1.10493
1.09697
1.09099
1.08191
1.07495
1.06528
1.05652
1.04656
1.03621
1.02602
1.01452
1.00389
0.991866
0.980832
0.968707
0.957367
0.945491
0.933998
0.922532
0.911033
0.900182
0.888713
0.878413
0.867006
0.856398
0.846608
0.835328
0.826319
0.814897
0.806376
0.794747
0.786648
0.774583
0.767271
0.754607
0.747897
0.734698
0.728253
0.715059
0.708668
0.695161
0.687165
0.676776
0.666182
0.657522
0.645652
0.637989
0.625093
0.618207
0.60415
0.598533
0.583816
0.578204
0.563312
0.55743
0.542884
0.536875
0.521842
0.514195
0.502512
0.492486
0.482824
0.471015
0.462943
0.449774
0.443039
0.42879
0.423323
0.408676
0.40329
0.388806
0.383257
0.369532
0.364016
0.350284
0.343433
0.333101
0.324542
0.316396
0.306502
0.300253
0.289209
0.284982
0.273672
0.269686
0.258995
0.255261
0.245189
0.241519
0.232449
0.228972
0.220642
0.217458
0.209389
0.205781
0.200034
0.195706
0.191493
0.186345
0.183881
0.17838
0.176537
0.171345
0.169589
0.165096
0.163486
0.159506
0.158086
0.154552
0.153305
0.149977
0.148542
0.146396
0.14467
0.143237
0.14121
0.140502
0.138475
0.137866
0.136097
0.135587
0.134069
0.133656
0.132364
0.132032
0.130953
0.1307
0.129757
0.129358
0.129043
0.12853
0.128453
0.128029
0.128022
0.127749
0.127805
0.127701
0.127866
0.127831
0.128189
0.128238
0.128802
0.128962
0.129734
0.130011
0.130885
0.13152
0.132388
0.133376
0.134347
0.135744
0.136922
0.138694
0.140076
0.142239
0.14391
0.14651
0.148557
0.151654
0.154133
0.157731
0.160683
0.164773
0.168212
0.172688
0.176559
0.181219
0.185347
0.19017
0.194594
0.199534
0.204243
0.209273
0.214199
0.219191
0.223997
0.2283
0.231684
0.233518
0.234334
1.20483
1.19105
1.18796
1.18066
1.17725
1.17194
1.1676
1.1624
1.15692
1.15137
1.1446
1.13841
1.13035
1.12329
1.11381
1.10573
1.09464
1.08517
1.07285
1.06107
1.04773
1.0335
1.01913
1.00286
0.987296
0.969582
0.952949
0.934318
0.916922
0.897815
0.879933
0.860755
0.842717
0.823929
0.805989
0.787853
0.770117
0.752251
0.735953
0.71834
0.702951
0.685855
0.671288
0.654594
0.640873
0.624295
0.611775
0.595134
0.583664
0.566946
0.556238
0.53988
0.529754
0.513453
0.502508
0.489325
0.476509
0.465404
0.4518
0.442131
0.427993
0.419562
0.404809
0.398016
0.383047
0.376893
0.362297
0.356252
0.342572
0.336756
0.323385
0.316718
0.306326
0.298442
0.290048
0.281256
0.274564
0.265139
0.259947
0.25012
0.246252
0.236579
0.232996
0.223929
0.220461
0.212308
0.209055
0.201322
0.19754
0.191931
0.187555
0.183287
0.17844
0.175359
0.170129
0.168145
0.16299
0.161203
0.156519
0.154914
0.150669
0.149155
0.145461
0.144075
0.140787
0.139555
0.136459
0.135093
0.132945
0.131361
0.129817
0.127976
0.127101
0.125162
0.124532
0.122735
0.122151
0.120632
0.120111
0.118798
0.118356
0.117224
0.116854
0.115813
0.115376
0.114791
0.114252
0.113932
0.113359
0.113236
0.112735
0.112657
0.112289
0.112262
0.112008
0.112028
0.111914
0.111993
0.111945
0.112138
0.11214
0.112391
0.112639
0.112823
0.113287
0.113468
0.114089
0.114327
0.115086
0.115399
0.116297
0.11669
0.117734
0.118221
0.11941
0.120024
0.121366
0.122142
0.12357
0.124612
0.126083
0.127401
0.128998
0.130577
0.132316
0.134198
0.136139
0.138401
0.140624
0.143271
0.145826
0.148891
0.151879
0.155452
0.158939
0.163048
0.167075
0.171697
0.17616
0.181216
0.186077
0.191424
0.196528
0.202034
0.207184
0.212641
0.217541
0.222643
0.226857
0.231038
0.233668
0.235516
0.236198
1.21603
1.20121
1.19754
1.18837
1.18422
1.17756
1.17255
1.16648
1.16061
1.15453
1.14775
1.1413
1.13349
1.12641
1.11725
1.10928
1.09851
1.08911
1.077
1.06528
1.05173
1.03704
1.02208
1.00465
0.987698
0.9679
0.948998
0.92721
0.906748
0.883353
0.861737
0.83718
0.814807
0.789677
0.766958
0.741855
0.719063
0.694416
0.672205
0.648812
0.626998
0.605024
0.584005
0.563373
0.543431
0.523989
0.505424
0.487047
0.469852
0.452441
0.436555
0.420191
0.405521
0.38996
0.375935
0.362494
0.348711
0.336762
0.323606
0.312924
0.300421
0.290953
0.279003
0.27093
0.259448
0.252621
0.241654
0.235856
0.225665
0.220726
0.211208
0.206422
0.198833
0.193854
0.187693
0.182636
0.177721
0.17265
0.168814
0.163687
0.160925
0.155875
0.15376
0.149102
0.14719
0.143124
0.141413
0.137713
0.135906
0.133166
0.131246
0.129102
0.127098
0.125477
0.123347
0.122293
0.120145
0.119332
0.117353
0.116637
0.114858
0.114193
0.112655
0.112057
0.110697
0.11017
0.1089
0.10833
0.107444
0.106818
0.106149
0.105456
0.105045
0.104301
0.104051
0.103352
0.103128
0.102557
0.102371
0.101899
0.101756
0.101376
0.101275
0.100948
0.100822
0.100726
0.100599
0.100594
0.100518
0.100571
0.100538
0.10066
0.100658
0.100878
0.100924
0.101237
0.101333
0.101735
0.101881
0.102372
0.102569
0.103094
0.103474
0.103982
0.104526
0.105046
0.105732
0.106297
0.107116
0.107753
0.108699
0.109434
0.110512
0.111366
0.112587
0.113581
0.114955
0.116116
0.11765
0.119088
0.120796
0.122544
0.124465
0.126511
0.128735
0.131121
0.133701
0.136437
0.13938
0.142486
0.145842
0.149389
0.153216
0.15726
0.161628
0.166203
0.171159
0.17629
0.181656
0.187311
0.193031
0.199103
0.205036
0.211342
0.217242
0.223449
0.228902
0.234512
0.238967
0.243314
0.246
0.247888
0.24856
1.19897
1.18745
1.18362
1.17341
1.16897
1.16151
1.15646
1.15001
1.14442
1.1384
1.13238
1.12642
1.1199
1.11372
1.10646
1.09979
1.09139
1.0837
1.07401
1.06475
1.05369
1.04183
1.02929
1.01457
0.999981
0.982536
0.965701
0.945655
0.926837
0.90436
0.884079
0.859577
0.838087
0.812075
0.789731
0.762878
0.739792
0.713335
0.689199
0.664428
0.639623
0.616485
0.59204
0.570461
0.546953
0.526963
0.504614
0.486262
0.46527
0.448568
0.429017
0.413818
0.395733
0.381761
0.365121
0.352191
0.337283
0.324774
0.311636
0.299587
0.28794
0.276462
0.266069
0.255213
0.246
0.235757
0.2276
0.218051
0.210848
0.202059
0.195649
0.187615
0.182004
0.17486
0.169735
0.163595
0.158879
0.153665
0.149362
0.144951
0.141021
0.137355
0.133789
0.130758
0.127601
0.125075
0.122303
0.120163
0.117685
0.116
0.113803
0.112383
0.110491
0.109266
0.107629
0.10656
0.105163
0.104221
0.103032
0.102203
0.101186
0.100477
0.0996046
0.0990014
0.0982433
0.0977373
0.0970559
0.0966075
0.0961056
0.0956738
0.0952777
0.0948805
0.0945949
0.0942295
0.0940441
0.0937205
0.0935995
0.0933524
0.0932689
0.0931027
0.0930598
0.0929717
0.0929684
0.09294
0.0929569
0.0930614
0.0931011
0.0932809
0.0933596
0.093619
0.0937422
0.0940797
0.0942555
0.0946706
0.0949078
0.095398
0.0956951
0.0962656
0.09663
0.097283
0.097729
0.0984395
0.0990225
0.0997657
0.100477
0.101289
0.102118
0.103015
0.103966
0.104965
0.106042
0.107158
0.108369
0.109622
0.110977
0.11239
0.113905
0.115519
0.117211
0.119002
0.120883
0.12287
0.12498
0.1272
0.129629
0.132165
0.134983
0.137954
0.141214
0.144695
0.148461
0.152483
0.156818
0.161413
0.166371
0.171549
0.177178
0.182978
0.18905
0.195452
0.201911
0.208783
0.215469
0.222576
0.229182
0.236104
0.242097
0.2482
0.252884
0.257457
0.260095
0.26205
0.262694
1.17177
1.16061
1.15638
1.14566
1.14094
1.1333
1.12826
1.12202
1.11681
1.11142
1.10625
1.10139
1.09627
1.09172
1.08646
1.08195
1.07621
1.07125
1.06484
1.05889
1.05157
1.04364
1.03514
1.02491
1.01461
1.00191
0.989461
0.974245
0.959726
0.941956
0.925752
0.90573
0.888091
0.866185
0.847475
0.824205
0.804379
0.781272
0.759429
0.73778
0.714696
0.694402
0.671133
0.652305
0.629502
0.612549
0.590129
0.575274
0.553606
0.540708
0.520301
0.508728
0.489737
0.479377
0.463381
0.450983
0.43874
0.425182
0.415201
0.401145
0.392763
0.37835
0.371501
0.356618
0.350363
0.335607
0.329539
0.315193
0.308975
0.295044
0.288946
0.276874
0.268329
0.258515
0.248485
0.240572
0.229536
0.223216
0.211794
0.206843
0.195545
0.191021
0.180577
0.176439
0.167064
0.163149
0.154876
0.151378
0.144539
0.140733
0.135327
0.131588
0.127445
0.123742
0.120777
0.117027
0.11511
0.111579
0.110169
0.107137
0.105962
0.103485
0.102469
0.100466
0.099629
0.0979887
0.0973096
0.096022
0.095373
0.0943933
0.0938653
0.0931079
0.0926717
0.0921061
0.0917372
0.0913448
0.0910372
0.0907888
0.090554
0.0904226
0.0902741
0.0902145
0.0901659
0.0901593
0.0901632
0.0902669
0.0903265
0.0905014
0.0906483
0.0908748
0.0911127
0.0913896
0.0917098
0.0920426
0.0924375
0.0928477
0.093318
0.0938053
0.0943571
0.0949136
0.0955579
0.0961915
0.0969384
0.0976566
0.0985022
0.0993268
0.100266
0.101215
0.102254
0.103343
0.104495
0.10574
0.107019
0.108438
0.109864
0.11148
0.113073
0.114919
0.116727
0.118811
0.120887
0.123264
0.125679
0.128368
0.131172
0.134162
0.13741
0.140749
0.144509
0.148323
0.152681
0.157075
0.162133
0.167181
0.173004
0.178739
0.185384
0.191876
0.199051
0.206295
0.213931
0.221773
0.229671
0.237832
0.24561
0.253576
0.260571
0.267534
0.272857
0.277935
0.280824
0.282933
0.283599
1.16149
1.14439
1.13893
1.12739
1.12196
1.11399
1.10855
1.10242
1.09723
1.09233
1.08762
1.08366
1.07947
1.07629
1.07249
1.06989
1.06616
1.06368
1.05995
1.05683
1.05283
1.04831
1.04365
1.03735
1.03129
1.02298
1.01505
1.00454
0.994673
0.981782
0.970169
0.955114
0.941975
0.925106
0.910745
0.892545
0.876922
0.858712
0.841106
0.823768
0.805147
0.788564
0.769803
0.754241
0.735933
0.721858
0.703994
0.69173
0.67461
0.664148
0.648218
0.639028
0.624495
0.616541
0.604595
0.595275
0.586514
0.576572
0.569747
0.55957
0.554032
0.543643
0.539158
0.528257
0.524053
0.512857
0.508601
0.497146
0.492377
0.480479
0.475405
0.464685
0.456088
0.447028
0.435952
0.427919
0.414842
0.407466
0.392752
0.386239
0.369969
0.363503
0.346628
0.339992
0.3231
0.315973
0.299322
0.292213
0.277726
0.267588
0.256134
0.244175
0.235292
0.222197
0.215891
0.202414
0.197181
0.184642
0.179931
0.168715
0.164552
0.154809
0.150957
0.14266
0.139367
0.132314
0.129639
0.124022
0.120973
0.116887
0.114067
0.111212
0.108304
0.10665
0.103844
0.102859
0.100531
0.0997083
0.0979565
0.0973426
0.0960319
0.0955912
0.0946446
0.0943675
0.0937943
0.0934819
0.0932411
0.0930578
0.0930452
0.0929746
0.0930775
0.0930932
0.0934032
0.0935021
0.0939589
0.0941511
0.0947422
0.0950193
0.0957401
0.0960992
0.0969581
0.097458
0.0983547
0.099033
0.0999753
0.100844
0.101839
0.102904
0.103967
0.105233
0.106384
0.107863
0.109122
0.110827
0.112215
0.11416
0.115702
0.117921
0.119721
0.122079
0.12424
0.126807
0.129373
0.132209
0.135242
0.138445
0.141996
0.145649
0.149783
0.153974
0.158785
0.163628
0.16924
0.174844
0.181363
0.187795
0.195315
0.202685
0.210884
0.219196
0.227998
0.237064
0.246237
0.255725
0.264838
0.274134
0.282391
0.290486
0.296733
0.30249
0.305751
0.308058
0.308754
1.19033
1.16263
1.15489
1.14151
1.13459
1.12572
1.1189
1.11251
1.1064
1.10163
1.0964
1.09287
1.08854
1.08608
1.0825
1.08093
1.07791
1.07665
1.07428
1.07241
1.07047
1.06746
1.06525
1.06093
1.05759
1.05178
1.04681
1.03925
1.03252
1.02287
1.01447
1.00284
0.99292
0.979672
0.968476
0.954059
0.941584
0.927069
0.912734
0.898771
0.883579
0.869902
0.854644
0.841547
0.826734
0.814732
0.800449
0.789936
0.776481
0.767565
0.755337
0.747697
0.736915
0.730615
0.72223
0.715406
0.709765
0.703098
0.699232
0.693025
0.690469
0.684946
0.683039
0.677731
0.676177
0.670943
0.66949
0.664255
0.6625
0.657021
0.655106
0.6505
0.646071
0.642417
0.636297
0.633
0.625466
0.622123
0.61328
0.609947
0.599498
0.595766
0.58401
0.579726
0.566877
0.561579
0.547614
0.541624
0.528811
0.518004
0.50695
0.492936
0.482888
0.466433
0.457597
0.43837
0.430578
0.410071
0.402039
0.381078
0.372927
0.352154
0.343489
0.323265
0.314798
0.295366
0.287584
0.270155
0.259702
0.246164
0.233896
0.224177
0.209984
0.204009
0.189958
0.184841
0.172575
0.167833
0.157444
0.153427
0.144663
0.141333
0.13409
0.131507
0.126003
0.122978
0.119259
0.116583
0.114228
0.111545
0.110519
0.108168
0.107566
0.105907
0.10548
0.104461
0.104264
0.103739
0.103769
0.103582
0.103845
0.10396
0.104393
0.104847
0.10538
0.106167
0.106771
0.107868
0.108568
0.109937
0.110771
0.112393
0.113385
0.115264
0.116438
0.118589
0.119968
0.122422
0.12413
0.126715
0.128871
0.131648
0.134296
0.137315
0.140533
0.143891
0.147735
0.15155
0.156088
0.160496
0.165823
0.170961
0.177227
0.183237
0.190598
0.197601
0.206213
0.21439
0.223918
0.233306
0.243681
0.254066
0.265022
0.276029
0.287072
0.298039
0.308207
0.317939
0.325668
0.332684
0.336503
0.33927
0.340052
1.27299
1.23145
1.22062
1.20463
1.19459
1.18408
1.17467
1.16731
1.15916
1.1539
1.14704
1.14331
1.13763
1.13519
1.13046
1.1287
1.12469
1.12328
1.12039
1.1178
1.11579
1.11204
1.10992
1.10519
1.10209
1.0963
1.09182
1.08467
1.07873
1.06986
1.06248
1.05199
1.04324
1.03142
1.02153
1.00878
0.997732
0.984961
0.972254
0.959949
0.946494
0.934331
0.920818
0.909005
0.895872
0.884839
0.872253
0.862342
0.850661
0.842036
0.831618
0.824183
0.815238
0.809161
0.802405
0.796615
0.792231
0.787254
0.78452
0.78086
0.779482
0.777146
0.776636
0.775183
0.77526
0.774384
0.774804
0.774438
0.774995
0.774731
0.77552
0.775882
0.775717
0.776104
0.775653
0.775981
0.775126
0.775333
0.773898
0.774042
0.77173
0.771721
0.768516
0.768168
0.764253
0.763254
0.758584
0.757182
0.753121
0.748757
0.745512
0.739165
0.736084
0.728156
0.725295
0.715521
0.712351
0.701104
0.697341
0.68458
0.680159
0.666003
0.660308
0.644635
0.637948
0.620507
0.613324
0.596327
0.58309
0.56885
0.55107
0.538965
0.516523
0.506596
0.481464
0.471689
0.445855
0.435116
0.409363
0.39861
0.373209
0.36272
0.338289
0.328608
0.306692
0.293713
0.276862
0.261721
0.249843
0.232531
0.225531
0.208749
0.202867
0.18869
0.183407
0.171849
0.16758
0.15825
0.155088
0.147521
0.145259
0.140138
0.137291
0.13442
0.132083
0.130722
0.12886
0.128506
0.127371
0.127417
0.127069
0.127565
0.127555
0.128832
0.129171
0.131
0.131675
0.134059
0.135254
0.137711
0.13966
0.142236
0.144924
0.147693
0.151145
0.154218
0.158461
0.161974
0.167065
0.171185
0.177208
0.182112
0.189226
0.195104
0.203508
0.210549
0.220476
0.229008
0.240079
0.250263
0.262454
0.274104
0.287119
0.299866
0.313119
0.326316
0.338703
0.350991
0.360473
0.369772
0.374304
0.377885
0.378855
1.39107
1.34448
1.33213
1.3131
1.30077
1.28777
1.276
1.26667
1.25637
1.24949
1.2407
1.23558
1.22812
1.22434
1.21746
1.21454
1.20801
1.20528
1.20001
1.19521
1.19103
1.18475
1.18053
1.1733
1.16814
1.16002
1.15367
1.14449
1.13698
1.12646
1.11786
1.10613
1.09646
1.0838
1.07325
1.06002
1.04858
1.03561
1.02279
1.01043
0.997072
0.984942
0.971632
0.95982
0.946887
0.935694
0.923273
0.912972
0.901386
0.892136
0.881706
0.873507
0.864457
0.857496
0.850382
0.844152
0.839165
0.834092
0.83077
0.82712
0.825329
0.823527
0.823055
0.82269
0.823087
0.823285
0.82487
0.825873
0.828295
0.82985
0.832785
0.835108
0.837752
0.84075
0.843278
0.846708
0.849161
0.852867
0.855184
0.859137
0.861074
0.865141
0.866737
0.870728
0.872248
0.875897
0.877279
0.880897
0.882755
0.884859
0.88738
0.888505
0.89115
0.891827
0.89434
0.894497
0.896778
0.896641
0.898535
0.898118
0.899421
0.898765
0.899386
0.898105
0.898479
0.896277
0.896588
0.894612
0.891818
0.890753
0.885826
0.884928
0.877798
0.876461
0.867207
0.865024
0.853697
0.8498
0.835886
0.830593
0.813603
0.806447
0.786151
0.778048
0.757634
0.740535
0.723143
0.699187
0.683973
0.653095
0.640213
0.605485
0.592143
0.556313
0.541531
0.505977
0.491305
0.456672
0.443036
0.408622
0.395815
0.366056
0.349131
0.326928
0.307524
0.292259
0.271453
0.26249
0.243222
0.23641
0.220681
0.215459
0.203261
0.199486
0.190479
0.187983
0.181789
0.180415
0.177439
0.175502
0.175366
0.17477
0.17547
0.175825
0.178384
0.179187
0.183203
0.184778
0.190039
0.192516
0.198993
0.202563
0.210357
0.215003
0.224271
0.230182
0.241218
0.249066
0.261172
0.271499
0.284826
0.29759
0.311958
0.326886
0.341797
0.358196
0.372622
0.388976
0.40052
0.413341
0.419352
0.424077
0.425366
1.49124
1.45419
1.44405
1.42516
1.41359
1.40042
1.38866
1.37881
1.3681
1.36038
1.35081
1.34463
1.33613
1.33112
1.32284
1.31836
1.30999
1.30538
1.2977
1.29045
1.2835
1.27426
1.26697
1.25644
1.24801
1.23648
1.22685
1.21435
1.20374
1.19014
1.17872
1.16425
1.15207
1.13701
1.12427
1.10901
1.09571
1.08105
1.06676
1.05299
1.03844
1.02514
1.01085
0.998011
0.984219
0.972015
0.958786
0.947397
0.934957
0.924481
0.913066
0.903496
0.893287
0.884757
0.876176
0.868487
0.861757
0.855242
0.850121
0.845053
0.841477
0.837971
0.835887
0.834169
0.833555
0.833319
0.833611
0.834304
0.835994
0.837716
0.840254
0.842908
0.846062
0.849537
0.853085
0.857149
0.861087
0.865658
0.869909
0.874926
0.879322
0.884757
0.889197
0.894951
0.899479
0.905351
0.910035
0.916043
0.921173
0.926875
0.932524
0.93804
0.944186
0.949583
0.956199
0.96144
0.968505
0.973682
0.981099
0.986309
0.994017
0.999434
1.00718
1.01281
1.02065
1.02631
1.03456
1.04088
1.04787
1.0554
1.06161
1.07002
1.07531
1.08439
1.08897
1.09841
1.10264
1.11171
1.11562
1.12432
1.1277
1.13576
1.13855
1.1467
1.15031
1.15385
1.15867
1.15943
1.16338
1.16221
1.16422
1.16022
1.16106
1.15261
1.15069
1.1366
1.13149
1.11125
1.1035
1.0754
1.06532
1.0366
1.01085
0.985537
0.948215
0.924677
0.877057
0.855795
0.802752
0.78132
0.727018
0.705749
0.651855
0.630726
0.578308
0.557974
0.509094
0.490449
0.450574
0.427138
0.399709
0.374976
0.358069
0.334543
0.325966
0.306961
0.301407
0.288582
0.285712
0.278705
0.278143
0.276142
0.277753
0.278394
0.284127
0.285753
0.294367
0.298575
0.307486
0.315792
0.325629
0.337993
0.349359
0.365412
0.378995
0.398336
0.413265
0.434546
0.448834
0.466825
0.475317
0.481887
0.483676
1.50434
1.48683
1.48336
1.47094
1.46495
1.45692
1.45025
1.44407
1.4375
1.4323
1.42587
1.42127
1.41493
1.41071
1.404
1.39963
1.39215
1.38708
1.37921
1.37149
1.36333
1.35308
1.34385
1.33162
1.32078
1.307
1.29465
1.27957
1.26611
1.24984
1.23558
1.21846
1.20355
1.1859
1.17057
1.15285
1.13718
1.12023
1.10393
1.08811
1.07178
1.05669
1.04082
1.02641
1.01119
0.99755
0.983004
0.970235
0.956502
0.944634
0.931859
0.920815
0.909096
0.898911
0.888562
0.879123
0.870351
0.861884
0.854545
0.847333
0.841394
0.835604
0.831164
0.826925
0.82399
0.82127
0.819601
0.818717
0.818451
0.818549
0.81918
0.820324
0.822429
0.824578
0.827403
0.830331
0.8339
0.83755
0.84176
0.845944
0.850791
0.855491
0.860828
0.865991
0.871627
0.877254
0.88319
0.889163
0.89515
0.901897
0.908198
0.915287
0.922074
0.929417
0.936709
0.944341
0.952229
0.960078
0.968607
0.97674
0.985937