/*--------------------------------*- C++ -*----------------------------------*\
| =========                 |                                                 |
| \\      /  F ield         | OpenFOAM: The Open Source CFD Toolbox           |
|  \\    /   O peration     | Version:  4.1                                   |
|   \\  /    A nd           | Web:      www.OpenFOAM.org                      |
|    \\/     M anipulation  |                                                 |
\*---------------------------------------------------------------------------*/
FoamFile
{
    version     2.0;
    format      ascii;
    class       volScalarField;
    location    "15";
    object      k;
}
// * * * * * * * * * * * * * * * * * * * * * * * * * * * * * * * * * * * * * //

dimensions      [0 2 -2 0 0 0 0];

internalField   nonuniform List<scalar> 
204246
(
2.13764
2.23244
2.24267
2.24418
2.2548
2.25619
2.26413
2.26593
2.27359
2.2753
2.2829
2.28452
2.29239
2.29368
2.30289
2.30395
2.31335
2.31438
2.32131
2.32765
2.33024
2.33962
2.34077
2.34977
2.3516
2.36052
2.36244
2.37179
2.3735
2.38426
2.38582
2.39698
2.3987
2.41017
2.41204
2.42307
2.42558
2.43433
2.44186
2.44648
2.45637
2.45914
2.46998
2.47279
2.48398
2.48655
2.49919
2.50155
2.5146
2.51708
2.52909
2.53232
2.54417
2.54742
2.55768
2.56605
2.57214
2.5827
2.58713
2.59905
2.6026
2.61538
2.61869
2.63304
2.63618
2.65103
2.65432
2.66822
2.67233
2.68615
2.69035
2.70225
2.71087
2.71964
2.73079
2.73771
2.75068
2.75639
2.77064
2.77554
2.79226
2.79663
2.81402
2.81861
2.83522
2.8407
2.85733
2.86298
2.87778
2.88788
2.89967
2.91228
2.92243
2.93664
2.94585
2.96401
2.97033
2.99056
2.99678
3.01738
3.02387
3.04418
3.05162
3.07204
3.07979
3.101
3.1087
3.12835
3.14039
3.15734
3.17141
3.18729
3.20536
3.21854
3.23991
3.25105
3.27366
3.28459
3.30839
3.31921
3.34462
3.35513
3.38158
3.39221
3.41722
3.43215
3.45459
3.47177
3.49319
3.51268
3.53307
3.55401
3.57405
3.59623
3.61613
3.63954
3.65933
3.68371
3.70368
3.72907
3.74909
3.77392
3.79611
3.82003
3.843
3.86706
3.89046
3.91482
3.93842
3.96322
3.98687
4.0121
4.03563
4.06138
4.08482
4.11107
4.13455
4.16096
4.18378
4.21042
4.23329
4.2593
4.28286
4.30806
4.33238
4.35661
4.38195
4.40506
4.43186
4.45382
4.48255
4.50323
4.53454
4.55433
4.5897
4.6076
4.6475
4.66909
4.70543
4.73543
4.77021
4.80928
4.84547
4.8947
4.93599
4.9968
5.04769
5.12133
5.1863
5.26498
5.33158
5.36931
5.3858
1.40995
1.39437
1.39854
1.40046
1.40442
1.40482
1.40954
1.41012
1.41467
1.41514
1.41985
1.42042
1.42473
1.42476
1.42886
1.42871
1.43315
1.43364
1.43497
1.43808
1.43813
1.44187
1.44176
1.4464
1.44701
1.4518
1.45262
1.45729
1.45762
1.4625
1.46278
1.46796
1.46824
1.47381
1.47431
1.48145
1.48359
1.48602
1.49154
1.49261
1.49986
1.50163
1.50921
1.51119
1.51875
1.52023
1.52812
1.52963
1.53789
1.53954
1.54876
1.55126
1.5612
1.56462
1.56957
1.57751
1.57986
1.59001
1.5931
1.60352
1.60683
1.6172
1.62001
1.63075
1.63361
1.64473
1.64777
1.65989
1.66384
1.67683
1.68179
1.68964
1.70084
1.70552
1.71876
1.72358
1.73751
1.74255
1.757
1.76194
1.77649
1.78134
1.79664
1.8018
1.81831
1.82452
1.84226
1.84967
1.86209
1.87644
1.88553
1.9031
1.91057
1.92997
1.93749
1.95717
1.96474
1.9852
1.99293
2.01481
2.02334
2.04623
2.05586
2.07969
2.08987
2.11512
2.12596
2.14775
2.16635
2.18402
2.20741
2.22148
2.24846
2.26055
2.28993
2.30259
2.3344
2.34806
2.38106
2.39575
2.42986
2.44515
2.48203
2.49904
2.53098
2.55692
2.58504
2.6159
2.64308
2.67685
2.70367
2.74145
2.76833
2.80893
2.83666
2.87967
2.90886
2.95412
2.98546
3.03334
3.06823
3.11063
3.1551
3.19616
3.2433
3.28699
3.33584
3.38241
3.43295
3.48271
3.53505
3.58819
3.64088
3.69805
3.75195
3.81389
3.87135
3.93752
3.98937
4.06423
4.12009
4.18998
4.25668
4.32119
4.3974
4.45665
4.5402
4.59559
4.6831
4.73708
4.82442
4.87978
4.95969
5.01817
5.10112
5.15798
5.23923
5.27826
5.37154
5.40705
5.49595
5.52796
5.6123
5.64095
5.72224
5.74807
5.8361
5.86705
6.03303
6.17739
6.59081
6.84638
6.95463
2.05771
1.96164
1.98191
1.99295
1.99314
2.00357
2.00311
2.01155
2.0112
2.01958
2.01911
2.02723
2.02662
2.03576
2.03422
2.04335
2.04174
2.05165
2.05555
2.05387
2.06143
2.05941
2.06704
2.06568
2.07227
2.07125
2.07783
2.0768
2.08465
2.08277
2.09099
2.0893
2.09822
2.09675
2.10583
2.10496
2.11446
2.11931
2.11809
2.12752
2.12687
2.13577
2.13565
2.14518
2.14529
2.15644
2.15577
2.16741
2.16692
2.17928
2.17977
2.19155
2.19264
2.20608
2.21265
2.21346
2.22623
2.22702
2.23926
2.24067
2.25307
2.25468
2.26822
2.26879
2.28316
2.28392
2.29895
2.30082
2.31494
2.31741
2.33298
2.34062
2.34482
2.35749
2.35989
2.37406
2.37681
2.3915
2.39449
2.41004
2.41202
2.42832
2.43054
2.44768
2.45107
2.4675
2.47155
2.48931
2.49806
2.50508
2.51954
2.52362
2.54024
2.54471
2.56213
2.56575
2.58388
2.58782
2.60664
2.61107
2.63021
2.63539
2.65373
2.65963
2.67856
2.68487
2.70532
2.71431
2.72637
2.74158
2.74855
2.76734
2.77334
2.79289
2.79919
2.81904
2.82605
2.84527
2.85251
2.87192
2.87932
2.89943
2.90744
2.92779
2.93741
2.95155
2.96536
2.97564
2.99247
3.00022
3.01797
3.02598
3.04321
3.05124
3.06761
3.07558
3.09108
3.09908
3.11411
3.12239
3.13612
3.14276
3.15349
3.15922
3.16805
3.17245
3.17981
3.18099
3.18637
3.18507
3.18735
3.18334
3.1838
3.17253
3.1724
3.1551
3.15368
3.1269
3.11384
3.09793
3.06477
3.05559
3.00959
2.99717
2.94324
2.92787
2.86734
2.84986
2.78432
2.76501
2.69501
2.67451
2.60086
2.57976
2.50634
2.48623
2.40782
2.37146
2.3357
2.27349
2.25817
2.18845
2.17445
2.10753
2.09582
2.03705
2.03052
1.99083
1.99515
1.9694
1.97466
1.84188
1.7926
2.74986
2.60512
2.6179
2.63131
2.63298
2.64282
2.64269
2.6491
2.64852
2.65392
2.65314
2.65821
2.65735
2.66312
2.66149
2.66726
2.66563
2.6714
2.67371
2.67229
2.67679
2.67482
2.67918
2.67778
2.68148
2.68038
2.68402
2.68292
2.68718
2.68535
2.68976
2.68807
2.693
2.69159
2.69675
2.69586
2.70074
2.70338
2.70231
2.70733
2.70655
2.71126
2.71088
2.71597
2.71575
2.7218
2.72107
2.72734
2.72675
2.73344
2.73352
2.74003
2.74053
2.74744
2.75092
2.75128
2.75789
2.75814
2.7644
2.76501
2.77119
2.77191
2.77848
2.77859
2.78546
2.78565
2.79274
2.79358
2.80011
2.80126
2.80781
2.8111
2.8127
2.81767
2.81843
2.82378
2.82466
2.82999
2.83096
2.83631
2.83683
2.84203
2.8425
2.8476
2.84842
2.85299
2.85401
2.85824
2.86032
2.86109
2.86393
2.86435
2.86708
2.86748
2.86994
2.87005
2.87205
2.87208
2.87372
2.87376
2.87478
2.87474
2.87517
2.87507
2.8753
2.87493
2.87468
2.87374
2.87188
2.87073
2.86831
2.86669
2.86365
2.86136
2.85768
2.85479
2.85029
2.84703
2.84149
2.83743
2.83113
2.82567
2.8194
2.81094
2.80235
2.79434
2.78198
2.77475
2.7578
2.75154
2.73046
2.72361
2.69906
2.69108
2.66277
2.6535
2.62091
2.60999
2.57367
2.56148
2.51744
2.49591
2.46439
2.42608
2.40324
2.35271
2.33338
2.27578
2.25454
2.19297
2.17
2.10466
2.07993
2.01109
1.98477
1.91388
1.88684
1.81072
1.77393
1.71564
1.66327
1.61853
1.55359
1.52131
1.44998
1.42264
1.35203
1.32622
1.26102
1.23725
1.17797
1.15677
1.10374
1.0852
1.03822
1.02223
0.980275
0.961263
0.9337
0.910889
0.892854
0.866628
0.855239
0.828431
0.819989
0.801398
0.798565
0.794543
0.80898
0.826009
0.855986
0.865642
0.872882
3.22966
3.13964
3.13928
3.1492
3.149
3.15377
3.15181
3.15312
3.14881
3.14921
3.14378
3.1438
3.1379
3.13815
3.13159
3.13195
3.12527
3.12546
3.12144
3.11584
3.11557
3.10825
3.10782
3.10106
3.09997
3.09362
3.09252
3.08634
3.08558
3.07882
3.07819
3.07165
3.07108
3.06509
3.0646
3.05895
3.05784
3.05418
3.04933
3.04848
3.04282
3.04146
3.03624
3.03492
3.02998
3.02896
3.0238
3.02285
3.0178
3.01682
3.01219
3.01088
3.00635
3.00487
3.00136
2.99725
2.99535
2.99033
2.9884
2.98318
2.98107
2.97577
2.97361
2.96791
2.96556
2.95958
2.95697
2.95096
2.94805
2.94192
2.93848
2.93279
2.92722
2.92215
2.91548
2.91055
2.90323
2.8982
2.89049
2.8852
2.877
2.87122
2.86255
2.85639
2.8475
2.84094
2.83191
2.82407
2.8145
2.80579
2.7956
2.78647
2.77508
2.76597
2.75264
2.7443
2.72835
2.7209
2.70252
2.69577
2.67527
2.66757
2.64628
2.63788
2.61522
2.60633
2.57982
2.56718
2.54663
2.52652
2.50957
2.48216
2.46997
2.43685
2.42516
2.38862
2.37514
2.33752
2.32269
2.2827
2.26685
2.22447
2.20801
2.16043
2.13718
2.10167
2.06546
2.03776
1.99149
1.96961
1.917
1.89629
1.84101
1.81954
1.76294
1.74097
1.68331
1.6608
1.60281
1.58009
1.52002
1.49104
1.44439
1.40524
1.36821
1.32131
1.29287
1.2403
1.21887
1.16525
1.14471
1.09361
1.07415
1.026
1.00788
0.963375
0.946886
0.904908
0.885427
0.856035
0.83283
0.812453
0.786358
0.77431
0.748776
0.739809
0.717802
0.710537
0.692286
0.686468
0.671805
0.66742
0.656095
0.653078
0.644811
0.643069
0.637224
0.635034
0.634656
0.633081
0.633948
0.633201
0.634232
0.63339
0.634057
0.632881
0.634421
0.634907
0.644246
0.650036
0.662822
0.667549
0.671339
3.67151
3.5681
3.56045
3.56011
3.55301
3.5523
3.54153
3.53809
3.52467
3.51972
3.5045
3.49855
3.48241
3.47624
3.45905
3.45266
3.43481
3.42789
3.41235
3.40007
3.38805
3.37248
3.36298
3.3461
3.33714
3.32037
3.31164
3.29513
3.28672
3.27003
3.26203
3.24557
3.23787
3.22202
3.21439
3.1991
3.19091
3.17712
3.16658
3.15471
3.14291
3.13174
3.11954
3.10869
3.09634
3.08574
3.0731
3.06262
3.04985
3.03934
3.02684
3.01609
3.00391
2.99263
2.98051
2.9687
2.95636
2.94431
2.93142
2.91948
2.90576
2.89405
2.87915
2.86811
2.85172
2.84131
2.82342
2.81334
2.79476
2.78476
2.76482
2.75145
2.73546
2.71853
2.70416
2.68443
2.67119
2.64898
2.63668
2.61128
2.60131
2.57348
2.56309
2.53381
2.52238
2.49294
2.48087
2.4492
2.43133
2.40785
2.38305
2.36325
2.33351
2.31605
2.28112
2.2675
2.22903
2.21479
2.17484
2.16005
2.11837
2.10214
2.06033
2.04317
2.00034
1.98266
1.93628
1.91422
1.87699
1.8463
1.81481
1.77643
1.75171
1.70589
1.68668
1.63685
1.61713
1.56799
1.54771
1.49868
1.47844
1.42977
1.40975
1.35949
1.33559
1.29658
1.26484
1.23446
1.19637
1.17341
1.13101
1.11369
1.07066
1.05408
1.01313
0.997491
0.958708
0.943929
0.907666
0.893903
0.858998
0.842633
0.817524
0.797496
0.778964
0.756134
0.743444
0.719449
0.710099
0.687211
0.678771
0.658181
0.650634
0.632272
0.625597
0.609322
0.60345
0.588685
0.581947
0.572102
0.564472
0.557647
0.549408
0.545401
0.537537
0.534742
0.528164
0.526047
0.521153
0.519746
0.516475
0.515768
0.514081
0.514071
0.513687
0.514742
0.515158
0.517436
0.519556
0.522535
0.526298
0.53003
0.535269
0.539719
0.546436
0.551853
0.560044
0.566243
0.575748
0.582276
0.589709
0.59269
0.59461
3.99135
3.90355
3.89008
3.87688
3.86417
3.85307
3.83637
3.8242
3.804
3.79023
3.76717
3.75177
3.72666
3.71013
3.6828
3.66533
3.6363
3.6174
3.58939
3.56507
3.53925
3.51139
3.48703
3.45743
3.43339
3.40361
3.37981
3.35055
3.32721
3.29859
3.27603
3.24837
3.2267
3.20023
3.17893
3.15378
3.13224
3.10753
3.08728
3.06261
3.04265
3.01837
2.9987
2.97437
2.95507
2.93001
2.91187
2.88561
2.86846
2.84101
2.82426
2.79669
2.78001
2.75153
2.73089
2.70903
2.68301
2.66388
2.63581
2.61778
2.5881
2.57079
2.53898
2.52369
2.48952
2.47548
2.43985
2.42503
2.38964
2.37437
2.3377
2.31717
2.28834
2.26166
2.23661
2.20561
2.18307
2.14873
2.12796
2.08999
2.07244
2.03112
2.01472
1.97165
1.95419
1.91151
1.89344
1.84898
1.82579
1.79043
1.75988
1.72988
1.69395
1.66795
1.62676
1.60623
1.56078
1.5428
1.49612
1.47816
1.43149
1.41285
1.36785
1.3491
1.30505
1.28669
1.24166
1.22052
1.18495
1.15832
1.12939
1.09753
1.07628
1.03968
1.02499
0.987124
0.972475
0.937551
0.923451
0.890711
0.877513
0.846923
0.834652
0.804885
0.791308
0.769168
0.752739
0.73611
0.717239
0.705671
0.685395
0.677342
0.657569
0.650257
0.632336
0.625776
0.609563
0.603646
0.589097
0.583804
0.570329
0.564107
0.554937
0.547462
0.541025
0.532724
0.52864
0.520195
0.517086
0.509386
0.506668
0.49993
0.497579
0.491744
0.489743
0.484779
0.483143
0.478913
0.477022
0.474694
0.472474
0.471502
0.469498
0.46904
0.467734
0.467608
0.467127
0.467391
0.467491
0.46884
0.469258
0.471585
0.472487
0.475685
0.477046
0.481036
0.482821
0.487263
0.489997
0.494578
0.498171
0.503011
0.507518
0.512854
0.518378
0.524166
0.530741
0.537074
0.544429
0.550426
0.555928
0.558428
0.559806
4.23954
4.16231
4.14488
4.11956
4.10273
4.08184
4.06098
4.04046
4.01579
3.99424
3.966
3.94254
3.91118
3.88567
3.85089
3.8232
3.78497
3.75436
3.71499
3.67765
3.63823
3.59562
3.55565
3.50971
3.46851
3.42115
3.37911
3.33159
3.28934
3.24251
3.20045
3.15519
3.11357
3.07067
3.02982
2.98914
2.94904
2.90871
2.87268
2.83212
2.79804
2.75837
2.7256
2.68647
2.65489
2.61559
2.58601
2.54612
2.51811
2.47755
2.45037
2.41027
2.38349
2.34293
2.31267
2.27972
2.24386
2.21487
2.17671
2.14985
2.10996
2.08473
2.04269
2.02036
1.97589
1.95596
1.90987
1.89018
1.84477
1.82489
1.77875
1.75427
1.71726
1.68643
1.65487
1.61954
1.59205
1.55349
1.52925
1.48735
1.46778
1.42348
1.40566
1.36111
1.34291
1.3003
1.28222
1.23957
1.21809
1.1845
1.15819
1.13056
1.10068
1.07807
1.04481
1.02827
0.993043
0.979203
0.944712
0.931597
0.898833
0.885956
0.855956
0.843676
0.815772
0.80436
0.77727
0.76481
0.744235
0.72976
0.713608
0.696955
0.685768
0.667227
0.65991
0.641352
0.63434
0.617871
0.611353
0.596446
0.590536
0.577004
0.571651
0.55881
0.553011
0.543607
0.537024
0.529749
0.52234
0.517254
0.509142
0.505839
0.497804
0.494811
0.487543
0.484851
0.478266
0.475824
0.469868
0.467664
0.462104
0.45952
0.455733
0.45263
0.449885
0.446456
0.44465
0.441117
0.439795
0.436539
0.435396
0.432563
0.431594
0.429204
0.428424
0.426531
0.425973
0.424504
0.423878
0.42344
0.422899
0.422917
0.422786
0.423481
0.423773
0.425295
0.425884
0.428239
0.429261
0.432502
0.434079
0.438243
0.440465
0.44557
0.448457
0.454504
0.458025
0.464702
0.469049
0.475889
0.480937
0.487793
0.493482
0.500206
0.50634
0.512957
0.519339
0.525747
0.53193
0.537356
0.541672
0.543916
0.545015
4.4184
4.35223
4.33272
4.29877
4.27917
4.25207
4.22845
4.20327
4.17646
4.15116
4.12112
4.09441
4.06109
4.03215
3.99464
3.9628
3.92047
3.88442
3.83918
3.79445
3.74687
3.69402
3.64337
3.58411
3.52925
3.46552
3.40697
3.34036
3.27918
3.21091
3.14845
3.07985
3.01741
2.94997
2.88859
2.82345
2.7633
2.7006
2.64361
2.58374
2.5292
2.4722
2.42023
2.36553
2.31626
2.26299
2.21715
2.16476
2.12195
2.07021
2.0297
1.97947
1.94083
1.89116
1.85095
1.80927
1.76513
1.72847
1.68325
1.64991
1.60417
1.57368
1.52713
1.50058
1.45303
1.42999
1.38209
1.36089
1.31495
1.29448
1.24944
1.2267
1.19047
1.1637
1.13361
1.10407
1.07902
1.04773
1.02696
0.993924
0.978416
0.944779
0.931213
0.898902
0.885727
0.856195
0.843734
0.815525
0.801586
0.779932
0.764093
0.746718
0.729478
0.715832
0.697151
0.687702
0.668421
0.660842
0.642549
0.6356
0.618778
0.612179
0.597178
0.59105
0.577422
0.57184
0.558911
0.552988
0.543142
0.536549
0.528713
0.521358
0.51571
0.50755
0.503812
0.495487
0.492201
0.484672
0.481618
0.474783
0.472002
0.465774
0.463241
0.457323
0.454612
0.450147
0.447101
0.443513
0.440162
0.437558
0.433897
0.432124
0.428429
0.426987
0.423561
0.422273
0.419191
0.418046
0.415305
0.414301
0.411818
0.41067
0.409063
0.407678
0.406671
0.405212
0.404675
0.403353
0.402953
0.401952
0.401695
0.401023
0.400913
0.40058
0.400623
0.400583
0.400973
0.401153
0.401732
0.40246
0.40305
0.404315
0.405087
0.406836
0.407804
0.41012
0.411376
0.414411
0.416104
0.419886
0.422114
0.426743
0.429657
0.435178
0.438906
0.445233
0.449831
0.456693
0.462129
0.469231
0.475236
0.482361
0.488696
0.495946
0.502484
0.509625
0.516066
0.522708
0.528496
0.533757
0.537522
0.539651
0.540584
4.53444
4.47352
4.45331
4.41488
4.3942
4.36443
4.34003
4.31372
4.28722
4.26199
4.23363
4.20806
4.17741
4.15054
4.11615
4.08689
4.04776
4.01417
3.97161
3.92902
3.88287
3.83034
3.77946
3.71806
3.66019
3.59103
3.52654
3.45062
3.38132
3.29923
3.22624
3.14
3.06408
2.9759
2.89823
2.8103
2.73167
2.64607
2.56798
2.48751
2.41024
2.33481
2.26016
2.18936
2.1183
2.05166
1.98488
1.9221
1.85955
1.80035
1.74184
1.68619
1.63148
1.57854
1.52634
1.47902
1.4287
1.38518
1.33765
1.29743
1.25267
1.21571
1.17342
1.14029
1.10013
1.07065
1.03257
1.00634
0.970934
0.94758
0.91444
0.892225
0.864851
0.842707
0.819693
0.797949
0.778758
0.757587
0.741728
0.720963
0.70844
0.687988
0.678354
0.658955
0.650432
0.633041
0.625307
0.609303
0.601399
0.58879
0.580487
0.570117
0.561547
0.553111
0.54417
0.537777
0.528406
0.523741
0.514416
0.510531
0.50178
0.498118
0.490253
0.486855
0.479655
0.476534
0.469688
0.466467
0.460982
0.457541
0.452877
0.449192
0.445465
0.441478
0.43857
0.434338
0.432077
0.427879
0.426016
0.422026
0.42031
0.416624
0.415042
0.411518
0.409866
0.407097
0.405341
0.402992
0.401154
0.399286
0.397311
0.395889
0.393811
0.39279
0.390768
0.389955
0.388133
0.387426
0.385841
0.385238
0.383842
0.383189
0.382354
0.381608
0.38118
0.380478
0.380264
0.379766
0.379669
0.37945
0.37948
0.379477
0.379816
0.37998
0.380635
0.381006
0.38198
0.38259
0.383835
0.385025
0.386508
0.388311
0.390099
0.392445
0.394712
0.397644
0.400468
0.403952
0.407291
0.411305
0.415209
0.419837
0.424387
0.429734
0.435006
0.441118
0.447132
0.453967
0.460547
0.467976
0.475038
0.482901
0.490237
0.498173
0.505435
0.513027
0.519717
0.526389
0.531879
0.53687
0.54022
0.542291
0.543115
4.58753
4.52865
4.50851
4.46907
4.44895
4.41912
4.39581
4.37074
4.34641
4.32368
4.29905
4.27732
4.25217
4.23054
4.20353
4.18079
4.15049
4.12462
4.09144
4.05818
4.0215
3.97909
3.93735
3.88569
3.83618
3.77541
3.71748
3.64768
3.58235
3.50362
3.43261
3.34636
3.27067
3.17848
3.09962
3.004
2.92213
2.82921
2.74057
2.65465
2.5632
2.48216
2.39216
2.31591
2.22935
2.15852
2.07554
2.01043
1.93187
1.87214
1.79876
1.74338
1.67535
1.62357
1.56164
1.51129
1.45643
1.40668
1.35784
1.30945
1.26538
1.219
1.17882
1.13456
1.0983
1.05602
1.0234
0.983523
0.954111
0.917034
0.890364
0.856255
0.832064
0.801707
0.779019
0.75274
0.731442
0.708939
0.689177
0.669987
0.651629
0.635525
0.618647
0.605134
0.589982
0.578505
0.565028
0.555115
0.543004
0.53481
0.524025
0.516864
0.50743
0.501035
0.49275
0.48694
0.479723
0.474397
0.468086
0.463188
0.457615
0.453174
0.448208
0.444172
0.439679
0.436014
0.431837
0.428404
0.424879
0.421549
0.418406
0.415228
0.412463
0.409421
0.406998
0.40407
0.401951
0.399167
0.39732
0.394661
0.39308
0.390541
0.389199
0.386742
0.385543
0.383485
0.382288
0.380508
0.379356
0.377861
0.376762
0.375542
0.374511
0.373552
0.372616
0.371896
0.37105
0.370567
0.369846
0.369562
0.369033
0.368792
0.368634
0.36849
0.368506
0.368529
0.368802
0.368967
0.36949
0.369826
0.370594
0.37113
0.372144
0.372905
0.374176
0.375198
0.376748
0.378082
0.379887
0.381564
0.383592
0.385611
0.38792
0.390339
0.39309
0.396053
0.399355
0.403066
0.406987
0.411529
0.416145
0.421515
0.426894
0.433093
0.43928
0.446274
0.453293
0.461023
0.468627
0.47696
0.485036
0.493766
0.502095
0.510909
0.519097
0.527471
0.534872
0.542049
0.547848
0.552994
0.556341
0.558425
0.559204
4.58872
4.53529
4.51568
4.47735
4.45833
4.43016
4.40906
4.38646
4.3655
4.34625
4.32641
4.30948
4.29077
4.27553
4.2569
4.24222
4.22233
4.20628
4.18504
4.16376
4.1401
4.11151
4.08332
4.04677
4.01138
3.96631
3.92264
3.86845
3.81681
3.753
3.69461
3.62238
3.558
3.47866
3.40946
3.325
3.25081
3.16672
3.08416
3.00425
2.91743
2.84075
2.75371
2.68096
2.59593
2.52886
2.44561
2.38527
2.3052
2.25148
2.1763
2.12723
2.05744
2.0129
1.95387
1.90267
1.85658
1.80246
1.76358
1.7089
1.67493
1.6199
1.59068
1.5332
1.50798
1.4501
1.42552
1.36894
1.34374
1.2884
1.26352
1.21545
1.18041
1.14121
1.10025
1.06795
1.02318
0.996299
0.949774
0.928345
0.881646
0.862244
0.818305
0.800323
0.760317
0.743149
0.707314
0.691756
0.661533
0.64475
0.620445
0.603516
0.584575
0.56766
0.553632
0.53651
0.526825
0.510305
0.503317
0.488628
0.482642
0.470277
0.464974
0.454588
0.450049
0.441185
0.437311
0.429915
0.426148
0.42
0.416735
0.411494
0.408541
0.404121
0.401371
0.397688
0.39509
0.39202
0.389619
0.387026
0.384823
0.382619
0.380589
0.378707
0.376807
0.375259
0.373528
0.372191
0.370713
0.369522
0.368297
0.367235
0.36623
0.365303
0.364487
0.363747
0.363109
0.362549
0.362092
0.361684
0.361411
0.361194
0.361115
0.361076
0.361157
0.361345
0.361618
0.362024
0.362491
0.363137
0.363812
0.36472
0.365622
0.366816
0.367969
0.369475
0.370905
0.372764
0.374521
0.376795
0.378943
0.381702
0.384341
0.387585
0.390763
0.394438
0.398219
0.402375
0.406863
0.411677
0.416972
0.422582
0.428795
0.435266
0.442443
0.44976
0.457916
0.466065
0.474843
0.483715
0.492975
0.502336
0.511805
0.521296
0.530513
0.539528
0.547741
0.555368
0.561604
0.566892
0.570361
0.572441
0.573186
4.58106
4.52769
4.50826
4.47162
4.45341
4.4279
4.40904
4.38963
4.3722
4.35688
4.34175
4.32973
4.31697
4.30789
4.29675
4.28974
4.27903
4.27225
4.26189
4.25162
4.24039
4.22479
4.21001
4.18812
4.16722
4.13812
4.10977
4.07237
4.03632
3.9896
3.94634
3.89115
3.84131
3.7788
3.72338
3.65526
3.5941
3.52523
3.45543
3.38845
3.31466
3.24861
3.17417
3.11035
3.03738
2.97788
2.9064
2.85264
2.78412
2.7363
2.6725
2.629
2.57066
2.53177
2.48317
2.43987
2.40258
2.35847
2.32748
2.2842
2.25745
2.21492
2.19178
2.14744
2.12718
2.08088
2.06178
2.01473
1.99407
1.94653
1.92437
1.88201
1.84743
1.81099
1.76855
1.73531
1.68693
1.65546
1.60229
1.57325
1.51374
1.48773
1.42455
1.39843
1.3349
1.30708
1.24411
1.21624
1.16107
1.12165
1.07709
1.03122
0.995549
0.945833
0.918883
0.866759
0.845316
0.795632
0.776059
0.730914
0.713321
0.673457
0.65704
0.622468
0.60816
0.578276
0.566321
0.54183
0.528647
0.510122
0.497588
0.484025
0.471099
0.462264
0.449255
0.444007
0.432427
0.427857
0.418513
0.41477
0.407131
0.404067
0.397818
0.395369
0.390498
0.387945
0.384284
0.382143
0.379342
0.377322
0.375377
0.373384
0.372184
0.370345
0.369567
0.368091
0.367504
0.366425
0.366027
0.365293
0.365061
0.364764
0.364588
0.364591
0.364589
0.364953
0.365079
0.365783
0.366078
0.367116
0.367588
0.368981
0.369636
0.371407
0.372272
0.374431
0.375525
0.378105
0.379601
0.382346
0.384408
0.387425
0.390119
0.393484
0.396897
0.400742
0.404912
0.409345
0.4143
0.419446
0.425285
0.431278
0.438144
0.445091
0.453077
0.461009
0.470167
0.479111
0.489025
0.498876
0.509389
0.51986
0.530662
0.541328
0.551917
0.562073
0.571569
0.580116
0.587274
0.593062
0.596864
0.599088
0.59984
4.60724
4.5449
4.52426
4.48885
4.47047
4.44761
4.43033
4.41446
4.40001
4.38892
4.37769
4.37046
4.36229
4.3583
4.35314
4.35141
4.3482
4.34749
4.34523
4.34249
4.34028
4.33397
4.32906
4.31804
4.30798
4.29102
4.27456
4.25048
4.22696
4.1944
4.16378
4.12315
4.08583
4.0382
3.99501
3.94184
3.89276
3.83782
3.78066
3.72579
3.66481
3.60901
3.54697
3.4917
3.43036
3.37776
3.31746
3.2691
3.2113
3.16776
3.11415
3.07451
3.02593
2.99085
2.95096
2.91381
2.88347
2.84766
2.82288
2.78962
2.76916
2.73833
2.72203
2.69136
2.6783
2.6473
2.63521
2.60423
2.59115
2.56004
2.5461
2.51933
2.49569
2.47312
2.44373
2.42272
2.389
2.36809
2.33061
2.31006
2.26701
2.24702
2.19921
2.17879
2.12808
2.10439
2.05176
2.02526
1.9777
1.93625
1.89473
1.84412
1.80527
1.74824
1.71241
1.64771
1.61539
1.54501
1.51536
1.44236
1.41238
1.33987
1.30831
1.23728
1.20628
1.13749
1.10851
1.04679
1.00831
0.96016
0.915271
0.879539
0.828426
0.804422
0.75342
0.733496
0.687749
0.669168
0.629679
0.613609
0.579696
0.566047
0.53745
0.526416
0.503756
0.491514
0.475106
0.463935
0.452456
0.441263
0.434477
0.423729
0.419821
0.410818
0.407561
0.400718
0.398243
0.393029
0.391285
0.387245
0.386034
0.383405
0.381923
0.380607
0.379396
0.378943
0.37811
0.378016
0.377744
0.377904
0.37797
0.378772
0.379023
0.380361
0.380891
0.38273
0.383537
0.385892
0.387186
0.389719
0.391691
0.39447
0.397158
0.40024
0.403745
0.407267
0.411636
0.415762
0.421047
0.425933
0.432233
0.438007
0.445482
0.452289
0.461087
0.469015
0.479256
0.488414
0.499641
0.50995
0.521991
0.533119
0.545605
0.557097
0.569454
0.580616
0.591788
0.60145
0.609776
0.616574
0.6206
0.623222
0.624011
4.67959
4.6092
4.58769
4.55241
4.53359
4.51243
4.4963
4.48326
4.47101
4.46333
4.45508
4.4515
4.44745
4.44662
4.44559
4.44684
4.44678
4.45036
4.45201
4.45342
4.45468
4.45321
4.45248
4.44729
4.44236
4.4319
4.42151
4.40491
4.38841
4.36443
4.34144
4.31025
4.28094
4.24339
4.20846
4.16577
4.12528
4.08025
4.03277
3.9867
3.93553
3.88766
3.83495
3.78651
3.73373
3.68653
3.63426
3.58965
3.5394
3.49815
3.45142
3.41339
3.37099
3.33709
3.30196
3.26825
3.2409
3.21015
3.18776
3.16085
3.14287
3.11958
3.10622
3.08508
3.07599
3.05676
3.04957
3.03154
3.02433
3.00687
2.99984
2.98575
2.97294
2.96177
2.94564
2.93563
2.91689
2.90697
2.8859
2.876
2.85136
2.84135
2.81367
2.80284
2.77339
2.75981
2.72893
2.71332
2.686
2.65966
2.63587
2.6035
2.58045
2.54386
2.52156
2.47924
2.45786
2.41074
2.38937
2.33792
2.31583
2.26167
2.23585
2.17948
2.15053
2.09115
2.06091
2.00398
1.95715
1.90784
1.84976
1.80607
1.7367
1.69839
1.62036
1.58625
1.50453
1.46871
1.38685
1.35099
1.27003
1.23486
1.15689
1.12432
1.05497
1.01177
0.957991
0.908135
0.868799
0.812968
0.787335
0.732874
0.712043
0.664632
0.645797
0.606302
0.590645
0.55804
0.545814
0.518685
0.509223
0.489332
0.478608
0.465481
0.456155
0.447716
0.439119
0.434831
0.427389
0.425036
0.419557
0.418106
0.414539
0.413793
0.411842
0.4117
0.411095
0.411486
0.412138
0.412852
0.414744
0.415734
0.418778
0.420056
0.424186
0.426007
0.431171
0.433577
0.439835
0.443032
0.450417
0.454623
0.463293
0.468703
0.478848
0.485635
0.497456
0.50592
0.518849
0.529078
0.542953
0.554636
0.569006
0.581698
0.595845
0.608906
0.621619
0.633762
0.643006
0.652161
0.656481
0.659887
0.660836
4.77058
4.69911
4.67927
4.64468
4.62685
4.60702
4.59269
4.58213
4.57235
4.56716
4.56272
4.56169
4.56087
4.56226
4.5628
4.56702
4.56823
4.5735
4.57598
4.57815
4.57961
4.57837
4.57753
4.57269
4.56776
4.55802
4.5481
4.53292
4.51771
4.49628
4.47545
4.44795
4.42154
4.3886
4.35722
4.31991
4.28372
4.24402
4.20239
4.16128
4.11643
4.07345
4.02697
3.98297
3.93594
3.89225
3.84529
3.80301
3.75738
3.71728
3.67423
3.63659
3.59697
3.56264
3.52861
3.49592
3.46806
3.43897
3.41573
3.39101
3.37217
3.35169
3.33745
3.32055
3.31112
3.29761
3.29176
3.28096
3.27649
3.26757
3.26409
3.25789
3.25246
3.24839
3.24193
3.23885
3.23154
3.22884
3.22091
3.21833
3.20901
3.20621
3.19543
3.19206
3.18008
3.17548
3.16242
3.15696
3.14586
3.13441
3.12515
3.11049
3.10157
3.08457
3.07597
3.05569
3.04736
3.02448
3.01588
2.99073
2.98155
2.95499
2.94352
2.91572
2.90249
2.87284
2.85928
2.83185
2.80725
2.78458
2.7532
2.73262
2.6942
2.67493
2.63047
2.61095
2.56233
2.53854
2.48618
2.45815
2.40082
2.36847
2.30514
2.26998
2.20732
2.1517
2.09633
2.02625
1.97579
1.89104
1.84571
1.74963
1.70887
1.60831
1.56445
1.46465
1.42108
1.32431
1.28393
1.18949
1.1519
1.07003
1.02166
0.959502
0.904764
0.860202
0.80263
0.773616
0.719556
0.698277
0.652589
0.635613
0.599064
0.585906
0.557503
0.547651
0.526307
0.519272
0.505557
0.49773
0.490377
0.4845
0.481435
0.477188
0.476484
0.474612
0.475022
0.474909
0.47777
0.478648
0.483715
0.485791
0.4929
0.496053
0.505176
0.509683
0.520924
0.527747
0.539971
0.54972
0.562972
0.575438
0.589365
0.604156
0.618089
0.634421
0.647357
0.663525
0.673379
0.685506
0.691019
0.695181
0.696376
4.77611
4.72907
4.71645
4.68898
4.67597
4.66169
4.65239
4.64705
4.64394
4.64305
4.64279
4.64532
4.64815
4.65359
4.65707
4.66366
4.66697
4.67318
4.67618
4.67777
4.67804
4.67553
4.67239
4.66518
4.65728
4.64491
4.63182
4.61421
4.59609
4.57319
4.55017
4.52222
4.49448
4.46209
4.43022
4.39421
4.35855
4.3204
4.28124
4.24176
4.20017
4.15933
4.11644
4.07474
4.0313
3.98955
3.94614
3.90513
3.86257
3.82295
3.78212
3.74429
3.7059
3.67046
3.63585
3.60279
3.57267
3.543
3.517
3.49141
3.4696
3.44829
3.43091
3.41376
3.40095
3.38804
3.37963
3.3706
3.36522
3.35901
3.35583
3.35245
3.35022
3.34899
3.34776
3.34743
3.34692
3.34713
3.34701
3.34801
3.34796
3.34924
3.34908
3.3502
3.34992
3.35059
3.35011
3.35048
3.35031
3.34934
3.34933
3.34776
3.3477
3.34547
3.34546
3.3423
3.34229
3.33837
3.33821
3.33363
3.33336
3.32837
3.32749
3.322
3.32086
3.31478
3.31384
3.30845
3.30337
3.30033
3.29261
3.29087
3.28076
3.27888
3.26699
3.2646
3.25117
3.24709
3.23167
3.22655
3.2084
3.20195
3.18095
3.17416
3.15445
3.13577
3.12026
3.09365
3.07951
3.04404
3.0302
2.98638
2.97064
2.92034
2.89713
2.84046
2.80883
2.74365
2.70475
2.62569
2.5817
2.50325
2.42976
2.35861
2.26468
2.19687
2.08517
2.02105
1.8975
1.83809
1.70882
1.65356
1.52702
1.47457
1.35446
1.30469
1.19331
1.1477
1.05524
1.00214
0.93548
0.880015
0.835602
0.78222
0.756695
0.711035
0.694216
0.659814
0.648417
0.625048
0.618096
0.603931
0.600543
0.593757
0.593111
0.590669
0.591672
0.593784
0.596673
0.603417
0.608492
0.619903
0.627063
0.642655
0.652449
0.671037
0.683123
0.702773
0.714817
0.730557
0.737991
0.743296
0.744845
4.54543
4.57427
4.57815
4.56769
4.56679
4.56522
4.56759
4.57191
4.57995
4.58797
4.59752
4.6075
4.61831
4.62979
4.6404
4.65138
4.66008
4.66908
4.67554
4.67988
4.68042
4.67869
4.67433
4.66629
4.65608
4.6417
4.62546
4.60525
4.58367
4.55849
4.53215
4.5025
4.47193
4.43848
4.40435
4.36787
4.33075
4.2922
4.25369
4.21389
4.17393
4.13348
4.09272
4.05193
4.01088
3.97015
3.9294
3.88923
3.84919
3.81006
3.77119
3.73347
3.69617
3.66
3.6251
3.59162
3.55952
3.52892
3.50008
3.47282
3.44754
3.42401
3.40258
3.38318
3.36582
3.35072
3.3376
3.32664
3.3174
3.31003
3.30391
3.29913
3.29639
3.29414
3.29382
3.29332
3.29392
3.29454
3.29653
3.29836
3.30156
3.30437
3.30833
3.31173
3.31591
3.31984
3.32416
3.32822
3.3327
3.33753
3.34221
3.34735
3.35251
3.35772
3.36337
3.3685
3.37466
3.37965
3.38632
3.39127
3.39847
3.4037
3.41124
3.41673
3.42453
3.43015
3.43847
3.44507
3.45287
3.46087
3.46824
3.47777
3.48438
3.49514
3.5012
3.51279
3.51883
3.5306
3.53694
3.54887
3.55513
3.56705
3.57288
3.58545
3.59236
3.60094
3.61015
3.6161
3.62674
3.6299
3.64023
3.6422
3.65139
3.65254
3.65906
3.65899
3.66276
3.66086
3.66322
3.65703
3.65878
3.65397
3.64336
3.6407
3.62163
3.61746
3.58734
3.57922
3.53627
3.52113
3.46164
3.43505
3.35665
3.31251
3.2142
3.15579
3.03618
2.96388
2.84237
2.72126
2.60949
2.45716
2.34734
2.17925
2.07667
1.90142
1.81577
1.63775
1.55986
1.39398
1.32338
1.18264
1.12409
1.01586
0.97214
0.898785
0.870042
0.820548
0.793475
0.766302
0.743659
0.733454
0.719478
0.716121
0.713585
0.719627
0.726643
0.741653
0.755436
0.77345
0.785599
0.792259
0.794425
3.96204
4.10959
4.1407
4.14875
4.17679
4.189
4.2183
4.23652
4.26667
4.28823
4.31732
4.33917
4.36657
4.38729
4.41329
4.43137
4.45336
4.46738
4.48153
4.49537
4.5014
4.50573
4.5037
4.50065
4.4916
4.4806
4.4642
4.44613
4.42298
4.39964
4.37116
4.34318
4.31051
4.27872
4.24264
4.2077
4.16923
4.13042
4.09383
4.05287
4.01584
3.97495
3.93744
3.89687
3.85939
3.81895
3.78241
3.74249
3.70681
3.66788
3.63296
3.59569
3.56162
3.52542
3.49113
3.45968
3.42595
3.3968
3.36559
3.33863
3.31012
3.2858
3.26006
3.23939
3.21685
3.19985
3.18101
3.16754
3.15294
3.14283
3.13161
3.12307
3.11781
3.11129
3.10938
3.10582
3.10559
3.10431