/*--------------------------------*- C++ -*----------------------------------*\
| =========                 |                                                 |
| \\      /  F ield         | OpenFOAM: The Open Source CFD Toolbox           |
|  \\    /   O peration     | Version:  4.1                                   |
|   \\  /    A nd           | Web:      www.OpenFOAM.org                      |
|    \\/     M anipulation  |                                                 |
\*---------------------------------------------------------------------------*/
FoamFile
{
    version     2.0;
    format      ascii;
    class       volScalarField;
    location    "15";
    object      p;
}
// * * * * * * * * * * * * * * * * * * * * * * * * * * * * * * * * * * * * * //

dimensions      [0 2 -2 0 0 0 0];

internalField   nonuniform List<scalar> 
204246
(
13.706
-5.10663
-5.62934
-5.06446
-5.44117
-5.38625
-5.84479
-5.95137
-6.12927
-6.27771
-6.45844
-6.56644
-6.65501
-6.5997
-6.5362
-6.35206
-7.42398
-7.78913
-7.40356
-7.76508
-7.62475
-7.62762
-7.6009
-7.63311
-7.65556
-7.74561
-7.8101
-7.89744
-7.87706
-7.8694
-7.74811
-7.66832
-7.55859
-7.65455
-7.91576
-8.55536
-8.88097
-8.44392
-8.89255
-8.8184
-8.83878
-8.8623
-8.96357
-9.04486
-9.16847
-9.21423
-9.32174
-9.35173
-9.42858
-9.39755
-9.36991
-9.2928
-10.2296
-10.6281
-10.2155
-10.6989
-10.6399
-10.6767
-10.7108
-10.8194
-10.9016
-11.0254
-11.0667
-11.1703
-11.1918
-11.2572
-11.2058
-11.151
-11.0325
-11.9594
-12.436
-12.1305
-12.439
-12.3597
-12.3777
-12.3595
-12.3637
-12.2705
-12.8488
-12.7443
-12.7815
-12.7692
-12.8217
-12.7565
-12.6872
-12.5454
-13.5045
-13.9878
-13.6691
-13.9836
-13.8669
-13.8142
-13.6977
-14.3233
-14.2899
-14.3849
-14.376
-14.3445
-14.0661
-14.7202
-14.657
-14.6385
-14.5583
-14.5242
-14.4585
-15.5379
-15.916
-15.6998
-15.8928
-15.6319
-16.2467
-16.1935
-16.3122
-16.3641
-16.4128
-16.2485
-16.7929
-16.4518
-17.0214
-16.8846
-16.8164
-16.6639
-17.819
-18.2989
-18.0744
-18.4548
-18.1077
-18.7789
-18.8366
-18.8991
-18.7468
-19.4002
-19.1495
-19.7941
-19.5093
-20.1366
-19.7512
-20.2341
-19.9431
-21.2084
-21.803
-21.6901
-22.1855
-21.8821
-22.5393
-22.2773
-22.9985
-22.6986
-23.387
-23.0934
-23.8282
-23.8901
-23.9936
-23.8966
-23.7593
-23.416
-24.6381
-24.9242
-24.3073
-24.4432
-23.8076
-23.2542
-22.5072
-21.7107
-20.6084
-19.3479
-17.6806
-15.7744
-13.4064
-10.7767
-7.72922
-4.48946
0.126137
4.76731
10.1586
16.0336
22.8549
30.7735
39.3675
49.1695
60.1585
72.8021
87.158
103.7
122.396
143.509
166.92
193.198
223.288
262.774
322.761
418.389
547.001
5.78887
2.04167
-1.2661
-3.29115
-4.46329
-5.08487
-5.48113
-5.76657
-6.00333
-6.21041
-6.39058
-6.52832
-6.60515
-6.61092
-6.6133
-6.69967
-6.99063
-7.25769
-7.39642
-7.50694
-7.56114
-7.5808
-7.58653
-7.60278
-7.64071
-7.70272
-7.7747
-7.83944
-7.86772
-7.85356
-7.78315
-7.70615
-7.67745
-7.74903
-7.92947
-8.17242
-8.36927
-8.48638
-8.60433
-8.6843
-8.74653
-8.81046
-8.88774
-8.97761
-9.07733
-9.17465
-9.26466
-9.33157
-9.36998
-9.37766
-9.41341
-9.5387
-9.80939
-10.0652
-10.2256
-10.3784
-10.4909
-10.5774
-10.6586
-10.7468
-10.8436
-10.9445
-11.0399
-11.1262
-11.1853
-11.2122
-11.1996
-11.2096
-11.3174
-11.5875
-11.8659
-12.0443
-12.1784
-12.2548
-12.2931
-12.3149
-12.3488
-12.4289
-12.5751
-12.6826
-12.7492
-12.7867
-12.7884
-12.7593
-12.759
-12.8654
-13.1386
-13.4156
-13.5801
-13.6893
-13.7399
-13.7786
-13.8628
-14.0241
-14.1649
-14.2549
-14.3008
-14.317
-14.3598
-14.499
-14.5882
-14.5976
-14.584
-14.6112
-14.7579
-15.0726
-15.3608
-15.5263
-15.6557
-15.7757
-15.9417
-16.0842
-16.1913
-16.2803
-16.345
-16.4311
-16.5714
-16.6747
-16.7959
-16.8331
-16.8642
-17.0195
-17.3667
-17.7148
-17.9442
-18.1323
-18.2863
-18.4881
-18.6717
-18.7905
-18.9297
-19.1176
-19.3095
-19.5261
-19.728
-19.9088
-20.0232
-20.1335
-20.3561
-20.7834
-21.2339
-21.5801
-21.8793
-22.1218
-22.3401
-22.5944
-22.8188
-23.0792
-23.2842
-23.5676
-23.8267
-24.1569
-24.3114
-24.4957
-24.4201
-24.6157
-24.8193
-25.0254
-25.0999
-25.0624
-24.9773
-24.5628
-24.2388
-23.5889
-22.8971
-21.896
-20.6716
-19.1301
-17.3035
-15.1785
-12.6681
-9.77721
-6.27852
-2.31962
2.27468
7.39385
13.3778
20.2103
27.7855
36.3114
45.7433
56.4163
68.3941
82.1297
97.6716
115.29
134.599
155.369
177.223
202.252
238.157
303.603
400.376
-2.41135
-1.46996
-2.07911
-3.02974
-3.9747
-4.68061
-5.21168
-5.5894
-5.8891
-6.12661
-6.32657
-6.48119
-6.58742
-6.65501
-6.7255
-6.84265
-6.98235
-7.12976
-7.27603
-7.39251
-7.47525
-7.52718
-7.55559
-7.57824
-7.61265
-7.66313
-7.7244
-7.78481
-7.83264
-7.84085
-7.82164
-7.78532
-7.79069
-7.85215
-7.97541
-8.10793
-8.23906
-8.37497
-8.49088
-8.58729
-8.66826
-8.7475
-8.82818
-8.91767
-9.01394
-9.11902
-9.21454
-9.3009
-9.35743
-9.41595
-9.49441
-9.63096
-9.78368
-9.94316
-10.1118
-10.2583
-10.3826
-10.4896
-10.5886
-10.6834
-10.7826
-10.8836
-10.9913
-11.0847
-11.166
-11.2096
-11.2482
-11.3046
-11.4265
-11.5724
-11.7302
-11.8945
-12.0341
-12.1425
-12.2117
-12.2673
-12.3241
-12.4101
-12.5012
-12.6062
-12.6965
-12.769
-12.7938
-12.8145
-12.8591
-12.9812
-13.1251
-13.2772
-13.43
-13.5475
-13.6402
-13.7215
-13.8241
-13.9294
-14.048
-14.1422
-14.219
-14.2716
-14.3729
-14.4557
-14.5462
-14.5874
-14.631
-14.7095
-14.8614
-15.0228
-15.1862
-15.3504
-15.5058
-15.661
-15.7972
-15.9383
-16.0548
-16.1744
-16.2512
-16.3663
-16.4821
-16.6153
-16.7223
-16.8106
-16.9053
-17.082
-17.2759
-17.4856
-17.7049
-17.9117
-18.1098
-18.2882
-18.4618
-18.6118
-18.7726
-18.9296
-19.1086
-19.3058
-19.5114
-19.6933
-19.8617
-20.0374
-20.2748
-20.5704
-20.8886
-21.1925
-21.4788
-21.7104
-21.9575
-22.1887
-22.4353
-22.6613
-22.903
-23.1311
-23.3887
-23.5924
-23.7946
-23.8868
-24.0217
-24.1516
-24.3792
-24.5033
-24.4945
-24.4063
-24.1772
-23.8606
-23.4021
-22.8216
-22.0493
-21.0533
-19.7991
-18.2297
-16.4133
-14.2276
-11.7398
-8.79459
-5.48327
-1.63735
2.75435
7.84095
13.6567
20.1933
27.6183
35.9408
45.2765
55.6705
67.3577
80.5286
95.5396
112.481
131.286
151.322
172.273
194.723
223.407
266.566
323.772
-5.56504
-3.53643
-3.27751
-3.55754
-4.05216
-4.57613
-5.05963
-5.45463
-5.7789
-6.04098
-6.25098
-6.42243
-6.54985
-6.6571
-6.75749
-6.87674
-6.98006
-7.09114
-7.20778
-7.31849
-7.4121
-7.4703
-7.52187
-7.54982
-7.58905
-7.62491
-7.67629
-7.72354
-7.77391
-7.79088
-7.80782
-7.79083
-7.8235
-7.87312
-7.96602
-8.0587
-8.16629
-8.27964
-8.39124
-8.49442
-8.58252
-8.6737
-8.75667
-8.85048
-8.94054
-9.04467
-9.13589
-9.23005
-9.30123
-9.38742
-9.48245
-9.60788
-9.73646
-9.87425
-10.0193
-10.1615
-10.2977
-10.4057
-10.5179
-10.6149
-10.7211
-10.8177
-10.9279
-11.015
-11.1154
-11.1612
-11.2419
-11.3161
-11.4293
-11.5432
-11.6719
-11.8062
-11.9334
-12.0511
-12.1331
-12.2169
-12.2803
-12.3723
-12.4399
-12.5489
-12.6169
-12.7186
-12.7471
-12.8161
-12.87
-12.9925
-13.0948
-13.2226
-13.3518
-13.4595
-13.5772
-13.6545
-13.7743
-13.8564
-13.9824
-14.0503
-14.1605
-14.2089
-14.3288
-14.3921
-14.5072
-14.5515
-14.6357
-14.7192
-14.8741
-14.9875
-15.1386
-15.2844
-15.4174
-15.5852
-15.6991
-15.8596
-15.9583
-16.1116
-16.1834
-16.3264
-16.4212
-16.5665
-16.663
-16.7915
-16.8992
-17.0969
-17.2417
-17.4275
-17.6241
-17.7986
-18.0232
-18.1889
-18.3974
-18.538
-18.74
-18.88
-19.092
-19.2526
-19.4808
-19.6401
-19.8547
-20.0249
-20.3123
-20.5409
-20.8183
-21.1138
-21.3871
-21.7058
-21.9353
-22.2354
-22.4525
-22.7501
-22.9637
-23.2974
-23.5171
-23.8384
-24.0171
-24.2725
-24.422
-24.6955
-24.8438
-25.0322
-25.1829
-25.2343
-25.2137
-25.0749
-24.8761
-24.5547
-24.1279
-23.558
-22.7459
-21.6992
-20.2735
-18.5211
-16.3673
-13.841
-10.8794
-7.47953
-3.55432
0.936372
6.13487
12.0522
18.7373
26.2831
34.7171
44.1542
54.6633
66.4198
79.5113
94.0453
109.995
127.396
146.438
168.242
195.529
230.29
268.693
-6.66536
-4.68532
-4.25685
-4.22992
-4.42645
-4.74081
-5.08929
-5.43279
-5.73143
-5.99554
-6.20749
-6.39066
-6.53116
-6.66218
-6.77235
-6.89308
-6.98196
-7.08185
-7.17975
-7.28116
-7.37863
-7.42693
-7.50522
-7.52999
-7.58282
-7.60519
-7.66198
-7.68756
-7.74916
-7.7597
-7.8041
-7.79484
-7.84344
-7.87513
-7.9684
-8.0325
-8.12259
-8.21942
-8.31474
-8.43602
-8.51766
-8.61521
-8.69878
-8.79753
-8.88082
-9.00231
-9.07806
-9.19595
-9.2583
-9.36959
-9.46196
-9.58529
-9.69567
-9.8263
-9.95902
-10.0849
-10.2396
-10.3385
-10.4683
-10.559
-10.6795
-10.7661
-10.893
-10.9673
-11.0863
-11.1343
-11.237
-11.3083
-11.4271
-11.5151
-11.6393
-11.7622
-11.8641
-11.9921
-12.069
-12.176
-12.2405
-12.3431
-12.408
-12.5196
-12.5802
-12.6879
-12.723
-12.8113
-12.865
-12.9794
-13.0668
-13.1846
-13.3026
-13.396
-13.5218
-13.5995
-13.7226
-13.8031
-13.9332
-13.9964
-14.1184
-14.1701
-14.2932
-14.3505
-14.4705
-14.5238
-14.6262
-14.7017
-14.8412
-14.9478
-15.0915
-15.2262
-15.3487
-15.5073
-15.6248
-15.7865
-15.8805
-16.0407
-16.1189
-16.2701
-16.3665
-16.5125
-16.6122
-16.7521
-16.8608
-17.0401
-17.1838
-17.3621
-17.5357
-17.7086
-17.9183
-18.0737
-18.2853
-18.4329
-18.6399
-18.7874
-19.0017
-19.1618
-19.3882
-19.5486
-19.7634
-19.9516
-20.216
-20.4325
-20.7001
-20.9635
-21.2354
-21.5225
-21.7652
-22.0405
-22.288
-22.5503
-22.8052
-23.0711
-23.3325
-23.5712
-23.8004
-23.9815
-24.1836
-24.3656
-24.5794
-24.754
-24.8486
-24.8738
-24.8024
-24.6275
-24.3241
-23.8646
-23.2834
-22.5373
-21.6999
-20.6581
-19.4366
-17.9216
-16.1083
-13.9187
-11.338
-8.3004
-4.77916
-0.704071
3.9859
9.30803
15.38
22.278
30.0924
38.8879
48.7089
59.5422
71.3293
83.9559
97.3955
111.75
127.627
146.384
169.755
197.778
225.746
-7.15198
-5.27652
-4.91172
-4.80365
-4.84425
-5.01848
-5.23862
-5.50461
-5.75067
-5.9943
-6.19523
-6.38133
-6.52812
-6.67409
-6.78728
-6.91452
-6.99077
-7.08514
-7.17207
-7.26221
-7.36569
-7.40019
-7.48618
-7.51201
-7.57198
-7.59127
-7.64739
-7.66727
-7.73074
-7.74176
-7.79498
-7.79197
-7.84853
-7.87149
-7.95956
-8.008
-8.09592
-8.18421
-8.25461
-8.38099
-8.4559
-8.56487
-8.64106
-8.74988
-8.82661
-8.95346
-9.02663
-9.15419
-9.21948
-9.34387
-9.43182
-9.56134
-9.65648
-9.78891
-9.91907
-10.0226
-10.1794
-10.2814
-10.4164
-10.5106
-10.6357
-10.7246
-10.8537
-10.9312
-11.0532
-11.1118
-11.2224
-11.2931
-11.4107
-11.4949
-11.6092
-11.7248
-11.8187
-11.9426
-12.0219
-12.1324
-12.2022
-12.3059
-12.3761
-12.4884
-12.5472
-12.6579
-12.7023
-12.7992
-12.8557
-12.965
-13.0466
-13.1573
-13.2615
-13.3517
-13.4711
-13.5531
-13.6703
-13.7552
-13.8803
-13.9476
-14.0702
-14.1322
-14.254
-14.3151
-14.4343
-14.5014
-14.6038
-14.6923
-14.8092
-14.9212
-15.0533
-15.1765
-15.3
-15.4322
-15.5615
-15.7121
-15.8127
-15.9683
-16.0586
-16.2001
-16.3178
-16.4505
-16.5675
-16.6993
-16.8236
-16.9764
-17.1267
-17.2957
-17.4588
-17.6286
-17.8141
-17.9721
-18.1744
-18.3297
-18.531
-18.6876
-18.8965
-19.062
-19.2817
-19.4489
-19.673
-19.8583
-20.1152
-20.3213
-20.5805
-20.839
-21.1029
-21.3978
-21.646
-21.9465
-22.1913
-22.4967
-22.7448
-23.0661
-23.3218
-23.651
-23.8834
-24.2221
-24.4481
-24.7816
-24.9295
-25.1699
-25.4926
-25.6293
-25.7973
-25.8458
-25.8816
-25.9104
-25.7669
-25.4659
-24.8988
-24.1037
-23.0312
-21.6895
-20.0335
-18.0546
-15.704
-12.9621
-9.77503
-6.11201
-1.88097
2.93484
8.42147
14.6924
21.8309
29.9276
38.9935
49.0078
59.8509
71.3968
83.592
96.5002
110.604
127.091
146.758
169.461
190.994
-7.3345
-5.65204
-5.34069
-5.22676
-5.20822
-5.30021
-5.4336
-5.63127
-5.8215
-6.03439
-6.21344
-6.39543
-6.53979
-6.69374
-6.80544
-6.93839
-7.00908
-7.0989
-7.18356
-7.26329
-7.35942
-7.39641
-7.4769
-7.50607
-7.56549
-7.58768
-7.64043
-7.65998
-7.71909
-7.7321
-7.78971
-7.79232
-7.85146
-7.86986
-7.95212
-7.99275
-8.07405
-8.1548
-8.21753
-8.33385
-8.407
-8.51825
-8.59364
-8.70729
-8.78316
-8.90931
-8.98483
-9.11333
-9.18407
-9.31232
-9.39992
-9.53093
-9.62713
-9.75457
-9.88226
-9.98347
-10.1311
-10.2342
-10.3694
-10.4666
-10.5939
-10.6864
-10.8178
-10.8976
-11.0224
-11.0893
-11.2034
-11.276
-11.3929
-11.478
-11.5873
-11.6903
-11.7897
-11.9045
-11.9871
-12.092
-12.174
-12.2692
-12.352
-12.4584
-12.5191
-12.6295
-12.6841
-12.7767
-12.8499
-12.9463
-13.0343
-13.1356
-13.2321
-13.3269
-13.4294
-13.5213
-13.6262
-13.7211
-13.8378
-13.9102
-14.0329
-14.1015
-14.2243
-14.291
-14.4015
-14.4865
-14.5868
-14.6783
-14.7906
-14.8972
-15.0223
-15.1433
-15.2614
-15.3862
-15.5096
-15.6614
-15.7644
-15.9176
-16.0151
-16.1678
-16.2713
-16.4076
-16.5252
-16.6628
-16.7857
-16.9495
-17.0738
-17.2342
-17.3935
-17.5582
-17.7436
-17.8959
-18.0887
-18.2465
-18.4402
-18.6022
-18.7997
-18.9714
-19.1709
-19.3519
-19.5566
-19.7566
-19.9799
-20.201
-20.4451
-20.6884
-20.9407
-21.2008
-21.4544
-21.7182
-21.9804
-22.244
-22.5156
-22.7823
-23.0599
-23.3209
-23.59
-23.8263
-24.0739
-24.276
-24.5393
-24.774
-24.9498
-25.0707
-25.1094
-25.0619
-24.914
-24.6746
-24.4131
-24.071
-23.7068
-23.2009
-22.5306
-21.6142
-20.4218
-18.9005
-17.0242
-14.7532
-12.0624
-8.91601
-5.26107
-1.08953
3.69369
9.17723
15.4479
22.5756
30.5749
39.4233
49.044
59.3499
70.288
81.9356
94.6771
109.297
126.125
144.901
162.134
-7.3857
-5.87696
-5.62341
-5.52163
-5.48847
-5.53824
-5.62497
-5.7729
-5.91892
-6.10162
-6.25553
-6.42786
-6.56232
-6.71754
-6.82671
-6.96229
-7.03371
-7.12256
-7.20621
-7.27863
-7.36869
-7.40819
-7.48281
-7.5137
-7.57064
-7.59383
-7.64524
-7.66279
-7.71915
-7.73066
-7.78815
-7.79621
-7.85572
-7.87205
-7.9485
-7.98505
-8.05943
-8.13599
-8.19327
-8.30171
-8.37095
-8.47871
-8.55395
-8.66525
-8.74555
-8.86973
-8.94737
-9.07477
-9.15121
-9.27952
-9.3682
-9.49888
-9.59712
-9.72331
-9.84658
-9.94902
-10.0927
-10.1947
-10.329
-10.4278
-10.5558
-10.6515
-10.7833
-10.8664
-10.9925
-11.0662
-11.1764
-11.2622
-11.3685
-11.4628
-11.5669
-11.665
-11.7638
-11.8682
-11.9596
-12.0586
-12.1441
-12.2386
-12.3249
-12.4294
-12.493
-12.5937
-12.6643
-12.7535
-12.8311
-12.925
-13.013
-13.1097
-13.2025
-13.2955
-13.3928
-13.4831
-13.5846
-13.6796
-13.792
-13.8662
-13.9845
-14.0581
-14.1758
-14.247
-14.3608
-14.4411
-14.5448
-14.6405
-14.7527
-14.8505
-14.9732
-15.0884
-15.2047
-15.3292
-15.441
-15.5858
-15.691
-15.8365
-15.9399
-16.0827
-16.1934
-16.3332
-16.4504
-16.5922
-16.7136
-16.8644
-16.9925
-17.1517
-17.3075
-17.4666
-17.6436
-17.7986
-17.9855
-18.1448
-18.3399
-18.5018
-18.7036
-18.8741
-19.0851
-19.2606
-19.4828
-19.6764
-19.9108
-20.1098
-20.3424
-20.594
-20.8522
-21.1277
-21.3874
-21.673
-21.9404
-22.2374
-22.5147
-22.8242
-23.1125
-23.4339
-23.7321
-24.0625
-24.3612
-24.6845
-24.9529
-25.2565
-25.5746
-25.8782
-26.1718
-26.4188
-26.6276
-26.7631
-26.7643
-26.6339
-26.3193
-25.8473
-25.1858
-24.3334
-23.2435
-21.893
-20.2284
-18.2213
-15.8275
-13.0218
-9.74289
-5.98104
-1.65673
3.3004
8.94014
15.3042
22.4021
30.2288
38.7381
47.8833
57.6579
68.1584
79.6956
92.7261
107.376
123.303
137.558
-7.34409
-5.98285
-5.78875
-5.71181
-5.68425
-5.71989
-5.78512
-5.89953
-6.019
-6.17434
-6.30865
-6.46647
-6.59126
-6.74218
-6.84845
-6.98426
-7.05842
-7.15088
-7.23354
-7.30204
-7.39007
-7.42921
-7.50283
-7.53338
-7.59035
-7.61318
-7.66414
-7.68083
-7.73478
-7.74485
-7.80045
-7.81085
-7.86804
-7.8858
-7.95655
-7.9906
-8.05929
-8.12896
-8.18212
-8.28304
-8.35101
-8.45281
-8.52796
-8.6348
-8.71594
-8.83701
-8.91636
-9.04212
-9.12223
-9.25035
-9.34042
-9.46986
-9.56744
-9.69347
-9.81573
-9.91775
-10.0596
-10.1605
-10.294
-10.3936
-10.5213
-10.6191
-10.7508
-10.837
-10.9628
-11.0405
-11.1565
-11.2389
-11.3458
-11.4414
-11.5432
-11.6411
-11.7373
-11.8386
-11.9304
-12.0287
-12.1144
-12.2087
-12.2963
-12.3999
-12.4657
-12.5685
-12.6332
-12.7333
-12.8031
-12.9019
-12.9841
-13.078
-13.1684
-13.2594
-13.3621
-13.4428
-13.5499
-13.6354
-13.7491
-13.826
-13.9394
-14.0172
-14.1302
-14.2067
-14.3186
-14.4001
-14.5084
-14.5977
-14.7122
-14.8042
-14.9227
-15.0383
-15.1475
-15.2735
-15.3834
-15.5188
-15.6275
-15.7653
-15.874
-16.0113
-16.1259
-16.2594
-16.3795
-16.5169
-16.6415
-16.7813
-16.9099
-17.0647
-17.218
-17.3719
-17.5365
-17.6874
-17.8596
-18.0161
-18.1877
-18.3603
-18.5438
-18.7223
-18.9108
-19.0956
-19.2936
-19.4903
-19.698
-19.9164
-20.1486
-20.3802
-20.6223
-20.8662
-21.1206
-21.3757
-21.6421
-21.9087
-22.1863
-22.4623
-22.7486
-23.0294
-23.3204
-23.6027
-23.9009
-24.1934
-24.5072
-24.7871
-25.0156
-25.2183
-25.3808
-25.5446
-25.6593
-25.7328
-25.7878
-25.7848
-25.7885
-25.6941
-25.475
-25.0675
-24.4437
-23.5587
-22.3775
-20.8596
-18.9691
-16.6695
-13.9015
-10.6492
-6.85644
-2.47323
2.52824
8.17028
14.4487
21.3551
28.866
36.9727
45.6946
55.1505
65.5764
77.2406
90.1774
103.995
116.139
-7.20816
-5.9962
-5.85881
-5.81381
-5.80251
-5.84137
-5.8994
-5.99684
-6.10141
-6.23497
-6.35817
-6.5
-6.62008
-6.76154
-6.86511
-6.99702
-7.07538
-7.17506
-7.25738
-7.3269
-7.41218
-7.45075
-7.52675
-7.5577
-7.61727
-7.64044
-7.69233
-7.71061
-7.76499
-7.77473
-7.82823
-7.84053
-7.89534
-7.91388
-7.98031
-8.01449
-8.07819
-8.13987
-8.18727
-8.28452
-8.34823
-8.44687
-8.51813
-8.62164
-8.69894
-8.81704
-8.89526
-9.01998
-9.10091
-9.22919
-9.32109
-9.4488
-9.54291
-9.66676
-9.78796
-9.89166
-10.0311
-10.1328
-10.262
-10.3643
-10.4883
-10.5886
-10.7192
-10.8076
-10.9344
-11.0136
-11.1325
-11.2129
-11.3222
-11.4106
-11.5123
-11.615
-11.7042
-11.8104
-11.8961
-11.9974
-12.0793
-12.1774
-12.2597
-12.364
-12.4322
-12.5342
-12.599
-12.6987
-12.7685
-12.8671
-12.9437
-13.0374
-13.1299
-13.2149
-13.3179
-13.3986
-13.5019
-13.5864
-13.6948
-13.7763
-13.8852
-13.9667
-14.0755
-14.1567
-14.2659
-14.3503
-14.4591
-14.5486
-14.6611
-14.7508
-14.8669
-14.9801
-15.0888
-15.2154
-15.3227
-15.4551
-15.5619
-15.6974
-15.8055
-15.946
-16.0598
-16.1971
-16.3147
-16.4571
-16.5796
-16.725
-16.8448
-16.9945
-17.147
-17.2992
-17.4627
-17.6168
-17.8044
-17.9547
-18.1541
-18.308
-18.4993
-18.6666
-18.8643
-19.0456
-19.255
-19.4499
-19.6652
-19.8618
-20.0835
-20.3234
-20.5713
-20.8315
-21.0892
-21.3653
-21.6337
-21.9248
-22.208
-22.5151
-22.813
-23.1348
-23.4463
-23.7824
-24.1061
-24.4517
-24.7772
-25.1298
-25.496
-25.8569
-26.2155
-26.5451
-26.8415
-27.0655
-27.2094
-27.2641
-27.2133
-27.0718
-26.8317
-26.4872
-26.0097
-25.358
-24.4882
-23.3522
-21.8983
-20.0703
-17.8037
-15.0748
-11.8349
-8.04492
-3.68927
1.24334
6.74284
12.8001
19.4036
26.567
34.3337
42.8278
52.2322
62.7144
74.273
86.4793
97.0824
-6.98685
-5.93764
-5.85294
-5.84259
-5.85291
-5.90407
-5.96398
-6.05704
-6.15351
-6.27539
-6.39036
-6.52157
-6.63739
-6.76824
-6.87178
-6.99522
-7.08089
-7.18448
-7.26926
-7.341
-7.41926
-7.46721
-7.53944
-7.57931
-7.63633
-7.6671
-7.71466
-7.74101
-7.79074
-7.80819
-7.85886
-7.87692
-7.92897
-7.95098
-8.01211
-8.04939
-8.10818
-8.16424
-8.21353
-8.29979
-8.36323
-8.45454
-8.52566
-8.62322
-8.69815
-8.81192
-8.88867
-9.00919
-9.09029
-9.21616
-9.3106
-9.43378
-9.52677
-9.64416
-9.76197
-9.87303
-10.0056
-10.1113
-10.2319
-10.3406
-10.4587
-10.5619
-10.6878
-10.7792
-10.9023
-10.9865
-11.1027
-11.191
-11.2922
-11.3817
-11.4802
-11.5783
-11.6754
-11.7749
-11.864
-11.9603
-12.0461
-12.1395
-12.2217
-12.3232
-12.3953
-12.4944
-12.5634
-12.6605
-12.7338
-12.8278
-12.9013
-12.9923
-13.0836
-13.1712
-13.271
-13.3528
-13.4524
-13.5364
-13.6415
-13.7237
-13.8304
-13.9132
-14.0198
-14.1004
-14.2076
-14.2961
-14.4024
-14.494
-14.6002
-14.6895
-14.8022
-14.912
-15.0241
-15.1439
-15.2494
-15.3764
-15.4834
-15.6124
-15.721
-15.8531
-15.9707
-16.1016
-16.222
-16.357
-16.4812
-16.6161
-16.7377
-16.8839
-17.0341
-17.1899
-17.3427
-17.4873
-17.6407
-17.7936
-17.955
-18.1228
-18.2999
-18.483
-18.6663
-18.8538
-19.0443
-19.2399
-19.4393
-19.6482
-19.8673
-20.0901
-20.3222
-20.558
-20.8053
-21.0562
-21.3193
-21.5863
-21.8656
-22.1484
-22.4432
-22.7404
-23.0493
-23.3605
-23.6855
-24.0154
-24.3619
-24.708
-25.0424
-25.3729
-25.6895
-26.0046
-26.309
-26.6425
-26.9709
-27.2746
-27.5301
-27.69
-27.7352
-27.6506
-27.4238
-27.0423
-26.476
-25.6876
-24.6272
-23.2399
-21.4566
-19.2452
-16.5575
-13.3617
-9.64778
-5.41099
-0.661928
4.59222
10.3486
16.6315
23.5058
31.0993
39.5643
49.018
59.4407
70.3867
79.8239
-6.7024
-5.81843
-5.78389
-5.81024
-5.84577
-5.91364
-5.98171
-6.07816
-6.17245
-6.28992
-6.3993
-6.5248
-6.63578
-6.76082
-6.86276
-6.9813
-7.07061
-7.17454
-7.26235
-7.33643
-7.41398
-7.46704
-7.53923
-7.58536
-7.64363
-7.68061
-7.72904
-7.75938
-7.80665
-7.8314
-7.87956
-7.90416
-7.9535
-7.98104
-8.03753
-8.07784
-8.13403
-8.18701
-8.24021
-8.31551
-8.37916
-8.46355
-8.53551
-8.62648
-8.70403
-8.80758
-8.88818
-8.99928
-9.08435
-9.20132
-9.30021
-9.41443
-9.51284
-9.62363
-9.73796
-9.85309
-9.97669
-10.0857
-10.2046
-10.3136
-10.4315
-10.5383
-10.6557
-10.757
-10.8701
-10.9657
-11.0736
-11.1683
-11.269
-11.3578
-11.454
-11.5504
-11.6482
-11.7457
-11.8367
-11.9316
-12.0177
-12.1099
-12.1944
-12.2868
-12.3676
-12.4575
-12.5356
-12.6243
-12.7037
-12.79
-12.8679
-12.9537
-13.0418
-13.1321
-13.2247
-13.3134
-13.4078
-13.4964
-13.5943
-13.6822
-13.7821
-13.8707
-13.9705
-14.054
-14.1647
-14.2528
-14.3549
-14.4513
-14.5544
-14.6432
-14.7509
-14.8607
-14.9722
-15.0869
-15.1959
-15.33
-15.4328
-15.5696
-15.6717
-15.8062
-15.9195
-16.0499
-16.1706
-16.3064
-16.4322
-16.5678
-16.6876
-16.8298
-16.9759
-17.1257
-17.282
-17.4347
-17.6068
-17.7563
-17.9431
-18.0905
-18.2759
-18.4385
-18.6206
-18.8015
-18.9987
-19.1898
-19.3955
-19.589
-19.8021
-20.0292
-20.2649
-20.5117
-20.7597
-21.0229
-21.2843
-21.5643
-21.8433
-22.1419
-22.4393
-22.7563
-23.072
-23.4079
-23.744
-24.101
-24.4568
-24.8347
-25.2209
-25.605
-25.9862
-26.3549
-26.7137
-27.0507
-27.3794
-27.6921
-27.989
-28.2555
-28.4692
-28.5991
-28.6228
-28.5184
-28.2606
-27.815
-27.1365
-26.1719
-24.8563
-23.1499
-21.0059
-18.3944
-15.3085
-11.7467
-7.7205
-3.23461
1.71282
7.15441
13.1662
19.8917
27.4767
36.0173
45.4815
55.4188
63.9592
-6.3771
-5.64786
-5.66205
-5.7257
-5.78843
-5.87628
-5.9571
-6.06162
-6.15899
-6.27668
-6.38419
-6.50712
-6.61542
-6.73706
-6.83725
-6.9533
-7.04348
-7.14732
-7.23722
-7.3142
-7.39398
-7.45052
-7.52417
-7.57451
-7.63533
-7.67739
-7.7289
-7.76333
-7.81165
-7.84047
-7.88875
-7.91738
-7.96624
-7.99781
-8.05202
-8.09262
-8.14891
-8.20155
-8.25584
-8.32504
-8.388
-8.46676
-8.53813
-8.62438
-8.70221
-8.79905
-8.88069
-8.98482
-9.07146
-9.18168
-9.27945
-9.39098
-9.48907
-9.59845
-9.70925
-9.82274
-9.94366
-10.0517
-10.1704
-10.2784
-10.3968
-10.5042
-10.6219
-10.7238
-10.838
-10.9347
-11.0442
-11.1395
-11.243
-11.3322
-11.4289
-11.525
-11.6219
-11.7201
-11.8113
-11.9071
-11.993
-12.0861
-12.1706
-12.2632
-12.3434
-12.4336
-12.5112
-12.5994
-12.6778
-12.7631
-12.8401
-12.9246
-13.0094
-13.0976
-13.1866
-13.2755
-13.3676
-13.4548
-13.5482
-13.6359
-13.7311
-13.8192
-13.913
-14.001
-14.0995
-14.1931
-14.2929
-14.3894
-14.4884
-14.5827
-14.6858
-14.7911
-14.9015
-15.0126
-15.1246
-15.2392
-15.3505
-15.4681
-15.5831
-15.7058
-15.8243
-15.9487
-16.0729
-16.2025
-16.33
-16.457
-16.5765
-16.7151
-16.8545
-17.0018
-17.1503
-17.3014
-17.4505
-17.5985
-17.7599
-17.9163
-18.0912
-18.2641
-18.4412
-18.6221
-18.8076
-18.9966
-19.1887
-19.3877
-19.5978
-19.8132
-20.0378
-20.2679
-20.5077
-20.7542
-21.0107
-21.2755
-21.5512
-21.8364
-22.1328
-22.4388
-22.756
-23.083
-23.4225
-23.775
-24.1449
-24.5338
-24.9341
-25.3501
-25.7767
-26.2121
-26.6487
-27.0826
-27.5084
-27.9257
-28.3298
-28.7132
-29.0658
-29.3715
-29.6116
-29.7622
-29.7982
-29.6859
-29.3823
-28.834
-27.9789
-26.7698
-25.1602
-23.1199
-20.6426
-17.7292
-14.3945
-10.6453
-6.47865
-1.85791
3.30285
9.1628
15.8901
23.5864
32.2138
41.3281
49.1824
-6.0222
-5.43609
-5.49781
-5.59763
-5.68834
-5.79741
-5.89473
-6.01004
-6.11491
-6.23602
-6.34535
-6.46801
-6.57602
-6.69629
-6.79628
-6.91062
-7.00144
-7.10505
-7.19647
-7.27619
-7.35927
-7.41995
-7.49496
-7.54939
-7.61289
-7.65896
-7.71408
-7.75293
-7.80388
-7.83678
-7.88633
-7.9177
-7.96762
-8.00131
-8.05532
-8.09574
-8.1523
-8.20597
-8.25992
-8.3272
-8.38816
-8.46434
-8.53343
-8.61706
-8.69347
-8.78568
-8.86721
-8.96584
-9.0526
-9.15787
-9.25295
-9.36199
-9.45972
-9.5688
-9.67685
-9.78674
-9.90488
-10.0127
-10.1305
-10.2376
-10.3554
-10.4624
-10.5808
-10.6825
-10.798
-10.8948
-11.006
-11.102
-11.208
-11.2987
-11.3971
-11.4939
-11.5905
-11.6903
-11.7813
-11.879
-11.9655
-12.0604
-12.1452
-12.2401
-12.32
-12.4129
-12.4899
-12.5805
-12.6587
-12.7462
-12.8222
-12.907
-12.9921
-13.0785
-13.1684
-13.2549
-13.3483
-13.434
-13.5299
-13.6149
-13.7123
-13.7975
-13.8943
-13.9793
-14.0765
-14.166
-14.266
-14.3599
-14.4601
-14.5516
-14.6523
-14.755
-14.8614
-14.9717
-15.085
-15.2028
-15.3113
-15.4309
-15.5402
-15.6614
-15.7758
-15.9008
-16.0221
-16.1531
-16.2782
-16.4094
-16.5313
-16.664
-16.8018
-16.9445
-17.0939
-17.2452
-17.4046
-17.5553
-17.7187
-17.8708
-18.0382
-18.2003
-18.3767
-18.5517
-18.7392
-18.9239
-19.1202
-19.3063
-19.5086
-19.7224
-19.9449
-20.1778
-20.4138
-20.6625
-20.9126
-21.1784
-21.4471
-21.7332
-22.0237
-22.3323
-22.6458
-22.9772
-23.3133
-23.6666
-24.0261
-24.4086
-24.8084
-25.2264
-25.6628
-26.1153
-26.5827
-27.061
-27.5501
-28.0435
-28.5392
-29.0296
-29.5092
-29.9673
-30.392
-30.7658
-31.0674
-31.2661
-31.3214
-31.1802
-30.7811
-30.0671
-28.9878
-27.5081
-25.6199
-23.3253
-20.6451
-17.5963
-14.1823
-10.3703
-6.06738
-1.09154
4.76199
11.6305
19.4853
27.9091
35.266
-5.63801
-5.19537
-5.30205
-5.43367
-5.55288
-5.68321
-5.79953
-5.92773
-6.04331
-6.17056
-6.28472
-6.40909
-6.51877
-6.63914
-6.74073
-6.85457
-6.94671
-7.05027
-7.14269
-7.22501
-7.3114
-7.37731
-7.45401
-7.51184
-7.57864
-7.6286
-7.68733
-7.73034
-7.78463
-7.82139
-7.87315
-7.90732
-7.95857
-7.99415
-8.04846
-8.08951
-8.14603
-8.2008
-8.25449
-8.32128
-8.38103
-8.45567
-8.52318
-8.60498
-8.67963
-8.76938
-8.84917
-8.9452
-9.02993
-9.13185
-9.22408
-9.33047
-9.42731
-9.53588
-9.64252
-9.74918
-9.86479
-9.97205
-10.0887
-10.1956
-10.3118
-10.4186
-10.5365
-10.6383
-10.7538
-10.8507
-10.9624
-11.0591
-11.1663
-11.2587
-11.3591
-11.4566
-11.5528
-11.6535
-11.7447
-11.8437
-11.9308
-12.0273
-12.1119
-12.2089
-12.2876
-12.383
-12.4585
-12.5512
-12.6294
-12.7186
-12.795
-12.8805
-12.9659
-13.0517
-13.1428
-13.2271
-13.3208
-13.4057
-13.5025
-13.5862
-13.6847
-13.7691
-13.8677
-13.9517
-14.0495
-14.1372
-14.2362
-14.3287
-14.4292
-14.5195
-14.6195
-14.7194
-14.8227
-14.9302
-15.04
-15.1553
-15.2617
-15.3787
-15.4863
-15.6041
-15.715
-15.8346
-15.9517
-16.0759
-16.1968
-16.3227
-16.4447
-16.574
-16.7039
-16.8404
-16.9811
-17.128
-17.2776
-17.4261
-17.5821
-17.7357
-17.8976
-18.0581
-18.228
-18.4007
-18.582
-18.7645
-18.9528
-19.1399
-19.3394
-19.5454
-19.762
-19.9867
-20.2194
-20.4604
-20.7068
-20.9653
-21.231
-21.511
-21.7997
-22.1047
-22.4197
-22.7523
-23.095
-23.455
-23.8248
-24.2175
-24.6269
-25.0561
-25.5055
-25.9758
-26.4675
-26.9782
-27.5115
-28.0613
-28.6281
-29.2056
-29.7918
-30.3785
-30.9597
-31.5243
-32.0574
-32.5345
-32.9207
-33.166
-33.2117
-32.9894
-32.4397
-31.5165
-30.2041
-28.5032
-26.4385
-24.0426
-21.3381
-18.31
-14.8747
-10.8293
-5.90727
0.0972666
7.18378
14.9835
21.9698
-5.21837
-4.93306
-5.08329
-5.24111
-5.38951
-5.54096
-5.67768
-5.82024
-5.94869
-6.08404
-6.20542
-6.33359
-6.4469
-6.56838
-6.67229
-6.78666
-6.88087
-6.9852
-7.07907
-7.1639
-7.25309
-7.32381
-7.40347
-7.4651
-7.53504
-7.58915
-7.65135
-7.69866
-7.75631
-7.79725
-7.85142
-7.88866
-7.94117
-7.97868
-8.03336
-8.07559
-8.13212
-8.18779
-8.24157
-8.30816
-8.36753
-8.44106
-8.50772
-8.58807
-8.66154
-8.74953
-8.82794
-8.922
-9.00495
-9.104
-9.19368
-9.29731
-9.39263
-9.49987
-9.60569
-9.71014
-9.82401
-9.93007
-10.0459
-10.1525
-10.2682
-10.3744
-10.4907
-10.5935
-10.7073
-10.8058
-10.9162
-11.0134
-11.1204
-11.2148
-11.3173
-11.4155
-11.5118
-11.6124
-11.7049
-11.8044
-11.8928
-11.9902
-12.0756
-12.1735
-12.2533
-12.3489
-12.4246
-12.5179
-12.596
-12.6864
-12.7631
-12.8497
-12.9354
-13.02
-13.1123
-13.1948
-13.2893
-13.3721
-13.4713
-13.5512
-13.6538
-13.7345
-13.838
-13.9175
-14.0207
-14.1063
-14.2048
-14.2959
-14.398
-14.4878
-14.5892
-14.6899
-14.7923
-14.9014
-15.0071
-15.1249
-15.2295
-15.3499
-15.4559
-15.5776
-15.6877
-15.8096
-15.9243
-16.0501
-16.1686
-16.2965
-16.4145
-16.5444
-16.6752
-16.8084
-16.9482
-17.0893
-17.2398
-17.3813
-17.5371
-17.6825
-17.8424
-17.9956
-18.1616
-18.3259
-18.5024
-18.6767
-18.8612
-19.0387
-19.2316
-19.4309
-19.6387
-19.8555
-20.0805
-20.3148
-20.5516
-20.8033
-21.0586
-21.3311
-21.6097
-21.9072
-22.2135
-22.5405
-22.8774
-23.2348
-23.6023
-23.9961
-24.4093
-24.8445
-25.3033
-25.7865
-26.2959
-26.8285
-27.393
-27.9824
-28.6014
-29.2437
-29.9121
-30.602
-31.3125
-32.0372
-32.7677
-33.4838
-34.1609
-34.7563
-35.2201
-35.475
-35.4522
-35.088
-34.3513
-33.2342
-31.7574
-29.9609
-27.8969
-25.5883
-22.995
-19.9288
-16.0521
-11.0267
-4.80118
2.35409
8.98436
-4.78335
-4.64885
-4.84176
-5.0274
-5.20574
-5.37871
-5.5363
-5.69384
-5.83649
-5.98157
-6.11214
-6.2458
-6.3642
-6.48761
-6.59437
-6.70956
-6.80674
-6.91239
-7.00843
-7.09622
-7.18777
-7.26315
-7.34588
-7.41206
-7.485
-7.54356
-7.60914
-7.66088
-7.72184
-7.76734
-7.82404
-7.86464
-7.91811
-7.95745
-8.01212
-8.05566
-8.11221
-8.16853
-8.22277
-8.28913
-8.34863
-8.42119
-8.48747
-8.56651
-8.6393
-8.72576
-8.80343
-8.89572
-8.97747
-9.07376
-9.16121
-9.26187
-9.35548
-9.46077
-9.56562
-9.66868
-9.78112
-9.88616
-10.0008
-10.1072
-10.2224
-10.3287
-10.4442
-10.5475
-10.6607
-10.7597
-10.8688
-10.9657
-11.072
-11.1674
-11.271
-11.3704
-11.4672
-11.5683
-11.6616
-11.7614
-11.8515
-11.9491
-12.0366
-12.1336
-12.2169
-12.311
-12.3895
-12.481
-12.5599
-12.649
-12.7276
-12.8152
-12.9006
-12.9851
-13.0761
-13.1597
-13.253
-13.3367
-13.4345
-13.5162
-13.6167
-13.6992
-13.801
-13.883
-13.9848
-14.0701
-14.1686
-14.2568
-14.3585
-14.4471
-14.5504
-14.651
-14.7509
-14.8608
-14.9611
-15.0796
-15.1792
-15.3024
-15.4031
-15.5298
-15.6375
-15.7614
-15.8716
-15.9993
-16.1154
-16.2443
-16.3574
-16.4912
-16.6232
-16.7554
-16.896
-17.0332
-17.1845
-17.3232
-17.4804
-17.6228
-17.7836
-17.934
-18.0988
-18.2586
-18.4324
-18.6018
-18.7848
-18.9563
-19.1464
-19.3403
-19.5404
-19.7502
-19.9658
-20.1947
-20.4225
-20.6679
-20.9143
-21.1788
-21.4465
-21.7342
-22.0284
-22.3454
-22.6714
-23.0208
-23.38
-23.7682
-24.1764
-24.6087
-25.0678
-25.5554
-26.0747
-26.62
-27.206
-27.8212
-28.4783
-29.1657
-29.8956
-30.6611
-31.4725
-32.3206
-33.2056
-34.1112
-35.0236
-35.9137
-36.746
-37.4428
-37.9364
-38.1418
-38.0024
-37.4843
-36.59
-35.3492
-33.8377
-32.1384
-30.2888
-28.1927
-25.5087
-21.7143
-16.5944
-10.2618
-4.05609
-4.34915
-4.34792
-4.58115
-4.79888
-5.00872
-5.20422
-5.38285
-5.55546
-5.71282
-5.86862
-6.00949
-6.15002
-6.2748
-6.40124
-6.51126
-6.62736
-6.72754
-6.83483