/*--------------------------------*- C++ -*----------------------------------*\
| =========                 |                                                 |
| \\      /  F ield         | OpenFOAM: The Open Source CFD Toolbox           |
|  \\    /   O peration     | Version:  4.1                                   |
|   \\  /    A nd           | Web:      www.OpenFOAM.org                      |
|    \\/     M anipulation  |                                                 |
\*---------------------------------------------------------------------------*/
FoamFile
{
    version     2.0;
    format      ascii;
    class       volScalarField;
    location    "1183";
    object      p;
}
// * * * * * * * * * * * * * * * * * * * * * * * * * * * * * * * * * * * * * //

dimensions      [0 2 -2 0 0 0 0];

internalField   nonuniform List<scalar> 
204246
(
141.128
-9.7382
46.2285
24.6124
23.7439
30.1461
19.4715
31.2211
18.6183
31.6784
18.3411
32.7247
17.053
33.3272
18.52
30.8993
25.1319
19.6607
32.0452
17.263
33.382
17.694
32.0556
18.4898
31.938
18.2813
32.7818
16.4245
33.5854
15.9927
33.3511
16.176
32.0077
18.3357
27.7761
23.6187
16.7125
27.8141
15.2471
25.3006
13.7495
23.0294
11.1456
20.5704
6.5363
16.9834
2.48436
11.829
-1.56905
4.5768
-6.18575
-3.06409
-7.73309
-17.3743
-10.9296
-23.1688
-13.8647
-27.5674
-14.6172
-27.1874
-12.3873
-24.644
-9.15409
-18.901
-3.41992
-10.6286
1.70125
-1.72459
6.81319
8.7582
5.90861
15.5975
8.89365
20.8953
11.3588
24.2379
12.0734
26.3834
10.7387
27.6385
10.5679
26.9872
11.4305
23.7363
12.4811
20.2258
16.0855
9.11863
18.017
5.58278
16.4742
2.33926
14.3653
-2.21911
11.4181
-5.51958
7.54786
-8.97633
3.2948
-11.5312
-1.59725
-14.6729
-5.18323
-16.6348
-8.7815
-14.6945
-20.0735
-10.5668
-23.1159
-8.83289
-25.4928
-7.68678
-24.645
-7.5131
-23.6869
-6.64695
-22.7061
-5.74007
-21.3852
-5.31181
-18.8677
-7.07006
-12.1368
-16.6417
-5.02565
-18.5525
-2.93371
-18.6184
-2.08568
-18.3188
-1.59089
-17.9711
-1.22653
-17.6386
-0.933293
-16.9132
-1.23046
-15.0795
-3.55424
-8.78363
-13.7351
-2.20914
-15.8804
-0.479316
-16.0427
0.30606
-15.8677
0.813251
-15.4362
1.31866
-14.7859
1.86113
-13.6986
2.17562
-11.1618
0.65624
-3.97176
-8.09538
3.91982
-8.65732
7.38269
-6.6161
9.80188
-2.9647
12.4616
1.69581
16.3369
7.44829
21.4441
14.4317
27.7503
23.4097
35.732
34.9652
45.2212
51.7448
53.983
67.8416
72.3759
85.6859
95.4314
108.805
123.144
138.047
157.986
175.815
204.104
226.76
270.664
299.605
387.339
403.262
610.303
46.541
22.5352
24.0189
28.2248
22.1345
27.2275
22.2604
26.9133
22.4009
27.0806
22.4528
27.5705
22.7156
26.9533
24.377
25.0086
27.7747
22.2542
27.8046
22.5735
27.5895
23.2072
27.2733
23.1222
27.4902
22.7714
27.9672
22.3099
27.7224
22.3144
27.1979
22.6168
25.8767
23.6939
23.5486
26.0908
20.5547
24.2101
19.7128
23.0837
17.9537
21.3365
15.5465
18.9622
12.3455
15.1239
8.86746
10.0877
5.15402
3.53726
0.373191
-4.34941
-3.11256
-12.5306
-12.077
-18.3411
-17.1461
-22.0302
-20.0857
-23.2952
-19.0584
-21.253
-15.2285
-17.3284
-11.1042
-9.32236
-5.7222
-1.22652
-0.0923688
6.79051
5.26774
12.1031
10.8831
16.0328
13.8428
18.9147
15.7854
21.0229
16.4309
21.5135
16.8891
20.9176
17.2114
19.4665
17.2111
16.7056
18.6187
13.1733
15.7785
10.9029
13.4314
8.0538
10.9144
4.54557
7.57735
1.08492
4.01501
-2.4073
-0.121024
-5.6481
-4.19204
-9.07123
-8.29756
-11.2511
-12.7158
-11.1337
-17.329
-13.6037
-18.9384
-13.918
-19.6114
-14.2587
-19.0541
-13.8508
-18.372
-12.9551
-17.4306
-12.0964
-16.0414
-11.8022
-13.7377
-12.7888
-10.0259
-14.6831
-9.19346
-14.0333
-8.5508
-13.4412
-8.02183
-12.969
-7.59622
-12.5599
-7.26421
-12.1329
-7.14055
-11.3828
-7.52442
-9.77066
-9.15116
-6.57745
-11.5468
-6.26016
-11.2555
-5.94923
-10.9067
-5.55467
-10.533
-5.19295
-10.0957
-4.79936
-9.49392
-4.4337
-8.47029
-4.39673
-6.31839
-5.30087
-2.4706
-6.64855
-0.982468
-4.98287
0.821519
-2.6663
3.10018
0.0627153
6.00657
3.48481
9.70428
7.99567
14.438
13.8021
19.8351
21.5453
26.778
31.3133
34.9494
43.7003
47.3881
56.4643
63.0243
72.5464
82.2298
92.6889
105.727
117.31
134.49
147.302
170.513
183.935
219.193
225.832
300.556
265.995
400.675
21.0101
29.4193
26.324
27.7268
24.3027
26.9116
23.1686
26.9471
22.8465
27.1123
22.7971
27.2858
23.0484
26.8961
24.1564
25.5518
26.1418
23.6754
27.014
23.058
27.3742
23.0759
27.3429
23.0455
27.4098
22.8506
27.5797
22.5381
27.5048
22.4484
27.1096
22.694
26.0455
23.4329
24.0164
24.4053
21.6634
24.0728
20.3253
22.6242
18.7056
20.8216
16.6284
18.1925
13.8649
14.4448
10.4299
9.60874
6.24744
3.59875
1.12144
-3.42385
-4.97155
-10.4539
-11.9041
-16.8246
-18.0116
-21.4518
-20.8662
-23.6475
-20.3538
-22.5016
-17.4955
-17.2553
-12.5539
-9.56006
-5.89192
-1.6039
0.90554
5.6988
6.47691
11.4895
11.4558
15.5724
14.9562
18.6852
16.511
20.7994
16.9351
21.5843
17.2509
21.2485
17.4358
19.7983
17.5235
17.3058
17.3635
14.2115
15.8365
11.6196
13.6474
8.74302
11.0112
5.51545
7.62086
2.22742
3.69167
-1.18183
-0.522907
-4.58536
-4.75766
-8.09445
-8.71599
-10.6715
-12.5392
-12.3956
-16.2852
-13.9701
-18.3569
-14.3435
-19.3216
-14.3281
-19.1719
-13.8519
-18.5096
-12.9671
-17.5273
-12.1469
-16.0766
-11.7782
-14.0116
-12.2526
-11.3458
-13.3314
-9.73852
-13.4373
-8.60506
-13.1439
-7.88597
-12.7421
-7.39726
-12.3386
-7.06102
-11.8939
-6.93329
-11.2023
-7.25434
-9.92931
-8.43702
-7.86594
-10.1659
-6.75571
-10.7064
-5.99775
-10.6895
-5.49463
-10.4257
-5.0876
-10.0156
-4.68794
-9.40781
-4.32812
-8.40568
-4.23315
-6.55968
-4.74676
-3.67322
-5.40796
-1.48962
-4.58126
0.784332
-2.73264
3.02544
0.168423
5.58643
4.05453
9.06383
8.83034
13.7073
14.7885
19.7348
22.245
27.2373
31.7593
36.8497
43.3682
48.3881
57.3934
64.0038
74.2384
83.9086
95.1653
108.714
121.236
139.821
153.694
179.354
194.029
233.737
241.658
317.818
296.548
385.328
4.83773
20.6329
17.2907
24.3868
21.0934
25.0471
22.6054
25.123
23.4313
25.3269
23.9256
25.4819
24.5722
25.0982
25.6279
24.3672
26.693
24.1084
26.2952
24.4519
26.0032
24.7595
25.9233
24.7123
26.0164
24.5666
26.0969
24.4916
25.8396
24.5506
25.3832
24.7803
24.62
25.1199
23.6179
25.3963
22.9103
23.8796
22.1826
22.6842
20.8021
21.1952
18.9525
18.974
16.4399
15.7373
13.2025
11.3524
9.03188
5.8192
3.70274
-0.90252
-2.44426
-8.32399
-10.4542
-15.129
-17.5489
-20.8074
-22.542
-23.9322
-23.5334
-23.5825
-21.368
-19.6626
-16.501
-12.8123
-9.58691
-4.66692
-2.32365
3.35479
4.53033
9.27234
10.4993
13.6323
14.8096
17.0025
17.3297
19.0665
18.6938
19.7216
19.2606
19.583
19.3847
18.7472
19.0249
17.3004
18.4664
15.8323
16.1266
13.8605
13.5646
11.3522
10.7447
8.44873
7.34491
5.13068
3.63333
1.47924
-0.38813
-2.36667
-4.43459
-6.24684
-8.52783
-9.49313
-12.3683
-11.9675
-15.2788
-15.1055
-17.2654
-16.2855
-17.9595
-16.6983
-17.8373
-16.2569
-17.177
-15.3952
-16.093
-14.5456
-14.6611
-13.9999
-12.9246
-13.7723
-11.2883
-13.2969
-10.9134
-12.5326
-10.5072
-11.8928
-10.0865
-11.3817
-9.70494
-10.9327
-9.40103
-10.4557
-9.26209
-9.79539
-9.41728
-8.78351
-9.95488
-7.67523
-10.0871
-7.80303
-9.72593
-7.77235
-9.35172
-7.58603
-8.98059
-7.33074
-8.57799
-7.03793
-8.0492
-6.76765
-7.22526
-6.69028
-5.80333
-6.64675
-4.29757
-5.94012
-3.51229
-4.53088
-2.24262
-2.68476
-0.368384
-0.474102
1.96864
2.36328
5.07844
5.99429
9.10799
10.6472
14.0308
16.8257
20.2909
24.5459
28.12
34.3272
38.4648
45.3995
51.5162
58.8497
67.5142
75.3404
86.9292
95.2346
110.45
119.23
139.8
146.886
179.936
174.818
232.307
219.172
290.269
7.04558
21.1088
18.1532
23.3164
21.9043
24.5165
23.1986
24.9625
23.8631
25.2938
24.195
25.3466
24.7031
25.1099
25.32
24.7615
25.8406
24.7435
25.7209
24.7589
25.7356
24.7575
25.818
24.6633
25.8792
24.5763
25.8664
24.569
25.6713
24.5795
25.3242
24.7285
24.6747
24.8274
23.8128
24.6322
23.3006
23.8944
22.4927
22.6995
21.2065
21.2655
19.5115
19.1897
17.2428
16.2025
14.141
12.243
10.0192
7.10933
4.80636
0.654618
-1.71072
-6.40046
-9.39125
-14.0411
-16.8806
-20.8118
-22.7459
-25.1087
-25.2532
-25.4636
-23.6225
-21.5849
-18.2497
-14.3665
-10.5144
-5.60015
-2.35885
2.64001
5.05576
9.25111
10.929
14.163
15.0362
17.2656
17.7235
19.2152
19.1421
19.9731
19.7211
19.9872
19.8297
19.2699
19.3785
18.0076
18.3363
16.5953
16.6328
14.6581
14.2853
12.194
11.4798
9.30811
8.18385
5.96089
4.46453
2.26664
0.423004
-1.67425
-3.7505
-5.57765
-7.93649
-9.17436
-11.7445
-12.3098
-14.7123
-15.0551
-16.7406
-16.536
-17.7682
-16.8722
-17.9816
-16.5042
-17.3509
-15.6399
-16.2051
-14.7438
-14.723
-14.0545
-13.2277
-13.2307
-11.8429
-12.4568
-11.1682
-11.8606
-10.4271
-11.347
-9.81699
-10.8794
-9.36484
-10.4572
-9.05758
-10.0204
-8.92974
-9.46717
-9.03229
-8.76094
-9.29652
-8.14849
-9.24124
-8.05408
-9.13521
-7.79287
-8.97491
-7.50198
-8.71623
-7.19865
-8.3596
-6.89008
-7.84555
-6.60118
-7.05769
-6.50781
-5.9436
-6.1045
-4.67483
-5.38068
-3.66477
-4.14729
-2.24615
-2.46556
-0.361393
-0.183616
2.15638
2.72593
5.42096
6.46467
9.58364
11.3343
14.8026
17.5432
21.4236
25.44
29.7573
35.1916
40.4156
47.1449
54.0217
61.7632
71.0502
79.6803
92.1344
101.498
117.944
127.59
150.104
157.846
192.203
189.138
238.427
227.066
272.164
4.23189
16.6073
14.4978
20.0272
19.5196
22.5219
22.053
23.7945
23.4416
24.4133
24.3451
24.6822
25.0128
24.6763
25.6485
24.5901
25.9805
24.9211
25.6722
25.2346
25.4988
25.3922
25.4803
25.3815
25.494
25.3492
25.441
25.3796
25.2542
25.431
24.9818
25.4662
24.6519
25.5099
24.2703
25.1359
23.9422
24.4173
23.4147
23.5638
22.4298
22.3454
21.0367
20.5495
19.0407
17.9519
16.2097
14.2963
12.3534
9.34218
7.18998
3.05206
0.491801
-4.46031
-7.61996
-12.6601
-16.1273
-20.5581
-23.5114
-26.4687
-27.7594
-28.5236
-27.5492
-25.751
-22.809
-18.6534
-14.8182
-9.32216
-5.71975
-0.0675018
2.75502
7.46941
9.67686
12.9759
14.7057
16.6732
17.8982
18.8879
19.6374
19.8743
20.4412
20.0436
20.5291
19.6197
20.1298
18.7427
19.0787
17.4309
17.3831
15.6593
15.2414
13.3785
12.5948
10.611
9.41126
7.3529
5.72393
3.63276
1.60555
-0.444391
-2.79508
-4.65392
-7.27666
-8.65985
-11.4651
-12.2454
-14.8905
-15.5154
-17.1543
-17.6158
-18.1752
-18.2059
-18.2474
-17.8834
-17.4733
-16.9303
-16.1727
-15.7216
-14.7764
-14.6698
-13.4505
-13.8136
-12.4007
-12.6995
-11.8661
-11.9395
-11.4093
-11.3657
-10.9733
-10.8766
-10.5956
-10.4201
-10.2818
-9.95194
-10.0618
-9.44471
-9.93286
-8.88919
-9.91536
-8.48452
-9.48521
-8.58506
-9.13575
-8.57179
-8.81975
-8.45039
-8.51205
-8.27051
-8.17661
-8.05179
-7.77752
-7.77114
-7.23028
-7.55314
-6.4596
-7.15389
-5.77405
-6.24188
-5.04909
-5.23139
-4.00936
-3.89386
-2.60025
-2.19406
-0.682378
-0.0278759
1.8189
2.81559
5.01547
6.57535
9.08015
11.4423
14.241
17.632
20.867
25.3145
29.4543
34.5751
40.276
45.8538
53.7036
59.6454
70.1262
76.378
90.1757
96.1393
114.982
118.202
148.631
142.179
183.362
180.852
221.446
7.9629
18.4553
15.9724
20.3748
20.1691
22.433
22.3044
23.7526
23.53
24.388
24.3225
24.6756
24.9192
24.7217
25.4109
24.7358
25.5523
25.0843
25.3532
25.2894
25.3066
25.3526
25.3447
25.3071
25.3734
25.2807
25.3275
25.3212
25.1607
25.3322
24.9195
25.3125
24.6018
25.192
24.3409
24.9004
24.0839
24.3616
23.5379
23.6425
22.7137
22.5779
21.519
21.0394
19.7971
18.7798
17.3277
15.5465
13.8222
11.1135
8.95823
5.256
2.44331
-2.04771
-5.74135
-10.7196
-14.8561
-19.7832
-23.5317
-27.3842
-29.4682
-31.0112
-30.5603
-29.0211
-25.9504
-21.4435
-16.8355
-10.999
-6.55059
-0.843121
2.85626
7.38445
10.0331
13.3126
15.0039
17.1056
18.2333
19.4059
20.022
20.4682
20.9087
20.6819
21.0786
20.3167
20.646
19.5112
19.6926
18.3234
18.1971
16.6016
16.1686
14.3989
13.6047
11.708
10.4993
8.49349
6.87152
4.78802
2.77447
0.666876
-1.66999
-3.65275
-6.2662
-7.93
-10.5893
-11.8914
-14.1827
-15.2373
-16.8606
-17.5753
-18.2526
-18.477
-18.6107
-18.2615
-17.9874
-17.3143
-16.6833
-15.9882
-15.1326
-14.691
-13.659
-13.4416
-12.3976
-12.3302
-11.624
-11.3965
-10.9557
-10.7142
-10.4424
-10.1884
-10.0473
-9.78699
-9.76465
-9.41808
-9.59051
-9.05515
-9.48837
-8.67035
-9.35166
-8.44548
-8.99253
-8.52591
-8.67814
-8.45168
-8.45562
-8.27652
-8.22622
-8.04783
-7.94879
-7.79546
-7.60724
-7.54422
-7.06601
-7.22723
-6.38882
-6.74398
-5.64008
-6.07805
-4.8463
-5.02616
-3.76503
-3.64034
-2.25099
-1.86735
-0.212431
0.414569
2.43069
3.3957
5.76863
7.31665
10.0236
12.3462
15.4698
18.7076
22.438
26.6328
31.3833
36.3957
42.7417
48.3982
56.8513
63.0432
74.1465
80.6395
95.1028
101.201
120.842
123.055
150.997
147.648
178.86
175.016
203.819
7.00307
16.9474
14.4064
19.0536
18.7884
21.4202
21.4554
23.0441
23.1229
23.9703
24.2191
24.4325
24.9801
24.6357
25.4865
24.8328
25.6723
25.2633
25.4713
25.5703
25.3522
25.7018
25.3751
25.6907
25.3684
25.6855
25.2983
25.7009
25.2098
25.7474
25.0571
25.7452
24.8748
25.7005
24.7328
25.3681
24.6314
24.9298
24.2839
24.3889
23.6785
23.5534
22.7309
22.2584
21.2872
20.2861
19.0976
17.3804
15.8628
13.2494
11.2172
7.60787
4.77529
0.206646
-3.58284
-8.92783
-13.4833
-19.0981
-23.7276
-28.6155
-32.0548
-34.669
-35.4044
-34.399
-31.9834
-27.5044
-22.7699
-16.1632
-10.9296
-4.30114
0.203157
5.65789
8.92282
12.7654
14.8558
17.092
18.4879
19.6132
20.5499
20.7285
21.5203
21.0715
21.6389
20.8151
21.2219
20.0958
20.2727
18.9418
18.9087
17.4161
17.0223
15.4245
14.6349
12.9016
11.6749
9.80733
8.11079
6.11884
3.96865
1.87837
-0.676323
-2.73713
-5.59898
-7.47059
-10.4129
-11.9557
-14.6715
-15.8666
-17.7504
-18.5562
-19.4903
-19.684
-19.7594
-19.4513
-18.8293
-18.2386
-17.2892
-16.6842
-15.5625
-15.198
-14.0406
-13.9219
-12.9158
-12.6833
-12.2982
-11.9214
-11.7486
-11.3355
-11.3039
-10.8135
-10.9137
-10.3659
-10.5757
-9.92615
-10.2961
-9.48657
-10.0719
-9.08609
-9.82527
-8.85954
-9.31223
-8.9556
-8.95851
-8.95201
-8.68015
-8.83307
-8.45585
-8.69229
-8.19065
-8.49607
-7.92612
-8.28442
-7.55578
-8.0494
-7.09722
-7.67158
-6.62829
-6.95634
-6.1708
-6.1772
-5.39722
-5.23225
-4.297
-4.01821
-2.8498
-2.38182
-0.967755
-0.181396
1.48252
2.72795
4.67583
6.50694
8.82582
11.3385
14.228
17.3929
21.2421
24.9175
30.1432
34.2075
41.3192
45.6551
55.1282
59.626
72.111
75.9266
93.6153
94.3175
118.91
116.994
145.445
145.353
172.375
10.6388
18.7904
16.1605
20.1401
19.6514
21.7819
21.8599
23.1113
23.2656
23.9392
24.1931
24.3887
24.8577
24.5808
25.3088
24.7826
25.4184
25.2281
25.2421
25.4472
25.2414
25.5601
25.2816
25.582
25.2748
25.603
25.2021
25.6177
25.0728
25.6039
24.9216
25.5666
24.75
25.4685
24.707
25.1536
24.6256
24.8258
24.345
24.429
23.8935
23.7807
23.1824
22.7648
22.0586
21.1885
20.2852
18.7923
17.5462
15.273
13.4327
10.236
7.45448
3.23165
-0.746406
-6.01875
-11.1253
-17.2065
-22.8999
-28.7932
-33.566
-37.4136
-39.3633
-39.3454
-37.2405
-32.6022
-26.9732
-19.4934
-13.2345
-5.99447
-0.582755
5.01476
8.83932
12.807
15.2522
17.4585
18.9511
20.1937
21.064
21.4122
22.1094
21.8651
22.3478
21.6923
21.9641
21.0441
21.1938
19.9822
19.869
18.549
18.092
16.6206
15.8043
14.2028
12.9568
11.2018
9.51197
7.58363
5.44871
3.35387
0.816783
-1.35932
-4.20291
-6.33222
-9.22264
-11.1958
-13.7477
-15.4533
-17.385
-18.5714
-19.6305
-20.1324
-20.428
-20.1789
-19.8574
-19.0345
-18.1888
-17.2861
-16.1566
-15.464
-14.2803
-13.7994
-12.7889
-12.3893
-11.7217
-11.3576
-10.9493
-10.5856
-10.4416
-10.0168
-10.0947
-9.65639
-9.87907
-9.35351
-9.70352
-9.05208
-9.57754
-8.74141
-9.38009
-8.65223
-8.96248
-8.74722
-8.63594
-8.70545
-8.41712
-8.59863
-8.20802
-8.44313
-7.97861
-8.24794
-7.72188
-8.0091
-7.38081
-7.75625
-6.94557
-7.37005
-6.48697
-6.75965
-5.92421
-5.9931
-5.08384
-4.99829
-3.9644
-3.68045
-2.4709
-1.96631
-0.507353
0.285848
2.01996
3.25171
5.29766
7.07648
9.546
11.9405
15.0493
18.064
22.142
25.6621
31.1892
35.0623
42.4505
46.5759
56.2247
60.4043
73.009
76.217
93.145
93.4737
115.156
112.796
135.578
134.426
155.854
10.597
18.7166
15.6236
20.0825
19.0964
21.6498
21.4832
22.9745
23.1136
23.869
24.2176
24.3961
24.9753
24.6923
25.4328
24.9835
25.5768
25.4306
25.4601
25.6979
25.4048
25.816
25.4233
25.8439
25.4122
25.8655
25.3468
25.8994
25.2482
25.9196
25.1396
25.9076
25.0487
25.8165
25.0634
25.5558
25.083
25.2937
24.916
25.0092
24.6271
24.517
24.1027
23.7006
23.2008
22.3789
21.6937
20.3079
19.2726
17.172
15.5285
12.5415
9.92868
5.82415
1.90946
-3.49066
-8.8319
-15.4386
-21.8833
-28.966
-35.4136
-41.1699
-45.1153
-46.4695
-45.1487
-40.739
-35.1273
-26.8188
-19.1927
-10.5559
-3.7403
3.42557
7.97284
12.8942
15.5266
18.1084
19.5663
20.7461
21.8662
21.8571
22.7755
22.3066
22.8497
22.0766
22.4213
21.4057
21.6313
20.4577
20.4319
19.1863
18.8164
17.4968
16.7313
15.2903
14.0888
12.4656
10.7723
8.94967
6.75114
4.67761
2.00409
-0.257751
-3.32539
-5.65937
-8.88937
-11.1252
-14.1907
-16.0998
-18.4864
-19.8101
-21.2242
-21.6979
-21.9823
-21.6608
-20.9176
-20.1213
-18.8369
-17.9632
-16.5426
-15.8705
-14.5503
-14.1631
-13.1779
-12.8509
-12.3718
-12.0323
-11.8298
-11.4064
-11.3629
-10.8594
-10.9821
-10.3869
-10.658
-9.95464
-10.3663
-9.53639
-10.0999
-9.17688
-9.76795
-9.0377
-9.26162
-9.10273
-8.92349
-9.07946
-8.69684
-8.98399
-8.49411
-8.88987
-8.28021
-8.75382
-8.09461
-8.56784
-7.86476
-8.37724
-7.59926
-8.05966
-7.35195
-7.56392
-6.98787
-7.05397
-6.42642
-6.38921
-5.67351
-5.50311
-4.64741
-4.31797
-3.27515
-2.72035
-1.45819
-0.581739
0.959627
2.23617
4.16226
5.87586
8.38268
10.5102
13.9108
16.3792
21.02
23.7425
30.051
32.9374
41.3553
44.2305
55.477
57.6249
73.1602
72.9594
92.444
92.86
113.27
113.764
133.806
12.9826
20.9384
17.3796
21.5271
20.1371
22.4178
22.0169
23.2881
23.3246
23.9388
24.2289
24.36
24.8621
24.6023
25.2632
24.8833
25.3811
25.3344
25.2598
25.5608
25.2817
25.6753
25.3249
25.7388
25.2944
25.7783
25.2181
25.7999
25.1021
25.7967
24.9718
25.7637
24.8761
25.6591
24.9285
25.3724
25.0048
25.185
24.9442
25.0159
24.8088
24.7176
24.5191
24.1929
23.9494
23.2838
22.883
21.7514
21.0173
19.2798
17.9376
15.3801
13.0394
9.38022
5.60264
0.461104
-5.10833
-12.019
-19.4885
-27.8727
-36.1812
-43.8834
-50.0823
-53.6365
-54.2272
-50.3126
-43.8682
-33.8512
-24.5723
-14.5876
-6.70974
1.26601
7.00656
12.3279
16.0072
18.5009
20.1312
21.4611
22.6052
22.631
23.6237
23.2107
23.7512
23.136
23.46
22.5251
22.7511
21.6405
21.5391
20.4343
20.0036
18.8124
18.0046
16.7224
15.4945
14.0485
12.3512
10.646
8.49187
6.45362
3.80639
1.48892
-1.59427
-4.143
-7.39328
-10.0289
-13.1084
-15.5636
-18.1096
-19.9709
-21.6392
-22.5826
-23.2182
-23.1037
-22.7529
-21.7272
-20.4901
-19.2247
-17.6627
-16.6341
-15.0873
-14.2461
-13.0614
-12.4094
-11.6871
-11.1884
-10.8623
-10.3441
-10.3716
-9.77774
-10.091
-9.51182
-9.97492
-9.28967
-9.82578
-9.03164
-9.65968
-8.82869
-9.41965
-8.79519
-9.00399
-8.8951
-8.66919
-8.87814
-8.46191
-8.79716
-8.29842
-8.71172
-8.10003
-8.57743
-7.90798
-8.4051
-7.68773
-8.21581
-7.46647
-7.91479
-7.23815
-7.43381
-6.88338
-6.92288
-6.32824
-6.24916
-5.59129
-5.36822
-4.59284
-4.21481
-3.25618
-2.67688
-1.49448
-0.635128
0.832388
2.04289
3.91324
5.49587
7.97474
9.89995
13.2815
15.4431
20.1062
22.4293
28.7117
31.1183
39.3947
41.6514
52.6411
53.721
68.2252
68.0815
84.4076
84.3614
101.543
101.686
118.69
13.4433
21.4316
17.4533
22.1408
20.126
22.9565
22.0798
23.6864
23.4697
24.2603
24.4377
24.6523
25.1003
24.8857
25.4762
25.1817
25.5786
25.5706
25.5091
25.8267
25.4935
25.9304
25.4836
25.9976
25.465
26.0221
25.4
26.0436
25.3069
26.0476
25.2121
26.0151
25.1686
25.9068
25.2426
25.6813
25.3138
25.507
25.3324
25.3945
25.2943
25.1869
25.1191
24.7936
24.7002
24.0809
23.8553
22.8383
22.3078
20.7686
19.6805
17.4098
15.3643
12.0222
8.52795
3.58222
-1.88774
-8.88484
-16.6657
-25.7948
-35.8427
-46.1118
-55.5736
-62.3555
-65.6613
-62.8617
-56.1249
-45.1941
-33.5623
-20.851
-10.3793
-0.319765
6.18793
13.0645
16.6971
20.1372
21.1331
22.4813
23.4786
23.3429
24.1752
23.7001
24.1509
23.3194
23.8049
22.6769
22.9803
21.9629
21.9162
20.9065
20.551
19.564
18.8129
17.719
16.5624
15.2669
13.6628
12.0651
9.95556
8.0044
5.31072
2.96948
-0.224779
-2.93971
-6.50233
-9.35457
-12.9932
-15.7235
-18.8488
-21.0219
-23.1665
-24.3001
-25.0059
-24.9725
-24.0522
-23.1189
-21.1254
-19.8753
-17.8244
-16.8262
-15.127
-14.4523
-13.3068
-12.8655
-12.3953
-12.0561
-11.8601
-11.4223
-11.3559
-10.7759
-10.9325
-10.301
-10.644
-9.96339
-10.387
-9.54845
-10.0578
-9.21372
-9.7146
-9.09525
-9.24218
-9.15597
-8.90673
-9.1315
-8.68016
-9.05901
-8.50955
-9.00534
-8.344
-8.92102
-8.20356
-8.79544
-8.06227
-8.62794
-7.94783
-8.41689
-7.86262
-8.05868
-7.62237
-7.73132
-7.24826
-7.29828
-6.74132
-6.7234
-6.06261
-5.94118
-5.15054
-4.87263
-3.89815
-3.39816
-2.1856
-1.42105
0.142213
1.16567
3.25957
4.52136
7.37852
8.82661
12.7882
14.2942
19.7457
21.243
28.5679
29.9079
39.8262
40.3636
52.8017
53.917
68.1168
69.6226
84.7781
85.891
101.765
16.0404
23.9052
19.2175
23.8326
21.239
23.9945
22.6638
24.2382
23.7023
24.477
24.4581
24.6888
24.9969
24.8651
25.2847
25.077
25.4506
25.4511
25.3488
25.6903
25.3716
25.8072
25.3807
25.8905
25.3497
25.9399
25.2749
25.9586
25.1677
25.9564
25.0333
25.9016
24.9619
25.7742
25.0441
25.5295
25.2464
25.3695
25.335
25.3441
25.4099
25.3098
25.4345
25.1767
25.305
24.8294
24.8586
24.0773
23.8407
22.6456
21.9087
20.1113
18.4916
15.7355
12.7207
8.36499
3.14524
-3.7453
-12.1764
-22.3072
-33.9699
-46.8075
-60.1598
-71.4451
-78.9777
-80.0792
-73.7507
-60.3855
-46.1618
-30.8969
-17.6819
-5.31059
3.50126
11.2267
17.2449
20.5543
22.4604
23.1678
24.6157
24.2698
25.2918
24.848
25.426
24.5906
25.0392
24.01
24.2391
23.2245
23.0671
22.2144
21.6874
20.8431
20.0378
19.094
17.9338
16.827
15.2328
13.8013
11.7362
9.89521
7.20794
4.85346
1.63157
-1.2641
-4.95424
-8.16548
-11.9784
-15.2598
-18.704
-21.4782
-24.1118
-25.8252
-27.161
-27.4523
-27.1661
-26.0007
-24.1774
-22.1535
-19.928
-18.2656
-16.1578
-14.6777
-13.1388
-12.0547
-11.2854
-10.6848
-10.5828
-9.94929
-10.1947
-9.38485
-9.96861
-9.25538
-10.0606
-9.21516
-9.94644
-9.04599
-9.70031
-8.89271
-9.48307
-8.87695
-9.04893
-8.98287
-8.70838
-8.98282
-8.51244
-8.94396
-8.3425
-8.90274
-8.19289
-8.84031
-8.04224
-8.7632
-7.90314
-8.59365
-7.84308
-8.40781
-7.79485
-8.02987
-7.67238
-7.71491
-7.35329
-7.29595
-6.93918
-6.76476
-6.35072
-6.09049
-5.52706
-5.1864
-4.44085
-3.94427
-2.95916
-2.25662
-0.909755
-0.0166359
1.87117
2.89955
5.61026
6.60822
10.4633
11.4386
16.6221
17.6117
24.3438
25.1984
33.9518
34.8923
45.2851
46.4691
58.2193
59.6674
72.749
73.8309
87.9555
16.4463
25.1584
19.7267
24.9197
21.7273
24.9797
23.1071
25.0844
24.1243
25.1659
24.8686
25.2193
25.3942
25.2704
25.6492
25.3899
25.7279
25.7222
25.6022
25.9775
25.5769
26.0769
25.5607
26.1353
25.5295
26.1653
25.4605
26.1742
25.3639
26.1677
25.2685
26.1179
25.2113
26.0024
25.2687
25.7778
25.4608
25.551
25.5934
25.5716
25.7187
25.5817
25.8127
25.5405
25.7943
25.3527
25.5341
24.8539
24.8033
23.8066
23.3167
21.8167
20.5257
18.1795
15.5961
11.7891
7.11917
0.859588
-7.1826
-17.3597
-30.3689
-45.4635
-62.6748
-79.1879
-93.1646
-99.8365
-95.8756
-79.9792
-60.5933
-40.2854
-24.2057
-8.44805
1.90731
11.7267
18.3853
22.7081
23.6985
25.117
24.8049
25.3701
25.6064
25.0831
25.61
24.6295
25.0503
23.9276
24.2616
23.3891
23.2575
22.6254
22.2202
21.5645
20.8507
20.1223
19.0407
18.1344
16.6735
15.4038
13.4716
11.7806
9.20992
6.9269
3.72358
0.82523
-3.05408
-6.42732
-10.6932
-14.3325
-18.4293
-21.7199
-24.9716
-27.2265
-28.8059
-29.6266
-28.8467
-27.8927
-24.9832
-22.8733
-19.7397
-18.3501
-16.0614
-14.9764
-13.4564
-12.7292
-12.1992
-11.9313
-11.8063
-11.4397
-11.379
-10.5646
-10.6293
-9.96091
-10.573
-9.99045
-10.4071
-9.57752
-10.0016
-9.14542
-9.65258
-9.10418
-9.25798
-9.16992
-8.90039
-9.13584
-8.65876
-9.10642
-8.50944
-9.07703
-8.37011
-9.0538
-8.2405
-8.99548
-8.16584
-8.85239
-8.1439
-8.73919
-8.20081
-8.43771
-8.14809
-8.24509
-7.93643
-7.98599
-7.67579
-7.62269
-7.32259
-7.17124
-6.80601
-6.59992
-6.01751
-5.77524
-4.9368
-4.62203
-3.43808
-3.05446
-1.35367
-1.01661
1.44562
1.79259
5.07207
5.42731
9.84293
10.2227
16.1381
16.4916
24.0981
24.7487
33.9348
35.093
45.6795
47.1649
59.1606
60.3189
73.839
18.9755
27.8021
21.5397
26.6962
22.8927
26.0606
23.7704
25.6358
24.4368
25.3865
24.9544
25.2567
25.3295
25.2398
25.518
25.3307
25.6418
25.6163
25.4922
25.8569
25.4668
25.9809
25.4543
26.0622
25.4147
26.1184
25.3365
26.1504
25.2078
26.1389
25.0711
26.0479
25.0223
25.8966
25.1131
25.6288
25.3625
25.3563
25.5164
25.4426
25.7256
25.582
25.9456
25.7217
26.114
25.7757
26.1307
25.622
25.7867
25.061
24.8603
23.7846
22.8824
21.1258
19.0613
16.0072
11.9792
6.55329
-0.845985
-10.6013
-23.7025
-40.554
-61.1564
-83.5433
-106.292
-122.465
-125.458
-108.907
-86.3883
-60.5483
-39.5069
-19.1848
-4.73033
6.42508
18.1504
21.8395
26.6804
25.7399
26.7725
26.0423
27.1799
26.4658
27.2599
26.2446
26.6036
25.3433
25.3576
24.6484
24.285
23.6394
23.1219
22.6044
21.7904
21.2374
20.1927
19.4194
18.042
17.0148
15.1857
13.6662
11.2042
9.00437
5.78717
2.81858
-1.24015
-4.95114
-9.49733
-13.7089
-18.2803
-22.2678
-26.3169
-29.3637
-31.957
-33.3646
-33.6945
-32.7276
-30.2955
-26.7933
-23.1257
-20.6423
-17.6698
-15.1067
-12.9249
-11.102
-10.1318
-9.57128
-9.96853
-9.42099
-10.0577
-8.90196
-9.68618
-8.62881
-10.0619
-9.08173
-10.1601
-9.14662
-9.82443
-8.88212
-9.49893
-8.87964
-9.10296
-9.02194
-8.73682
-9.0296
-8.54521
-8.99751
-8.36972
-9.00071
-8.24091
-9.01319
-8.13751
-8.98635
-8.081
-8.88764
-8.05007
-8.79811
-8.1567
-8.5239
-8.22615
-8.32429
-8.11828
-8.06103
-7.95991
-7.78323
-7.67651
-7.45887
-7.27741
-7.0235
-6.72925
-6.44586
-5.92714
-5.5948
-4.71699
-4.36129
-2.96945
-2.66091
-0.640757
-0.466359
2.56322
2.54542
6.50543
6.55024
11.67
11.567
18.3302
18.2553
26.4901
26.7041
36.127
36.6975
47.6182
48.1007
60.8571
19.6179
29.5746
22.3041
28.2106
23.8238
27.3095
24.7201
26.6562
25.2775
26.1961
25.657
25.8793
25.9041
25.6739
26.0183
25.6356
26.0176
25.9003
25.7521
26.1626
25.6346
26.2843
25.5866
26.3457
25.53
26.3711
25.4527
26.3836
25.3355
26.3756
25.1997
26.2867
25.1354
26.1
25.2396
25.8225
25.536
25.5164
25.6838
25.5444
25.8744
25.6659
26.1154
25.8428
26.3515
26.0135
26.4983
26.0693
26.3509
25.7715
25.7266
24.9033
24.2664
22.9155
21.2994
18.9033
15.5851
11.1024
4.63463
-4.04254
-16.5591
-32.8132
-54.7992
-80.1981
-110.04
-138.092
-154.031
-140.289
-110.288
-77.0218
-50.2422
-26.8088
-7.84367
4.53083
15.7899
26.0598
25.1757
29.0498
26.9552
26.5414
26.7807
26.3044
26.9046
25.9103
26.3289
25.1892
25.3485
24.6322
24.4275
24.0684
23.5513
23.286
22.5781
22.1771
21.2283
20.6813
19.4111
18.5225
16.9051
15.6102
13.3272
11.3289
8.29185
5.45927
1.42619
-2.20494
-7.07169
-11.4634
-16.6926
-21.2013
-25.8672
-29.6288
-32.8186
-35.4358
-35.8251
-35.9023
-32.0474
-28.1921
-22.2839
-20.294
-17.917
-16.0373
-14.0421
-12.4894
-11.2913
-11.1333
-11.4537
-11.7312
-11.621
-10.3676
-9.92171
-9.04813
-10.1521
-10.1847
-10.6267
-9.664
-9.95277
-8.97532
-9.5907
-9.09143
-9.34802
-9.22581
-8.86584
-9.15464
-8.58946
-9.14346
-8.43943
-9.1506
-8.34108
-9.14497
-8.24966
-9.1447
-8.20536
-9.07178
-8.23122
-8.96292
-8.42172
-8.76226
-8.53133
-8.64497
-8.51973
-8.47971
-8.44698
-8.25842
-8.34845
-8.09155
-8.1525
-7.92654
-7.78572
-7.60242
-7.30957
-7.11366
-6.56013
-6.3499
-5.3448
-5.3637
-3.66364
-3.86595
-1.40248
-1.88665
1.30755
1.02979
5.09228
4.70347
10.2746
10.0223
17.0143
17.4217
25.345
26.0203
35.6523
36.1401
48.1947
22.3361
32.4136
24.1139
29.9253
24.9334
28.2502
25.3589
27.1056
25.6202
26.3255
25.8472
25.8244
26.0083
25.5677
26.0757
25.5188
25.9802
25.8134
25.6809
26.0942
25.5357
26.2542
25.4832
26.3521
25.4064
26.4073
25.3114
26.4326
25.1752
26.3911
25.0512
26.2729
24.9874
26.0595
25.0647
25.7307
25.3657
25.4086
25.6098
25.3829
25.8352
25.5917
26.1128
25.8821
26.4292
26.1594
26.724
26.402
26.8269
26.4429
26.5932
26.1054
25.7384
24.8688
23.6356
21.9407
19.2744
15.8304
10.4748
3.25768
-7.55805
-22.39
-42.5245
-68.4754
-101.213
-135.458
-162.657
-162.523
-140.338
-104.597
-70.0745
-42.1799
-21.1585
-3.65658
8.83335
23.3515
26.4648
28.9544
30.1687
27.5633
28.3459
27.9169
28.7841
27.9195
27.9522
26.5916
26.286
25.5729
25.1588
24.7129
24.1234
23.9728
23.2209
23.026
22.1072
21.6954
20.5684
19.9444
18.4804
17.4392
15.385
13.6094
10.7148
8.04167
3.98317
0.0587718
-4.97994
-10.0223
-15.7103
-21.1759
-26.9513
-31.7333
-35.9963
-39.5681
-41.6621
-42.8628
-41.1615
-35.4992
-27.9336
-23.1235
-19.6551
-15.7918
-12.8041
-9.66367
-7.88432
-7.09643
-8.23691
-8.40863
-11.0108
-9.32246
-9.67144
-7.34676
-9.19865
-8.56701
-10.8272
-9.68692
-10.2069
-8.83924
-9.31761
-8.73529
-9.15544
-9.11694
-8.82666
-9.03186
-8.55878
-8.99783
-8.34505
-9.02941
-8.2619
-9.06912
-8.21213
-9.10069
-8.19204
-9.06384
-8.19075
-8.99821
-8.36175
-8.84027
-8.58456
-8.75128
-8.6989
-8.56449
-8.69543
-8.42491
-8.58485
-8.29189
-8.49776
-8.20331
-8.37542
-8.14704
-8.14079
-7.90821
-7.71131
-7.47007
-6.7386
-6.60224
-5.63298
-5.84436
-3.48239
-4.36749
-1.70649
-2.20247
1.27074
0.155638
5.17282
3.90584
10.144
9.44636
16.471
15.7818
24.4782
23.5852
35.4877
23.1017
34.6056
25.3863
31.7027
26.3997
29.621
26.7914
28.1765
26.8399
27.1276
26.8196
26.4201
26.748
26.0097
26.6363
25.8461
26.3333
26.1304
25.882
26.4274
25.6292
26.5944
25.5262
26.6448
25.4573
26.6486
25.3973
26.6581
25.2539
26.6366
25.0982
26.4993
25.0506
26.2402
25.166
25.8527
25.4972
25.4169
25.7178
25.3992
25.8553
25.5516
26.139
25.818
26.525
26.1957
26.9087
26.6494
27.0906
26.8169
27.0024
26.7016
26.4783
25.9302
24.9764
23.7752
21.6375
18.9871
14.6477
8.85321
-0.0299698
-12.2094
-29.4295
-52.0197
-79.9525
-113.749
-144.948
-158.062
-138.09
-110.84
-75.4269
-45.6856
-27.908
-9.81694
6.35967
20.2953
28.931
26.2093
29.5665
27.8641
27.1291
26.0676
27.8837
26.8804
27.6382
26.4303
26.3897
25.5316
25.296
25.1593
24.4216
24.5017
23.871
23.7378
22.967
22.6812
21.6186
21.1036
19.8785
19.0719
17.2659
15.7582
13.1391
10.7438
6.90779
3.30036
-1.85724
-6.7992
-13.0657
-18.7293
-24.8642
-30.1565
-35.0858
-40.0763
-42.7253
-46.2548
-44.2005
-38.7303
-25.03
-22.9388
-21.0354
-18.869
-16.0986
-13.0797
-9.8345
-8.53699
-10.0873
-11.5401
-12.6
-10.5719
-9.3352
-7.2782
-8.87712
-10.1996
-11.1951
-10.1156
-10.0276
-8.82329
-9.45202
-9.0633
-9.45772
-9.30995
-8.86995
-9.11893
-8.50352
-9.15595
-8.35837
-9.18842
-8.26363
-9.17442
-8.23365
-9.18181
-8.23939
-9.14292
-8.26944
-9.02862
-8.44541
-8.91766
-8.74737
-8.84227
-8.95492
-8.74825
-8.91407
-8.63977
-8.90356
-8.64454
-8.90297
-8.65596
-8.84373
-8.65527
-8.78948
-8.69619
-8.68405
-8.4931
-8.01017
-8.24847
-7.37056
-7.66367
-5.86151
-6.93737
-5.25175
-5.58312
-3.20631
-4.69337
-0.786008
-2.49075
2.62451
2.76838
7.17578
7.83578
13.0663
13.2625
22.5562
25.9421
37.1297
26.9597
33.0895
27.2218
30.2089
27.3238
28.3005
27.2469
27.0708
27.0886
26.3519
26.8778
25.9284