/*--------------------------------*- C++ -*----------------------------------*\
| =========                 |                                                 |
| \\      /  F ield         | OpenFOAM: The Open Source CFD Toolbox           |
|  \\    /   O peration     | Version:  4.1                                   |
|   \\  /    A nd           | Web:      www.OpenFOAM.org                      |
|    \\/     M anipulation  |                                                 |
\*---------------------------------------------------------------------------*/
FoamFile
{
    version     2.0;
    format      ascii;
    class       volScalarField;
    location    "27";
    object      p;
}
// * * * * * * * * * * * * * * * * * * * * * * * * * * * * * * * * * * * * * //

dimensions      [0 2 -2 0 0 0 0];

internalField   nonuniform List<scalar> 
6750
(
-86.1115
-43.6451
-104.977
-107.759
-124.862
-131.479
-137.32
-140.906
-143.082
-142.023
-143.36
-137.542
-143.107
-69.0057
-151.541
-85.9692
-43.2088
-104.622
-107.622
-125.091
-131.788
-137.707
-140.965
-143.05
-142.007
-143.39
-137.697
-142.945
-68.4982
-151.495
-85.8368
-42.8007
-104.358
-107.586
-125.304
-132.038
-138.018
-140.967
-143.016
-142.006
-143.436
-137.688
-142.821
-68.0136
-151.498
-85.6696
-42.2526
-104.005
-107.531
-125.57
-132.339
-138.337
-141.019
-142.973
-142.024
-143.488
-137.55
-142.771
-67.6717
-151.358
-85.5162
-41.655
-103.671
-107.508
-125.825
-132.604
-138.623
-141.177
-143.059
-142.134
-143.481
-136.957
-142.666
-67.3954
-151.214
-85.3903
-41.0538
-103.344
-107.483
-126.057
-132.866
-139.034
-141.48
-143.051
-142.209
-143.406
-137.196
-142.663
-67.0792
-151.054
-85.3285
-40.5609
-103.082
-107.452
-126.205
-133.068
-139.293
-141.452
-143.051
-142.281
-143.252
-137.648
-142.607
-66.7846
-150.893
-85.3413
-40.4258
-103.01
-107.449
-126.261
-133.157
-139.454
-141.576
-143.03
-142.23
-143.334
-137.876
-142.569
-66.5378
-150.797
-85.4137
-40.6937
-103.173
-107.502
-126.233
-133.132
-139.422
-141.617
-143.078
-142.241
-143.36
-137.688
-142.544
-66.6942
-150.565
-85.5541
-41.2496
-103.496
-107.575
-126.117
-132.99
-139.157
-141.56
-143.116
-142.268
-143.386
-137.105
-142.489
-66.9289
-150.364
-85.7453
-41.8968
-103.878
-107.644
-125.925
-132.753
-138.783
-141.361
-143.176
-142.313
-143.599
-137.06
-142.427
-67.13
-150.189
-85.9512
-42.516
-104.251
-107.702
-125.698
-132.511
-138.493
-141.255
-143.196
-142.324
-143.659
-137.61
-142.467
-67.3283
-150.032
-86.1578
-43.0704
-104.634
-107.789
-125.458
-132.234
-138.214
-141.265
-143.329
-142.459
-143.699
-138.081
-142.509
-67.6127
-149.939
-86.3146
-43.4799
-104.919
-107.847
-125.261
-132
-137.945
-141.332
-143.385
-142.597
-143.699
-138.214
-142.617
-68.072
-149.764
-86.4764
-43.9102
-105.289
-108.004
-125.048
-131.704
-137.564
-141.306
-143.491
-142.73
-143.642
-138.141
-142.748
-68.5478
-149.638
-117.264
-30.8775
-107.774
-107.356
-125.472
-131.802
-137.683
-141.07
-143.507
-142.105
-144.029
-136.783
-149.822
-52.0256
-212.03
-117.101
-30.4552
-107.371
-107.155
-125.72
-132.137
-138.133
-141.154
-143.465
-142.085
-144.046
-136.918
-149.614
-51.5008
-212.052
-116.966
-30.1296
-107.127
-107.099
-125.929
-132.356
-138.436
-141.149
-143.427
-142.082
-144.085
-136.847
-149.423
-51.0402
-212.196
-116.795
-29.6552
-106.753
-106.996
-126.197
-132.65
-138.772
-141.206
-143.37
-142.075
-144.142
-136.729
-149.366
-50.6491
-211.998
-116.658
-29.1533
-106.4
-106.946
-126.447
-132.889
-139.041
-141.323
-143.468
-142.138
-144.158
-136.121
-149.203
-50.3393
-211.809
-116.565
-28.6402
-106.025
-106.891
-126.676
-133.129
-139.437
-141.623
-143.438
-142.172
-144.1
-136.372
-149.206
-49.9904
-211.585
-116.55
-28.2139
-105.699
-106.845
-126.815
-133.305
-139.687
-141.57
-143.503
-142.234
-143.988
-136.713
-149.135
-49.6928
-211.358
-116.593
-28.0962
-105.605
-106.835
-126.866
-133.382
-139.83
-141.699
-143.411
-142.212
-143.965
-136.915
-149.04
-49.4342
-211.277
-116.655
-28.321
-105.813
-106.893
-126.841
-133.359
-139.792
-141.721
-143.44
-142.233
-144.01
-136.801
-149.026
-49.5439
-210.815
-116.781
-28.7918
-106.199
-106.98
-126.728
-133.238
-139.536
-141.679
-143.472
-142.25
-143.997
-136.288
-148.91
-49.7187
-210.411
-116.973
-29.3369
-106.628
-107.078
-126.54
-133.021
-139.171
-141.487
-143.544
-142.297
-144.202
-136.171
-148.782
-49.8939
-210.05
-117.188
-29.8502
-107.015
-107.162
-126.315
-132.804
-138.889
-141.385
-143.519
-142.282
-144.217
-136.662
-148.812
-50.0676
-209.712
-117.414
-30.329
-107.419
-107.298
-126.072
-132.532
-138.59
-141.37
-143.628
-142.371
-144.254
-137.071
-148.839
-50.3359
-209.506
-117.582
-30.6556
-107.68
-107.376
-125.878
-132.327
-138.321
-141.434
-143.665
-142.456
-144.26
-137.205
-148.993
-50.7291
-209.057
-117.773
-31.0745
-108.099
-107.6
-125.649
-132.007
-137.88
-141.376
-143.816
-142.59
-144.245
-137.177
-149.139
-51.1618
-208.724
-170.44
-4.60742
-110.852
-106.821
-126.458
-132.603
-138.611
-141.525
-144.301
-142.327
-145.309
-134.854
-161.822
-14.2243
-322.14
-170.245
-4.30588
-110.43
-106.515
-126.695
-132.945
-139.105
-141.65
-144.252
-142.309
-145.293
-134.935
-161.496
-13.6587
-322.186
-170.111
-4.15969
-110.225
-106.424
-126.88
-133.11
-139.363
-141.633
-144.205
-142.309
-145.305
-134.8
-161.085
-13.1699
-322.488
-169.951
-3.87195
-109.824
-106.235
-127.125
-133.385
-139.702
-141.701
-144.134
-142.289
-145.346
-134.725
-161.022
-12.7227
-322.097
-169.874
-3.58874
-109.433
-106.138
-127.347
-133.575
-139.926
-141.757
-144.208
-142.292
-145.367
-134.159
-160.754
-12.4022
-321.772
-169.865
-3.26616
-108.97
-106.034
-127.547
-133.782
-140.262
-142.009
-144.133
-142.275
-145.299
-134.384
-160.738
-12.0054
-321.364
-169.95
-2.96061
-108.521
-105.969
-127.659
-133.916
-140.472
-141.942
-144.205
-142.294
-145.211
-134.528
-160.608
-11.663
-320.934
-170.028
-2.86279
-108.374
-105.952
-127.695
-133.976
-140.577
-142.058
-144.106
-142.313
-145.132
-134.682
-160.335
-11.3237
-320.834
-170.039
-3.01233
-108.673
-106.014
-127.682
-133.955
-140.536
-142.052
-144.111
-142.338
-145.19
-134.627
-160.408
-11.3884
-319.949
-170.112
-3.31143
-109.181
-106.118
-127.591
-133.865
-140.317
-142.042
-144.133
-142.355
-145.131
-134.285
-160.208
-11.493
-319.171
-170.282
-3.63494
-109.706
-106.266
-127.43
-133.68
-139.998
-141.877
-144.202
-142.393
-145.296
-134.126
-159.967
-11.6132
-318.434
-170.5
-3.90823
-110.124
-106.396
-127.228
-133.506
-139.745
-141.793
-144.107
-142.363
-145.237
-134.508
-159.964
-11.7008
-317.703
-170.758
-4.19184
-110.55
-106.621
-127.009
-133.25
-139.43
-141.735
-144.133
-142.382
-145.244
-134.791
-159.925
-11.8994
-317.265
-170.945
-4.33834
-110.766
-106.732
-126.836
-133.094
-139.186
-141.784
-144.11
-142.392
-145.233
-134.9
-160.252
-12.2506
-316.313
-171.185
-4.64413
-111.203
-107.067
-126.62
-132.769
-138.698
-141.663
-144.227
-142.473
-145.236
-134.929
-160.445
-12.5817
-315.616
-226.271
19.8591
-109.103
-108.249
-127.567
-134.427
-140.352
-142.693
-145.506
-143.116
-146.926
-133.807
-172.603
30.9655
-450.433
-226.085
19.9799
-108.766
-107.884
-127.729
-134.721
-140.797
-142.842
-145.464
-143.113
-146.882
-133.845
-172.078
31.5534
-450.492
-225.991
19.9532
-108.605
-107.775
-127.866
-134.836
-140.981
-142.812
-145.406
-143.111
-146.855
-133.765
-171.252
32.1609
-450.999
-225.901
19.98
-108.234
-107.532
-128.041
-135.069
-141.275
-142.881
-145.348
-143.103
-146.867
-133.706
-171.24
32.6009
-450.292
-225.971
19.9852
-107.829
-107.415
-128.204
-135.211
-141.44
-142.895
-145.363
-143.063
-146.872
-133.274
-170.866
32.9193
-449.718
-226.144
20.0511
-107.297
-107.289
-128.338
-135.379
-141.68
-143.051
-145.241
-142.995
-146.766
-133.385
-170.774
33.3572
-448.969
-226.357
20.0943
-106.731
-107.235
-128.402
-135.474
-141.824
-142.99
-145.238
-142.954
-146.678
-133.341
-170.499
33.835
-448.174
-226.441
20.0744
-106.528
-107.221
-128.415
-135.519
-141.882
-143.049
-145.119
-142.969
-146.562
-133.465
-169.852
34.4269
-447.96
-226.35
20.0541
-106.913
-107.278
-128.429
-135.501
-141.845
-143.029
-145.116
-142.988
-146.601
-133.358
-170.121
34.4843
-446.37
-226.297
20.0787
-107.529
-107.372
-128.384
-135.439
-141.684
-143.05
-145.152
-143.031
-146.526
-133.202
-169.854
34.4606
-444.918
-226.387
20.1337
-108.128
-107.544
-128.287
-135.29
-141.436
-142.931
-145.197
-143.036
-146.634
-133.081
-169.437
34.447
-443.506
-226.565
20.2087
-108.562
-107.691
-128.139
-135.16
-141.235
-142.876
-145.082
-143.011
-146.52
-133.33
-169.299
34.5145
-442.068
-226.82
20.1904
-108.961
-107.973
-127.991
-134.943
-140.944
-142.791
-145.021
-142.968
-146.489
-133.461
-169.016
34.5586
-441.166
-227.01
20.2093
-109.128
-108.103
-127.861
-134.834
-140.756
-142.824
-144.957
-142.934
-146.472
-133.449
-169.671
34.2067
-439.304
-227.27
20.0529
-109.476
-108.502
-127.724
-134.557
-140.311
-142.663
-145.002
-142.93
-146.463
-133.427
-169.903
34.1708
-437.953
-293.151
26.8971
-104.938
-113.621
-129.723
-137.825
-143.466
-145.148
-147.911
-145.075
-149.541
-136.22
-184.844
71.4324
-611.291
-293.012
27.0315
-104.752
-113.268
-129.795
-138.057
-143.817
-145.292
-147.851
-145.094
-149.469
-136.286
-184.155
72.0608
-611.107
-292.974
27.0063
-104.665
-113.164
-129.885
-138.14
-143.926
-145.249
-147.764
-145.083
-149.412
-136.37
-182.988
72.6321
-611.572
-293.04
27.0324
-104.409
-112.928
-129.972
-138.322
-144.147
-145.3
-147.714
-145.1
-149.398
-136.291
-182.998
73.3569
-610.47
-293.293
26.964
-104.072
-112.825
-130.067
-138.43
-144.25
-145.294
-147.664
-145.044
-149.367
-135.962
-182.538
73.8347
-609.467
-293.552
26.7819
-103.602
-112.715
-130.12
-138.558
-144.402
-145.356
-147.468
-144.928
-149.175
-135.944
-182.281
74.3569
-608.076
-293.823
26.4225
-103.078
-112.682
-130.132
-138.627
-144.481
-145.293
-147.36
-144.836
-149.008
-135.832
-181.77
74.9477
-606.585
-293.928
26.1881
-102.888
-112.678
-130.123
-138.655
-144.498
-145.287
-147.185
-144.797
-148.84
-135.986
-180.704
75.7517
-605.814
-293.81
26.3313
-103.262
-112.741
-130.173
-138.648
-144.47
-145.274
-147.161
-144.789
-148.837
-135.743
-181.002
76.4065
-603.411
-293.638
26.6708
-103.836
-112.821
-130.185
-138.609
-144.359
-145.317
-147.248
-144.886
-148.846
-135.647
-180.658
76.6107
-601.003
-293.628
27.0371
-104.37
-112.985
-130.172
-138.499
-144.179
-145.241
-147.294
-144.861
-148.901
-135.586
-180.046
76.6459
-598.525
-293.762
27.3673
-104.738
-113.116
-130.09
-138.401
-144.035
-145.21
-147.203
-144.842
-148.776
-135.773
-179.745
76.616
-595.808
-293.988
27.4555
-105.042
-113.395
-130.033
-138.237
-143.797
-145.118
-147.072
-144.716
-148.663
-135.832
-179.12
76.6353
-593.795
-294.16
27.473
-105.145
-113.519
-129.95
-138.158
-143.67
-145.141
-147.003
-144.66
-148.622
-135.663
-179.959
76.2662
-590.633
-294.409
27.253
-105.356
-113.915
-129.907
-137.946
-143.312
-144.981
-147.015
-144.575
-148.582
-135.489
-180.09
76.6004
-588.301
-374.617
11.8493
-102.394
-124.806
-133.931
-143.428
-148.797
-149.708
-152.809
-149.32
-155.085
-145.085
-207.004
92.5062
-816.296
-374.569
12.1719
-102.325
-124.505
-133.941
-143.605
-149.042
-149.807
-152.657
-149.306
-154.862
-145.111
-206.158
93.3739
-815.62
-374.68
12.368
-102.307
-124.407
-133.999
-143.672
-149.087
-149.744
-152.478
-149.246
-154.688
-145.341
-204.928
94.0515
-815.716
-374.822
12.5849
-102.188
-124.208
-134.022
-143.809
-149.228
-149.758
-152.383
-149.268
-154.6
-145.173
-204.733
95.6915
-814.032
-375.058
12.5514
-102.02
-124.119
-134.071
-143.902
-149.279
-149.749
-152.269
-149.21
-154.529
-144.895
-204.022
96.8934
-812.22
-375.298
12.3106
-101.76
-124.034
-134.071
-144.001
-149.367
-149.757
-151.959
-149.036
-154.186
-144.796
-203.497
97.8206
-809.706
-375.54
11.7772
-101.453
-124.027
-134.055
-144.057
-149.405
-149.693
-151.738
-148.904
-153.881
-144.699
-202.713
98.6786
-806.772
-375.649
11.4485
-101.35
-124.051
-134.037
-144.077
-149.399
-149.643
-151.483
-148.791
-153.632
-144.905
-201.382
99.4964
-804.529
-375.591
11.6322
-101.619
-124.131
-134.121
-144.099
-149.389
-149.659
-151.451
-148.776
-153.597
-144.569
-201.316
100.99
-800.703
-375.505
12.0406
-101.984
-124.217
-134.182
-144.086
-149.318
-149.713
-151.618
-148.931
-153.723
-144.417
-200.783
101.345
-796.53
-375.558
12.4063
-102.303
-124.379
-134.24
-144.018
-149.195
-149.67
-151.717
-148.922
-153.78
-144.399
-200.075
101.089
-792.075
-375.691
12.6828
-102.522
-124.505
-134.217
-143.944
-149.102
-149.651
-151.67
-148.892
-153.653
-144.558
-199.651
100.627
-787.305
-375.904
12.6424
-102.713
-124.759
-134.237
-143.834
-148.935
-149.579
-151.522
-148.722
-153.507
-144.565
-198.741
100.375
-783.513
-376.052
12.5608
-102.767
-124.881
-134.191
-143.774
-148.864
-149.613
-151.499
-148.711
-153.566
-144.372
-199.56
99.992
-778.245
-376.283
12.1761
-102.892
-125.239
-134.221
-143.624
-148.602
-149.496
-151.518
-148.594
-153.523
-143.989
-199.479
101.064
-774.232
-468.359
-13.8647
-104.976
-142.557
-141.801
-152.401
-157.715
-157.454
-161.921
-157.277
-166.93
-162.367
-250.88
100.18
-1079.98
-468.354
-13.5231
-104.935
-142.315
-141.776
-152.543
-157.871
-157.515
-161.638
-157.246
-166.591
-162.476
-249.625
102.033
-1077.59
-468.476
-13.3271
-104.928
-142.224
-141.815
-152.615
-157.876
-157.449
-161.348
-157.145
-166.269
-162.715
-248.415
103.072
-1076.12
-468.591
-13.1061
-104.894
-142.067
-141.816
-152.728
-157.949
-157.437
-161.174
-157.122
-165.943
-162.542
-247.37
105.914
-1072.73
-468.808
-13.1227
-104.866
-141.995
-141.85
-152.823
-157.969
-157.453
-160.993
-157.085
-165.704
-162.31
-245.939
107.752
-1069.18
-469.018
-13.2649
-104.812
-141.945
-141.845
-152.907
-158.016
-157.461
-160.552
-156.885
-165.162
-162.268
-244.793
109.422
-1064.14
-469.261
-13.5723
-104.773
-141.971
-141.84
-152.966
-158.043
-157.42
-160.22
-156.723
-164.676
-162.253
-243.48
110.546
-1058.87
-469.425
-13.7269
-104.798
-142.036
-141.845
-152.992
-158.032
-157.353
-159.876
-156.583
-164.42
-162.665
-241.989
111.419
-1053.71
-469.523
-13.59
-104.938
-142.136
-141.963
-153.066
-158.064
-157.416
-159.881
-156.562
-164.301
-162.203
-240.886
113.394
-1047.78
-469.615
-13.3399
-105.079
-142.246
-142.067
-153.098
-158.039
-157.49
-160.175
-156.79
-164.562
-162.078
-240.1
114.079
-1041.19
-469.751
-13.2293
-105.221
-142.433
-142.182
-153.085
-157.978
-157.451
-160.365
-156.776
-164.687
-162.022
-239.353
114.05
-1034.02
-469.878
-13.1906
-105.33
-142.588
-142.219
-153.042
-157.944
-157.441
-160.424
-156.81
-164.802
-162.142
-239.407
112.915
-1025.57
-470.074
-13.405
-105.48
-142.845
-142.305
-152.984
-157.848
-157.376
-160.244
-156.611
-164.826
-162.397
-239.177
111.413
-1017.16
-470.187
-13.5405
-105.539
-142.983
-142.305
-152.935
-157.824
-157.408
-160.278
-156.586
-164.926
-162.063
-240.088
109.343
-1007.7
-470.4
-13.9633
-105.677
-143.319
-142.405
-152.844
-157.647
-157.327
-160.337
-156.446
-164.854
-161.331
-240.159
110.157
-1000.77
-571.498
-41.3913
-113.025
-165.93
-155.238
-166.064
-172.133
-169.551
-178.108
-170.317
-190.84
-186.084
-327.835
109.552
-1430.37
-571.559
-41.1341
-112.983
-165.745
-155.175
-166.178
-172.182
-169.586
-177.474
-170.13
-189.78
-186.366
-324.708
114.72
-1425.2
-571.777
-40.9693
-112.962
-165.664
-155.193
-166.259
-172.151
-169.552
-176.99
-170.133
-189.306
-187.661
-322.81
117.483
-1419.92
-571.951
-40.7953
-112.97
-165.554
-155.19
-166.375
-172.168
-169.583
-176.714
-170.206
-188.489
-187.34
-319.712
121.28
-1411.29
-572.226
-40.7869
-113.019
-165.517
-155.23
-166.494
-172.183
-169.688
-176.47
-170.246
-187.852
-187.752
-316.738
124.572
-1403.48
-572.477
-40.7981
-113.093
-165.524
-155.26
-166.594
-172.219
-169.77
-175.884
-170.137
-187.016
-188.124
-314.313
127.131
-1393.86
-572.775
-40.8801
-113.214
-165.606
-155.305
-166.687
-172.285
-169.814
-175.505
-170.09
-186.473
-188.452
-312.124
128.77
-1383.29
-573.024
-40.8965
-113.309
-165.724
-155.377
-166.756
-172.316
-169.763
-175.076
-170.006
-186.369
-189.434
-310.243
129.607
-1372.72
-573.242
-40.882
-113.377
-165.866
-155.557
-166.919
-172.471
-169.951
-175.299
-170.098
-186.34
-189.156
-308.42
130.799
-1362.43
-573.408
-40.8757
-113.425
-166.025
-155.732
-167.044
-172.56
-170.094
-175.784
-170.349
-186.708
-189.028
-307.868
130.196
-1349.58
-573.592
-40.9992
-113.543
-166.262
-155.936
-167.128
-172.635
-170.106
-176.256
-170.489
-187.326
-188.893
-308.161
127.338
-1335.3
-573.738
-41.1098
-113.655
-166.469
-156.07
-167.156
-172.711
-170.093
-176.473
-170.514
-187.946
-189.284
-309.09
124.773
-1320.83
-573.948
-41.4058
-113.831
-166.767
-156.266
-167.18
-172.749
-170.033
-176.402
-170.223
-188.334
-188.666
-309.792
123.506
-1310.07
-574.054
-41.544
-113.924
-166.941
-156.349
-167.179
-172.824
-170.105
-176.747
-170.349
-189.202
-188.143
-312.914
120.945
-1295.32
-574.277
-41.9262
-114.103
-167.289
-156.571
-167.187
-172.811
-170.102
-177.097
-170.368
-189.719
-187.289
-314.87
123.676
-1283.56
-685.52
-70.4148
-125.169
-194.747
-176.823
-187.018
-196.021
-188.44
-206.797
-190.408
-236.838
-213.242
-449.91
141.673
-1872.11
-685.678
-70.2082
-125.147
-194.62
-176.711
-187.081
-195.866
-188.458
-205.552
-190.157
-234.297
-212.645
-443.431
147.067
-1865.88
-686.023
-70.0343
-125.13
-194.56
-176.699
-187.155
-195.749
-188.445
-204.555
-190.097
-232.431
-214.511
-439.172
154.919
-1858.62
-686.289
-69.8811
-125.186
-194.522
-176.691
-187.284
-195.654
-188.555
-203.886
-190.457
-230.526
-217.108
-430.964
161.723
-1845.51
-686.669
-69.8441
-125.283
-194.56
-176.751
-187.45
-195.672
-188.859
-203.566
-190.808
-228.753
-217.787
-422.865
164.879
-1830.84
-687.008
-69.798
-125.428
-194.658
-176.842
-187.608
-195.705
-189.062
-202.788
-190.859
-227.431
-219.748
-418.58
167.641
-1810.64
-687.393
-69.8242
-125.625
-194.827
-176.993
-187.789
-195.863
-189.265
-202.397
-191.074
-226.628
-220.756
-413.6
169.002
-1793.01
-687.717
-69.842
-125.786
-195.01
-177.192
-187.964
-196.009
-189.268
-201.971
-191.177
-227.037
-222.924
-411.84
170.417
-1775.44
-688.023
-69.9509
-125.9
-195.213
-177.491
-188.273
-196.43
-189.694
-202.68
-191.499
-227.284
-222.418
-409.729
170.772
-1755.59
-688.271
-70.0839
-125.986
-195.438
-177.798
-188.556
-196.804
-190.043
-203.684
-191.989
-228.495
-222.59
-412.415
170.692
-1735.65
-688.546
-70.3298
-126.145
-195.752
-178.163
-188.809
-197.182
-190.154
-204.61
-192.105
-230.166
-221.644
-416.395
172.803
-1718.71
-688.754
-70.5149
-126.279
-196.034
-178.464
-188.985
-197.534
-190.188
-205.329
-192.209
-232.266
-219.244
-424.726
172.707
-1695.48
-689.033
-70.8461
-126.486
-196.408
-178.854
-189.176
-197.904
-190.21
-205.916
-192.252
-235.409
-219.695
-433.964
169.479
-1669.07
-689.169
-70.9912
-126.597
-196.633
-179.077
-189.291
-198.205
-190.337
-206.789
-192.165
-236.879
-217.847
-441.329
163.01
-1626.1
-689.439
-71.3665
-126.806
-197.027
-179.499
-189.498
-198.549
-190.451
-207.726
-192.008
-237.871
-214.241
-443.567
167.898
-1604.29
-808.807
-102.98
-139.483
-228.161
-205.883
-215.285
-231.578
-214.456
-253.012
-214.049
-311.247
-219.577
-607.245
222.433
-2588.14
-809.087
-102.794
-139.497
-228.097
-205.729
-215.291
-231.047
-214.491
-250.482
-214.531
-305.256
-227.314
-589.472
223.715
-2528.81
-809.578
-102.599
-139.495
-228.085
-205.699
-215.371
-230.788
-214.685
-248.759
-215.737
-302.149
-231.605
-589.405
219.475
-2488.42
-809.967
-102.459
-139.602
-228.148
-205.697
-215.54
-230.48
-214.971
-247.027
-216.584
-296.857
-236.023
-578.327
229.093
-2439.63
-810.483
-102.424
-139.743
-228.296
-205.815
-215.8
-230.487
-215.662
-246.433
-218.098
-293.578
-245.855
-562.485
235.417
-2412.49
-810.946
-102.399
-139.939
-228.519
-206.021
-216.101
-230.575
-216.205
-245.557
-218.952
-290.844
-250.177
-550.887
240.151
-2374.46
-811.448
-102.494
-140.184
-228.822
-206.35
-216.463
-230.921
-216.742
-245.267
-219.755
-290.151
-254.445
-543.032
241.858
-2344.55
-811.884
-102.607
-140.407
-229.126
-206.746
-216.84
-231.346
-216.952
-245.085
-220.341
-291.409
-256.93
-544.255
242.39
-2310.08
-812.323
-102.823
-140.62
-229.437
-207.246
-217.381
-232.262
-217.836
-246.796
-221.323
-292.955
-258.435
-545.745
247.281
-2290.86
-812.7
-103.027
-140.802
-229.758
-207.768
-217.905
-233.177
-218.499
-248.699
-221.771
-295.706
-256.423
-560.455
242.816
-2250.59
-813.104
-103.343
-141.046
-230.183
-208.396
-218.433
-234.164
-218.867
-250.786
-222.142
-300.192
-251.605
-575.015
215.849
-2186.81
-813.406
-103.579
-141.236
-230.561
-208.95
-218.856
-235.074
-219.027
-252.583
-222.465
-305.49
-252.809
-577.037
205.301
-2137.03
-813.769
-103.982
-141.505
-231.049
-209.635
-219.341
-236.09
-219.136
-254.25
-221.46
-308.897
-242.594
-581.786
208.604
-2117.73
-813.944
-104.176
-141.64
-231.343
-210.055
-219.656
-236.858
-219.431
-256.391
-221.211
-314.946
-237.835
-628.003
218.036
-2091.07
-814.261
-104.623
-141.902
-231.835
-210.765
-220.203
-237.921
-219.897
-258.832
-221.089
-320.376
-238.701
-671.647
221.193
-2064.32
-940.877
-145.365
-157.786
-269.875
-246.217
-254.486
-285.019
-252.57
-328.052
-247.696
-438.306
-200.157
-963.206
381.665
-3409.85
-941.298
-145.219
-157.827
-269.897
-246.04
-254.451
-283.86
-252.297
-322.071
-247.085
-414.486
-209.063
-764.672
403.115
-3434.81
-941.962
-144.997
-157.847
-269.971
-246.02
-254.559
-283.315
-252.551
-318.283
-248.973
-401.953
-241.18
-743.636
404.939
-3335.65
-942.52
-144.867
-158.014
-270.156
-246.071
-254.829
-282.734
-253.111
-315.052
-251.339
-395.412
-256.659
-727.297
380.803
-3244.4
-943.206
-144.858
-158.211
-270.438
-246.319
-255.263
-282.725
-254.229
-313.464
-253.523
-388.634
-263.404
-714.043
382.549
-3175.39
-943.84
-144.89
-158.467
-270.822
-246.721
-255.818
-283.002
-255.386
-312.477
-256.031
-385.624
-278.164
-708.186
380.841
-3105.57
-944.506
-145.079
-158.777
-271.303
-247.326
-256.487
-283.769
-256.517
-312.605
-257.886
-384.581
-283.911
-699.704
380.799
-3051.69
-945.109
-145.292
-159.085
-271.786
-248.028
-257.187
-284.799
-257.233
-313.4
-259.913
-389.984
-289.699
-714.415
376.007
-3002.61
-945.721
-145.615
-159.427
-272.284
-248.857
-258.064
-286.556
-258.734
-316.725
-261.091
-394.582
-284.133
-767.924
348.206
-2906.84
-946.254
-145.916
-159.738
-272.768
-249.727
-258.922
-288.479
-259.971
-321.181
-262.637
-403.522
-281.029
-800.319
303.09
-2763.03
-946.796
-146.354
-160.113
-273.366
-250.764
-259.833
-290.552
-260.733
-325.588
-263.029
-410.235
-281.682
-763.378
330.195
-2763.6
-947.2
-146.705
-160.4
-273.879
-251.691
-260.596
-292.498
-261.108
-329.601
-262.448
-418.082
-246.67
-836.843
369.787
-2763.06
-947.646
-147.249
-160.781
-274.536
-252.819
-261.519
-294.81
-261.834
-335.026
-262.495
-445.863
-236.713
-1088.02
358.634
-2745.78
-947.867
-147.535
-160.967
-274.92
-253.516
-262.114
-296.483
-262.628
-340.017
-262.451
-460.662
-204.587
-1341.22
258.236
-2416.2
-948.228
-148.113
-161.331
-275.564
-254.638
-263.13
-298.864
-263.901
-345.919
-262.177
-469.22
-178.204
-1307.45
319.984
-2334.48
-1074.85
-196.744
-177.101
-316.404
-292.87
-297.882
-350.12
-297.671
-431.73
-277.114
-647.938
-120.293
-1555.71
185.484
-4430.77
-1075.45
-196.654
-177.186
-316.55
-292.728
-297.937
-348.353
-297.53
-421.332
-280.441
-598.421
-134.897
-1360.26
259.277
-4633.85
-1076.32
-196.403
-177.242
-316.741
-292.787
-298.154
-347.521
-297.967
-413.839
-284.642
-549.529
-175.701
-1016.57
430.207
-4583.14
-1077.1
-196.306
-177.484
-317.086
-292.964
-298.63
-346.616
-298.856
-406.418
-290.262
-515.26
-260.153
-951.149
507.427
-4291.07
-1078
-196.345
-177.76
-317.547
-293.437
-299.362
-346.785
-300.802
-404.305
-296.122
-514.104
-293.926
-928.453
483.247
-4205.67
-1078.86
-196.455
-178.108
-318.132
-294.14
-300.286
-347.462
-302.733
-402.704
-299.9
-508.648
-297.545
-909.386
507.331
-4044.56
-1079.75
-196.746
-178.53
-318.835
-295.14
-301.408
-349.002
-304.864
-403.943
-304.36
-508.272
-317.705
-886.552
523.533
-3982.41
-1080.58
-197.078
-178.966
-319.555
-296.285
-302.568
-351.021
-306.269
-406.021
-306.813
-515.249
-321.263
-919.869
515.584
-3899.88
-1081.4
-197.558
-179.473
-320.329
-297.619
-303.911
-354.088
-308.805
-412.754
-310.489
-530.576
-319.113
-989.182
444.683
-3691.29
-1082.12
-198.031
-179.945
-321.065
-299.01
-305.204
-357.485
-310.748
-420.208
-311.997
-533.456
-306.787
-925.049
497.338
-3695.4
-1082.82
-198.671
-180.498
-321.926
-300.642
-306.62
-361.203
-312.163
-428.104
-311.977
-544.314
-272.017
-1101.39
534.832
-3711.56
-1083.36
-199.203
-180.924
-322.637
-302.092
-307.806
-364.72
-312.996
-436.537
-311.458
-578.671
-253.394
-1439.89
401.858
-3640.72
-1083.91
-199.943
-181.474
-323.529
-303.837
-309.273
-368.815
-314.514
-446.092
-309.605
-600.661
-179.505
-1557.28
270.185
-3186.7
-1084.2
-200.356
-181.744
-324.032
-304.901
-310.172
-371.619
-315.768
-453.597
-307.778
-612.421
-155.757
-1273.16
259.13
-3031.03
-1084.63
-201.102
-182.267
-324.884
-306.587
-311.737
-375.696
-318.042
-463.089
-307.708
-623.281
-176.853
-1010.18
321.591
-3045.2
-1211.66
-268.944
-206.15
-376.564
-361.377
-359.723
-441.521
-359.937
-556.616
-308.556
-819.609
-133.155
-1723.37
268.043
-5363.21
-1212.44
-268.941
-206.3
-376.907
-361.433
-360.19
-440.109
-361.248
-547.488
-317.194
-785.014
-102.798
-1703.33
206.524
-5322.07
-1213.51
-268.679
-206.41
-377.277
-361.718
-360.763
-439.792
-362.987
-541.172
-329.775
-732.93
-151.345
-1572.48
365.142
-5633.67
-1214.53
-268.651
-206.749
-377.868
-362.213
-361.73
-439.505
-365.249
-532.85
-340.67
-678.617
-244.039
-1255.9
599.631
-5382.59
-1215.66
-268.769
-207.134
-378.584
-363.098
-362.989
-440.566
-368.619
-531.106
-354.633
-665.84
-333.587
-1191.56
659.206
-5169.98
-1216.78
-268.995
-207.621
-379.448
-364.312
-364.539
-442.601
-372.37
-533.189
-363.542
-679.474
-350.132
-1148.66
699.269
-5103.98
-1217.91
-269.419
-208.21
-380.436
-365.918
-366.276
-445.622
-375.561
-536.819
-369.505
-679.509
-349.658
-1194.04
756.436
-5025.77
-1218.99
-269.913
-208.836
-381.449
-367.766
-368.036
-449.664
-378.163
-544.749
-375.526
-712.13
-358.444
-1267.2
763.715
-4879.17
-1220.04
-270.586
-209.567
-382.552
-369.902
-369.91
-454.72
-381.449
-554.805
-380.329
-711.826
-343.989
-1231.46
817.982
-4825.05
-1220.96
-271.267
-210.259
-383.579
-372.126
-371.656
-460.547
-384.155
-569.444
-383.126
-746.211
-347.603
-1608.21
803.662
-4828.08
-1221.84
-272.127
-211.06
-384.74
-374.658
-373.552
-466.689
-385.974
-581.913
-380.501
-764.993
-294.923
-1950.64
629.453
-4469.96
-1222.52
-272.855
-211.692
-385.666
-376.891
-375.086
-472.499
-387.094
-595.439
-377.728
-789.872
-222.651
-1766.23
544.072
-4081.35
-1223.2
-273.793
-212.483
-386.811
-379.501
-377.018
-478.949
-389.136
-610.292
-376.509
-821.945
-243.805
-1472.46
533.757
-3931.67
-1223.57
-274.341
-212.885
-387.428
-381.071
-378.1
-483.086
-390.377
-619.024
-374.615
-816.401
-261.124
-1177.48
583.879
-3983.34
-1224.06
-275.254
-213.636
-388.498
-383.498
-380.103
-489.056
-393.047
-630.917
-375.045
-812.142
-269.155
-1104.97
718.962
-3901.43
-1334.26
-350.786
-235.992
-437.593
-429.381
-414.33
-523.914
-416.728
-659.06
-352.54
-919.548
-220.403
-1157.8
-116.17
-10105.4
-1335.23
-350.923
-236.236
-438.204
-429.815
-415.343
-524.08
-418.928
-661.448
-356.179
-969.546
-182.645
-1874.63
-375.985
-7900.24
-1336.54
-350.706
-236.416
-438.811
-430.439
-416.349
-524.92
-421.579
-660.77
-368.896
-944.786
-127.253
-1882.99
39.2553
-7135.47
-1337.82
-350.81
-236.881
-439.731
-431.417
-417.94
-526.21
-425.079
-657.938
-382.585
-898.187
-197.21
-2026.49
161.19
-6883.05
-1339.22
-351.068
-237.406
-440.781
-432.854
-419.823
-528.754
-429.296
-658.049
-399.524
-850.985
-270.892
-1724.62
402.369
-6789
-1340.62
-351.481
-238.075
-442.016
-434.759
-422.138
-532.789
-434.826
-665.834
-420.044
-879.249
-399.673
-1756.52
702.789
-6569.86
-1342.04
-352.111
-238.883
-443.386
-437.178
-424.616
-538.142
-439.538
-677.43
-432.661
-928.139
-393.373
-1863.87
752.684
-6532.33
-1343.4
-352.843
-239.758
-444.79
-440.009
-427.136
-545.22
-443.696
-694.43
-441.439
-986.751
-399.009
-1880.45
989.226
-6374.54
-1344.72
-353.779
-240.774
-446.306
-443.259
-429.677
-553.058
-447.679
-708.668
-449.684
-967.219
-394.525
-2272.78
732.239
-6313.07
-1345.9
-354.728
-241.757
-447.708
-446.698
-432.088
-562.791
-451.93
-737.908
-452.471
-1053.94
-287.63
-2772.61
474.424
-5485.18
-1347.01
-355.869
-242.883
-449.247
-450.509
-434.624
-572.587
-454.827
-758.484
-447.83
-1063.39
-245.901
-2365.83
540.396
-5266.22
-1347.88
-356.85
-243.79
-450.453
-453.883
-436.656
-582.101
-457.476
-783.553
-450.318
-1131.61
-313.77
-2035.42
625.604
-5351.71
-1348.71
-358.052
-244.904
-451.912
-457.698
-439.173
-591.937
-460.508
-805.533
-452.133
-1157.07
-332.757
-1966.87
691.334
-5252.89
-1349.19
-358.778
-245.487
-452.682
-460.016
-440.489
-598.383
-462.162
-821.349
-455.609
-1172.49
-354.332
-2104.3
690.23
-5055.13
-1349.78
-359.922
-246.54
-454.016
-463.483
-443.021
-607.369
-465.705
-842.682
-460.973
-1211.74
-358.381
-2393.2
680.557
-4885.46
-1433.39
-492.518
-296.743
-518.994
-559.982
-519.02
-690.901
-523.993
-828.801
-430.359
-1003.36
-142.393
-1648.26
2517.01
-12959.6
-1434.44
-492.877
-297.076
-519.973
-560.865
-521.182
-693.768
-530.166
-846.349
-448.08
-1126.58
-125.807
-2081.22
559.121
-11762.4
-1435.8
-492.824
-297.327
-520.904
-561.945
-523.086
-697.099
-535.278
-863.039
-456.183
-1253.03
-90.1965
-2604.55
181.147
-9358.11
-1437.24
-493.163
-297.889
-522.255
-563.562
-525.864
-701.353
-542.61
-875.888
-482.321
-1248.26
-130.685
-2732.85
664.362
-7939.84
-1438.77
-493.668
-298.544
-523.705
-565.752
-528.704
-706.868
-549.1
-890.461
-510.479
-1253.3
-293.051
-2705.8
657.744
-8134.24
-1440.33
-494.38
-299.41
-525.345
-568.588
-531.91
-713.823
-556.035
-901.821
-525.968
-1202.24
-324.652
-2657.51
1066.24
-8190.43
-1441.91
-495.302
-300.488
-527.076
-572.176
-535.057
-722.949
-562.36
-927.665
-555.719
-1379.36
-522.088
-3032.32
1101.12
-7756.87
-1443.44
-496.338
-301.708
-528.781
-576.482
-537.977
-735.128
-567.05
-961.604
-563.42
-1471.01
-430.732
-3369.43
1137.62
-7173.02
-1444.91
-497.559
-303.155
-530.555
-581.473
-540.66
-748.128
-569.891
-985.6
-578.103
-1419.2
-517.388
-3488.73
1266.14
-6894.82
-1446.24
-498.788
-304.612
-532.11
-586.889
-542.816
-765.043
-571.033
-1044.03
-562.994
-1605.12
-417.828
-3050.72
967.479
-7188.59
-1447.47
-500.175
-306.283