/*--------------------------------*- C++ -*----------------------------------*\
| =========                 |                                                 |
| \\      /  F ield         | OpenFOAM: The Open Source CFD Toolbox           |
|  \\    /   O peration     | Version:  4.1                                   |
|   \\  /    A nd           | Web:      www.OpenFOAM.org                      |
|    \\/     M anipulation  |                                                 |
\*---------------------------------------------------------------------------*/
FoamFile
{
    version     2.0;
    format      ascii;
    class       surfaceScalarField;
    location    "27";
    object      phi;
}
// * * * * * * * * * * * * * * * * * * * * * * * * * * * * * * * * * * * * * //

dimensions      [0 3 -1 0 0 0 0];

internalField   nonuniform List<scalar> 
19125
(
75.1987
-1.23394
1431.12
79.1398
-3.76628
1492.8
60.2113
-3.14249
1307.95
48.7505
-1.17978
1032.39
41.3202
3.11106
913.718
30.5705
4.97374
744.075
24.073
6.7349
692.187
16.0814
0.871326
545.125
1.95166
-1.63594
277.264
-4.1317
-1.53592
111.354
-18.7434
1.39389
349.262
-41.4989
2.22999
716.867
-71.643
-1.37812
1339.48
-76.7644
-4.11806
1591.42
-0.330907
1812.65
74.6801
-1.60791
1430.17
78.604
-5.02371
1493.4
60.0426
-3.66918
1322.1
48.7184
-0.782588
1058.69
41.2986
3.98654
933.122
30.8944
5.94312
751.351
24.0354
8.12542
667.646
15.9273
0.610632
509.931
2.34886
-2.19523
267.603
-4.14598
-0.185471
120.602
-19.3802
2.35687
330.026
-41.9351
0.125201
699.202
-71.6901
-1.32833
1350.66
-77.2051
-4.8521
1579.2
-0.480019
1793.38
74.1719
-1.78203
1429.97
78.1101
-5.96106
1498.15
59.9842
-3.94426
1337.31
48.9538
-0.501419
1077.14
41.446
4.37293
940.305
31.5161
6.13589
755.233
24.1503
8.08784
630.607
15.263
2.06087
483.216
2.73462
-0.897693
290.396
-5.23433
3.65567
137.534
-21.2235
1.91405
304.9
-42.5475
-4.8874
688.86
-72.2278
-0.865722
1349.98
-78.7751
-3.75221
1561.08
-1.05021
1752.78
73.7187
-1.73186
1425.37
77.8413
-6.61139
1499.11
60.2394
-3.94776
1350.42
49.4586
-0.292042
1093.85
41.7537
4.35515
946.088
31.743
5.96039
753.853
23.3098
8.6209
611.606
13.6719
5.70981
480.471
2.89473
2.07725
334.576
-5.75402
9.45279
165.216
-21.1457
-0.754448
318.225
-42.7196
-6.94741
739.214
-72.2701
-0.80822
1352.97
-77.9555
-3.07088
1579.93
-1.31397
1766.47
73.4494
-1.38927
1415.71
77.5135
-6.48957
1500.86
60.3997
-3.60608
1366.52
49.821
-0.249885
1112.26
42.0335
3.75476
951.893
31.9564
5.50377
749.439
23.0165
9.69191
603.319
14.508
7.59201
472.188
3.04895
0.428198
263.028
-5.30007
12.647
143.102
-19.4825
-4.33911
393.446
-42.7888
2.17345
861.306
-72.5993
-0.45295
1341.63
-77.4315
-3.11719
1588.56
-1.39775
1773.58
73.5467
-0.734953
1398.64
77.2244
-4.94787
1499.63
60.4935
-2.64576
1382.68
50.051
-0.256707
1131.95
42.3295
2.49211
959.769
32.8031
4.18226
750.156
24.9599
7.77826
587.824
16.2473
3.20884
380.108
3.0709
-0.908883
195.338
-3.94855
12.1643
95.1164
-19.7446
-4.74357
371.871
-42.9625
7.95156
814.406
-72.8406
-0.517547
1347.99
-77.325
-2.99458
1596.99
-1.33202
1773.33
74.2274
0.0806995
1372.97
77.1424
-1.43053
1491.59
60.5208
-0.699188
1393.93
50.0066
0.0533175
1150.54
42.2109
0.973398
970.094
33.495
1.92607
760.079
24.6305
4.23725
552.287
15.2865
3.42345
372.707
1.52168
0.0521092
224.514
2.6957
-3.46502
36.5019
-22.6039
1.91785
292.058
-43.0907
4.46598
734.313
-72.9025
-0.455062
1361.07
-77.8594
-1.74628
1593.27
-1.24951
1758.53
74.6062
0.863654
1362.25
77.2635
2.71566
1485.5
60.6276
1.6298
1394.41
50.0356
0.580265
1155.18
42.1758
-0.517413
973.164
33.8868
-0.594452
767.839
25.7722
-1.22354
542.96
15.3236
1.94152
334.959
1.86552
3.32698
208.588
-4.44315
-1.75157
65.7309
-23.6487
3.03006
271.249
-43.6839
-4.73573
672.671
-73.3927
-0.358811
1362.12
-79.2199
0.966001
1577.39
-1.63975
1727.84
74.033
1.58485
1379.93
77.1401
5.74364
1492.93
60.5216
3.39818
1391.91
50.0391
0.844909
1147.48
42.3264
-1.97885
969.45
33.914
-3.08252
762.51
26.5191
-7.04206
549.053
17.2235
-2.92459
324.627
1.84515
4.66195
166.545
-6.09114
3.76851
109.024
-20.6059
3.00954
327.393
-43.238
-8.90188
698.999
-72.7994
-0.49565
1367.71
-77.6892
2.27538
1596.74
-1.60374
1762.4
73.4874
2.0922
1404.56
77.2485
6.95534
1499.83
60.4785
4.23095
1379.9
50.0619
0.814764
1128.39
42.4694
-3.18484
959.649
33.2708
-4.87242
750.617
25.004
-9.40575
572.09
16.2481
-5.78145
382.19
2.17105
3.98602
182.105
-4.23523
5.66031
114.49
-17.1919
6.02619
448.942
-43.0917
-0.741955
800.155
-72.9547
-0.36899
1350.67
-77.0835
2.22504
1600.36
-1.37622
1778.79
73.4705
2.29024
1421.08
77.538
6.85559
1500.93
60.3673
4.43973
1363.64
49.839
0.799422
1108.61
42.2509
-3.87671
950.64
32.2591
-5.51668
746.75
23.2135
-8.28926
599.28
14.3279
-3.40326
466.797
3.73087
3.37907
263.162
-3.21591
7.09191
98.4302
-20.1124
4.31349
390.266
-43.3441
8.65451
875.435
-72.9108
0.239433
1347.22
-77.3737
2.31379
1593.81
-1.12738
1775.61
73.7969
2.19963
1429.99
77.8853
6.0399
1498.86
60.2145
4.31365
1347.31
49.4922
0.933987
1089.93
41.9715
-4.00236
943.672
31.9375
-5.71808
750.104
23.5334
-7.30987
611.646
14.2694
0.146015
484.091
3.3833
5.81473
310.349
-5.65609
15.269
141.12
-21.1652
1.83873
338.002
-43.5271
9.61993
778.19
-72.7278
0.633578
1358.11
-77.982
3.25826
1586.37
-0.907058
1767.15
74.2955
1.89259
1433.81
78.1718
5.01514
1497.89
59.9657
3.93657
1334.34
48.9923
1.12237
1073.25
41.6411
-3.70616
937.117
31.8672
-5.60673
753.722
24.6401
-7.33354
626.28
16.5482
1.44876
487.223
3.86555
5.6636
267.535
-6.84056
23.1299
128.502
-22.7769
-0.691896
293.054
-43.8655
3.83298
702.054
-72.8928
1.12511
1359.22
-78.8223
4.56145
1567.63
-1.03842
1753.75
74.834
1.40853
1433.39
78.681
3.71915
1493.15
60.0339
3.31309
1319.23
48.7537
1.42031
1054.6
41.5038
-2.91704
929.732
31.3476
-4.75245
750.628
24.9797
-6.48021
662.739
17.6439
0.263641
497.301
4.74222
4.76974
253.556
-5.8783
27.2887
96.1154
-22.2775
-2.35493
296.093
-43.4831
-0.558857
705.465
-72.5199
1.13548
1360.17
-77.3075
3.9177
1585.01
-0.753403
1793.95
75.3703
1433.86
79.2181
1492.76
60.1988
1305.61
48.7664
1028.64
41.5035
910.492
31.0084
743.515
24.8254
687.727
17.9032
545.165
3.83155
264.342
-3.87675
56.2142
-20.4743
329.223
-43.1097
723.075
-72.586
1349.19
-76.8865
1596.85
1813.23
227.069
-3.29584
1377.34
232.439
-10.6215
1491.51
188.979
-10.0989
1354.97
148.071
-4.87669
1074.6
125.043
8.49728
933.37
93.478
14.5705
770.397
72.5691
20.9081
705.114
48.3767
4.32501
568.216
10.5574
-5.01038
317.345
-12.6157
-4.67137
135.337
-55.2615
4.0902
390.143
-126.445
4.99467
787.638
-201.611
-5.40917
1416.64
-225.642
-11.3543
1619.99
0.273096
1830.14
225.43
-4.22513
1377.39
230.768
-13.9677
1491.41
188.4
-11.8809
1366.25
148.09
-3.97662
1098.1
125.134
11.0147
953.56
94.2217
17.1719
779.66
72.2814
24.8658
685.627
47.5937
3.85897
535.083
11.318
-6.78297
305.649
-12.0347
-1.95953
141.239
-56.9369
6.45886
372.558
-127.919
-1.06802
776.246
-202.062
-5.57973
1424.97
-227.1
-13.4543
1606.33
0.112935
1811.95
223.938
-4.56106
1377.9
229.187
-16.3861
1495.32
187.983
-12.8985
1379.53
148.556
-3.15517
1115.75
125.551
12.0974
962.226
95.8071
17.5991
784.548
72.885
24.3443
654.049
46.117
7.31725
506.524
11.1985
-2.41202
320.941
-14.9074
6.44072
155.236
-61.2754
4.25104
353.474
-129.889
-14.0833
770.488
-204.378
-3.6448
1422.53
-232.384
-11.1708
1586.8
-2.553
1772.89
222.55
-4.18276
1374.22
228.164
-18.07
1495.19
188.551
-13.3361
1390.48
150.013
-2.48684
1131.72
126.57
12.0673
969.561
96.5051
16.9684
784.547
70.6835
25.2207
636.55
41.56
16.8853
500.025
10.6804
6.63445
356.407
-15.9576
18.863
179.428
-60.7089
-2.50907
369.735
-130.272
-18.4756
813.169
-203.963
-3.28381
1426.3
-229.672
-9.56848
1604.04
-3.7743
1786.02
221.789
-2.99598
1365.38
227.175
-17.5485
1494.96
188.8
-12.5773
1404.14
150.956
-2.11987
1149.74
127.398
10.3394
977.178
97.0926
15.3442
781.367
69.8884
27.5347
628.207
43.4515
22.2744
493.234
11.481
4.29423
297.336
-15.6122
25.5421
163.512
-57.3229
-10.0095
442.656
-129.955
5.19371
910.269
-204.246
-2.27059
1414.91
-227.882
-9.51008
1612.13
-4.10016
1793.01
222.117
-1.15205
1349.07
226.579
-13.1573
1490.78
188.882
-9.47369
1417.27
151.561
-1.68385
1168.84
128.255
6.75909
986.655
99.2773
11.384
783.092
75.0008
22.3885
617.245
48.2341
11.3207
417.826
13.2689
0.903683
233.691
-12.1593
24.2023
121.879
-58.2157
-10.0888
418.005
-130.81
19.8561
872.338
-204.876
-2.58709
1422.38
-227.522
-8.85757
1618.99
-3.78843
1792.32
224.213
0.692856
1323.98
226.942
-3.70238
1479.41
188.785
-2.59534
1425.21
151.437
-0.150017
1186.36
127.851
2.59664
997.842
100.79
5.11918
793.403
75.0288
11.5985
588.837
46.8147
9.88991
402.35
18.7823
-3.02923
256.476
-0.312672
0.861359
78.9292
-64.502
1.32096
344.836
-131.611
11.452
809.825
-205.574
-2.25263
1434.7
-229.287
-5.39726
1613.53
-3.76209
1777.42
225.441
2.21966
1313.43
227.531
7.31724
1472.4
189.047
5.72276
1424.58
151.562
2.04465
1190.47
127.706
-1.37075
1000.99
101.696
-1.72854
800.695
77.8428
-4.06233
582.473
47.1378
3.90663
371.645
11.2689
4.92453
236.5
-9.8387
-1.26963
88.9631
-67.2599
4.99561
324.994
-133.763
-11.5647
762.19
-207.876
-0.922594
1434.91
-233.749
1.38516
1596.48
-6.31129
1747.87
223.692
3.91285
1330.82
226.723
15.4763
1481.74
188.816
11.7823
1423.76
151.517
3.43399
1183.39
128.128
-5.34628
996.814
101.815
-8.45369
795.547
79.5143
-20.1822
587.472
52.0267
-10.5829
366.601
9.89678
10.0548
203.541
-16.439
10.8335
123.251
-61.1407
5.49563
371.593
-132.459
-23.0722
781.825
-205.536
-1.28883
1441.15
-228.725
4.98449
1616.33
-6.65646
1780.92
221.967
5.35064
1354.98
226.506
18.9002
1491.87
188.861
14.3309
1414.99
151.581
3.78697
1165.31
128.572
-8.71289
986.024
100.436
-13.5328
783.831
75.2818
-26.8909
603.952
48.291
-18.1772
416.773
10.5932
8.79495
221.059
-12.677
14.5241
134.065
-53.1221
15.2686
479.613
-131.534
-3.65569
859.15
-205.426
-1.17255
1424.45
-226.684
5.26818
1621.33
-5.82242
1796.07
221.853
6.0304
1370.86
227.187
18.7984
1495.7
188.736
14.6615
1401.77
150.974
3.99583
1146.16
127.941
-10.6743
975.634
97.9396
-15.7077
778.924
70.4731
-24.4824
624.336
43.1403
-11.6562
487.606
14.4913
6.98546
293.618
-10.4949
15.4869
122.448
-59.0523
12.8999
441.19
-132.01
21.538
923.199
-205.592
0.694089
1418.94
-227.603
5.76022
1615.33
-4.91274
1791.95
222.781
5.89816
1379.02
228.283
16.6951
1495.47
188.513
13.8799
1387.87
150.07
4.4544
1127.91
127.107
-10.9948
966.955
97.0441
-16.4642
780.922
71.1853
-22.3684
635.39
42.9567
-2.18111
502.843
12.5975
13.9262
333.765
-15.8909
31.3907
153.701
-61.8215
7.62349
389.207
-133.019
24.8266
846.099
-205.787
2.3343
1429.23
-229.666
8.2621
1607.75
-4.37084
1782.42
224.28
5.13463
1381.91
229.361
14.036
1495.47
187.956
12.5731
1377.06
148.62
5.00919
1112.03
126.018
-10.1635
958.887
96.7117
-16.2501
782.811
74.0688
-22.8239
649.376
48.9926
1.3489
508.767
13.9225
15.8276
300.7
-19.3924
49.2885
143.913
-65.8605
0.622838
346.52
-134.523
10.738
784.804
-206.874
4.53911
1429.36
-232.541
11.3932
1590.17
-5.54626
1768.98
225.853
3.86028
1380.77
230.992
10.5691
1491.48
188.401
10.5312
1363.87
148.15
5.61903
1094.24
125.624
-7.88555
949.979
95.3759
-13.9129
778.537
74.6511
-20.1883
680.826
51.8445
-1.50324
522.957
16.8914
14.7355
289.597
-17.7038
60.062
119.93
-64.7014
-4.13032
347.84
-133.326
-0.303545
785.13
-205.065
4.36035
1432.09
-227.511
9.87961
1608.97
-4.1777
1807.01
227.545
1380.21
232.679
1491.71
188.969
1353.07
148.076
1071.13
125.462
929.971
94.5984
769.398
74.5354
700.392
53.1073
567.107
17.9521
304.435
-15.1859
92.5559
-61.0582
374.846
-132.2
796.054
-205.072
1423.65
-226.119
1621.8
1824.55
399.919
-4.76141
1225.55
394.752
-14.7753
1501.46
341.732
-17.4969
1413.2
260.16
-11.7203
1158.9
213.399
10.7869
976.008
161.054
22.7193
815.93
122.434
35.0774
732.613
80.9824
11.5657
607.088
26.0812
-7.1508
375.546
-23.216
-7.14925
185.531
-98.361
5.43998
463.544
-226.364
3.94634
917.025
-324.279
-12.4692
1518.98
-394.78
-16.7109
1696.42
1.96272
1782.82
396.885
-5.80423
1227.5
391.374
-19.1648
1501.32
340.343
-21.025
1420.81
260.136
-11.1804
1177.77
213.841
14.586
996.054
161.962
26.5993
827.658
121.713
41.0784
719.873
79.0961
11.5247
577.74
26.5575
-10.3744
361.41
-22.1222
-4.43328
187.2
-101.463
7.7902
449.548
-229.475
-4.70392
912.908
-326.234
-13.8617
1523.12
-397.882
-20.2706
1681.54
1.91632
1765.37
394.349
-5.73039
1229.21
388.266
-22.1579
1504.4
339.003
-23.3659
1431.14
260.218
-10.1099
1193.46
214.36
16.3289
1006.34
164.061
27.1573
834.288
123.179
39.5745
696.433
77.5645
15.107
548.555
24.1489
-3.33623
367.317
-27.2358
5.29991
196.885
-107.981
2.848
439.16
-233.259
-21.5271
912.589
-333.296
-9.25203
1517.96
-409.044
-18.2037
1660.49
-4.19412
1726.43
391.89
-4.45758
1227.25
385.941
-24.2129
1503.2
339.375
-25.1582
1438.84
262.42
-9.14186
1207.7
216.308
16.4779
1015.52
165.394
26.0642
836.553
120.327
39.5063
681.683
70.3449
27.5713
537.542
21.5996
10.0765
391.738
-27.8716
18.0308
216.166
-106.437
-5.88675
457.034
-233.433
-25.7073
944.345
-330.716
-7.99169
1522.32
-403.185
-16.4134
1674.72
-6.97909
1739.74
390.473
-2.05734
1220.08
384.082
-23.2324
1500.37
339.19
-24.5811
1448.45
263.518
-7.97693
1224.24
217.631
14.0699
1025.47
166.307
22.9507
835.803
119.183
41.1774
673.659
72.4357
35.3872
532.164
23.3236
9.45958
347.063
-27.7557
24.0832
208.536
-101.607
-11.7901
522.41
-231.618
5.36596
1009.21
-329.519
-6.36191
1511.18
-399.301
-16.2597
1681.76
-7.67985
1747.13
390.981
0.705945
1205.34
383.546
-17.2193
1492.21
338.837
-19.1379
1456.54
264.149
-5.91892
1241.47
218.933
9.02755
1036.91
169.213
16.4717
839.289
126.148
33.606
667.881
79.8628
21.6445
477.852
28.5257
3.63129
290.854
-22.5119
22.3578
174.638
-103.579
-9.75833
497.039
-233.906
24.3417
983.689
-330.226
-7.11473
1519.45
-398.459
-14.9658
1685.92
-6.91181
1745.64
395.045
2.0733
1181.01
385.899
-4.66727
1476.01
338.438
-5.47956
1459.01
263.699
-1.23547
1256.41
218.154
3.46986
1048.94
170.726
7.11935
850.182
127.563
16.5461
649.058
79.2288
15.5296
456.797
39.8054
-3.57452
303.103
-9.53852
6.17872
144.447
-111.873
0.644767
436.766
-236.342
14.2537
944.381
-332.715
-6.06037
1530.02
-402.123
-9.94554
1677.91
-7.0869
1729.7
397.546
2.49885
1170.27
387.798
9.9295
1467.56
338.848
11.4113
1456.64
263.907
4.71137
1259.47
217.867
-1.55616
1052.05
171.673
-2.71194
856.719
131.351
-6.93009
646.269
80.974
2.9692
434.58
29.4098
3.23094
281.256
-20.6601
2.91833
142.289
-117.448
1.4064
421.018
-240.944
-14.4572
914.397
-339.405
-1.15421
1528.46
-411.443
-1.20957
1659.78
-13.5554
1700.3
394.364
4.29006
1187.04
385.258
20.8846
1479.9
338.524
23.2077
1458.7
263.823
8.99434
1253.81
218.463
-6.80521
1047.42
171.946
-12.3598
851.711
133.149
-30.187
649.524
88.072
-20.2835
434.93
26.6943
8.6028
259.544
-27.5949
16.4135
164.041
-110.209
1.7002
453.912
-238.509
-30.0097
925.677
-332.795
-1.42796
1535.71
-400.968
3.84619
1679.45
-15.1607
1733.21
391.135
6.70654
1210.39
383.393
25.6543
1494.85
338.854
27.417
1455.33
264.153
10.7695
1238.24
219.243
-11.457
1035.58
170.704
-20.1104
840.119
126.961
-40.4599
657.966
80.6656
-31.1746
473.958
25.9159
5.83744
278.571
-22.9406
19.2771
180.054
-98.9223
18.1737
539.12
-235.809
-6.71662
972.744
-331.283
-1.76044
1520.26
-396.65
4.82241
1685.73
-13.7365
1747
390.847
8.24627
1225.22
384.057
25.7044
1502.45
339.12
27.0916
1447.03
263.464
11.6101
1220.98
218.258
-14.1692
1023.55
167.515
-24.0529
833.609
120.114
-38.7709
670.047
72.3623
-22.1953
526.377
28.9523
3.31001
339.553
-21.5318
16.909
175.297
-104.636
19.443
523.024
-235.619
27.284
1020.18
-332.451
1.54058
1512.47
-398.541
6.01002
1680.23
-11.9562
1740.75
392.39
8.47162
1232.16
386.113
22.951
1504.5
339.375
24.6464
1437.05
262.428
12.2212
1204.25
216.91
-14.4315
1012.73
166.102
-25.4275
833.104
120.736
-37.1576
679.141
71.8709
-9.48657
538.996
25.0292
12.6849
371.229
-27.8685
30.2759
193.227
-109.417
14.0944
476.102
-238.314
32.9559
969.323
-334.685
5.42223
1521.72
-402.951
9.76804
1672.26
-10.9494
1728.38
395.042
7.5987
1233.41
388.655
19.5459
1505.27
339.058
21.8874
1429.42
260.237
12.8931
1190.18
214.822
-13.0586
1002.93
165.14
-25.17
832.234
124.377
-38.5385
691.518
80.5591
-5.23302
548.329
26.7626
17.9537
349.225
-33.2572
50.161
184.043
-115.815
3.86544
439.305
-241.881
16.1407
927.684
-338.606
10.9468
1520.56
-409.358
13.8245
1656.87
-13.9158
1713.55
397.682
5.84482
1231
391.877
14.9253
1501.91
340.445
18.0344
1419.16
260.149
12.9865
1174.45
214.302
-9.62734
992.394
163.294
-21.5928
825.965
124.34
-34.0605
715.3
84.0116
-8.4736
566.523
30.531
17.9632
343.064
-31.2456
63.319
168.543
-113.609
-4.21926
438.286
-239.771
2.25045
925.182
-332.608
9.85241
1526.02
-398.928
11.9301
1677.19
-10.6076
1750
400.793
1228.46
395.301
1502.07
341.821
1411.97
260.081
1156.02
213.719
972.572
162.296
814.336
124.511
727.722
86.3712
604.553
33.1597
361.879
-28.1887
153.826
-108.742
456.155
-237.548
928.32
-331.657
1521.25
-396.037
1690.28
1765.49
575.832
-4.94766
990.603
591.495
-14.4905
1489.79
528.896
-22.5897
1481.9
403.399
-21.1082
1289.02
313.345
6.52401
1062.8
235.588
26.8387
886.476
174.607
46.3264
781.129
113.595
22.7245
663.53
39.9474
-5.99834
452.715
-40.2964
-6.43671
266.68
-164.68
5.78706
587.192
-352.278
-1.6485
1108.56
-483.887
-23.1705
1659.1
-587.838
-17.4938
1806.08
5.16328
1662.92
572.056
-5.49016
994.485
585.932
-18.0988
1491.05
525.716
-27.8537
1486.3
402.513
-22.2274
1302.1
313.933
10.6155
1080.54
236.56
31.7465
900.122
173.543
53.6991
775.517
110.634
23.7602
639.612
40.2259
-10.3805
436.198
-39.0133
-5.04945
265.051
-169.075
5.84336
579.553
-357.141
-11.0633
1110.39
-489.243
-26.7395
1658.79
-592.973
-22.1853
1789.96
5.26231
1646.21
568.918
-4.27283
997.383
580.996
-19.8264
1494.05
522.659
-31.7891
1493.42
401.289
-21.8673
1314.47
314.04
12.9268
1091.28
238.667
32.7762
908.63
175.922
51.4615
761.415
109.796
25.7852
612.654
35.7352
-2.43776
433.433
-46.4508
3.39809
270.621
-177.033
-2.61039
578.195
-363.35
-26.5918
1114.43
-506.243
-17.004
1651.12
-610.797
-22.22
1765.08
-6.478
1607.42
565.13
-0.980895
997.957
576.411
-20.6847
1492.78
521.648
-35.6942
1497.51
403.439
-21.5371
1325.58
316.92
13.4828
1101.49
240.908
31.6644
913.676
173.425
49.6988
750.928
100.789
37.5851
598.377
31.0332
12.3871
446.667
-46.2947
12.4436
284.447
-174.768
-11.286
594.182
-362.453
-29.0331
1134.47
-497.89
-14.3711
1655.13
-600.263
-21.9936
1776.86
-11.698
1621.8
563.02
3.02084
993.709
573.324
-18.7203
1488.11
520.234
-36.2179
1502.07
403.851
-19.7029
1338.79
318.415
11.4247
1112.97
242.189
27.3522
916.339
172.138
49.1068
744.3
102.388
45.8483
593.65
33.7989
13.0891
414.948
-44.8785
14.8708
284.784
-167.872
-10.7263
644.842
-358.29
1.61389
1168.98
-493.011
-13.549
1645.08
-593.533
-22.8438
1783.14
-12.8756
1629.86
563.958
5.19445
982.174
573.63
-12.6556
1476.47
519.298
-28.9715
1503.63
403.79
-14.7688
1352.04
319.681
6.93911
1125.51
245.16
19.031
922.131
179.504
39.5841
743.058
112.048
31.7921
559.363
42.2426
4.54271
369.204
-39.5112
13.0889
258.171
-171.827
-4.82765
623.455
-362.61
20.0457
1156.04
-493.021
-16.1704
1652.48
-591.566
-21.9825
1783.61
-11.2184
1627.42
568.826
3.42727
961.208
579.65
-2.47447
1455.01
519.458
-8.44021
1498.68
402.645
-3.79147
1362.25
318.141
2.97609
1137.41
245.941
7.92251
933.49
182.103
18.6437
733.834
112.877
19.4507
538.364
52.7421
-2.74615
370.525
-31.2609
5.68747
235.849
-182.638
0.732865
582.582
-367.955
11.2968
1138.45
-499.6
-13.9081
1659.4
-597.557
-17.4108
1771.3
-11.8986
1609.82
571.391
0.539566
951.441
583.513
8.407
1444.56
520.558
17.2735
1493.88
402.958
9.66839
1363.61
317.648
0.133425
1140.2
246.407
-3.14925
939.031
186.003
-8.81362
734.13
116.162
-0.0988946
523.97
41.9708
2.15744
350.541
-45.6821
5.46198
230.165
-191.513
-6.28416
573.866
-375.963
-14.5143
1124.66
-515.236
-1.70014
1655.53
-613.336
-9.88536
1750.36
-25.0433
1579.78
567.557
1.50021
965.539
578.267
17.3477
1460.25
519.497
34.6443
1500.1
402.864
19.5199
1360.59
318.395
-3.58748
1135.61
246.895
-14.0859
934.147
187.513
-35.2475
735.339
124.266
-29.5764
527.653
43.2448
3.13724
339.583
-47.8159
18.7984
241.763
-184.128
-7.35898
591.298
-371.724
-29.6591
1128.42
-499.554
-1.55446
1663.39
-596.759
-4.79194
1771.56
-29.1682
1612.34
564.247
5.0652
985.111
573.685
22.2975
1480.47
519.545
39.9536
1504.16
403.86
23.6716
1349.77
319.816
-7.65911
1123.7
246.541
-23.3914
922.698
180.749
-48.0775
736.587
113.584
-42.5696
554.115
40.8666
-2.95143
357.375
-40.2145
20.4323
259.499
-170.381
14.5543
647.372
-366.951
-8.49155
1148.15
-494.58
-4.59924
1650.93
-589.189
-3.52682
1779.07
-26.8562
1624.02
564.613
8.00201
997.023
574.101
23.5674
1491.69
520.501
38.2805
1502.31
403.777
24.8998
1336.48
318.841
-10.0823
1110.91
243.354
-28.6512
914.354
173.033
-48.7844
741.074
102.242
-33.5556
588.153
39.4301
-4.9511
404.363
-40.9002
15.3199
260.737
-173.831
22.4274
648.081
-365.685
25.8768
1177.67
-498.226
-1.3842
1641.8
-591.901
-2.3691
1772.75
-23.6299
1614.55
566.893
9.17213
1001.93
577.341
22.0931
1495.54
522.013
33.4795
1497.18
403.468
24.6429
1323.05
317.334
-10.0443
1098.83
241.483
-30.2281
910.531
173.263
-48.8341
747.41
101.474
-20.943
598.171
34.2005
5.19055
428.361
-48.0623
22.9217
267.887
-181.292
19.313
612.447
-371.184
33.6428
1151.45
-505.546
5.92739
1648.77
-599.175
1.1969
1762.32
-22.3746
1598
570.407
8.66515
1001.24
582.01
19.7501
1496.01
523.101
28.8999
1492.91
401.353
24.435
1312.14
314.24
-8.21333
1088.21
239.436
-29.5761
906.385
176.438
-50.9395
756.62
111.572
-17.7914
610.042
35.9335
13.1804
416.872
-55.9662
38.6756
260.187
-190.684
6.47797
586.858
-378.039
19.7392
1128.94
-516.096
18.4591
1646.09
-610.616
5.02494
1747.56
-28.9697
1580.21
573.476
6.86236
997.785
587.126
15.5958
1492.42
526.27
23.2219
1485.69
402.602
22.7521
1299.8
314.092
-4.61579
1077.31
237.46
-24.9865
898.006
175.293
-44.8176
771.344
114.445
-20.1138
629.691
38.9107
15.0142
416.762
-54.8873
49.7126
251.301
-188.252
-5.22132
583.349
-374.694
6.38192
1124.98
-500.569
16.4059
1653.95
-593.662
4.52931
1770.78
-22.1769
1613.43
577.291
993.292
592.821
1490.96
529.482
1481.63
403.388
1287.23
313.29
1059.89
236.312
884.484
175.707
776.37
117.617
659.805
42.7782
438.75
-50.9489
244.406
-182.961
589.557
-371.928
1121.9
-497.11
1652.73
-588.91
1783.1
1625.81
710.828
-3.65999
751.693
790.011
-11.9476
1413.52
743.322
-22.5762
1534.26
588.302
-28.9412
1450.3
438.612
-4.71631
1211.68
320.322
23.9228
998.371
229.847
51.9916
859.354
146.051
35.5953
740.83
48.4653
-2.38615
553.756
-68.0272
-2.21055
383.521
-257.645
4.70527
777.413
-505.966
-11.0591
1363.64
-685.056
-34.3469
1850.84
-779.078
-14.6544
1903.98
5.69525
1509.25
707.817
-2.98572
755.81
783.24
-13.2703
1416.96
737.676
-28.1492
1537.44
585.162
-32.438
1458.11
438.236
-2.0517
1224.8
321.062
29.2235
1011.99
228.578
60.0828
859.908
142.154
38.1897
723.441
47.1142
-6.90325
535.754
-69.5904
-1.6293
381.173
-265.565
2.31793
777.914
-514.625
-20.2796
1368.67
-694.741
-40.508
1845.07
-784.11
-20.0865
1884.76
5.68209
1494.28
704.892
0.364228
758.943
777.162
-11.9469
1420.47
732.407
-32.4422
1542.47
581.533
-33.8344
1466.75
436.791
-0.0451257
1234.01
322.4
31.0154
1021.23
231.436
58.0042
854.456
142.402
38.1494
701.728
41.7219
0.716816
526.492
-79.0526
3.58619
386.179
-275.814
-9.34827
786.622
-526.52
-30.7548
1375.62
-722.14
-26.4051
1832.63
-802.649
-26.556
1852.05
-10.8399
1459.95
701.855
5.07825
761.041
771.139
-8.96002
1420.51
728.925
-36.9015
1544.18
582.113
-35.3402
1473.9
439.873
0.325135
1243.36
325.598
30.4362
1028.53
230.214
54.9879
849.327
132.992
46.7789
686.969
36.0436
14.3878
529.943
-77.1102
6.24126
394.944
-271.375
-18.1783
797.276
-521.704
-31.0458
1385.09
-706.543
-22.3835
1835.95
-790.656
-29.0179
1863.44
-19.0291
1473.41
700.912
8.28898
759.421
767.915
-3.69091
1415.84
726.004
-37.3135
1544.4
580.837
-33.6175
1482.24
440.624
-0.682274
1254.19
327.073
25.9382
1034.39
229.106
51.7407
845.514
133.681
53.3414
682.512
39.7077
14.9605
508.347
-72.4928
4.07719
399.147
-262.297
-11.2763
827.744
-515.408
-5.88644
1396.93
-697.179
-23.8223
1828.29
-782.808
-30.2244
1869.97
-21.7275
1480.66
701.39
8.41833
752.827
769.097
1.89214
1403.19
725.09
-29.1966
1539.52
579.743
-25.6009
1489.37
440.994
-2.06651
1265.64
329.427
17.4531
1042.18
235.708
40.7113
847.806
144.651
39.7467
664.014
49.9734
4.60957
474.232
-69.6123
2.86263
378.97
-269.085
-1.84942
813.501
-520.937
8.65802
1393.35
-695.368
-29.3372
1832.43
-778.907
-29.4124
1866.34
-19.628
1477.19
703.315
3.79058
740.125
776.773
3.68285
1379.76
727.583
-7.63988
1526.31
578.786
-6.83232
1492.28
438.316
0.379726
1275.43
328.65
7.29739
1053.31
238.399
18.4795
846.316
147.062
21.7976
647.649
56.1007
-2.04524
468.14
-70.2515
1.61988
363.442
-282.868
-0.074424
793.422
-529.576
3.3031
1390.51
-706.162
-26.0443
1832.69
-784.262
-28.0861
1848.07
-20.558
1459.67
703.719
-1.84569
734.198
781.033
2.33248
1368.6
730.077
18.6453
1518.56
579.838
15.9829
1491.03
437.791
5.19346
1277.44
328.275
-1.90378
1057.75
241.517
-9.19609
848.562
151.192
-3.388
639.48
46.3941
1.06968
452.223
-87.1966
5.03055
360.344
-296.583
-11.8656
795.043
-544.324
-13.0341
1388.74
-732.567
-6.84587
1824.57
-802.787
-28.7847
1821.28
-39.2578
1430.71
701.537
-2.44696
742.616
774.486
4.26135
1385.38
727.091
36.5001
1529.64
579.034
32.3688
1492.26
438.626
7.2532
1273.96
329.137
-11.4603
1053.19
242.696
-35.3782
847.961
159.088
-36.2659
644.137
53.1796
-2.64566
449.206
-82.9629
18.9139
364.021
-287.585
-14.0409
798.095
-535.059
-24.2965
1387.15
-708.407
-4.59904
1834.49
-787.829
-24.4628
1846.66
-47.5552
1457.01
700.338
1.6659
754.253
768.667
8.96082
1407.44
725.475
42.0002
1541.85
580.08
38.7121
1488.83
441.043
5.88886
1264.1
330.34
-20.4572
1042.4
236.921
-49.5896
844.217
146.454
-50.8305
659.146
49.9574
-11.9635
463.188
-71.1019
20.971
378.5
-272.342
9.0831
825.488
-528.692
-8.18045
1388.38
-699.312
-9.796
1826.75
-779.326
-20.28
1854.9
-46.7701
1463.84
702.039
5.92269
760.991
769.452
13.4398
1419.81
727.06
40.2451
1546.46
581.106
39.4409
1481.7
440.818
4.33649
1252.75
327.788
-25.9069
1032.83
229.43
-53.0845
842.926
132.765
-43.9263
677.913
42.9966
-13.7891
495.955
-72.923
13.7732
383.853
-272.527
22.6946
834.073
-527.433
21.4601
1402.93
-705.382
-7.05107
1817
-781.121
-17.061
1845.27
-43.9555
1451.16
705.002
7.88963
763.198
773.8
16.1451
1424.04
730.429
35.112
1545.69
582.595
37.1926
1473.14
440.104
4.02645
1241.63
325.767
-27.1732
1026.13
229.096
-54.7313
845.727
131.813
-33.8651
685.391
36.8859
-4.3762
513.872
-82.2572
14.0359
386.765
-282.968
20.6496
815.201
-535.861
30.6528
1395.15
-717.436
3.59016
1819.71
-787.792
-13.4798
1829.1
-42.0297
1430.62
708.198
7.72257
761.414
779.929
17.1167
1423.32
734.051
30.3423
1543.56
582.133
35.1612
1466.09
436.792
5.42504
1232.15
322.487
-25.8737
1019.39
230.727
-56.7568
850.404
141.813
-32.5735
697.663
37.6228
5.67297
511.01
-94.7852
24.4665
382.162
-297.574
7.01667
803.278
-548.717
23.1704
1387.57
-737.022
22.4331
1815.55
-801.639
-12.9921
1811.69
-49.5689
1409.03
710.135
6.26388
758.386
785.63
14.915
1419.13
739.33
24.182
1538.16
585.838
31.0233
1457.43
438.191
7.4697
1222.91
321.119
-20.9751
1010.18
228.672
-49.4943
856.527
143.618
-32.9934
715.164
40.369
9.4636
516.218
-93.4457
33.7088
375.871
-293.403
-5.318
795.64
-540.491
12.0801
1383.16
-712.555
19.8685
1828.58
-784.46
-11.1237
1840.81
-37.0208
1432.26
712.727
753.974
792.292
1415.31
744.952
1535.1
588.894
1450.1
438.317
1210.25
320.111
996.787
229.225
855.305
147.403
736.536
47.5343
539.118
-84.8608
371.149
-285.683
791.967
-535.608
1377.78
-706.298
1831.6
-780.042
1852.03
1438.88
788.75
-0.405024
597.94
927.58
-9.8386
1277.02
940.234
-18.8878
1526.01
801.137
-31.5521
1596.25
602.627
-18.0907
1412.42
426.514
12.9039
1170.26
292.313
49.7878
982.782
181.019
46.298
844.417
57.7288
2.30811
681.172
-102.461
-3.07911
545.871
-368.175
-5.87945
1048.36
-663.411
-22.8567
1668.92
-870.737
-35.6191
2071.32
-917.106
-5.20274
1950.55
3.36886
1415.55
787.365
1.69036
600.334
921.905
-9.11006
1281.7
933.348
-22.8681
1529.98
795.169
-36.5608
1601.3
599.678
-18.248
1420.45
426.003
17.2742
1181.3
290.76
57.8097
987.128
176.355
50.4949
833.649
52.8567
-2.44814
664.007
-109.394
-4.02997
544.373
-379.883
-11.0111
1053.53
-675.31
-31.2066
1672.45
-880.998
-43.7283
2058.87
-918.201
-12.9053
1929.67
2.84284
1405.48
786.77
4.34263
602.142
917.271
-4.48456
1285.34
927.158
-24.6386
1534.36
788.964
-39.0161
1607.4
595.382
-17.7155
1427.06
425.274
19.3789
1189.23
293.101
56.7004
987.738
177.215
49.1417
818.967
45.1712
4.59493
651.492
-125.064
0.0554094
552.328
-399.262
-20.0027
1069.81
-698.952
-34.9128
1679.01
-914.321
-34.3291
2038.6
-931.666
-34.4352
1890.93
-16.401
1381.38
786.054
6.99084
603.659
912.42
2.86094
1286.8
922.002
-25.6922
1535.66
786.819
-41.3844
1611.45
597.061
-18.5145
1433.91
428.742
19.1834
1197.04
293.471
53.5648
987.732
168.417
54.3017
806.863
38.108
16.4524
648.393
-123.059
-1.68177
557.848
-392.932
-26.6538
1073.8
-690.433
-33.7587
1681.44
-896.685
-33.3504
2041.22
-924.562
-43.5576
1900.44
-28.7229
1387.78
786.363
7.87657
603.439
910.218
11.4289
1283.42
918.546
-23.0662
1533.45
783.67
-39.23
1614.96
595.889
-18.4389
1441.89
429.597
15.5564
1204.3
292.704
48.5909
987.38
168.144
58.1227
803.25
42.8902
15.9195
634.133
-113.203
-7.19334
560.751
-379.745
-16.8423
1084.47
-681.432
-15.7424
1680.6
-885.458
-36.8915
2035.85
-919.459
-44.6922
1905.11
-36.2883
1390.11
786.003
6.4574
601.573
910.986
16.3409
1273.3
918.19
-15.2068
1524.46
782.179
-29.0402
1615.19
594.817
-15.1448
1449.71
430.512
9.4398
1212.6
297.634
37.1739
992.1
179.094
44.9375
795.738
53.7679
4.70011
610.776
-113.502
-6.44368
545.49
-388.241
-5.48337
1076.88
-686.182
-6.19896
1681.74
-881.448
-43.6426
2034.45
-913.992
-42.7919
1896.98
-37.8946
1384.73
784.005
2.41243
598.179
915.807
9.70858
1254.6
922.436
-1.28024
1505.76
783.19
-6.68278
1609.17
591.871
-3.15773
1454.76
427.628
4.80583
1222.19
298.941
16.6058
995.57
182.417
23.3081
785.802
55.8251
-2.25451
601.686
-122.689
-2.55351
538.065
-405.726
-3.40892
1074.38
-698.346
-8.46483
1685.4
-892.994
-41.7747
2025.47
-914.628
-46.1843
1873.1
-39.9123
1368.78
781.86
-1.45915
597.016
917.667
-3.46376
1245.97
925.26
13.5271
1496.16
785.564
19.5112
1604.53
592.065
12.6774
1455.1
426.548
2.59177
1225.48
300.477
-7.38293
998.621
186.499
-5.23825
782.003
47.0354