/*--------------------------------*- C++ -*----------------------------------*\
| =========                 |                                                 |
| \\      /  F ield         | OpenFOAM: The Open Source CFD Toolbox           |
|  \\    /   O peration     | Version:  4.1                                   |
|   \\  /    A nd           | Web:      www.OpenFOAM.org                      |
|    \\/     M anipulation  |                                                 |
\*---------------------------------------------------------------------------*/
FoamFile
{
    version     2.0;
    format      ascii;
    class       volVectorField;
    location    "27";
    object      U;
}
// * * * * * * * * * * * * * * * * * * * * * * * * * * * * * * * * * * * * * //

dimensions      [0 1 -1 0 0 0 0];

internalField   nonuniform List<vector> 
6750
(
(2.04887 -0.00449433 16.2666)
(0.319205 -0.0136682 16.7931)
(1.10649 -0.0120851 14.4936)
(0.431296 -0.00537596 11.48)
(0.586437 0.0115097 10.2129)
(0.375465 0.0187752 8.27488)
(0.305303 0.0247093 7.74896)
(0.238189 0.0042109 6.04629)
(0.0936778 -0.00556901 2.95654)
(0.0584802 -0.00764898 1.18286)
(-0.287397 0.00426299 3.77907)
(-0.0174739 0.0108504 7.81172)
(-1.15471 -0.00530519 14.7399)
(0.0377087 -0.0147987 17.791)
(-2.73454 -0.00142221 20.316)
(2.04133 -0.00873428 16.2528)
(0.316029 -0.0267875 16.8043)
(1.09896 -0.021142 14.6655)
(0.432465 -0.006477 11.7861)
(0.584957 0.021832 10.4261)
(0.376733 0.0340979 8.34808)
(0.309015 0.0468678 7.45155)
(0.236805 0.00419086 5.64362)
(0.0907575 -0.0120946 2.85664)
(0.0650828 -0.00785363 1.30107)
(-0.292274 0.0111701 3.5585)
(-0.0242794 0.0113601 7.58527)
(-1.15556 -0.00926512 14.8768)
(0.0395218 -0.0294569 17.6614)
(-2.75761 -0.00197165 20.0943)
(2.03312 -0.00954987 16.2478)
(0.313064 -0.0304284 16.8616)
(1.09248 -0.0209802 14.8441)
(0.435161 -0.00302955 11.9955)
(0.587765 0.0234616 10.5003)
(0.377788 0.0336705 8.38814)
(0.319257 0.0453522 7.0131)
(0.233097 0.00404268 5.35354)
(0.0821707 -0.0128109 3.14523)
(0.0697941 0.00585023 1.50264)
(-0.320078 0.0152142 3.25199)
(-0.0303397 -0.00965027 7.44963)
(-1.16435 -0.0055027 14.8743)
(0.0418213 -0.024653 17.4661)
(-2.81627 -0.00410976 19.629)
(2.02844 -0.0102896 16.1926)
(0.310167 -0.036268 16.8779)
(1.08998 -0.0228916 15.0005)
(0.441228 -0.00231102 12.1853)
(0.592902 0.0253275 10.5586)
(0.380222 0.0346438 8.36753)
(0.32007 0.0451967 6.79391)
(0.21641 0.0198619 5.33898)
(0.0682005 0.00538817 3.68008)
(0.0701582 0.0378176 1.82762)
(-0.32063 0.00493589 3.38336)
(-0.0311354 -0.048048 8.04691)
(-1.16545 -0.00483071 14.9048)
(0.03982 -0.0178707 17.6835)
(-2.78778 -0.00720511 19.7856)
(2.03018 -0.00913428 16.0812)
(0.306979 -0.0379277 16.9061)
(1.08642 -0.0215685 15.191)
(0.445905 -0.00117899 12.3929)
(0.596501 0.0235825 10.6165)
(0.383624 0.0326652 8.31399)
(0.320479 0.0534248 6.70106)
(0.210683 0.0448965 5.23846)
(0.0854744 0.0132202 2.81676)
(0.067119 0.0636118 1.55209)
(-0.300236 -0.013327 4.2318)
(-0.0283373 -0.0201211 9.52739)
(-1.16979 -0.0035172 14.7779)
(0.0388071 -0.0170935 17.7823)
(-2.77101 -0.00762773 19.8667)
(2.04304 -0.00633262 15.8866)
(0.304064 -0.034626 16.9038)
(1.08278 -0.0187425 15.3837)
(0.449193 -0.0016389 12.6152)
(0.598724 0.0182626 10.6982)
(0.389011 0.0287793 8.3183)
(0.331765 0.0527075 6.50538)
(0.242152 0.0331151 4.12995)
(0.0898929 -0.00584945 2.04086)
(0.086956 0.079921 0.984548)
(-0.306835 -0.0358023 4.00708)
(-0.0276201 0.0401201 8.96285)
(-1.17424 -0.00231058 14.8437)
(0.036401 -0.0177351 17.8828)
(-2.7652 -0.00804338 19.8649)
(2.07174 -0.00188064 15.5955)
(0.302519 -0.0200081 16.827)
(1.08101 -0.0104588 15.5224)
(0.449732 -0.00107477 12.8271)
(0.597935 0.00973532 10.8106)
(0.387221 0.0178452 8.42842)
(0.345736 0.0352878 6.0759)
(0.226648 0.0110343 4.09113)
(0.0874751 -0.00519278 2.38839)
(0.165513 0.0313988 0.243267)
(-0.362118 -0.0109986 3.08402)
(-0.027002 0.0457544 7.98745)
(-1.17563 -0.00319142 14.9928)
(0.0352928 -0.0158534 17.8483)
(-2.78271 -0.00671261 19.6979)
(2.08577 0.00272333 15.4738)
(0.302403 0.0041076 16.7629)
(1.08261 0.00278784 15.5321)
(0.450311 0.00183589 12.881)
(0.598221 0.00125961 10.8449)
(0.386334 0.00382117 8.51761)
(0.354155 0.0112653 5.95784)
(0.243435 0.0233428 3.63518)
(0.0726607 0.00845785 2.23805)
(0.0975133 -0.0385325 0.68698)
(-0.369344 0.0260345 2.85548)
(-0.0352086 0.00248172 7.23432)
(-1.18301 -0.00195124 15.0063)
(0.0349886 -0.00239027 17.6762)
(-2.82848 -0.00806898 19.347)
(2.06488 0.00702545 15.6733)
(0.302421 0.025961 16.8387)
(1.08131 0.0152206 15.4978)
(0.449763 0.0044908 12.7925)
(0.598642 -0.00710771 10.805)
(0.38908 -0.0105445 8.45653)
(0.35285 -0.0254498 6.03031)
(0.259875 -0.00183724 3.49365)
(0.0895452 0.0265053 1.72281)
(0.0533928 0.0137264 1.19915)
(-0.313163 0.00945321 3.52584)
(-0.0354043 -0.0553847 7.55836)
(-1.17177 -0.00227948 15.0679)
(0.031649 0.0119768 17.8887)
(-2.77109 -0.00977745 19.7431)
(2.0402 0.010723 15.9525)
(0.304001 0.0378447 16.9032)
(1.0833 0.0225501 15.3506)
(0.448801 0.00488625 12.5751)
(0.599478 -0.0150697 10.699)
(0.390832 -0.0239458 8.32185)
(0.339945 -0.0522961 6.31848)
(0.236026 -0.0314702 4.16985)
(0.0932099 0.0271429 1.88917)
(0.0533165 0.0288507 1.2368)
(-0.255276 0.0270717 4.94283)
(-0.0327014 -0.0369031 8.79911)
(-1.17223 -0.00318205 14.8759)
(0.0294868 0.0131895 17.9226)
(-2.74563 -0.00829273 19.9326)
(2.02995 0.0126544 16.141)
(0.306746 0.0399185 16.9043)
(1.08697 0.0247447 15.1566)
(0.445207 0.00423871 12.3518)
(0.597604 -0.0204981 10.6036)
(0.38702 -0.0301239 8.28251)
(0.324013 -0.0514503 6.65481)
(0.210966 -0.0299872 5.17902)
(0.0837947 0.015961 2.83915)
(0.101829 0.0316625 1.04485)
(-0.307751 0.0356025 4.18598)
(-0.0367998 0.0285863 9.69014)
(-1.17031 -0.0004419 14.8459)
(0.0282635 0.0119664 17.8468)
(-2.75081 -0.00722112 19.8999)
(2.03042 0.0130507 16.2439)
(0.309724 0.0370609 16.8727)
(1.09093 0.025285 14.9634)
(0.440375 0.00498305 12.141)
(0.59447 -0.0229789 10.5322)
(0.3831 -0.0321811 8.32473)
(0.322338 -0.0425562 6.7995)
(0.218111 -0.00800112 5.38242)
(0.0793765 0.0253538 3.39976)
(0.0728439 0.055704 1.57706)
(-0.31793 0.0150678 3.60536)
(-0.0428328 0.0638787 8.51025)
(-1.16674 0.00266295 14.9697)
(0.0260886 0.0144148 17.7634)
(-2.76451 -0.00530368 19.8075)
(2.03687 0.0114795 16.2902)
(0.312501 0.0305642 16.8568)
(1.09378 0.0227335 14.8088)
(0.434136 0.00518316 11.9513)
(0.589631 -0.0216643 10.4651)
(0.379949 -0.0314876 8.37189)
(0.325574 -0.0396905 6.96594)
(0.236907 0.00887193 5.4054)
(0.106532 0.0359505 2.86906)
(0.0641425 0.110998 1.41168)
(-0.342516 0.00517737 3.09512)
(-0.0478023 0.0419205 7.59133)
(-1.16882 0.00474617 14.9852)
(0.0249609 0.0226004 17.5486)
(-2.78855 -0.00541864 19.6557)
(2.04629 0.0100493 16.2884)
(0.315391 0.0265447 16.8001)
(1.10057 0.0224249 14.6313)
(0.431407 0.00819947 11.7394)
(0.586805 -0.020433 10.3889)
(0.379244 -0.0324588 8.34139)
(0.317168 -0.0439585 7.39565)
(0.24833 0.00553975 5.49934)
(0.120979 0.030915 2.70098)
(0.0786891 0.148869 1.00447)
(-0.33999 -0.0133775 3.1339)
(-0.0437476 0.00240236 7.64421)
(-1.16248 0.00771513 14.9908)
(0.0209458 0.028089 17.7355)
(-2.72874 -0.00581171 20.1177)
(2.05469 0.00508204 16.2967)
(0.318454 0.0134342 16.7915)
(1.10815 0.0126609 14.4653)
(0.430055 0.00624127 11.4369)
(0.588071 -0.0108169 10.1774)
(0.37765 -0.0180121 8.27013)
(0.313621 -0.0244536 7.69967)
(0.245408 -0.00110421 6.05085)
(0.130119 0.0188595 2.79842)
(0.0798326 0.144589 0.492837)
(-0.317108 -0.0107675 3.52996)
(-0.0358173 -0.00617611 7.8711)
(-1.16309 0.00433556 14.8568)
(0.0175298 0.014069 17.8617)
(-2.70351 -0.00239658 20.3414)
(6.02614 -0.0122704 15.9585)
(1.0323 -0.0400664 16.769)
(3.23847 -0.0402814 14.9299)
(1.44514 -0.0222611 11.7492)
(1.71231 0.0318898 10.3459)
(1.17044 0.0575106 8.46907)
(0.91525 0.0801006 7.82824)
(0.727629 0.0199386 6.22082)
(0.293186 -0.0171427 3.28442)
(0.181508 -0.0235863 1.3268)
(-0.77416 0.0136289 4.08266)
(-0.160115 0.0279056 8.3124)
(-3.32009 -0.021016 15.4061)
(0.200378 -0.0421796 17.9713)
(-8.10031 -0.000290004 20.5265)
(6.00547 -0.0232351 15.9511)
(1.01625 -0.0754533 16.7719)
(3.22054 -0.0685235 15.0768)
(1.44558 -0.0288809 12.0352)
(1.712 0.0601792 10.5692)
(1.17403 0.0996299 8.55941)
(0.923354 0.145256 7.57324)
(0.719939 0.0248821 5.83186)
(0.282192 -0.0373976 3.16719)
(0.201851 -0.0255844 1.41694)
(-0.780214 0.0326121 3.8704)
(-0.186183 0.022846 8.14116)
(-3.32344 -0.0379032 15.5206)
(0.197397 -0.0812652 17.826)
(-8.15531 0.00402346 20.3148)
(5.98508 -0.0248401 15.9512)
(1.00176 -0.0835706 16.8214)
(3.2039 -0.067585 15.2402)
(1.44836 -0.0178791 12.2406)
(1.71974 0.0649017 10.6563)
(1.17708 0.0963927 8.60647)
(0.950814 0.137551 7.17793)
(0.713456 0.0220141 5.52085)
(0.257776 -0.0397593 3.39144)
(0.202066 0.00173916 1.59619)
(-0.839225 0.0399853 3.61118)
(-0.214324 -0.0322911 8.04427)
(-3.34032 -0.0238767 15.507)
(0.174063 -0.0700504 17.6128)
(-8.29697 -0.0058093 19.8663)
(5.9723 -0.0258897 15.9029)
(0.988131 -0.0998561 16.8271)
(3.19671 -0.0762524 15.379)
(1.46429 -0.0165887 12.4265)
(1.73588 0.0702833 10.7279)
(1.18549 0.099668 8.59597)
(0.954288 0.134506 6.96946)
(0.666108 0.0602719 5.4737)
(0.210622 0.0187626 3.8507)
(0.204166 0.0757244 1.89421)
(-0.84014 0.00576299 3.77912)
(-0.210264 -0.132753 8.58039)
(-3.34593 -0.0191575 15.5438)
(0.184296 -0.0555401 17.8199)
(-8.22739 -0.0205795 20.0173)
(5.97606 -0.0210866 15.7976)
(0.977766 -0.103314 16.839)
(3.18667 -0.0741206 15.5511)
(1.47511 -0.0119682 12.6335)
(1.74631 0.0654281 10.8008)
(1.19543 0.0920656 8.55042)
(0.955336 0.152821 6.87591)
(0.650716 0.132558 5.38802)
(0.254299 0.0450426 3.10352)
(0.19633 0.129787 1.67288)
(-0.811118 -0.0346859 4.62252)
(-0.19035 -0.0562527 9.84816)
(-3.35653 -0.0154536 15.416)
(0.192149 -0.0529867 17.9159)
(-8.18553 -0.0221877 20.0964)
(6.00684 -0.0123169 15.6082)
(0.973877 -0.0933603 16.8132)
(3.1762 -0.066806 15.7215)
(1.48257 -0.011754 12.8539)
(1.75287 0.0500822 10.8958)
(1.21032 0.0795425 8.56196)
(0.985591 0.151862 6.72239)
(0.734817 0.103855 4.42435)
(0.272242 0.013716 2.35601)
(0.25563 0.16213 1.16304)
(-0.821407 -0.0774738 4.36123)
(-0.197113 0.104422 9.35668)
(-3.36936 -0.0121392 15.4928)
(0.186952 -0.053342 18.0047)
(-8.16972 -0.0237251 20.0916)
(6.07599 -0.000812893 15.3219)
(0.982097 -0.0529416 16.7088)
(3.17014 -0.03827 15.8359)
(1.48313 -0.0069049 13.0603)
(1.75077 0.0259811 11.0157)
(1.20403 0.048041 8.67511)
(1.01965 0.100611 6.35213)
(0.713231 0.0386006 4.29715)
(0.261528 -0.0160888 2.66272)
(0.492134 0.0936025 0.591319)
(-0.921138 -0.0310976 3.48791)
(-0.211879 0.115566 8.52955)
(-3.37171 -0.0165654 15.6377)
(0.172576 -0.0463937 17.9553)
(-8.21047 -0.0179335 19.9256)
(6.11039 0.00828663 15.2029)
(0.988277 0.0115655 16.6364)
(3.17334 0.00965637 15.8374)
(1.48548 0.00552734 13.1112)
(1.75158 0.00338773 11.0508)
(1.20048 0.00953599 8.76078)
(1.04151 0.0283651 6.26046)
(0.753312 0.0640213 3.90379)
(0.233503 -0.00415978 2.45762)
(0.318874 -0.0633805 0.801603)
(-0.935786 0.0451711 3.25031)
(-0.249183 0.0103303 7.89565)
(-3.38754 -0.00788109 15.648)
(0.145397 -0.0118976 17.7699)
(-8.31815 -0.0278905 19.5866)
(6.06075 0.0170704 15.4003)
(0.977512 0.0699886 16.7273)
(3.17131 0.0537033 15.8151)
(1.48308 0.0170934 13.026)
(1.75251 -0.0189495 11.0069)
(1.20853 -0.0289676 8.7017)
(1.03771 -0.0747798 6.32492)
(0.79234 -0.0187393 3.81277)
(0.293706 0.0534778 2.02659)
(0.163816 0.0424956 1.25969)
(-0.832938 0.00662694 3.84271)
(-0.237777 -0.141545 8.16343)
(-3.36591 -0.00404258 15.7119)
(0.164567 0.0252468 17.9927)
(-8.17899 -0.0402084 19.9669)
(6.00147 0.02693 15.675)
(0.970515 0.102791 16.8182)
(3.1779 0.0777418 15.6921)
(1.48132 0.0213534 12.8138)
(1.75463 -0.0410664 10.8924)
(1.21477 -0.0660859 8.56879)
(1.00656 -0.149952 6.55527)
(0.721585 -0.102401 4.43157)
(0.28573 0.0617121 2.21027)
(0.170012 0.0823346 1.34517)
(-0.712642 0.0628718 5.16033)
(-0.212744 -0.106133 9.19951)
(-3.36915 -0.00967705 15.5208)
(0.170154 0.0303621 18.0404)
(-8.11561 -0.0348036 20.1459)
(5.97723 0.0329128 15.8583)
(0.975184 0.109031 16.8422)
(3.18857 0.082786 15.5208)
(1.473 0.0210114 12.5926)
(1.74868 -0.0564787 10.7855)
(1.20465 -0.084719 8.52136)
(0.96564 -0.14899 6.83118)
(0.651929 -0.0957373 5.32604)
(0.251653 0.0308897 3.08378)
(0.297102 0.0725328 1.1757)
(-0.828214 0.0977497 4.59665)
(-0.220445 0.0673914 10.0034)
(-3.36392 -0.002052 15.4735)
(0.160807 0.0288931 17.9692)
(-8.12633 -0.0308377 20.1074)
(5.97918 0.0348388 15.9553)
(0.986031 0.102434 16.8265)
(3.1997 0.0826223 15.3461)
(1.46191 0.0246002 12.3827)
(1.73939 -0.0633859 10.6999)
(1.19323 -0.0928045 8.55439)
(0.960119 -0.128238 6.96467)
(0.669579 -0.0354558 5.5117)
(0.238636 0.0568272 3.58478)
(0.221418 0.115244 1.60342)
(-0.846239 0.0536385 4.00136)
(-0.249624 0.165728 8.9946)
(-3.35544 0.00847848 15.594)
(0.141981 0.0366145 17.8845)
(-8.15798 -0.0237225 20.0088)
(5.99645 0.0309413 15.995)
(0.999645 0.084494 16.8201)
(3.20761 0.0722024 15.2089)
(1.44557 0.0243644 12.1972)
(1.72388 -0.0595084 10.6197)
(1.18275 -0.0905829 8.58867)
(0.966495 -0.122577 7.12757)
(0.72283 0.0107506 5.55913)
(0.314422 0.0919982 3.15109)
(0.178171 0.230224 1.48495)
(-0.88756 0.0303302 3.49996)
(-0.28157 0.110504 8.19995)
(-3.35932 0.0188784 15.6033)
(0.121924 0.0565629 17.6773)
(-8.21452 -0.0279526 19.859)
(6.01991 0.0274897 15.988)
(1.01429 0.0752893 16.7704)
(3.22491 0.0717776 15.0467)
(1.44288 0.0341699 11.9898)
(1.71601 -0.0558449 10.5302)
(1.18049 -0.0949378 8.54986)
(0.943776 -0.137669 7.51856)
(0.750055 -0.000248379 5.69193)
(0.354872 0.0937565 3.004)
(0.208394 0.328363 1.16515)
(-0.879797 -0.0229143 3.52929)
(-0.265452 0.0120175 8.22369)
(-3.34835 0.0310378 15.6202)
(0.138263 0.0709704 17.8825)
(-8.06811 -0.0320766 20.3014)
(6.04283 0.0141928 15.9897)
(1.03035 0.0396955 16.7693)
(3.24297 0.0417585 14.9054)
(1.44196 0.0250299 11.7079)
(1.71563 -0.0295889 10.3087)
(1.1759 -0.0550562 8.46108)
(0.936163 -0.0792263 7.77685)
(0.748944 -0.0125904 6.21685)
(0.383226 0.0611923 3.14704)
(0.22315 0.331777 0.780059)
(-0.83929 -0.0223251 3.87775)
(-0.239849 -0.0124712 8.3927)
(-3.35121 0.0168447 15.5067)
(0.135569 0.0367419 18.0222)
(-8.0058 -0.0135488 20.5107)
(9.85145 -0.0183044 14.9535)
(2.15332 -0.058374 16.8475)
(5.36555 -0.0722906 15.5375)
(2.84816 -0.0534909 12.4393)
(2.82032 0.0401081 10.653)
(2.05425 0.0939833 8.86794)
(1.54736 0.141969 8.03798)
(1.22843 0.0529047 6.56706)
(0.516422 -0.023284 3.85484)
(0.321442 -0.0363811 1.73066)
(-1.19667 0.0203839 4.68945)
(-0.591891 0.0310412 9.42466)
(-5.40677 -0.0477295 16.4416)
(0.26511 -0.0643468 18.5276)
(-13.5363 0.00380487 20.5493)
(9.82508 -0.0331795 14.9624)
(2.10875 -0.104671 16.8423)
(5.33841 -0.119742 15.6451)
(2.84084 -0.0735386 12.6826)
(2.82552 0.0780637 10.884)
(2.06063 0.154785 8.98592)
(1.55637 0.241892 7.85409)
(1.20981 0.0720009 6.21046)
(0.492192 -0.0554413 3.70914)
(0.351625 -0.0416173 1.77356)
(-1.20385 0.0419754 4.50613)
(-0.650393 0.0094606 9.3403)
(-5.41241 -0.0907283 16.5149)
(0.22952 -0.119442 18.3664)
(-13.6006 0.0195747 20.3513)
(9.80233 -0.0328459 14.9736)
(2.07077 -0.112999 16.8798)
(5.31221 -0.119876 15.7803)
(2.83288 -0.0551075 12.8739)
(2.83487 0.0872575 10.9917)
(2.06446 0.148209 9.04882)
(1.59537 0.225052 7.53879)
(1.20994 0.0622718 5.87898)
(0.457566 -0.0621612 3.82919)
(0.318283 -0.010874 1.90839)
(-1.28065 0.0457123 4.33566)
(-0.717374 -0.0587791 9.30815)
(-5.42634 -0.0619786 16.4732)
(0.094428 -0.108841 18.1402)
(-13.7719 -0.00387944 19.9186)
(9.7864 -0.0307428 14.9391)
(2.03664 -0.135262 16.8709)
(5.29726 -0.141454 15.8881)
(2.85249 -0.0569152 13.0474)
(2.8635 0.0955434 11.085)
(2.08136 0.154794 9.05922)
(1.60496 0.217116 7.35329)
(1.14087 0.105601 5.77974)
(0.370145 0.0299054 4.1687)
(0.322625 0.0732011 2.15404)
(-1.27724 -0.0150141 4.53397)
(-0.69946 -0.190274 9.73117)
(-5.44004 -0.0462779 16.5214)
(0.162054 -0.0953846 18.3206)
(-13.6838 -0.0386019 20.0639)
(9.79042 -0.0195221 14.8455)
(2.01526 -0.137434 16.8541)
(5.2793 -0.14219 16.0241)
(2.86132 -0.0468188 13.2464)
(2.87927 0.0898629 11.1839)
(2.09713 0.139717 9.03365)
(1.60744 0.230905 7.25946)
(1.11651 0.208933 5.71324)
(0.429803 0.0737677 3.58648)
(0.314959 0.127218 2.01809)
(-1.25348 -0.052717 5.33244)
(-0.64033 -0.0836328 10.6474)
(-5.45638 -0.0401727 16.3934)
(0.209074 -0.0905955 18.407)
(-13.6301 -0.0408433 20.143)
(9.82596 -0.00340164 14.667)
(2.01822 -0.123536 16.7854)
(5.2621 -0.133724 16.1491)
(2.86564 -0.0425116 13.4555)
(2.88941 0.0677193 11.3017)
(2.1181 0.117323 9.06071)
(1.64902 0.228572 7.16624)
(1.23144 0.177751 4.98031)
(0.478416 0.0439363 2.90177)
(0.411375 0.14734 1.59309)
(-1.25784 -0.078376 5.03879)
(-0.673782 0.133823 10.2853)
(-5.47431 -0.0341846 16.4842)
(0.206127 -0.0914623 18.4716)
(-13.6056 -0.0451887 20.1313)
(9.90782 0.0105271 14.3873)
(2.06866 -0.0688307 16.6347)
(5.25487 -0.0794658 16.2135)
(2.86093 -0.0239948 13.6433)
(2.88533 0.0339797 11.4335)
(2.10548 0.0679813 9.17969)
(1.69068 0.149733 6.89738)
(1.2315 0.0774924 4.75962)
(0.459961 -0.0157393 3.10791)
(0.731472 0.101877 1.20118)
(-1.3585 -0.0305564 4.26462)
(-0.7306 0.141092 9.7074)
(-5.47228 -0.0460686 16.6166)
(0.148128 -0.0772364 18.3982)
(-13.6504 -0.0304037 19.9614)
(9.94926 0.0122779 14.2688)
(2.10073 0.0166141 16.5506)
(5.26025 0.0188667 16.1983)
(2.8646 0.0103635 13.6855)
(2.8868 0.00534343 11.4695)
(2.09793 0.0119907 9.25841)
(1.71832 0.0356888 6.84617)
(1.28795 0.0896419 4.46214)
(0.445501 -0.0135087 2.86164)
(0.510259 -0.0317165 1.21578)
(-1.38732 0.0416151 4.05493)
(-0.821785 0.0164726 9.27089)
(-5.48688 -0.0184418 16.6113)
(0.0231938 -0.0319994 18.2007)
(-13.7762 -0.056292 19.6343)
(9.89353 0.0169124 14.4631)
(2.0555 0.0943862 16.6689)
(5.25674 0.107785 16.2016)
(2.86125 0.0423226 13.6109)
(2.88746 -0.0231586 11.4192)
(2.11035 -0.0423055 9.20142)
(1.71319 -0.114141 6.89403)
(1.332 -0.0531633 4.43979)
(0.55542 0.0463178 2.55076)
(0.303719 0.0633901 1.5273)
(-1.2807 -0.0330747 4.5116)
(-0.782702 -0.180045 9.44364)
(-5.46911 0.000823304 16.6875)
(0.145711 0.015993 18.4233)
(-13.6054 -0.0906601 19.9985)
(9.82554 0.0316324 14.7329)
(2.01195 0.139675 16.8052)
(5.26538 0.151895 16.1272)
(2.86386 0.0588794 13.4164)
(2.89108 -0.0533152 11.2909)
(2.12277 -0.097101 9.07062)
(1.6778 -0.224096 7.03436)
(1.2214 -0.178505 4.94929)
(0.505637 0.0517261 2.7622)
(0.313657 0.123261 1.68424)
(-1.13861 0.0605242 5.62625)
(-0.707683 -0.151698 10.1457)
(-5.48137 -0.0151569 16.5028)
(0.19082 0.0271284 18.488)
(-13.5237 -0.0803459 20.1608)
(9.79771 0.043398 14.9082)
(2.00959 0.148409 16.8677)
(5.28286 0.155646 16.0009)
(2.85797 0.0617217 13.207)
(2.88101 -0.0752703 11.1644)
(2.10905 -0.127734 9.00785)
(1.62357 -0.228363 7.21723)
(1.11907 -0.166877 5.64849)
(0.42981 0.00606186 3.52226)
(0.459939 0.0876013 1.59232)
(-1.27419 0.1336 5.32537)
(-0.700471 0.0801377 10.7826)
(-5.47543 -0.00251104 16.4264)
(0.15739 0.0268149 18.4247)
(-13.5318 -0.0744457 20.1068)
(9.80008 0.0493084 14.9945)
(2.03202 0.141179 16.8778)
(5.30259 0.149981 15.8621)
(2.84924 0.0699178 13.0058)
(2.86659 -0.0838779 11.0544)
(2.09105 -0.144079 9.01938)
(1.61272 -0.209871 7.33221)
(1.13965 -0.0839797 5.80544)
(0.408072 0.0409808 3.92599)
(0.359526 0.110166 1.86676)
(-1.29924 0.0920645 4.75093)
(-0.770119 0.219424 10.0574)
(-5.46328 0.0177689 16.537)
(0.0864228 0.0417469 18.3385)
(-13.5646 -0.0582857 19.9898)
(9.82178 0.0451267 15.02)
(2.0686 0.115995 16.8844)
(5.31905 0.125682 15.7559)
(2.82942 0.0656785 12.8336)
(2.83851 -0.077802 10.9533)
(2.07054 -0.13958 9.02769)
(1.61475 -0.20603 7.48431)
(1.21472 -0.0210208 5.89164)
(0.526166 0.0960848 3.61654)
(0.278046 0.227074 1.76547)
(-1.34367 0.0643926 4.29166)
(-0.851506 0.150355 9.4742)
(-5.46394 0.0462561 16.5302)
(-0.00362302 0.0684204 18.1503)
(-13.6293 -0.0699258 19.836)
(9.84829 0.0413533 15.0016)
(2.1079 0.105955 16.8455)
(5.34605 0.123751 15.6217)
(2.83771 0.0824584 12.6411)
(2.82882 -0.0700739 10.8427)
(2.06704 -0.147131 8.97043)
(1.58123 -0.232375 7.8012)
(1.23996 -0.0435374 6.07828)
(0.583699 0.112354 3.51496)
(0.303727 0.341839 1.54716)
(-1.32453 -0.0199751 4.29274)
(-0.815701 0.0323848 9.45787)
(-5.45688 0.0731655 16.5753)
(0.110536 0.0859629 18.3683)
(-13.4465 -0.0818837 20.2514)
(9.87765 0.0220417 14.9867)
(2.15313 0.058718 16.8516)
(5.37333 0.074198 15.5191)
(2.84436 0.0584629 12.4025)
(2.82225 -0.0353854 10.6138)
(2.05875 -0.0892715 8.85355)
(1.5722 -0.139938 7.98344)
(1.24699 -0.0460467 6.54679)
(0.629164 0.0810752 3.70648)
(0.326594 0.361562 1.31822)
(-1.27562 -0.0279163 4.55229)
(-0.76416 -0.00642379 9.5335)
(-5.46376 0.037254 16.498)
(0.133296 0.0462143 18.5161)
(-13.3677 -0.0347706 20.4369)
(12.9192 -0.0197749 12.6595)
(4.17169 -0.0598016 16.9838)
(7.52089 -0.094984 16.2697)
(4.88325 -0.0955681 13.6422)
(4.05426 0.0198978 11.3112)
(3.05017 0.113761 9.49262)
(2.23235 0.196204 8.44847)
(1.723 0.104565 7.09544)
(0.758434 -0.0150596 4.60373)
(0.363105 -0.0312659 2.45158)
(-1.59815 0.0274829 5.74505)
(-1.65914 0.013274 11.2211)
(-7.33363 -0.0858998 17.7454)
(-0.779806 -0.0697003 19.677)
(-18.4868 0.0121051 19.607)
(12.906 -0.0335588 12.6945)
(4.09394 -0.101517 16.9853)
(7.47641 -0.155789 16.3333)
(4.85548 -0.137087 13.8239)
(4.05973 0.0517083 11.5316)
(3.05915 0.182792 9.63893)
(2.24141 0.315768 8.34628)
(1.69486 0.145535 6.79188)
(0.720165 -0.0517299 4.43104)
(0.404763 -0.0409106 2.44638)
(-1.61203 0.0389466 5.61358)
(-1.74603 -0.0334347 11.2131)
(-7.34494 -0.173338 17.7658)
(-0.889508 -0.1238 19.5037)
(-18.5258 0.0483212 19.4123)
(12.8972 -0.0289564 12.7214)
(4.02842 -0.103363 17.0163)
(7.43534 -0.160076 16.4301)
(4.82512 -0.115976 13.9853)
(4.06158 0.0683171 11.6552)
(3.06087 0.177712 9.72505)
(2.28419 0.293308 8.13419)
(1.70967 0.126628 6.46666)
(0.685396 -0.0646541 4.44383)
(0.331616 -0.01634 2.52986)
(-1.7004 0.0271905 5.55036)
(-1.8443 -0.0895906 11.2374)
(-7.37442 -0.120246 17.6919)
(-1.24112 -0.124705 19.2567)
(-18.635 0.000997372 18.9677)
(12.8876 -0.0178011 12.7119)
(3.96111 -0.119199 16.9971)
(7.40135 -0.196416 16.4955)
(4.83392 -0.128041 14.1322)
(4.09955 0.0766371 11.7687)
(3.08883 0.188683 9.76567)
(2.30421 0.282392 7.98803)
(1.63684 0.160663 6.31815)
(0.558841 0.0392758 4.65338)
(0.338656 0.0534951 2.71823)
(-1.69037 -0.0574625 5.75426)
(-1.81331 -0.213481 11.5288)
(-7.38359 -0.078728 17.7416)
(-1.0423 -0.125513 19.3953)
(-18.5703 -0.065836 19.122)
(12.8946 0.00627309 12.6445)
(3.92298 -0.114019 16.9502)
(7.371 -0.205744 16.5764)
(4.82834 -0.115279 14.3058)
(4.11429 0.0748941 11.8941)
(3.10898 0.16882 9.77471)
(2.31127 0.27951 7.90167)
(1.60368 0.265701 6.2638)
(0.621609 0.0941019 4.23107)
(0.344083 0.0867079 2.68228)
(-1.65494 -0.0714561 6.42663)
(-1.70695 -0.104173 12.0716)
(-7.39969 -0.0787498 17.6196)
(-0.911839 -0.123295 19.4674)
(-18.5314 -0.0675921 19.2095)
(12.9227 0.0271924 12.4905)
(3.94295 -0.0960502 16.8346)
(7.35381 -0.20111 16.6333)
(4.8202 -0.105767 14.4839)
(4.12135 0.0532697 12.0334)
(3.13116 0.137822 9.82584)
(2.35442 0.270607 7.86497)
(1.72608 0.243453 5.77499)
(0.715475 0.0609532 3.65095)
(0.454512 0.0832198 2.34401)
(-1.66065 -0.0467677 6.14941)
(-1.78445 0.115524 11.8597)
(-7.41703 -0.0767398 17.7143)
(-0.899391 -0.133225 19.4957)
(-18.499 -0.0764993 19.1868)
(12.9692 0.0298013 12.2225)
(4.05509 -0.0460463 16.6213)
(7.36641 -0.122249 16.625)
(4.80862 -0.0606104 14.6322)
(4.10869 0.024975 12.1723)
(3.10937 0.0765068 9.952)
(2.39085 0.174792 7.71059)
(1.75394 0.120682 5.52183)
(0.7029 -0.0173771 3.72176)
(0.721793 0.0659718 2.05456)
(-1.77393 -0.00835843 5.56724)
(-1.89926 0.113202 11.5537)
(-7.41808 -0.106401 17.8195)
(-1.04696 -0.114499 19.3894)
(-18.5104 -0.0459643 18.9977)
(12.9874 0.00832356 12.1002)
(4.12014 0.0178098 16.5159)
(7.38403 0.0287692 16.5874)
(4.81535 0.0181841 14.6592)
(4.10977 0.00897147 12.2067)
(3.09721 0.0124851 10.0207)
(2.41303 0.0348224 7.69946)
(1.81886 0.0941032 5.32012)
(0.713903 -0.00588342 3.47679)
(0.464741 -0.00490511 1.99184)
(-1.83424 0.0204591 5.42218)
(-2.04478 0.00990191 11.316)
(-7.44738 -0.0417243 17.7909)
(-1.36375 -0.0776139 19.1803)
(-18.5832 -0.099658 18.663)
(12.9585 -0.000396568 12.2833)
(4.03027 0.0764718 16.6746)
(7.36533 0.163212 16.6297)
(4.81036 0.0903359 14.6062)
(4.11144 -0.00800583 12.1524)
(3.11243 -0.0476826 9.96471)
(2.40936 -0.134354 7.72455)
(1.85553 -0.0927069 5.35004)
(0.857723 0.0276081 3.2984)
(0.33589 0.0674243 2.17177)
(-1.7324 -0.0968028 5.70563)
(-1.98519 -0.171349 11.397)
(-7.41771 0.0131677 17.8763)
(-1.03641 -0.0362348 19.3985)
(-18.4677 -0.173037 19.0386)
(12.9248 0.0181483 12.5386)
(3.94072 0.118764 16.8747)
(7.35987 0.224955 16.6278)
(4.82044 0.129559 14.4504)
(4.12237 -0.0322798 12.0144)
(3.13274 -0.111268 9.83468)
(2.38435 -0.261611 7.7739)
(1.72337 -0.243533 5.71853)
(0.75388 0.00673551 3.5151)
(0.370781 0.141117 2.37492)
(-1.56708 0.0197895 6.50849)
(-1.86118 -0.161494 11.7533)
(-7.4358 -0.0281448 17.7134)
(-0.903774 -0.0181986 19.4745)
(-18.3994 -0.155742 19.1867)
(12.9111 0.0383813 12.6973)
(3.93055 0.132128 16.9842)
(7.3805 0.223575 16.5677)
(4.82662 0.135979 14.2719)
(4.11388 -0.0538965 11.8704)
(3.11856 -0.1507 9.75122)
(2.32909 -0.277398 7.86283)
(1.60317 -0.231483 6.19877)
(0.62358 -0.0450721 4.12746)
(0.469467 0.0890158 2.36033)
(-1.68921 0.13638 6.4475)
(-1.82106 0.0691887 12.1834)
(-7.44109 -0.0207669 17.6152)
(-0.982205 -0.0218954 19.4152)
(-18.384 -0.146851 19.1008)
(12.9117 0.0515358 12.7666)
(3.96737 0.133703 17.0203)
(7.41285 0.20791 16.4813)
(4.83301 0.145364 14.0963)
(4.10073 -0.0590452 11.7366)
(3.09625 -0.172783 9.728)
(2.31144 -0.273303 7.9521)
(1.62233 -0.147732 6.32543)
(0.594832 -0.00430547 4.43589)
(0.363647 0.0839571 2.4901)
(-1.73653 0.121673 5.96639)
(-1.93876 0.217232 11.7645)
(-7.43921 0.00240064 17.7126)
(-1.15764 -0.00415643 19.3223)
(-18.3807 -0.115674 18.9383)
(12.9238 0.0504825 12.7693)
(4.03345 0.11401 17.0315)
(7.44828 0.167457 16.4158)
(4.8247 0.129665 13.9518)
(4.06315 -0.053778 11.617)
(3.06306 -0.165104 9.70007)
(2.30092 -0.273446 8.07833)
(1.70031 -0.0852066 6.44912)
(0.744816 0.0610808 4.25053)
(0.249952 0.175089 2.3841)
(-1.80312 0.094259 5.59751)
(-2.07547 0.160983 11.4114)
(-7.4505 0.0713563 17.6935)
(-1.39274 0.0197688 19.1657)
(-18.408 -0.145031 18.7573)
(12.9349 0.0481341 12.7339)
(4.10082 0.109517 16.996)
(7.49078 0.160366 16.3196)
(4.85615 0.148477 13.7907)
(4.06096 -0.0388768 11.4909)
(3.06064 -0.170736 9.61654)
(2.26202 -0.304428 8.29663)
(1.70818 -0.120429 6.67202)
(0.8069 0.0903718 4.21359)
(0.251244 0.260955 2.25296)
(-1.78192 -0.0214478 5.57341)
(-2.03208 0.0623757 11.3723)
(-7.42792 0.127476 17.7707)
(-1.07571 0.0325706 19.4052)
(-18.2726 -0.172138 19.1623)
(12.9504 0.0263111 12.6913)
(4.1807 0.0638335 16.9938)
(7.53581 0.0974018 16.2605)
(4.88368 0.102308 13.6144)
(4.05349 -0.0116501 11.2732)
(3.04875 -0.1053 9.4712)
(2.25195 -0.190597 8.39316)
(1.72312 -0.0998162 7.05889)
(0.863384 0.0742384 4.44596)
(0.284876 0.29716 2.1508)
(-1.72583 -0.0373544 5.71586)
(-1.96887 0.00974592 11.3673)
(-7.43807 0.0583531 17.7397)
(-0.992303 0.0199918 19.5517)
(-18.2048 -0.0724182 19.3245)
(14.9858 -0.0153475 9.65071)
(6.45627 -0.0516899 16.5476)
(9.60597 -0.0961971 17.0857)
(7.49945 -0.129883 15.3643)
(5.68026 -0.030518 12.6047)
(4.20827 0.100871 10.4547)
(2.98811 0.227502 9.13029)
(2.21308 0.165705 7.83731)
(1.00311 0.00470827 5.59304)
(0.276056 -0.00983167 3.55812)
(-2.07138 0.0287465 7.47762)
(-3.33279 -0.023666 13.7304)
(-9.15762 -0.125903 19.6078)
(-3.00225 -0.0638397 20.9937)
(-22.4393 0.0103817 17.8431)
(14.9971 -0.0236674 9.70319)
(6.36981 -0.0809654 16.5748)
(9.54028 -0.156122 17.1208)
(7.43981 -0.191824 15.477)
(5.66672 -0.0229801 12.7838)
(4.21406 0.164541 10.6157)
(2.99665 0.350636 9.10659)
(2.17895 0.229926 7.6029)
(0.950389 -0.0309222 5.39404)
(0.29488 -0.016693 3.52569)
(-2.12226 0.0255086 7.4362)
(-3.46766 -0.101146 13.7788)
(-9.20317 -0.259344 19.5805)
(-3.17642 -0.0974911 20.8043)
(-22.4136 0.0585711 17.6622)
(15.008 -0.00992877 9.74153)
(6.29295 -0.0695896 16.611)
(9.48102 -0.162114 17.1837)
(7.37983 -0.17555 15.5937)
(5.64366 -0.000254165 12.9016)
(4.20547 0.166622 10.7207)
(3.03388 0.329399 9.00119)
(2.20811 0.203863 7.32138)
(0.926172 -0.045268 5.31881)
(0.19263 0.000271081 3.567)
(-2.22419 0.000980229 7.46761)
(-3.60969 -0.128432 13.8445)
(-9.3121 -0.187229 19.4817)
(-3.68991 -0.129536 20.4902)
(-22.3765 -0.00763511 17.2334)
(15.0228 0.0147867 9.76307)
(6.21266 -0.0639419 16.6018)
(9.42281 -0.202334 17.2102)
(7.35944 -0.203392 15.6966)
(5.67558 -0.000168598 13.0181)
(4.24339 0.180651 10.7937)
(3.06662 0.320455 8.91151)
(2.15002 0.223023 7.14879)
(0.774258 0.0524825 5.40667)
(0.209777 0.036752 3.68996)
(-2.1906 -0.107007 7.62292)
(-3.54736 -0.218224 14.0042)
(-9.27241 -0.119 19.5219)
(-3.37204 -0.167177 20.616)
(-22.3857 -0.104516 17.4021)
(15.0455 0.0406927 9.73397)
(6.1763 -0.036732 16.5446)
(9.38293 -0.21311 17.2324)
(7.3315 -0.195071 15.8206)
(5.67473 0.00344121 13.1514)
(4.26172 0.162641 10.8449)
(3.08086 0.300128 8.8491)
(2.11219 0.305152 7.09697)
(0.825811 0.105933 5.11529)
(0.241955 0.0339929 3.73336)
(-2.11628 -0.0995338 8.09091)
(-3.41981 -0.126631 14.2385)
(-9.26494 -0.129086 19.418)
(-3.16388 -0.160771 20.6846)
(-22.3905 -0.112368 17.4959)
(15.0554 0.0526012 9.62805)
(6.20373 -0.00439237 16.3975)
(9.37645 -0.206207 17.2101)
(7.3144 -0.182582 15.9402)
(5.6676 -0.0111049 13.294)
(4.27688 0.128404 10.9238)
(3.11806 0.280513 8.85766)
(2.22309 0.291892 6.81414)
(0.963186 0.0680762 4.66578)
(0.338809 0.0147134 3.47156)
(-2.15355 -0.0246411 7.88681)
(-3.53335 0.0572361 14.1591)
(-9.27201 -0.141489 19.4893)
(-3.1172 -0.179353 20.6658)
(-22.3524 -0.130382 17.4628)
(15.0365 0.0404713 9.42429)
(6.31956 0.0238476 16.1266)
(9.42633 -0.119992 17.107)
(7.31817 -0.105721 16.0216)
(5.64385 -0.0119838 13.423)
(4.23995 0.068138 11.0532)
(3.13624 0.177624 8.80464)
(2.2681 0.158167 6.59496)
(0.971425 -0.020199 4.62565)
(0.472061 0.0186818 3.25658)
(-2.30816 0.003493 7.54951)
(-3.68739 0.0430297 14.0688)
(-9.30459 -0.190234 19.5397)
(-3.32782 -0.152249 20.4948)
(-22.2913 -0.0856011 17.2547)
(15.018 0.00163504 9.32713)
(6.37805 0.0160375 15.9967)
(9.4609 0.0353904 17.0372)
(7.33883 0.0290907 16.0257)
(5.64791 0.0168884 13.4519)
(4.22371 0.014017 11.1096)
(3.14395 0.0304511 8.82273)