/*--------------------------------*- C++ -*----------------------------------*\
| =========                 |                                                 |
| \\      /  F ield         | OpenFOAM: The Open Source CFD Toolbox           |
|  \\    /   O peration     | Version:  4.1                                   |
|   \\  /    A nd           | Web:      www.OpenFOAM.org                      |
|    \\/     M anipulation  |                                                 |
\*---------------------------------------------------------------------------*/
FoamFile
{
    version     2.0;
    format      ascii;
    class       volScalarField;
    location    "4";
    object      p;
}
// * * * * * * * * * * * * * * * * * * * * * * * * * * * * * * * * * * * * * //

dimensions      [0 2 -2 0 0 0 0];

internalField   nonuniform List<scalar> 
6750
(
-419.589
-275.66
-370.276
-362.331
-361.097
-357.533
-348.528
-331.5
-313.47
-288.418
-262.447
-254.423
-265.884
-278.214
-299.071
-418.644
-277.607
-370.026
-362.575
-361.563
-358.079
-349.265
-332.325
-314.414
-289.525
-263.487
-254.635
-268.469
-279.513
-281.444
-418.211
-278.79
-369.462
-362.84
-361.963
-358.252
-349.21
-332.189
-314.505
-290.62
-265.381
-257.914
-267.223
-277.734
-275.266
-417.531
-280.461
-369.218
-362.984
-362.33
-358.555
-349.319
-332.147
-314.707
-292.021
-268.306
-260.659
-265.309
-277.28
-268.613
-417.059
-281.751
-369.043
-363.074
-362.627
-358.764
-349.341
-332.005
-314.68
-293.245
-270.869
-262.36
-263.903
-276.253
-264.068
-416.559
-283.103
-369.118
-363.131
-362.896
-358.857
-349.25
-331.79
-314.603
-294.289
-272.755
-264.087
-263.108
-275.582
-261.035
-416.14
-283.862
-370.196
-362.958
-362.489
-358.765
-349.236
-331.767
-314.553
-294.975
-274.194
-265.354
-262.49
-274.546
-259.961
-415.979
-283.921
-371.047
-362.609
-362.012
-358.515
-349.125
-331.673
-314.438
-295.211
-274.738
-265.916
-262.264
-273.613
-260.061
-416.139
-283.824
-370.2
-362.958
-362.489
-358.764
-349.24
-331.768
-314.557
-294.992
-274.225
-265.39
-262.51
-274.589
-259.903
-416.553
-283.051
-369.123
-363.134
-362.894
-358.853
-349.254
-331.793
-314.615
-294.32
-272.809
-264.148
-263.136
-275.629
-260.999
-417.049
-281.686
-369.046
-363.08
-362.625
-358.755
-349.342
-332.006
-314.696
-293.289
-270.942
-262.437
-263.939
-276.315
-264.035
-417.517
-280.389
-369.228
-362.991
-362.325
-358.541
-349.319
-332.149
-314.727
-292.076
-268.392
-260.741
-265.348
-277.351
-268.6
-418.196
-278.713
-369.476
-362.847
-361.959
-358.234
-349.208
-332.189
-314.525
-290.678
-265.468
-258.012
-267.263
-277.809
-275.282
-418.627
-277.529
-370.043
-362.579
-361.561
-358.06
-349.263
-332.326
-314.438
-289.59
-263.569
-254.737
-268.515
-279.591
-281.487
-419.572
-275.582
-370.298
-362.336
-361.096
-357.514
-348.528
-331.503
-313.495
-288.484
-262.534
-254.535
-265.926
-278.275
-299.19
-607.73
-201.786
-335.119
-360.883
-354.856
-345.619
-326.688
-302.524
-284.827
-273.234
-285.082
-291.75
-285.602
-249.096
-512.338
-607.187
-202.893
-336.232
-361.624
-355.456
-345.954
-327.07
-303.114
-285.57
-274.145
-285.821
-293.762
-289.354
-259.633
-504.772
-607.088
-203.477
-337.002
-362.191
-355.793
-346.025
-327.155
-303.292
-285.751
-275.147
-288.097
-297.441
-292.699
-263.474
-499.376
-606.73
-204.417
-337.832
-362.635
-356.238
-346.252
-327.218
-303.363
-286.213
-276.16
-289.641
-301.476
-295.677
-268.359
-490.937
-606.495
-205.123
-338.477
-362.911
-356.508
-346.397
-327.133
-303.131
-285.969
-276.696
-290.891
-305.234
-297.863
-271.622
-486.428
-606.15
-205.927
-339.094
-363.042
-356.561
-346.429
-326.937
-302.803
-285.881
-277.3
-291.762
-308.053
-299.453
-274.245
-482.652
-605.635
-206.716
-338.465
-362.586
-356.463
-346.395
-326.723
-302.564
-285.541
-277.444
-292.312
-310.21
-301.059
-276.33
-479.149
-605.313
-207.131
-337.641
-361.906
-356.159
-346.288
-326.546
-302.332
-285.235
-277.47
-292.357
-310.839
-301.86
-277.158
-476.422
-605.617
-206.701
-338.455
-362.585
-356.461
-346.39
-326.721
-302.558
-285.542
-277.451
-292.336
-310.254
-301.052
-276.347
-479.256
-606.119
-205.905
-339.082
-363.043
-356.558
-346.42
-326.933
-302.798
-285.882
-277.312
-291.804
-308.112
-299.453
-274.27
-482.73
-606.455
-205.091
-338.461
-362.912
-356.502
-346.384
-327.126
-303.122
-285.971
-276.711
-290.942
-305.311
-297.868
-271.662
-486.512
-606.682
-204.38
-337.811
-362.631
-356.228
-346.234
-327.21
-303.353
-286.213
-276.184
-289.71
-301.567
-295.688
-268.396
-491.027
-607.034
-203.435
-336.976
-362.182
-355.78
-346.003
-327.145
-303.277
-285.748
-275.172
-288.177
-297.531
-292.708
-263.499
-499.476
-607.129
-202.848
-336.204
-361.61
-355.439
-345.932
-327.063
-303.101
-285.575
-274.179
-285.917
-293.849
-289.356
-259.642
-504.871
-607.669
-201.738
-335.09
-360.864
-354.836
-345.595
-326.681
-302.503
-284.821
-273.267
-285.186
-291.837
-285.607
-249.067
-512.434
-670.375
-168.214
-227.816
-316.618
-304.782
-291.358
-270.375
-248.154
-235.591
-252.865
-292.51
-311.97
-296.175
-132.536
-778.696
-670.379
-167.664
-228.453
-317.244
-305.321
-291.814
-270.729
-248.743
-236.841
-253.264
-293.342
-313.987
-299.166
-141.433
-777.5
-670.439
-167.396
-228.746
-317.468
-305.555
-292.013
-270.994
-248.905
-236.482
-253.006
-293.297
-314.712
-302.042
-147.751
-777.623
-670.471
-166.99
-229.167
-317.887
-305.987
-292.371
-271.321
-249.317
-236.966
-252.578
-293.171
-315.338
-305.256
-155.012
-775.288
-670.531
-166.677
-229.487
-318.103
-306.216
-292.531
-271.423
-249.457
-236.756
-251.761
-292.942
-316.159
-307.861
-159.186
-773.822
-670.578
-166.329
-229.859
-318.279
-306.369
-292.59
-271.46
-249.576
-236.964
-251.102
-292.849
-316.856
-310.217
-162.305
-771.83
-670.609
-166.108
-230.305
-318.425
-306.398
-292.489
-271.368
-249.711
-237.096
-250.192
-292.648
-317.098
-311.799
-166.443
-771.431
-670.583
-166.085
-230.517
-318.418
-306.327
-292.287
-271.171
-249.531
-237.129
-249.635
-292.307
-316.964
-312.316
-169.542
-771.172
-670.571
-166.138
-230.29
-318.416
-306.388
-292.479
-271.359
-249.702
-237.088
-250.158
-292.621
-317.103
-311.822
-166.335
-771.278
-670.533
-166.352
-229.836
-318.264
-306.35
-292.567
-271.437
-249.555
-236.933
-251.07
-292.824
-316.863
-310.23
-162.231
-771.624
-670.472
-166.695
-229.458
-318.081
-306.187
-292.495
-271.387
-249.421
-236.717
-251.72
-292.907
-316.166
-307.863
-159.096
-773.56
-670.404
-167.003
-229.133
-317.859
-305.948
-292.322
-271.27
-249.267
-236.914
-252.542
-293.138
-315.349
-305.258
-154.915
-775.006
-670.362
-167.404
-228.706
-317.432
-305.506
-291.951
-270.928
-248.836
-236.413
-252.969
-293.264
-314.727
-302.043
-147.635
-777.319
-670.294
-167.67
-228.411
-317.203
-305.266
-291.743
-270.654
-248.668
-236.762
-253.226
-293.312
-314.009
-299.171
-141.314
-777.186
-670.283
-168.215
-227.769
-316.569
-304.72
-291.277
-270.284
-248.06
-235.483
-252.823
-292.482
-311.993
-296.171
-132.411
-778.367
-689.491
-210.617
-176.078
-276.648
-252.355
-232.81
-207.269
-179.162
-161.959
-184.155
-229.779
-272.12
-213.668
-51.389
-875.64
-689.449
-210.262
-176.148
-276.929
-252.727
-233.339
-207.706
-180.102
-162.732
-183.941
-228.458
-272.651
-214.41
-48.3046
-874.874
-689.454
-210.133
-176.28
-277.109
-252.977
-233.734
-208.427
-180.757
-161.877
-182.495
-226.743
-271.495
-214.298
-47.0666
-874.389
-689.437
-209.85
-176.365
-277.349
-253.323
-234.243
-209.062
-181.686
-161.608
-181.199
-224.971
-271.032
-214.579
-45.8604
-873.335
-689.434
-209.683
-176.498
-277.557
-253.611
-234.681
-209.562
-182.43
-160.971
-179.97
-223.301
-270.693
-214.856
-45.7251
-872.476
-689.404
-209.474
-176.559
-277.693
-253.824
-235.02
-209.948
-183.271
-160.987
-178.933
-221.642
-270.364
-215.144
-45.641
-871.182
-689.395
-209.324
-176.656
-277.816
-254.032
-235.302
-210.115
-184.115
-161.069
-178.121
-219.961
-269.908
-215.481
-45.7079
-870.587
-689.373
-209.248
-176.692
-277.832
-254.085
-235.358
-210.053
-184.346
-161.465
-177.658
-218.883
-269.709
-215.894
-45.8855
-870.122
-689.392
-209.307
-176.649
-277.805
-254.018
-235.286
-210.102
-184.111
-161.076
-178.086
-219.928
-269.863
-215.417
-45.9109
-870.179
-689.395
-209.441
-176.542
-277.672
-253.798
-234.991
-209.917
-183.244
-160.951
-178.9
-221.614
-270.313
-215.039
-45.8476
-870.707
-689.414
-209.639
-176.472
-277.528
-253.574
-234.637
-209.511
-182.38
-160.915
-179.923
-223.259
-270.629
-214.73
-45.9275
-871.835
-689.41
-209.799
-176.331
-277.312
-253.275
-234.185
-208.991
-181.609
-161.514
-181.148
-224.92
-270.955
-214.433
-46.0493
-872.681
-689.415
-210.076
-176.239
-277.061
-252.916
-233.66
-208.333
-180.651
-161.746
-182.436
-226.681
-271.406
-214.131
-47.2114
-873.688
-689.396
-210.211
-176.105
-276.872
-252.657
-233.255
-207.598
-179.982
-162.583
-183.872
-228.389
-272.553
-214.235
-48.4332
-874.166
-689.422
-210.564
-176.03
-276.581
-252.274
-232.713
-207.144
-179.019
-161.777
-184.071
-229.704
-272.014
-213.479
-51.4916
-874.91
-723.5
-229.384
-158.314
-257.978
-225.106
-200.581
-173.514
-139.83
-120.198
-136.099
-166.635
-230.151
-183.101
-105.992
-991.479
-723.487
-229.309
-158.341
-258.213
-225.45
-201.207
-174.069
-141.112
-120.589
-135.201
-165.035
-229.028
-182.071
-103.687
-990.539
-723.523
-229.311
-158.419
-258.402
-225.721
-201.688
-174.823
-141.655
-120.014
-133.334
-163.872
-228.497
-181.895
-103.053
-990.054
-723.521
-229.254
-158.461
-258.622
-226.055
-202.301
-175.607
-142.716
-119.777
-131.735
-162.198
-227.548
-181.209
-101.696
-988.996
-723.555
-229.261
-158.539
-258.836
-226.354
-202.826
-176.195
-143.577
-119.197
-130.468
-160.834
-226.736
-180.936
-101.718
-988.073
-723.533
-229.23
-158.567
-258.987
-226.571
-203.266
-176.751
-144.861
-119.15
-129.59
-159.209
-225.753
-180.409
-101.759
-986.402
-723.557
-229.251
-158.595
-259.117
-226.737
-203.564
-177.035
-146.234
-119.264
-129.612
-157.731
-224.691
-179.881
-102.234
-985.51
-723.518
-229.234
-158.59
-259.131
-226.742
-203.592
-177.037
-146.87
-119.592
-129.721
-156.54
-224.013
-179.702
-102.449
-984.234
-723.546
-229.235
-158.582
-259.104
-226.723
-203.544
-177.018
-146.234
-119.256
-129.6
-157.689
-224.647
-179.891
-102.681
-984.72
-723.516
-229.198
-158.538
-258.961
-226.541
-203.227
-176.71
-144.823
-119.1
-129.559
-159.172
-225.672
-180.255
-102.122
-985.635
-723.526
-229.211
-158.502
-258.796
-226.305
-202.767
-176.13
-143.507
-119.121
-130.411
-160.784
-226.664
-180.801
-102.107
-986.983
-723.486
-229.189
-158.416
-258.568
-225.989
-202.222
-175.516
-142.605
-119.686
-131.664
-162.132
-227.435
-181.012
-102.043
-987.949
-723.475
-229.237
-158.365
-258.335
-225.642
-201.589
-174.706
-141.509
-119.908
-133.25
-163.793
-228.373
-181.669
-103.294
-988.941
-723.421
-229.245
-158.285
-258.137
-225.361
-201.095
-173.936
-140.947
-120.467
-135.102
-164.942
-228.884
-181.824
-103.888
-989.429
-723.408
-229.32
-158.253
-257.89
-225.006
-200.453
-173.365
-139.647
-120.061
-135.976
-166.528
-229.988
-182.821
-106.128
-990.331
-766.094
-234.302
-151.828
-250.417
-213.828
-188.611
-162.121
-128.152
-110.763
-119.739
-154.384
-233.67
-204.153
-126.684
-1145.93
-766.041
-234.293
-151.876
-250.659
-214.182
-189.28
-162.739
-129.555
-111.012
-118.755
-152.388
-232.635
-203.511
-125.883
-1143.75
-766.052
-234.343
-151.934
-250.842
-214.438
-189.739
-163.42
-129.77
-110.43
-117.054
-151.448
-232.172
-202.986
-126.023
-1143.15
-766.029
-234.315
-151.986
-251.07
-214.78
-190.38
-164.26
-130.755
-110.36
-115.504
-149.652
-231.238
-202.31
-125.59
-1141.23
-766.089
-234.344
-152.048
-251.275
-215.07
-190.88
-164.831
-131.399
-109.915
-114.243
-148.257
-230.486
-201.937
-126.741
-1139.7
-766.038
-234.323
-152.09
-251.431
-215.302
-191.346
-165.469
-132.673
-110.102
-113.327
-146.405
-229.696
-201.519
-127.694
-1136.37
-766.063
-234.375
-152.129
-251.559
-215.47
-191.643
-165.776
-134.105
-110.294
-113.363
-144.623
-228.604
-200.773
-129.252
-1135.38
-766.011
-234.337
-152.121
-251.574
-215.479
-191.697
-165.842
-134.857
-110.82
-113.771
-142.91
-227.993
-201.156
-130.069
-1132.55
-766.039
-234.353
-152.124
-251.55
-215.449
-191.623
-165.757
-134.098
-110.298
-113.36
-144.574
-228.549
-200.898
-129.842
-1134.04
-765.993
-234.294
-152.082
-251.407
-215.26
-191.302
-165.419
-132.616
-110.058
-113.281
-146.334
-229.52
-201.177
-128.09
-1135.38
-766.005
-234.305
-152.04
-251.239
-215.009
-190.813
-164.752
-131.3
-109.851
-114.165
-148.173
-230.359
-201.705
-127.237
-1137.95
-765.952
-234.255
-151.959
-251.014
-214.699
-190.289
-164.152
-130.611
-110.276
-115.405
-149.527
-231.013
-201.946
-126.039
-1139.63
-765.944
-234.281
-151.898
-250.772
-214.344
-189.626
-163.281
-129.596
-110.319
-116.937
-151.305
-231.932
-202.576
-126.273
-1141.47
-765.881
-234.27
-151.833
-250.577
-214.077
-189.151
-162.584
-129.364
-110.885
-118.619
-152.218
-232.35
-203.057
-126.069
-1142.09
-765.858
-234.302
-151.776
-250.319
-213.711
-188.465
-161.947
-127.948
-110.621
-119.577
-154.191
-233.35
-203.645
-126.765
-1144.21
-818.985
-239.936
-152.244
-253.328
-214.988
-193.248
-171.962
-143.044
-129.72
-141.325
-175.59
-250.078
-244.333
-112.145
-1352.51
-818.96
-239.933
-152.307
-253.572
-215.364
-193.999
-172.683
-144.977
-129.49
-140.43
-173.898
-249.648
-244.403
-112.167
-1347.52
-819.022
-239.992
-152.364
-253.754
-215.615
-194.449
-173.219
-145.201
-128.488
-138.696
-173.123
-249.261
-243.136
-112.99
-1346.84
-819.039
-239.944
-152.418
-253.984
-215.971
-195.15
-174.135
-146.452
-128.551
-137.177
-171.66
-248.831
-242.967
-113.485
-1342.36
-819.129
-239.998
-152.478
-254.189
-216.256
-195.634
-174.631
-146.996
-127.88
-135.741
-170.424
-248.238
-242.607
-116.69
-1338.7
-819.06
-239.984
-152.529
-254.344
-216.499
-196.125
-175.319
-148.222
-128.36
-134.747
-168.889
-247.936
-242.393
-118.614
-1331.99
-819.096
-240.062
-152.581
-254.473
-216.67
-196.401
-175.59
-149.341
-128.492
-134.299
-167.23
-246.604
-240.931
-120.823
-1332.09
-819.038
-240.002
-152.566
-254.472
-216.68
-196.484
-175.743
-150.085
-129.185
-134.556
-165.814
-246.418
-243.381
-122.138
-1325.64
-819.075
-240.016
-152.575
-254.455
-216.641
-196.379
-175.567
-149.319
-128.499
-134.286
-167.19
-246.55
-241.352
-121.573
-1329.84
-819.006
-239.927
-152.52
-254.307
-216.443
-196.071
-175.252
-148.138
-128.292
-134.652
-168.748
-247.612
-241.705
-118.904
-1331.07
-819.016
-239.931
-152.468
-254.138
-216.177
-195.553
-174.53
-146.866
-127.776
-135.599
-170.261
-248.039
-242.228
-117.264
-1335.94
-818.943
-239.842
-152.379
-253.907
-215.866
-195.037
-173.995
-146.27
-128.404
-136.988
-171.411
-248.452
-242.376
-114.124
-1339.89
-818.922
-239.854
-152.312
-253.663
-215.492
-194.309
-173.042
-144.98
-128.302
-138.47
-172.835
-248.857
-242.465
-113.284
-1344.25
-818.843
-239.827
-152.246
-253.466
-215.229
-193.841
-172.485
-144.733
-129.287
-140.17
-173.559
-249.162
-243.646
-112.359
-1345.04
-818.81
-239.857
-152.177
-253.206
-214.839
-193.067
-171.738
-142.781
-129.493
-141.022
-175.207
-249.536
-243.491
-112.165
-1349.94
-880.373
-248.904
-157.563
-265.064
-225.26
-207.82
-193.039
-170.961
-165.723
-177.533
-213.68
-270.548
-300.019
-77.5913
-1650.09
-880.366
-248.882
-157.624
-265.287
-225.636
-208.618
-193.889
-173.135
-165.635
-177.348
-212.863
-271.116
-302.304
-78.5106
-1635.56
-880.452
-248.939
-157.684
-265.471
-225.884
-209.056
-194.271
-173.394
-164.376
-175.729
-212.205
-270.897
-299.758
-81.2816
-1633.73
-880.464
-248.879
-157.729
-265.682
-226.235
-209.795
-195.291
-174.851
-164.704
-174.622
-211.4
-271.301
-301.044
-83.7457
-1621.67
-880.566
-248.956
-157.789
-265.885
-226.509
-210.247
-195.694
-175.258
-163.836
-173.237
-210.304
-270.821
-300.597
-90.9994
-1613.43
-880.479
-248.933
-157.832
-266.025
-226.743
-210.744
-196.436
-176.395
-164.473
-172.631
-209.207
-271.068
-300.007
-93.1122
-1603.01
-880.525
-249.025
-157.887
-266.154
-226.906
-210.982
-196.654
-177.117
-164.65
-172.065
-207.659
-268.843
-296.881
-95.5237
-1608.37
-880.457
-248.948
-157.861
-266.131
-226.9
-211.081
-196.894
-177.81
-165.627
-172.463
-207.228
-269.096
-304.874
-98.1041
-1592.91
-880.506
-248.958
-157.874
-266.124
-226.866
-210.954
-196.617
-177.072
-164.622
-172.033
-207.644
-268.74
-297.713
-96.5414
-1604.86
-880.423
-248.836
-157.817
-265.973
-226.668
-210.673
-196.338
-176.268
-164.327
-172.442
-208.919
-270.5
-298.759
-93.1378
-1602.62
-880.433
-248.841
-157.776
-265.818
-226.407
-210.142
-195.55
-175.075
-163.635
-172.969
-209.969
-270.45
-299.876
-91.6787
-1609.42
-880.344
-248.73
-157.682
-265.582
-226.1
-209.649
-195.094
-174.602
-164.436
-174.258
-210.915
-270.661
-300.095
-84.7413
-1617.82
-880.313
-248.74
-157.622
-265.352
-225.726
-208.876
-194.027
-173.092
-164.05
-175.294
-211.646
-270.202
-298.679
-81.7441
-1629.69
-880.214
-248.701
-157.554
-265.152
-225.462
-208.412
-193.618
-172.805
-165.27
-176.852
-212.22
-270.289
-301.092
-78.779
-1631.8
-880.178
-248.731
-157.485
-264.911
-225.066
-207.585
-192.73
-170.599
-165.299
-176.963
-212.954
-269.621
-298.639
-77.5786
-1646.32
-952.138
-262.784
-167.717
-285.544
-245.114
-231.875
-224.39
-207.553
-212.593
-221.589
-268.745
-296.507
-384.37
-27.4485
-2028.26
-952.109
-262.751
-167.768
-285.73
-245.451
-232.661
-225.367
-209.812
-213.137
-222.242
-268.684
-297.44
-387.305
-29.5093
-2008.33
-952.182
-262.825
-167.832
-285.915
-245.7
-233.095
-225.626
-210.073
-211.657
-220.689
-267.849
-297.589
-383.142
-35.6774
-2005.96
-952.18
-262.752
-167.867
-286.097
-246.025
-233.847
-226.763
-211.672
-212.334
-220.157
-267.802
-298.773
-387.458
-42.7721
-1982.34
-952.29
-262.835
-167.931
-286.297
-246.288
-234.263
-227.101
-211.92
-211.522
-218.725
-266.657
-298.289
-386.142
-55.0396
-1972.57
-952.195
-262.788
-167.964
-286.41
-246.494
-234.749
-227.902
-212.99
-212.316
-218.452
-266.059
-298.848
-384.801
-54.2484
-1963.22
-952.248
-262.885
-168.022
-286.536
-246.64
-234.938
-228.064
-213.388
-212.489
-217.65
-264.76
-294.723
-377.915
-55.6724
-1982.31
-952.157
-262.799
-167.986
-286.489
-246.604
-235.033
-228.369
-214.06
-213.68
-218.318
-266.177
-294.015
-401.42
-62.8865
-1944.2
-952.206
-262.816
-168.001
-286.495
-246.586
-234.898
-228.009
-213.316
-212.429
-217.588
-264.838
-294.502
-379.689
-56.9399
-1975.48
-952.114
-262.669
-167.942
-286.34
-246.395
-234.654
-227.764
-212.807
-212.082
-218.126
-265.584
-297.864
-382.881
-53.7655
-1963.9
-952.12
-262.678
-167.917
-286.207
-246.154
-234.124
-226.899
-211.661
-211.2
-218.276
-266.082
-297.635
-384.711
-55.2063
-1966.82
-952.015
-262.557
-167.816
-285.966
-245.849
-233.654
-226.488
-211.327
-211.897
-219.547
-266.991
-297.744
-385.921
-43.9947
-1976.62
-951.982
-262.571
-167.763
-285.76
-245.494
-232.858
-225.288
-209.653
-211.126
-219.961
-266.911
-296.458
-381.357
-36.1648
-1999.44
-951.867
-262.523
-167.691
-285.554
-245.224
-232.391
-224.993
-209.351
-212.544
-221.417
-267.618
-296.11
-385.293
-29.8281
-2002.29
-951.829
-262.556
-167.627
-285.345
-244.859
-231.567
-223.959
-207.041
-211.896
-220.65
-267.544
-295.024
-382.14
-27.2356
-2022.03
-1034.83
-283.052
-181.948
-313.832
-273.948
-264.261
-265.492
-250.862
-270.56
-269.781
-340.174
-321.501
-492.604
40.8389
-2632.52
-1034.78
-283.005
-181.986
-313.975
-274.229
-265.011
-266.585
-253.168
-272.142
-271.426
-342.753
-324.897
-518.31
22.3828
-2530.32
-1034.85
-283.087
-182.055
-314.16
-274.484
-265.451
-266.76
-253.333
-270.404
-270.003
-341.538
-325.97
-504.199
11.497
-2528.47
-1034.83
-283.001
-182.08
-314.309
-274.773
-266.205
-268.011
-255.055
-271.405
-270.261
-342.659
-328.64
-516.588
-0.0336874
-2473.35
-1034.94
-283.084
-182.151
-314.508
-275.032
-266.592
-268.304
-255.129
-270.633
-268.599
-340.744
-327.279
-508.445
-15.0862
-2473.84
-1034.84
-283.007
-182.174
-314.592
-275.203
-267.059
-269.157
-256.161
-271.536
-268.616
-340.918
-327.912
-504.536
-5.75928
-2475.08
-1034.9
-283.101
-182.239
-314.716
-275.335
-267.2
-269.256
-256.286
-271.667
-267.332
-339.538
-320.096
-487.504
-8.48151
-2517.44
-1034.78
-283.008
-182.197
-314.648
-275.264
-267.275
-269.603
-256.961
-273.09
-268.377
-345.438
-316.345
-549.048
-32.4808
-2433.47
-1034.82
-283.047
-182.214
-314.666
-275.263
-267.14
-269.173
-256.172
-271.546
-267.173
-339.641
-319.575
-489.376
-10.1697
-2507.75
-1034.71
-282.882
-182.144
-314.503
-275.073
-266.93
-268.959
-255.888
-271.145
-268.05
-340.056
-326.226
-501.444
-4.1306
-2475.89
-1034.71
-282.889
-182.135
-314.389
-274.858
-266.407
-268.017
-254.744
-270.093
-267.841
-339.63
-326.06
-505.361
-14.3022
-2468.02
-1034.59
-282.764
-182.03
-314.146
-274.55
-265.953
-267.626
-254.552
-270.687
-269.256
-341.212
-326.911
-514.255
-1.70505
-2464.42
-1034.56
-282.783
-181.981
-313.962
-274.22
-265.141
-266.289
-252.728
-269.539
-268.807
-339.898
-324.026
-501.364
10.493
-2517.72
-1034.43
-282.728
-181.904
-313.75
-273.938
-264.661
-266.061
-252.509
-271.186
-270.078
-340.952
-322.624
-515.648
21.5445
-2520.15
-1034.39
-282.765
-181.843
-313.574
-273.617
-263.858
-264.886
-250.121
-269.437
-268.248
-338.115
-318.871
-488.688
40.8974
-2624.3
-1126.31
-311.132
-200.544
-350.784
-313.969
-307.227
-320.996
-303.779
-348.091
-324.376
-446.586
-346.419
-669.36
100.719
-3174.6
-1126.24
-311.057
-200.559
-350.865
-314.164
-307.919
-322.12
-306.124
-350.519
-326.532
-452.028
-347.824
-677.072
100.339
-3149.87
-1126.27
-311.137
-200.63
-351.045
-314.417
-308.378
-322.245
-306.218
-348.548
-325.178
-449.679
-352.201
-673.275
68.2919
-3130.12
-1126.23
-311.031
-200.636
-351.147
-314.64
-309.116
-323.541
-308.071
-349.796
-326.125
-452.653
-354.982
-705.203
48.4698
-3063.05
-1126.33
-311.096
-200.708
-351.338
-314.886
-309.486
-323.761
-308.026
-348.77
-324.222
-447.964
-354.244
-674.326
48.7593
-3148.14
-1126.23
-310.983
-200.713
-351.384
-315.001
-309.921
-324.614
-309.043
-349.679
-324.3
-449.367
-352.058
-678.583
78.8757
-3167.51
-1126.28
-311.058
-200.782
-351.504
-315.114
-310.018
-324.626
-308.932
-349.521
-322.548
-447.616
-341.729
-634.529
57.8961
-3264.81
-1126.15
-310.95
-200.729
-351.414
-315.004
-310.063
-324.988
-309.572
-351.251
-322.774
-462.581
-319.819
-848.425
-63.5787
-2962.27
-1126.15
-311.01
-200.75
-351.445
-315.019
-309.935
-324.508
-308.765
-349.364
-322.23
-448.26
-340.862
-645.325
59.89
-3237.51
-1126.02
-310.853
-200.666
-351.27
-314.825
-309.748
-324.344
-308.668
-349.137
-323.424
-448.185
-348.778
-674.606
79.2854
-3179.46
-1126.01
-310.858
-200.665
-351.169
-314.643
-309.241
-323.363
-307.501
-347.996
-323.071
-446.177
-352.296
-667.345
55.8357
-3140.04
-1125.88
-310.727
-200.569
-350.929
-314.343
-308.796
-323.012
-307.401
-348.754
-324.618
-450.243
-352.257
-698.941
48.549
-3059.29
-1125.84
-310.758
-200.532
-350.781
-314.062
-307.981
-321.594
-305.41
-347.283
-323.374
-446.936
-349.056
-667.463
68.7959
-3112.78
-1125.71
-310.705
-200.452
-350.569
-313.775
-307.474
-321.397
-305.239
-349.123
-324.509
-449.055
-344.084
-670.63
98.9074
-3133.94
-1125.67
-310.749
-200.403
-350.44
-313.518
-306.708
-320.152
-302.765
-346.443
-322.081
-443.237
-342.335
-662.755
101.309
-3153.78
-1225.19
-349.752
-222.734
-394.849
-362.965
-356.996
-386.747
-361.515
-441.244
-380.59
-586.656
-362.349
-804.117
166.755
-4569.05
-1225.13
-349.659
-222.732
-394.882
-363.088
-357.649
-387.917
-363.739
-444.41
-382.471
-604.575
-362.797
-1102.39
19.4576
-3959.19
-1225.16
-349.725
-222.802
-395.06
-363.334
-358.113
-388.005
-363.7
-442.077
-380.818
-595.68
-374.254
-913.94
105.563
-4092.11
-1225.1
-349.629
-222.803
-395.125
-363.488
-358.819
-389.255
-365.499
-443.169
-381.486
-599.543
-379.253
-961.981
90.0921
-3985.39
-1225.17
-349.697
-222.885
-395.311
-363.71
-359.168
-389.307
-365.2
-441.114
-378.612
-585.435
-375.712
-879.239
100.411
-4129.98
-1225.08
-349.566
-222.875
-395.329
-363.764
-359.565
-390.078
-366.111
-441.807
-377.956
-587.477
-370.19
-881.159
143.501
-4154.5
-1225.11
-349.635
-222.953
-395.452
-363.859
-359.628
-389.932
-365.732
-440.717
-375.4
-579.736
-357.191
-771.029
119.242
-4332.33
-1224.98
-349.514
-222.891
-395.345
-363.716
-359.642
-390.306
-366.314
-443.219
-374.609
-611.134
-323.179
-1077.8
-180.166
-3814.09
-1224.97
-349.579
-222.919
-395.388
-363.74
-359.523
-389.76
-365.518
-440.404
-374.857
-580.18
-355.143
-766.644
125.163
-4331.51
-1224.82
-349.439
-222.833
-395.21
-363.544
-359.352
-389.699
-365.653
-440.939
-376.697
-585.371
-364.536
-872.86
149.692
-4161.85
-1224.78
-349.459
-222.832
-395.113
-363.389
-358.864
-388.753
-364.561
-439.882
-376.995
-581.999
-372.058
-865.831
111.948
-4122.9
-1224.63
-349.317
-222.736
-394.87
-363.106
-358.442
-388.547
-364.686
-441.598
-379.445
-595.574
-374.774
-954.148
89.4147
-3970.45
-1224.58
-349.328
-222.713
-394.748
-362.883
-357.649
-387.135
-362.706
-440.225
-378.378
-591.409
-369.425
-905.685
104.986
-4058.14
-1224.45
-349.264
-222.642
-394.541
-362.6
-357.133
-386.958
-362.646
-442.402
-379.733
-600.527
-357.011
-1106.95
10.8292
-3918.21
-1224.4
-349.293
-222.593
-394.441
-362.384
-356.38
-385.617
-360.226
-438.878
-377.396
-581.168
-355.561
-787.354
160.676
-4550.41
-1323.8
-400.748
-251.48
-449.311
-429.97
-423.958
-479.832
-438.036
-572.388
-446.258
-776.099
-360.276
-1231.3
238.703
-4966.25
-1323.7
-400.634
-251.444
-449.277
-429.97
-424.579
-480.983
-440.308
-576.271
-450.395
-806.6
-357.922
-1481.76
29.0031
-4526.9
-1323.71
-400.67
-251.501
-449.441
-430.167
-425.09
-480.982
-440.595
-574.124
-450.918
-802.084
-394.266
-1335.17
152.15
-4882.54
-1323.6
-400.552
-251.467
-449.448
-430.184
-425.769
-482.072
-442.661
-575.626
-452.649
-815.938
-393.878
-1440.8
138.976
-4957.61
-1323.61
-400.598
-251.539
-449.622
-430.331
-426.146
-481.846
-442.481
-571.955
-450.562
-783.774
-406.786
-1169.2
222.007
-5433.76
-1323.49
-400.441
-251.491
-449.598
-430.278
-426.521
-482.447
-443.475
-572.312
-449.265
-782.338
-388.95
-1132.03
287.29
-5501.76
-1323.47
-400.479
-251.557
-449.718
-430.33
-426.594
-482.096
-443.103
-570.307
-448.214
-775.683
-404.481
-1065.75
168.232
-5683.61
-1323.31
-400.342
-251.477
-449.587
-430.137
-426.574
-482.445
-443.643
-573.01
-446.577
-803.341
-366.015
-1315.61
-267.087
-4926.15
-1323.26
-400.389
-251.504
-449.633
-430.167
-426.467
-481.844
-442.852
-569.847
-447.372
-777.173
-399.959
-1136.1
169.579
-5570.37
-1323.07
-400.259
-251.414
-449.45
-429.981
-426.274
-481.901
-442.955
-570.985
-447.601
-778.496
-382.868
-1106.99
254.879
-5572.7
-1322.97
-400.304
-251.418
-449.37
-429.883
-425.785
-481.034
-441.727
-570.09
-448.384
-778.312
-402.915
-1146.21
260.194
-5373.66
-1322.8
-400.181
-251.317
-449.117
-429.637
-425.329
-481.036
-441.7
-573.254
-449.819
-808.217
-390.492
-1393.48
150.361
-5010.2
-1322.73
-400.185
-251.313
-449.016
-429.509
-424.545
-479.715
-439.39
-571.393
-447.399
-794.272
-387.831
-1306.72
159.687
-4864.16
-1322.6
-400.117
-251.257
-448.817
-429.267
-423.978
-479.597
-438.999
-573.329
-446.338
-798.444
-348.984
-1454.11
25.2455
-4480.13
-1322.55
-400.14
-251.225
-448.757
-429.128
-423.213
-478.196
-436.452
-569.001
-441.539
-766.545
-349.847
-1203.55
241.578
-4877.78
-1422.06
-467.732
-285.294
-510.435
-504.666
-492.182
-576.104
-509.449
-712.388
-514.274
-1049.97
-398.905
-1820.89
21.9627
-5460.73
-1421.98
-467.665
-285.277
-510.425
-504.638
-492.967
-577.326
-511.329
-713.728
-516.184
-1061.45
-392.569
-1938.78
-149.325
-5494.97
-1421.99
-467.708
-285.326
-510.59
-504.743
-493.549
-576.917
-511.508
-709.232
-513.885
-1038.67
-415.914
-1799.96
34.394
-6267.43
-1421.89
-467.638
-285.301
-510.616
-504.655
-494.289
-577.512
-513.266
-707.208
-511.781
-1036.5
-403.023
-1970.07
-46.5821
-6537.75
-1421.89
-467.712
-285.372
-510.812
-504.705
-494.764
-576.679
-513.008
-699.549
-509.409
-981.159
-431.091
-1459.04
209.692
-7294.95
-1421.78
-467.608
-285.329
-510.809
-504.558
-495.201
-576.824
-513.914
-697.005
-505.264
-964.562
-375.026
-1372.53
128.77
-7590.4
-1421.75
-467.664
-285.398
-510.953
-504.562
-495.362
-576.242
-513.803
-695.173
-508.328
-984.061
-419.431
-1694.91
-164.247
-7182.69
-1421.61
-467.557
-285.329
-510.835
-504.33
-495.342
-576.405
-514.231
-695.315
-504.05
-975.513
-366.134
-1642.55
-346.787
-6383.18
-1421.55
-467.611
-285.375
-510.894
-504.375
-495.268
-575.94
-513.653
-694.467
-507.25
-983.411
-410.027
-1736.91
-215.831
-6941.95
-1421.38
-467.49
-285.301
-510.719
-504.223
-495.03
-576.186
-513.624
-695.41
-504.145
-959.52
-373.399
-1346.23
22.978
-7603.48
-1421.28
-467.521
-285.326
-510.648
-504.195
-494.512
-575.723
-512.531
-697.357
-507.459
-974.673
-424.466
-1432.78
237.692
-7163.68
-1421.12
-467.403
-285.252
-510.392
-504.021
-493.989
-576.294
-512.706
-704.477
-509.763
-1027.89
-402.039
-1929
-74.835
-6499.42
-1421.04
-467.366
-285.246
-510.256
-503.945
-493.151
-575.4
-510.73
-706.061
-511.243
-1030.51
-413.041
-1766.25
24.3964
-6179.87
-1420.9
-467.306
-285.232
-510.058
-503.791
-492.536
-575.666
-510.508
-710.357
-513.129
-1053.51
-388.582
-1907.69
-166.048
-5374.4
-1420.82
-467.259
-285.198
-509.943
-503.638
-491.552
-574.1
-508.304
-708.533
-510.421
-1041.63
-390.584
-1792.99
28.8154
-5298.41
-1484.02
-563.098
-336.499
-577.802
-619.906
-597.379
-744.227
-633.578
-947.518
-652.629
-1227.66
-664.726
-1251.13
495.345
-8100.97
-1483.91
-563.012
-336.432
-577.772
-619.57
-598.289
-744.722
-635.706
-949.326
-655.178
-1265.42
-658.166
-1434.32
246.686
-8377.09
-1483.84
-562.961
-336.375
-577.927
-619.372
-599.056
-743.279
-636.85
-944
-656.901
-1259.97
-661.827
-1550.63
535.339
-8708.38
-1483.69
-562.886
-336.271
-577.944
-618.907
-599.912
-742.749
-639.505
-941.911
-659.247
-1291.68
-622.395
-1861.91
209.695
-8964.37
-1483.6
-562.928
-336.277
-578.165
-618.623
-600.643
-740.767
-640.4
-932.831
-658.034
-1259.11
-607.546
-1613.8
798.349
-9590.88
-1483.4
-562.838
-336.15
-578.148
-618.166
-601.18
-739.922
-641.618
-927.938
-650.248
-1244.32
-518.465
-1462.1
368.934
-10402.1
-1483.23
-562.867
-336.158
-578.305
-617.975
-601.488
-738.76
-641.663
-925.772
-649.347
-1287.31
-538.921
-2215.38
-451.716
-9423.67
-1482.95
-562.744
-336.021
-578.166
-617.613
-601.47
-738.481
-642.128
-922.15
-644.459
-1229.14
-465.355
-1949.64
-56.9773
-8416.31
-1482.74
-562.733
-336.024
-578.223
-617.664
-601.43
-738.206
-641.645
-924.127
-648.391
-1280.57
-531.217
-2174.4
-537.031
-9135.3