/*--------------------------------*- C++ -*----------------------------------*\
| =========                 |                                                 |
| \\      /  F ield         | OpenFOAM: The Open Source CFD Toolbox           |
|  \\    /   O peration     | Version:  4.1                                   |
|   \\  /    A nd           | Web:      www.OpenFOAM.org                      |
|    \\/     M anipulation  |                                                 |
\*---------------------------------------------------------------------------*/
FoamFile
{
    version     2.0;
    format      ascii;
    class       surfaceScalarField;
    location    "4";
    object      phi;
}
// * * * * * * * * * * * * * * * * * * * * * * * * * * * * * * * * * * * * * //

dimensions      [0 3 -1 0 0 0 0];

internalField   nonuniform List<scalar> 
19125
(
407.854
-10.412
1090.99
314.813
24.099
843.033
187.602
-13.1357
265.867
54.9765
-1.10315
53.8052
-60.0743
17.7075
-142.664
-111.158
-42.187
-339.299
-103.953
-70.9088
-569.423
-60.9815
-90.1184
-754.445
10.3445
-18.9543
-920.599
105.499
11.267
-900.291
153.538
-8.86893
-527.578
234.306
-8.11813
76.2636
326.857
48.2257
186.609
-62.7387
103.833
425.961
-111.007
2002.39
401.144
-10.3665
1107.03
310.561
25.9769
841.677
179.05
-22.9283
262.756
43.2845
3.22943
50.2094
-66.9035
38.8726
-148.667
-115.495
-24.4736
-346.904
-109.105
-44.582
-580.537
-72.095
-49.7623
-777.028
1.72092
14.2444
-962.122
105.95
32.6662
-935.745
144.661
59.4228
-567.211
195.461
131.741
105.546
382.22
35.9534
226.945
22.3178
22.3616
291.075
-85.9806
2101.83
399.693
-10.0967
1111.98
308.783
27.2855
840.945
155.396
-13.7869
262.264
15.8813
2.70327
43.0803
-75.5566
35.8266
-156.882
-118.862
-12.7427
-353.609
-103.706
-29.7344
-582.022
-53.1588
-31.8143
-769.537
27.2963
32.3276
-951.264
134.432
45.9191
-944.986
195.877
85.04
-589.436
250.858
205.427
11.8439
421.396
37.5382
181.947
41.8511
-32.1167
278.324
-55.3325
2115.91
397.067
-9.2301
1121.38
305.357
26.5823
839.11
149.043
-3.10853
260.859
5.49275
4.33366
43.3672
-86.3261
30.2152
-160.801
-126.827
-4.80057
-359.282
-108.143
-20.6839
-587.125
-51.6569
-24.599
-768.094
34.7349
39.3626
-929.827
148.19
54.5021
-943.48
242.877
77.5003
-609.869
316.28
188.092
-62.3699
452.29
46.6567
142.29
37.8795
-40.1655
297.21
-36.6529
2138.57
395.556
-8.2473
1127.61
304.216
24.0842
838.425
132.717
20.111
258.191
-13.9438
2.81137
38.0987
-91.8146
6.94809
-166.838
-129.561
-2.66769
-368.616
-110.795
-16.091
-598.909
-55.0532
-20.9337
-777.98
38.498
35.6288
-926.782
163.923
52.3404
-951.117
270.788
59.0576
-638.945
347.916
139.69
-117.608
471.48
41.3296
121.677
36.2726
-41.8862
323.508
-20.7646
2147.67
393.007
-6.2843
1136.11
305.526
15.343
837.65
110.461
60.6888
250.689
-42.6095
-0.261307
28.046
-96.4649
-43.1383
-172.707
-129.903
-7.63512
-377.263
-111.787
-15.1783
-609.203
-58.306
-19.2211
-786.422
38.731
25.0923
-924.209
173.992
42.7384
-955.327
286.585
38.1632
-664.691
359.61
82.9902
-155.622
477.189
25.0221
111.957
32.6329
-47.9965
347.726
-8.40571
2153.06
389.477
-2.32668
1145.6
300.726
4.02267
835.398
170.498
39.728
247.923
33.9009
-1.86453
37.7284
-72.4244
-34.4987
-168.097
-116.913
-6.35982
-382.319
-111.228
-7.1925
-621.332
-69.2768
-8.85833
-806.04
32.5198
8.52557
-942.938
187.512
17.1981
-970.578
311.662
13.7235
-704.661
377.522
28.3232
-207.721
485.197
9.29359
93.3951
35.5681
-28.6174
334.812
-1.05808
2151.78
388.134
2.34923
1150.16
293.964
-4.62807
833.182
228.67
-39.7143
248.098
110.124
1.97491
56.8262
-44.451
34.4381
-152.649
-103.113
6.50739
-378.642
-107.464
7.48602
-623.996
-74.6497
8.94314
-817.421
27.8045
-8.7031
-958.519
194.431
-17.477
-981.453
327.026
-13.3434
-728.86
391.993
-26.7819
-240.349
492.489
-7.83396
76.9473
37.9112
30.4264
311.471
0.842087
2140.89
389.593
6.26127
1145.31
300.697
-15.6884
835.503
170.583
-60.6772
248.127
33.9587
0.510802
37.903
-72.5231
43.2458
-168.029
-117.048
7.90306
-382.284
-111.313
15.5668
-621.351
-69.2807
19.3588
-806.102
32.4595
-25.2886
-942.636
187.502
-43.1003
-970.124
311.777
-37.8218
-704.829
377.748
-81.7182
-208.115
485.559
-24.1656
93.2211
35.5713
48.5294
335.654
8.46524
2151.71
393.085
8.21213
1135.83
305.566
-24.2953
837.755
110.569
-20.0654
250.863
-42.5717
-2.42074
28.132
-96.4713
-6.76338
-172.671
-129.866
2.96315
-377.231
-111.684
16.4956
-609.195
-58.1207
21.0327
-786.462
38.9044
-35.8913
-924.05
174.212
-52.7563
-955.222
286.859
-58.7622
-665.061
359.894
-138.668
-156.241
477.447
-40.8715
111.583
32.4684
42.246
348.064
20.8483
2152.75
395.629
9.19927
1127.3
304.313
-26.7133
838.53
132.725
3.32946
258.346
-13.9581
-3.88296
38.1175
-91.661
-30.1571
-166.827
-129.323
5.06449
-368.584
-110.477
21.0511
-598.919
-54.6796
24.6308
-778.037
38.8792
-39.7235
-926.646
164.361
-54.9726
-951.263
271.282
-77.3055
-639.567
348.38
-187.407
-118.553
471.827
-46.4741
121.134
36.1208
40.4622
323.661
36.769
2147.38
397.138
10.0725
1121.07
305.47
-27.3538
839.221
149.276
13.979
261.005
5.87183
-2.2601
43.4216
-85.9023
-35.7276
-160.778
-126.34
12.9716
-359.251
-107.601
30.0358
-587.163
-51.0905
31.7708
-768.239
35.2844
-32.7523
-929.893
148.748
-46.4068
-943.859
243.524
-85.0281
-610.584
316.832
-205.08
-63.4829
452.612
-37.4921
141.784
37.7234
32.3098
297.373
55.5104
2138.28
399.768
10.3494
1111.66
308.927
-26.0036
841.049
155.723
23.0432
262.387
16.4502
-2.82583
43.1504
-74.8891
-38.7639
-156.853
-118.141
24.6548
-353.583
-102.968
44.7924
-582.098
-52.4586
49.6713
-769.831
27.9368
-14.7192
-951.519
135.094
-33.2061
-945.535
196.55
-59.5439
-590.181
251.29
-131.684
10.9187
421.549
-35.8589
181.581
41.6544
-22.3852
278.509
86.2393
2115.58
401.222
10.4013
1106.7
310.728
-24.1013
841.773
179.339
13.2374
262.853
43.851
1.43609
50.2804
-66.1068
-17.6612
-148.628
-114.608
42.2691
-346.886
-108.207
70.975
-580.633
-71.21
89.919
-777.423
2.50176
18.333
-962.391
106.659
-11.9182
-936.29
145.163
8.7951
-567.864
195.597
8.50131
104.803
382.231
-48.1034
226.654
22.0863
-104.045
291.288
111.355
2101.44
407.941
1090.66
315.008
843.118
187.975
265.936
55.686
53.8869
-59.0879
-142.607
-110.094
-339.308
-102.921
-569.578
-59.9864
-755.025
11.1376
-920.961
106.088
-900.739
153.985
-527.997
234.467
75.689
326.584
186.436
-63.2153
426.746
2001.72
1255.82
-15.4357
614.228
1215.98
11.2932
877.467
991.676
20.3857
484.056
780.372
30.6815
256.607
602.445
40.669
23.8747
483.094
46.322
-229.549
389.624
42.5714
-488.851
324.055
-4.52403
-720.479
330.078
56.1805
-952.022
394.814
17.9443
-964.429
445.894
-20.0715
-583.725
426.404
9.6788
29.8533
133.241
96.5373
395.967
-620.522
179.808
1119.17
-180.049
1883.02
1251.34
-15.4326
625.771
1207.73
13.3041
883.278
984.87
21.0343
484.973
777.46
33.2319
255.069
605.175
44.4545
19.8325
488.695
50.5124
-234.616
390.177
54.2753
-493.723
305.918
35.8267
-733.12
315.103
74.7941
-989.92
399.285
-2.53939
-999.443
452.014
-17.6914
-622.32
455.742
103.603
7.89358
212.002
186.545
380.679
-554.111
142.459
1094.54
-171.999
1982.88
1251.26
-15.4938
629.358
1206.66
14.7425
884.108
981.292
23.2546
485.412
770.952
31.7728
254.88
598.458
42.2849
17.7813
482.812
49.2129
-236.664
392.542
53.2546
-490.731
327.827
45.112
-714.107
338.293
85.5757
-972.512
396.864
-3.307
-1002.79
434.512
-28.1584
-616.617
444.266
131.727
-26.0339
244.803
219.719
348.237
-511.872
101
1076.46
-137.523
2011.12
1250.36
-15.2586
636.404
1203.54
14.1347
886.549
975.785
26.2257
485.641
764.605
31.7952
254.525
592.56
37.8789
15.6508
477.585
44.2628
-239.358
390.216
44.8516
-491.353
335.799
35.3022
-703.866
349.23
90.2853
-947.967
397.937
12.404
-1007.9
421.059
-30.472
-630.677
425.775
111.887
-47.2444
259.536
196.101
332.149
-490.399
71.2782
1076.87
-97.1195
2045.1
1250.09
-15.3921
641.221
1201.93
12.504
888.224
972.496
27.8892
485.962
760.767
27.2145
254.41
589.726
28.0435
14.0381
474.877
32.8871
-242.391
385.056
30.0343
-494.271
328.321
18.3834
-704.326
347.133
83.2444
-938.552
404.108
22.4796
-1018.17
422.384
-32.9452
-654.747
415.536
73.2893
-72.1623
249.104
153.767
330.445
-499.557
47.1585
1096.29
-66.853
2054.54
1248.57
-14.4441
647.707
1199.97
7.69819
891.058
970.713
21.9562
485.88
758.866
13.9761
253.132
590.108
12.7263
11.3682
476.268
15.4452
-245.982
384.73
9.73112
-497.362
323.971
-2.07196
-705.207
346.006
66.1022
-929.103
411.203
30.8772
-1028.92
427.73
-31.5805
-682.583
412.673
29.7697
-97.0449
238.809
108.094
331.496
-512.852
29.5607
1116.99
-52.4917
2060.75
1242.53
-6.44746
655.328
1188.64
2.09941
894.881
965.938
7.69181
484.897
766.151
1.34638
250.146
601.993
0.219459
8.56835
483.061
1.85129
-249.794
378.289
-0.830599
-505.998
299.221
-6.33342
-722.711
338.328
25.8253
-941.767
436.704
15.7105
-1053.79
449.128
-15.1788
-733.486
407.401
2.90979
-139.133
255.252
43.2406
310.4
-481.164
10.3059
1090.48
-23.9897
2078.35
1238.8
6.33061
659.071
1180.06
-2.72184
896.751
960.935
-8.35308
483.27
772.96
-1.81214
247.961
613.413
-0.556482
7.6738
489.331
-2.3793
-250.331
375.31
0.226888
-511.032
281.882
5.57924
-735.906
331.506
-27.0501
-955.266
454.379
-17.4235
-1071.19
463.896
14.018
-767.573
397.472
-2.68629
-168.328
273.43
-43.5238
287.757
-441.792
-9.62326
1046.62
25.0711
2089.1
1242.58
14.3088
655.101
1188.7
-8.13997
894.803
965.986
-22.3793
484.87
766.178
-14.2315
250.132
601.985
-12.9288
8.53613
483.015
-15.7998
-249.894
378.241
-10.1727
-506.178
299.166
1.3977
-722.845
338.28
-67.5083
-941.292
436.851
-32.5417
-1053.58
449.191
30.8135
-733.964
407.181
-29.51
-139.28
253.76
-107.769
310.891
-482.928
-29.231
1091.95
52.7309
2077.3
1248.56
15.2692
647.512
1200
-12.8214
890.999
970.802
-28.1676
485.855
758.961
-27.3644
253.107
590.207
-28.1711
11.3249
476.35
-33.1261
-246.048
384.806
-30.3734
-497.451
324.048
-19.0423
-705.263
346.022
-84.694
-928.839
411.277
-24.054
-1028.96
427.676
32.3431
-682.989
412.186
-72.9056
-97.3542
237.849
-153.41
331.562
-513.771
-46.8754
1117.33
66.9135
2059.78
1250.07
15.1565
641
1202
-14.3632
888.146
972.662
-26.4066
485.927
760.952
-31.9071
254.371
589.94
-37.9662
13.9803
475.104
-44.414
-242.461
385.293
-45.1097
-494.371
328.562
-35.9515
-704.398
347.332
-91.7607
-938.349
404.307
-13.8659
-1018.43
422.275
29.9964
-655.189
414.879
-111.583
-72.4777
248.179
-195.989
330.414
-500.365
-71.0782
1096.41
97.2509
2053.47
1250.33
15.4118
636.177
1203.63
-14.9009
886.471
975.999
-23.3699
485.597
764.886
-31.8423
254.471
592.906
-42.3386
15.5748
477.975
-49.2944
-239.439
390.623
-53.4386
-491.482
336.176
-45.7072
-704.036
349.507
-86.9852
-948
398.102
1.97011
-1008.29
420.794
27.7848
-631.064
424.98
-131.716
-47.5354
258.51
-219.886
332.154
-491.258
-100.973
1077.04
137.7
2044.01
1251.23
15.372
629.11
1206.78
-13.4069
884.009
981.556
-21.1071
485.349
771.33
-33.2676
254.803
598.938
-44.4832
17.6843
483.354
-50.5363
-236.756
393.091
-54.3855
-490.888
328.297
-36.3221
-714.422
338.603
-76.0723
-972.737
397.017
1.27865
-1003.26
434.23
17.3461
-616.955
443.496
-103.749
-26.3124
243.673
-186.76
348.28
-512.828
-142.603
1076.64
172.196
2009.92
1251.31
15.3965
625.5
1207.87
-11.3502
883.165
985.146
-20.4263
484.899
777.874
-30.6971
254.983
605.726
-40.6823
19.7201
489.345
-46.3218
-234.718
390.894
-42.6716
-493.895
306.681
4.01799
-733.55
315.655
-57.4023
-990.034
399.477
-19.0193
-999.813
451.824
19.7533
-622.616
455.076
-9.76403
7.56819
210.826
-96.5927
380.739
-555.093
-180.087
1094.69
180.243
1981.62
1255.81
613.948
1216.15
877.338
991.995
483.96
780.863
256.496
603.115
23.7321
483.871
-229.681
390.46
-489.066
324.846
-721.104
330.472
-952.142
394.755
-964.676
445.426
-583.775
425.407
29.7543
131.84
396.161
-621.434
1119.27
1881.62
1415.98
-3.5798
191.374
1641.38
-8.05521
653.929
1574.01
3.83688
548.796
1413.13
16.1855
412.743
1211.55
23.5864
219.71
990.857
26.4085
-15.0609
749.088
23.4267
-257.498
522.877
-3.85899
-524.278
370.975
56.7801
-820.051
194.111
-60.3999
-774.163
-131.039
-31.2815
-260.05
-574.37
120.268
408.961
-1114.3
128.097
884.864
-1417.29
79.0617
1391.47
-111.075
1178.44
1419.08
-3.63798
194.925
1641.23
-6.94894
660.027
1572.63
4.63905
552.775
1412.55
16.9379
414.4
1211.89
24.6814
219.396
990.777
27.7486
-14.8456
744.33
32.9561
-256.806
502.637
33.0317
-528.317
361.373
55.9332
-847.809
197.72
-93.8278
-802.362
-116.17
-48.5208
-291.19
-542.289
173.237
381.045
-1089.91
174.346
882.054
-1414.98
75.6392
1423.03
-111.7
1241.76
1420.19
-3.64558
196.06
1642.38
-6.48502
661.464
1573.47
5.4467
553.518
1413.56
16.6373
415.092
1211.85
24.1007
220.071
988.497
27.0431
-12.6068
748.994
33.1285
-251.401
531.368
44.7342
-508.184
381.299
65.0015
-831.511
177.398
-92.9365
-799.778
-153.295
-53.3312
-281.113
-559.675
173.342
380.241
-1081.51
169.213
875.205
-1408.05
55.9396
1422.7
-99.5143
1261.02
1422.29
-3.64922
198.383
1644.09
-6.43834
664.706
1574.09
5.72714
555.355
1413.27
16.1205
415.873
1210.67
22.3592
219.989
986.13
24.2863
-12.0623
749.314
28.0585
-249.468
546.169
39.9197
-495.906
396.573
80.9933
-814.363
171.988
-65.6547
-810.595
-168.322
-53.298
-290.401
-560.576
147.663
370.69
-1070.24
139.541
871.486
-1401.79
34.5133
1429.84
-78.9403
1288.45
1423.84
-3.85106
199.993
1645.37
-6.75276
667.01
1574.75
5.4759
556.833
1413.64
14.4005
417.242
1210.22
18.4683
221.353
984.189
17.4727
-9.5477
745.297
18.5855
-245.906
543.107
27.2193
-489.435
398.822
90.2528
-803.527
175.198
-37.6732
-822.525
-169.525
-58.4963
-304.825
-563.386
112.041
357.32
-1077.05
112.356
871.295
-1406.67
25.8083
1434.62
-59.8684
1295.09
1425.76
-4.0079
202.082
1646.53
-6.69235
670.234
1575.76
3.24789
558.881
1414.95
9.58986
418.748
1211
11.4553
222.338
983.638
7.2644
-8.41598
744.209
5.18082
-244.529
542.39
8.82612
-484.995
405.021
89.5799
-791.061
185.732
-6.63242
-840.673
-167.019
-60.7125
-327.615
-565.845
69.1752
344.648
-1084.83
89.4716
873.369
-1413.13
29.3868
1441.71
-47.1782
1300.82
1426.63
-2.13723
204.687
1642.91
-3.11542
675.029
1568.21
0.619061
562.224
1405.35
2.62455
419.974
1201.09
2.96718
221.313
970.907
-0.0831265
-12.2614
724.348
-1.70393
-252.554
511.424
-1.71194
-499.248
413.62
40.7143
-795.097
230.735
3.78516
-881.321
-152.785
-30.1549
-380.523
-560.69
22.2931
315.656
-1060.83
37.9446
862.073
-1399.06
17.0093
1441.09
-20.5129
1319.68
1426.55
1.60117
206.001
1639.89
2.71792
677.588
1561.25
-1.25163
563.774
1395.71
-3.28534
419.414
1191.42
-3.62714
218.557
959.823
-0.639805
-18.1738
708.601
0.848856
-262.363
484.568
0.689387
-514.274
415.981
-42.6017
-803.364
265.316
-6.18932
-910.553
-139.296
28.0764
-421.192
-551.288
-23.5244
289.483
-1030.87
-39.2577
844.538
-1381.1
-18.1337
1432.01
20.5891
1335.48
1426.36
3.76421
204.688
1642.65
6.31295
674.927
1567.92
-3.75954
562.102
1405.07
-10.1244
419.829
1200.85
-12.0252
221.154
970.724
-7.95589
-12.4543
724.215
-6.09031
-252.73
511.321
-10.0029
-499.259
413.827
-91.9397
-794.46
231.287
4.56094
-881.787
-152.904
59.6848
-381.381
-561.766
-69.558
315.616
-1062.41
-90.0301
862.314
-1399.98
-29.674
1441.05
46.9606
1318.08
1425.6
3.66857
202.108
1646.38
6.41141
670.124
1575.63
-5.90788
558.759
1414.86
-14.8588
418.613
1210.93
-18.9756
222.209
983.591
-18.1294
-8.54013
744.171
-19.4889
-244.633
542.347
-28.444
-484.997
404.94
-92.6548
-790.716
185.719
35.7684
-840.95
-167.309
57.7134
-327.99
-566.614
-112.072
344.466
-1085.73
-112.613
873.264
-1413.58
-25.993
1441.5
59.5078
1299.61
1423.68
3.48613
200.015
1645.25
6.14312
666.849
1574.69
-6.07771
556.662
1413.63
-16.5106
417.081
1210.23
-22.8086
221.209
984.23
-24.9065
-9.67985
745.36
-28.9429
-246.047
543.185
-41.1474
-489.519
398.855
-83.3825
-803.291
175.137
63.8686
-822.808
-170.033
52.6408
-304.945
-564.378
-147.485
357.282
-1078.04
-139.691
871.159
-1407.1
-34.6742
1434.15
78.7511
1293.5
1422.12
3.49609
198.399
1643.97
6.2526
664.516
1574.05
-5.71564
555.159
1413.28
-16.9618
415.69
1210.73
-24.4906
219.811
986.233
-27.6114
-12.2421
749.442
-33.9505
-249.683
546.255
-45.8485
-496.147
396.526
-67.2918
-814.361
171.685
91.2737
-810.854
-169.099
52.746
-290.385
-561.707
-173.087
370.676
-1071.28
-169.318
871.358
-1402.24
-56.1007
1429.43
99.3826
1286.89
1420.01
3.51379
196.051
1642.27
6.76944
661.239
1573.46
-4.84101
553.29
1413.63
-17.1948
414.867
1211.97
-24.9938
219.844
988.669
-28.2181
-12.8453
749.162
-33.6333
-251.698
531.424
-33.9166
-508.615
381.164
-58.0217
-831.746
176.921
92.2573
-799.997
-154.313
48.0057
-280.979
-560.998
-172.994
380.282
-1082.66
-174.406
875.028
-1408.52
-75.7617
1422.17
111.612
1259.35
1418.89
3.49159
194.875
1641.13
7.92407
659.779
1572.64
-3.98361
552.534
1412.65
-16.3735
414.153
1212.05
-23.8178
219.144
990.998
-26.7616
-15.1219
744.593
-23.9515
-257.171
502.933
3.11553
-528.922
361.429
-58.5815
-847.97
197.194
59.2034
-802.523
-117.347
30.938
-291.006
-543.747
-120.15
381.125
-1091.09
-128.187
881.863
-1415.43
-79.1735
1422.45
110.994
1240.06
1415.8
191.29
1641.3
653.654
1574.05
548.527
1413.28
412.456
1211.77
219.415
991.133
-15.3775
749.41
-257.94
523.116
-525.063
370.745
-820.071
193.211
-774.123
-132.464
-259.701
-575.894
409.071
-1115.4
884.625
-1417.64
1390.79
1176.72
1267.17
0.643507
111.723
1491.49
-7.23001
431.493
1555.58
-6.44698
484.945
1502.76
-0.640306
463.989
1352.51
4.25088
367.433
1120.09
10.7016
212.752
820.917
8.49588
30.6711
478.846
-9.76534
-215.547
126.132
13.4222
-478.393
-389.603
-125.101
-235.165
-984.052
-26.0025
342.682
-1432.74
45.3265
842.296
-1688.61
26.3772
1130.32
-1511.52
-24.4098
1221.33
-32.2946
636.156
1269.15
0.979892
111.566
1494.85
-6.95378
434.054
1558.9
-5.73976
488.019
1505.71
0.429547
466.519
1354.48
5.40518
369.47
1121.8
12.2818
216.256
819.152
21.7042
32.636
467.601
29.6255
-216.157
131.412
2.41363
-500.612
-371.974
-158.219
-265.858
-976.761
-30.92
318.515
-1439.73
53.2698
836.072
-1706.44
33.1899
1141.95
-1532.71
-21.3301
1246.22
-35.6022
654.43
1270.03
0.926269
111.542
1496.52
-6.92422
434.951
1560.94
-5.35997
488.722
1508.53
0.767596
467.166
1357.65
5.87778
370.475
1125.97
12.2782
219.076
835.893
22.2382
38.1453
511.011
43.1389
-196.815
152.765
15.1117
-485.963
-392.123
-149.157
-263.952
-993.693
-36.134
325.671
-1447.31
50.9177
836.206
-1710.16
30.9176
1140.33
-1537.24
-20.6908
1249.15
-36.6057
660.749
1271.29
0.942431
111.471
1499.19
-6.63814
436.517
1564.11
-5.29096
490.378
1511.71
0.470324
468.564
1360.4
5.48325
371.696
1128.12
11.2967
221.201
841.398
18.5054
40.9855
530.854
42.8422
-185.065
168.739
41.3191
-478.455
-393.976
-119.555
-277.483
-997.103
-42.9272
319.52
-1451.24
43.4828
832.267
-1714.49
25.1528
1140.49
-1542.81
-18.1813
1255.66
-33.6498
670.829
1272.33
0.733365
111.486
1501.36
-6.46828
437.816
1566.6
-5.37713
491.68
1514.73
-0.392762
469.976
1364.13
3.84076
373.597
1132.86
8.17046
224.845
846.541
13.1479
45.77
538.571
38.1971
-176.819
177.675
69.5459
-470.858
-388.959
-86.3407
-289.106
-995.275
-54.6813
313.245
-1454.72
32.9739
827.272
-1718.99
22.3283
1138.39
-1544.78
-13.6339
1255.87
-29.3313
672.757
1273.55
0.614827
111.374
1503.73
-5.57122
439.167
1569.25
-5.23267
493.222
1517.68
-1.73665
471.662
1366.96
1.49649
375.397
1135.31
4.11201
227.296
849.939
5.40309
48.5871
547.209
25.4907
-169.558
195.724
90.6925
-460.722
-372.691
-45.5141
-313.084
-991.369
-61.5313
297.913
-1459.62
22.8657
823.008
-1724.9
22.7247
1138.26
-1546.98
-7.28344
1257.43
-23.2523
673.566
1275.4
0.155024
111.306
1506.22
-2.49756
441.139
1569.79
-2.61029
496.038
1514.83
-1.47796
474.682
1360.15
-0.245991
377.733
1123.24
0.507045
228.253
829.889
0.266838
45.9313
525.066
7.6844
-176.618
236.116
48.0797
-463.534
-305.772
-11.6557
-373.292
-968.059
-31.5688
251.801
-1451.96
8.8962
813.526
-1719.34
11.4518
1140.73
-1550.22
-1.92395
1266.61
-11.0816
680.569
1276.2
-0.223303
111.196
1507.25
2.03814
442.011
1568.91
1.96526
497.541
1510.03
0.720799
476.098
1351.07
-0.566444
377.834
1108.88
-1.43008
225.949
808.315
-1.38583
39.8584
498.161
-8.91206
-187.522
260.868
-50.6239
-467.367
-252.134
9.54024
-418.747
-945.957
29.7334
211.33
-1439.21
-10.7419
802.37
-1709.46
-12.9345
1139.18
-1551.97
1.10451
1271.5
8.23427
685.61
1275.37
-0.71734
111.324
1506.1
5.16802
441.071
1569.59
4.66393
495.915
1514.54
1.05708
474.54
1359.84
-2.27664
377.568
1122.93
-5.02304
228.05
829.659
-6.58628
45.7404
525.133
-27.0589
-176.585
236.919
-94.0913
-462.778
-304.467
43.6072
-374.468
-967.371
60.6356
250.621
-1451.72
-23.8447
813.072
-1719.17
-23.618
1140.45
-1549.62
6.6794
1265.92
22.0005
678.877
1273.54
-0.885769
111.374
1503.69
6.0997
439.046
1569.19
4.8713
493.056
1517.59
-0.221193
471.488
1366.88
-4.57366
375.219
1135.24
-9.04484
227.12
849.889
-14.3084
48.4383
547.249
-39.8278
-169.588
195.691
-72.9179
-460.33
-372.637
84.4596
-313.475
-991.337
53.9372
297.409
-1459.68
-33.5976
822.566
-1724.9
-23.0097
1137.87
-1546.87
13.0137
1257.15
28.164
672.656
1272.28
-1.10749
111.46
1501.32
6.29773
437.611
1566.59
4.84046
491.431
1514.73
-1.0279
469.747
1364.13
-6.15139
373.388
1132.85
-12.1081
224.659
846.527
-19.6119
45.5829
538.638
-44.5069
-176.95
177.58
-44.575
-470.574
-389.193
117.74
-289.315
-995.568
42.2586
313.109
-1454.99
-43.9293
827.036
-1719.07
-25.6888
1137.92
-1544.57
17.6205
1255.04
33.0555
671.066
1271.24
-1.15214
111.452
1499.17
6.60114
436.291
1564.1
4.97491
490.096
1511.73
-1.25948
468.294
1360.42
-6.46212
371.432
1128.12
-12.9984
220.945
841.357
-23.2393
40.7105
530.739
-44.6465
-185.39
168.395
-18.0712
-478.52
-394.533
147.444
-277.63
-997.629
35.5605
319.409
-1451.6
-51.2428
831.958
-1714.6
-31.3425
1140.02
-1542.71
20.2137
1254.94
36.2058
669.263
1269.96
-1.24174
111.485
1496.45
6.68276
434.68
1560.88
5.43614
488.398
1508.5
-0.837587
466.827
1357.64
-5.89461
370.136
1125.95
-12.8889
218.736
835.772
-22.534
37.7752
510.662
-30.8046
-197.347
152.185
-4.96734
-486.373
-392.95
156.606
-264.024
-994.462
30.4697
325.624
-1447.79
-53.4979
835.861
-1710.3
-33.5076
1139.71
-1537.08
20.9635
1248.2
35.3556
659.121
1269.03
-0.8557
111.455
1494.72
7.01456
433.764
1558.8
6.2138
487.683
1505.64
0.325415
466.145
1354.44
-4.63365
369.086
1121.75
-11.1796
215.857
819.042
-9.15711
32.1645
467.394
8.81222
-216.89
130.894
-15.5603
-500.876
-372.988
123.842
-265.877
-977.685
25.6742
318.486
-1440.26
-45.4842
835.692
-1706.59
-26.6146
1141.29
-1532.55
24.1376
1245.24
32.0898
652.846
1267.03
111.556
1491.34
431.169
1555.47
484.58
1502.69
463.569
1352.47
366.986
1120.05
212.286
820.803
30.0879
478.527
-216.446
125.276
-478.408
-390.987
-235.002
-985.166
342.673
-1433.32
841.848
-1688.72
1129.56
-1511.3
1220.26
634.572
1206.92
0.401601
161.099
1281.04
-1.81375
357.667
1331.49
-3.87869
434.364
1320.42
-2.1491
473.436
1224.94
0.501797
460.604
1030.89
9.45656
401.55
729.552
0.954151
317.463
316.074
0.182677
157.993
-180.353
-33.9334
13.2042
-753.074
-145.898
362.893
-1211.05
-53.9317
810.945
-1479.85
-21.4502
1115.97
-1536.62
-30.3474
1192.16
-1325.1
-36.8356
1019
-6.31572
560.751
1206.94
0.73224
160.842
1282.53
-1.4811
358.142
1334.37
-3.12326
435.428
1324.54
-0.615303
474.817
1229.69
2.11215
462.706
1037.64
11.8239
405.94
732.364
18.4057
320.461
317.693
37.3758
161.321
-157.336
-46.214
-13.3026
-730.413
-170.786
332.107
-1210.76
-55.5512
800.479
-1494.59
-22.4341
1120.89
-1555.75
-28.8561
1201.62
-1337.05
-34.7305
1025.42
-8.02166
556.879
1207.37
0.624741
160.726
1283.79
-1.47382
358.525
1336.37
-2.78502
435.813
1327.77
0.0599779
475.094
1234.3
2.90064
463.148
1045.85
11.4731
407.882
758.644
20.4121
323.343
369.113
52.732
177.36
-133.241
-25.4902
-4.33291
-738.614
-161.634
332.269
-1214.36
-59.9108
805.778
-1497.77
-23.4602
1120.64
-1560.97
-26.0274
1200.71
-1342.16
-31.9438
1027.55
-13.0365
556.755
1207.34
0.699837
160.584
1284.74
-1.20163
358.851
1338.49
-2.59927
436.442
1331.18
-0.0510451
475.987
1238.66
2.59219
464.525
1050.96
9.84364
410.526
769.828
16.169
326.365
392.843
54.7781
189.874
-113.862
3.88087
-1.1215
-734.349
-136.826
318.195
-1213.37
-64.6743
803.307
-1502.61
-22.7256
1120.76
-1568.42
-21.3996
1201.68
-1347.41
-25.6418
1028.35
-16.6942
554.269
1207.69
0.396879
160.583
1285.98
-1.02754
359.358
1340.52
-2.56023
437.098
1334.73
-0.955258
476.673
1244.75
0.594011
465.58
1060.36
5.94284
413.135
781.808
10.6382
329.852
407.812
54.6736
197.281
-101.933
41.4805
1.2873
-729.877
-105.454
307.467
-1211.87
-71.8385
802.398
-1504.01
-23.3447
1120.03
-1570.72
-17.218
1200.92
-1349.18
-19.9295
1028.62
-19.6908
551.272
1207.65
0.398732
160.399
1286.86
-0.572806
359.509
1342.3
-2.35945
437.582
1337.67
-2.11157
477.45
1248.81
-1.97001
466.823
1065.88
0.82807
415.34
790.339
2.06986
332.696
427.874
43.039
204.543
-74.0738
76.3817
6.32468
-711.602
-62.6553
281.645
-1207.82
-71.8859
794.179
-1506.39
-21.9279
1120.16
-1572.64
-13.2385
1200.53
-1347.92
-14.4794
1027.26
-15.1909
546.136
1208.17
-0.0311785
160.272
1289.32
-0.384268
359.808
1345.86
-1.3206
438.466
1340.98
-1.67115
479.121
1249.41
-1.98995
469.327
1061.58
-1.25612
418.162
777.324
-1.35237
333.612
425.027
16.6098
202.108
-4.45648
45.1818
-2.85039
-635.076
-18.9775
213.65
-1184.19
-35.0405
764.07
-1504.9
-10.0269
1122.33
-1579.05
-5.2758
1206.92
-1353.83
-6.75639
1033.67
-10.4472
545.469
1207.89
0.0103945
160.184
1289.78
0.0224132
359.719
1346.74
0.519824
438.743
1340.46
0.584203
480.121
1244.82
0.827507
470.656
1050.83
0.0329707
418.656
757.776
-0.0613397
331.619
409.27
-18.0261
195.62
43.5869
-48.6262
-7.87405
-567.504
17.6331
155.733
-1158.73
33.7179
733.801
-1498.31
8.7294
1123.19
-1581.24
4.44025
1212.39
-1356.19
5.80803
1033.89
3.76253
539.71
1208.22
-0.450926
160.238
1289.53
0.113731
359.669
1346.05
1.58161
438.345
1340.94
1.17702
479.049
1249.19
0.913722
469.237
1061.28
-2.04043
418.037
777.107
-3.60624
333.456
425.514
-45.1207
202.102
-2.9804
-80.5697
-2.33913
-632.728
60.8396
212.074
-1182.18
70.7843
763.006
-1503.06
20.4861
1122.2
-1577.1
11.8601
1207.07
-1351.62
13.4856
1032.76
13.314
543.633
1207.78
-0.565824
160.286
1287.29
0.385064
359.272
1342.72
1.79387
437.407
1337.92
0.158508
477.312
1248.91
-1.5083
466.653
1065.88
-7.05286
415.163
790.319
-12.1178
332.511
428.09
-56.8831
204.404
-74.0318
-45.3324
6.55533
-711.367
103.557
281.143
-1207.53
70.8228
793.53
-1506.21
22.3163
1119.42
-1572.52
16.1904
1199.85
-1347.95
18.8631
1027.2
17.516
545.844
1207.78
-0.921736
160.385
1286.21
0.540794
359.034
1340.66
1.92775
436.846
1334.78
-0.66585
476.456
1244.75
-3.43644
465.346
1060.33
-10.8893
412.922
781.755
-17.5695
329.606
407.974
-57.0682
197.017
-102.112
-7.0841
1.26364
-730.07
135.049
307.151
-1211.94
63.727
802.074
-1503.95
21.847
1119.52
-1570.41
20.4694
1200.1
-1348.59
24.5575
1027.54
15.8553
549.413
1207.38
-0.961939
160.441
1284.73
0.926146
358.564
1338.35
2.24955
436.157
1331.01
-0.720458
475.692
1238.51
-3.68989
464.191
1050.81
-12.4467
410.197
769.66
-21.6901
325.984
392.566
-54.7656
189.403
-114.373
22.8379
-1.50153
-734.829
160
317.876
-1213.6
59.056
802.853
-1502.57
22.6942
1120.08
-1568.17
25.1791
1200.92
-1347.19
30.9701
1027.55
12.5762
552.624
1207.36
-1.1513
160.541
1283.74
1.0474
358.179
1336.25
2.69976
435.449
1327.61
0.0451776
474.702
1234.13
-2.79521
462.716
1045.63
-12.658
407.451
758.333
-19.4614
322.843
368.447
-38.9109
176.686
-133.969
43.7871
-4.90585
-739.272
169.304
331.976
-1214.71
54.8284
805.29
-1497.78
21.7806
1119.84
-1560.71
28.118
1199.7
-1341.86
33.9314
1026.39
7.79487
555.094
1206.86
-0.763033
160.568
1282.42
1.45364
357.81
1334.22
3.53662
435.049
1324.34
1.69887
474.373
1229.47
-1.04009
462.204
1037.36
-10.1116
405.418
732.014
-1.79167
319.839
317.11
-1.34329
160.447
-158.155
31.9672
-13.7908
-731.21
144.679
331.803
-1211.17
53.3555
799.916
-1494.63
20.9369
1119.99
-1555.52
29.7665
1200.54
-1336.83
36.217
1024.27
6.07733
555.327
1206.8
160.704
1280.86
357.311
1331.27
433.952
1320.17
472.924
1224.67
460.028
1030.56
400.943
729.158
316.71
315.435
156.969
-181.407
12.9493
-754.069
362.604
-1211.55
810.294
-1479.91
1114.95
-1536.35
1190.94
-1324.78
1017.71
559.184
1230.67
-0.478984
201.535
1213.01
-0.582979
375.057
1195.62
-1.3151
450.906
1150.66
1.10288
515.873
1058.07
4.66977
550.082
889.728
15.1229
563.008
619.209
-10.3337
568.832
218.564
-11.773
518.752
-263.309
-56.729
498.46
-720.248
-180.307
838.714
-1049.96
-84.5071
1151.77
-1204.44
-46.2404
1279.29
-1250.51
-38.5249
1243.86
-1211.97
-28.4864
984.74
-15.119
740.075
1230.15
-0.184154
201.533
1212.72
-0.0395475
375.037
1196.35
-0.383478
450.866
1153.29
3.0901
515.894
1063.01
6.48164
551.179
898.971
18.3814
566.717
623.376
13.8583
571.865
226.888
22.1541
523.882
-227.642
-74.1085
458.607
-694.407
-192.36
810.924
-1049.03
-81.4119
1152.01
-1212.93
-49.5771
1288.13
-1258.31
-39.1579
1247.63
-1212.1
-26.8162
977.544
-13.7597
728.424
1230.3
-0.0438808
201.567
1213.74
-0.106904
375.15
1198.26
-0.0556232
450.97
1156.78
3.88552
515.782
1068.1
7.31212
550.998
909.635
17.3443
567.386
656.113
19.7266
570.996
280.144
41.3297
534.153
-208.137
-47.7064
457.545
-701.713
-179.58
813.066
-1049.7
-83.9209
1156.28
-1216.64
-48.6794
1286.67
-1266.25
-34.3599
1245.53
-1219.91
-26.1878
980.586
-21.6987
726.081
1229.95
0.309035
201.641
1213.53
0.0455496
375.12
1198.8
0.192953
450.926
1158.78
4.02055
515.876
1071.7
7.12515
551.796
915.104
14.6802
569.781
671.396
16.4454
573.354
309.478
48.1558
544.967
-185.984
-12.7242
459.358
-694.02
-153.429
800.079
-1044.97
-87.9237
1158.26
-1217.86
-45.291
1290.27
-1269.87
-27.398
1246.74
-1222.64
-20.7779
975.71
-28.6184
716.757
1230.58
-0.286202
201.709
1214.75
-0.112688
375.351
1200.44
0.432831
451.164
1162
3.24014
515.896
1078.29
4.65297
551.765
925.841
9.54494
570.719
686.31
11.297
574.531
328.33
53.6816
549.735
-172.87
31.4351
458.328
-691.374
-116.867
789.409
-1044.31
-93.0564
1160.47
-1217.19
-43.4416
1291.06
-1269.55
-21.4724
1247.35
-1224.42
-14.1406
976.854
-34.3532
708.867
1230.01
-0.174303
201.644
1213.89
0.248023
375.277
1200.28
0.516303
451.113
1163.56
1.60899
515.804
1082.23
0.807896
551.993
932.702
2.41282
572
698.098
1.88954
576.708
354.551
46.7783
554.993
-141.034
73.1064
460.239
-672.801
-68.6061
765.151
-1040.02
-90.4305
1158.77
-1216.16
-40.0821
1292.95
-1264.28
-17.8794
1245.06
-1215.79
-7.63376
972.26
-23.7199
700.308
1230.17
-0.349802
201.646
1215.28
-0.290103
375.238
1203.46
-0.207204
451.021
1168.54
-0.194669
515.845
1086.79
-1.13437
553.019
933.818
-0.934146
574.478
691.426
-1.37637
579.271
366.432
19.3723
554.509
-59.5084