/*--------------------------------*- C++ -*----------------------------------*\
| =========                 |                                                 |
| \\      /  F ield         | OpenFOAM: The Open Source CFD Toolbox           |
|  \\    /   O peration     | Version:  4.1                                   |
|   \\  /    A nd           | Web:      www.OpenFOAM.org                      |
|    \\/     M anipulation  |                                                 |
\*---------------------------------------------------------------------------*/
FoamFile
{
    version     2.0;
    format      ascii;
    class       volVectorField;
    location    "4";
    object      U;
}
// * * * * * * * * * * * * * * * * * * * * * * * * * * * * * * * * * * * * * //

dimensions      [0 1 -1 0 0 0 0];

internalField   nonuniform List<vector> 
6750
(
(11.8228 -0.0444844 13.1601)
(0.562173 0.0967521 8.29512)
(4.55913 -0.0258729 1.05677)
(1.07005 -0.0186274 -0.883091)
(-0.115541 -0.045192 -2.73212)
(-1.23187 -0.334755 -4.32928)
(-1.25908 -0.528065 -6.23831)
(-1.00696 -0.69031 -7.83163)
(-0.401059 -0.280946 -9.38921)
(0.685903 -0.0680112 -8.87733)
(1.89663 -0.315242 -4.57545)
(1.58901 -0.370343 2.84107)
(3.4615 0.195128 3.52162)
(3.97402 0.472623 0.39619)
(-6.46873 -0.5033 21.3023)
(11.7043 -0.0655319 13.3558)
(0.483305 0.155972 8.21914)
(4.55789 -0.124778 0.97833)
(0.87976 -0.0114585 -0.956103)
(-0.196136 0.215589 -2.83413)
(-1.30309 -0.163138 -4.41542)
(-1.2877 -0.295884 -6.36669)
(-1.09225 -0.349542 -8.09345)
(-0.565034 0.0422658 -9.8295)
(0.652486 0.177043 -9.22805)
(1.92821 0.210424 -4.94302)
(1.35572 0.328317 3.68193)
(2.81247 0.257956 4.65035)
(5.69616 0.596176 -1.95166)
(-5.95982 -0.653488 22.2835)
(11.6775 -0.0547843 13.4144)
(0.453326 0.144508 8.19834)
(4.55175 -0.118284 0.943044)
(0.366803 0.0314492 -1.12593)
(-0.307365 0.226589 -2.98293)
(-1.38098 -0.0965057 -4.50089)
(-1.2852 -0.185822 -6.41858)
(-0.969873 -0.191861 -8.1183)
(-0.258073 0.133748 -9.80352)
(0.913945 0.195618 -9.38447)
(2.28657 0.45857 -5.4475)
(2.15691 1.08557 2.02587)
(3.2957 0.187006 4.15577)
(6.01263 -0.228615 -1.94387)
(-5.75832 -0.351236 22.3228)
(11.6154 -0.0566118 13.5273)
(0.422363 0.156334 8.14215)
(4.5022 -0.0428284 0.910876)
(0.274126 0.00326525 -1.1299)
(-0.438996 0.176439 -3.05238)
(-1.48886 -0.0516068 -4.57527)
(-1.355 -0.152349 -6.50236)
(-0.997045 -0.168458 -8.15822)
(-0.193535 0.22497 -9.61812)
(1.01153 0.313022 -9.34954)
(2.46939 0.470612 -5.70242)
(3.03396 1.20849 0.469145)
(3.96027 0.253466 3.45469)
(5.89812 -0.183904 -1.52629)
(-5.60257 -0.263657 22.5297)
(11.5776 -0.0483765 13.6012)
(0.402052 0.145619 8.1157)
(4.49039 0.0122138 0.849364)
(-0.0777742 0.0467286 -1.251)
(-0.517718 0.167498 -3.15881)
(-1.52847 -0.000685178 -4.71255)
(-1.37587 -0.0789514 -6.68277)
(-1.03499 -0.106542 -8.31632)
(-0.226095 0.221203 -9.62477)
(1.12046 0.299925 -9.42424)
(2.68978 0.395035 -6.03329)
(3.42108 0.935767 -0.494648)
(4.36084 0.274404 2.96305)
(5.86053 -0.242372 -1.33327)
(-5.54352 -0.150686 22.6473)
(11.5205 -0.0438755 13.703)
(0.376361 0.120725 8.07657)
(4.54691 0.233415 0.695188)
(-0.630431 -0.0319698 -1.45011)
(-0.612128 -0.115256 -3.24613)
(-1.5375 -0.0300044 -4.83798)
(-1.37485 -0.0978122 -6.84554)
(-1.05801 -0.124431 -8.45704)
(-0.271647 0.180414 -9.63414)
(1.16199 0.285499 -9.44733)
(2.86639 0.27139 -6.29691)
(3.58106 0.622293 -1.05447)
(4.5201 0.184394 2.69805)
(5.77838 -0.247171 -1.17283)
(-5.50648 -0.08161 22.7253)
(11.4437 -0.0259932 13.8153)
(0.363481 0.0510663 8.00458)
(4.50424 0.416907 0.706047)
(0.746901 0.039211 -1.15101)
(-0.303359 -0.345154 -3.1264)
(-1.3147 -0.0542593 -4.95088)
(-1.30136 -0.0752953 -7.04314)
(-1.11901 -0.0956844 -8.70672)
(-0.451884 0.100439 -9.85904)
(1.19667 0.19371 -9.58006)
(3.12523 0.150721 -6.66808)
(3.87426 0.305387 -1.70552)
(4.67368 0.101893 2.42499)
(5.78302 -0.281151 -1.04895)
(-5.44473 -0.0153278 22.618)
(11.3999 0.000121449 13.8697)
(0.379596 -0.00198688 7.94747)
(4.36259 -3.43888e-05 0.781083)
(2.11687 0.0004012 -0.676476)
(0.0840318 -0.000418237 -2.81303)
(-1.08446 0.00015642 -4.94449)
(-1.21764 0.000605152 -7.11378)
(-1.11654 0.000122385 -8.85313)
(-0.572331 -0.000420156 -10.034)
(1.20783 -0.000650019 -9.67613)
(3.26615 0.00106753 -6.88134)
(4.07184 0.00450604 -2.10249)
(4.82186 0.00483417 2.17385)
(5.80026 0.00667117 -0.896776)
(-5.42823 -0.00095108 22.3921)
(11.4452 0.0259825 13.8122)
(0.364954 -0.0537423 8.00726)
(4.50298 -0.416752 0.709878)
(0.749135 -0.0386897 -1.14787)
(-0.304133 0.345139 -3.12552)
(-1.31605 0.0554932 -4.9495)
(-1.30318 0.0772852 -7.04166)
(-1.11904 0.0963865 -8.7059)
(-0.45193 -0.101573 -9.85656)
(1.1953 -0.1956 -9.57541)
(3.12634 -0.148748 -6.66903)
(3.87559 -0.297423 -1.71111)
(4.6783 -0.0953654 2.41839)
(5.78541 0.287061 -1.05828)
(-5.44616 0.0150477 22.621)
(11.5216 0.0436549 13.7)
(0.377584 -0.12209 8.07902)
(4.54712 -0.233496 0.698526)
(-0.628945 0.0338545 -1.44849)
(-0.612543 0.116608 -3.24543)
(-1.53711 0.0318018 -4.8368)
(-1.37462 0.100218 -6.84449)
(-1.0558 0.125206 -8.45704)
(-0.269674 -0.181569 -9.63329)
(1.16383 -0.287702 -9.44631)
(2.8693 -0.269513 -6.30113)
(3.58396 -0.615955 -1.06412)
(4.52478 -0.181074 2.68949)
(5.77787 0.248497 -1.17598)
(-5.50848 0.082264 22.7242)
(11.5786 0.0481944 13.5979)
(0.403353 -0.146606 8.11825)
(4.49162 -0.0113879 0.852269)
(-0.0793473 -0.0444787 -1.25067)
(-0.516362 -0.166919 -3.15843)
(-1.52611 0.00224564 -4.71162)
(-1.37319 0.0811489 -6.68244)
(-1.03034 0.106974 -8.3172)
(-0.222352 -0.222956 -9.62433)
(1.12516 -0.302424 -9.42596)
(2.69458 -0.393641 -6.04112)
(3.42694 -0.930782 -0.510073)
(4.36686 -0.27271 2.95275)
(5.8604 0.244581 -1.33807)
(-5.54531 0.151075 22.6464)
(11.6163 0.0564498 13.524)
(0.423865 -0.156846 8.14477)
(4.5037 0.044215 0.913736)
(0.277608 -0.000569987 -1.12829)
(-0.434284 -0.176156 -3.05154)
(-1.48367 0.0530273 -4.57471)
(-1.34964 0.154258 -6.50301)
(-0.989956 0.168313 -8.1606)
(-0.187883 -0.227355 -9.61981)
(1.01808 -0.315875 -9.35396)
(2.47484 -0.469971 -5.71193)
(3.04258 -1.20513 0.45042)
(3.9657 -0.25308 3.44497)
(5.89804 0.185071 -1.53132)
(-5.60452 0.264548 22.5291)
(11.6784 0.0546737 13.4109)
(0.455019 -0.144763 8.20093)
(4.55346 0.119063 0.945682)
(0.371949 -0.0291189 -1.12364)
(-0.299776 -0.225982 -2.98177)
(-1.37303 0.0976544 -4.50073)
(-1.27741 0.187316 -6.42044)
(-0.960752 0.19158 -8.12278)
(-0.251421 -0.136027 -9.80764)
(0.921475 -0.198123 -9.39104)
(2.29342 -0.459051 -5.45772)
(2.16533 -1.08573 2.0105)
(3.29801 -0.186769 4.149)
(6.01188 0.229646 -1.94873)
(-5.76073 0.35231 22.3223)
(11.7051 0.0654481 13.3523)
(0.485145 -0.156024 8.22171)
(4.5597 0.125421 0.980611)
(0.883866 0.0137735 -0.953717)
(-0.187374 -0.215023 -2.83239)
(-1.29324 0.164011 -4.4156)
(-1.2781 0.296813 -6.36949)
(-1.08133 0.348783 -8.09953)
(-0.55609 -0.0454077 -9.83563)
(0.660804 -0.180751 -9.23637)
(1.93562 -0.210956 -4.95252)
(1.3595 -0.327056 3.67345)
(2.81279 -0.257384 4.64581)
(5.69464 -0.597929 -1.95493)
(-5.96269 0.655481 22.2826)
(11.8236 0.0444453 13.1566)
(0.564156 -0.0967375 8.29747)
(4.56112 0.0261928 1.05872)
(1.0757 0.0199192 -0.880303)
(-0.104857 0.045195 -2.72954)
(-1.21965 0.334775 -4.32974)
(-1.24785 0.527792 -6.24203)
(-0.994576 0.688811 -7.83963)
(-0.391074 0.277136 -9.39646)
(0.693457 0.0644503 -8.88459)
(1.90216 0.314621 -4.58262)
(1.5929 0.373 2.83218)
(3.46276 -0.194029 3.51581)
(3.96599 -0.472477 0.405808)
(-6.47209 0.504805 21.2976)
(23.1012 -0.0691221 10.4714)
(12.7043 0.0401792 11.0533)
(12.4298 0.0903413 5.00751)
(10.1642 0.134018 1.89476)
(7.57654 0.174609 -0.651428)
(5.93219 0.211818 -3.46902)
(4.98257 0.17205 -6.61046)
(3.86883 -0.19587 -9.07837)
(3.41886 0.180926 -11.2181)
(4.09817 0.1137 -11.292)
(4.62428 -0.131147 -7.65776)
(5.28507 -0.26379 -1.78361)
(4.12531 0.155846 0.411263)
(0.631502 0.77007 9.0563)
(-19.2707 -0.833001 23.55)
(23.0691 -0.0975154 10.6443)
(12.5928 0.0762815 11.1029)
(12.3476 0.125451 4.99554)
(10.0983 0.199418 1.86216)
(7.57897 0.26833 -0.708431)
(5.99369 0.299472 -3.55536)
(5.04821 0.298063 -6.72457)
(3.81392 0.132469 -9.31998)
(3.06564 0.437166 -11.7092)
(4.11329 0.0797678 -11.7428)
(4.72168 -0.085978 -8.16556)
(5.33199 0.359176 -1.90362)
(4.83033 0.833562 0.209709)
(1.6623 1.08053 8.22141)
(-18.7083 -1.14063 24.7917)
(23.0627 -0.0811205 10.6978)
(12.5809 0.0790268 11.1086)
(12.3355 0.114707 5.00792)
(10.03 0.174562 1.85975)
(7.50224 0.237738 -0.752924)
(5.92207 0.275968 -3.61725)
(4.98658 0.317885 -6.69979)
(3.92638 0.275517 -9.11687)
(3.45082 0.414057 -11.4908)
(4.24742 -0.108808 -11.8062)
(4.53145 -0.143662 -8.14754)
(5.11008 0.773488 -2.48924)
(4.82701 1.26461 -0.387526)
(2.40901 0.608318 7.81556)
(-18.4951 -0.81841 25.0815)
(23.0386 -0.0904921 10.8001)
(12.5555 0.0829581 11.1257)
(12.292 0.144506 5.00216)
(9.95282 0.182193 1.85247)
(7.43323 0.232876 -0.785438)
(5.86083 0.273962 -3.67171)
(4.93161 0.280074 -6.72921)
(3.93029 0.230034 -9.04117)
(3.62514 0.539407 -11.1969)
(4.31615 0.0660533 -11.8115)
(4.50066 -0.169338 -8.32563)
(4.79392 0.688963 -2.73908)
(4.7781 1.19711 -0.676164)
(2.72361 0.497575 7.71581)
(-18.2252 -0.692543 25.4101)
(23.0255 -0.0828291 10.8691)
(12.5431 0.078158 11.1386)
(12.2689 0.151953 5.00038)
(9.90474 0.176014 1.84261)
(7.39328 0.192836 -0.822851)
(5.83766 0.224335 -3.74825)
(4.89583 0.226062 -6.81559)
(3.85099 0.170267 -9.10653)
(3.53934 0.48535 -11.1216)
(4.34781 0.0786926 -11.9093)
(4.62174 -0.175182 -8.62799)
(4.64699 0.551483 -3.03609)
(4.7501 1.01112 -0.737204)
(2.46304 0.315937 8.03181)
(-18.1077 -0.415753 25.5072)
(23.0037 -0.090724 10.9623)
(12.5074 0.0617464 11.1618)
(12.2572 0.150591 4.9804)
(9.87942 0.124318 1.80686)
(7.37654 0.124318 -0.881425)
(5.86052 0.14703 -3.8228)
(4.90684 0.113576 -6.88611)
(3.83506 0.0390746 -9.15555)
(3.4573 0.446819 -11.0531)
(4.39754 0.168551 -11.9811)
(4.74524 -0.195561 -8.92835)
(4.59466 0.275526 -3.37928)
(4.78591 0.729784 -0.762949)
(2.13978 0.21556 8.35907)
(-18.0115 -0.338562 25.5577)
(22.9783 -0.0692065 11.0687)
(12.3893 0.0224683 11.1839)
(12.1189 0.106431 4.9106)
(9.90935 0.0386114 1.74094)
(7.50802 0.0188456 -0.898448)
(5.99695 0.027014 -3.8232)
(4.92651 -0.00282954 -6.95921)
(3.66901 -0.063264 -9.34739)
(3.07085 0.299598 -11.2482)
(4.60481 0.182048 -12.1894)
(5.12043 -0.162251 -9.438)
(4.68097 0.0390751 -3.90861)
(4.58745 0.467226 -1.00561)
(2.73657 0.107941 7.87175)
(-17.9134 -0.249037 25.6543)
(22.9587 -0.000266265 11.1199)
(12.3267 -0.00196494 11.1907)
(11.9894 -0.00217268 4.84747)
(9.92753 -0.00159122 1.70554)
(7.63907 -0.00115844 -0.86844)
(6.12236 -0.00173033 -3.74225)
(4.9447 -0.0019263 -6.94515)
(3.5834 -0.00220245 -9.45634)
(2.76942 -0.00305148 -11.4232)
(4.74764 -0.00472936 -12.3379)
(5.38051 -0.00391692 -9.75916)
(4.75578 0.000153632 -4.22531)
(4.26804 -0.0017679 -1.19898)
(3.53173 0.00228858 7.13808)
(-17.8847 0.00392154 25.6534)
(22.9783 0.0684602 11.0652)
(12.3907 -0.0254964 11.1834)
(12.1195 -0.109459 4.91127)
(9.90966 -0.040642 1.74189)
(7.50826 -0.0203584 -0.897753)
(5.99664 -0.029507 -3.82368)
(4.92563 -0.000123304 -6.96122)
(3.66896 0.0592636 -9.34965)
(3.06953 -0.307273 -11.2438)
(4.60503 -0.191873 -12.1838)
(5.12357 0.156895 -9.44111)
(4.67849 -0.0375945 -3.91299)
(4.58643 -0.466634 -1.00325)
(2.70246 -0.105003 7.90046)
(-17.9177 0.252673 25.6484)
(23.0034 0.0899396 10.959)
(12.5079 -0.0637498 11.1615)
(12.2579 -0.152427 4.98089)
(9.88047 -0.125259 1.80734)
(7.37767 -0.125092 -0.881257)
(5.86174 -0.148557 -3.82321)
(4.90731 -0.115639 -6.887)
(3.83638 -0.0428215 -9.15643)
(3.45767 -0.454963 -11.0503)
(4.39749 -0.177488 -11.9798)
(4.74691 0.192251 -8.93266)
(4.59093 -0.273482 -3.38419)
(4.78022 -0.727063 -0.76328)
(2.12327 -0.214608 8.36972)
(-18.0162 0.338488 25.5506)
(23.0249 0.0822171 10.8655)
(12.5437 -0.0796977 11.1382)
(12.2703 -0.153243 5.0009)
(9.90679 -0.17681 1.84299)
(7.39552 -0.193499 -0.822799)
(5.84037 -0.225465 -3.74843)
(4.89803 -0.227758 -6.81612)
(3.8542 -0.173841 -9.10681)
(3.54149 -0.493562 -11.119)
(4.35011 -0.0874024 -11.9108)
(4.62387 0.171886 -8.63423)
(4.64134 -0.549416 -3.04205)
(4.74289 -1.00982 -0.739509)
(2.44887 -0.314033 8.03958)
(-18.1126 0.416311 25.5003)
(23.0378 0.0899573 10.7964)
(12.5562 -0.0840126 11.1254)
(12.2937 -0.145253 5.00256)
(9.9557 -0.182648 1.85271)
(7.4368 -0.233198 -0.785388)
(5.86523 -0.274557 -3.67149)
(4.93573 -0.281324 -6.72939)
(3.93539 -0.233859 -9.04191)
(3.6285 -0.547782 -11.1967)
(4.31902 -0.0739546 -11.8157)
(4.5013 0.167094 -8.33232)
(4.78627 -0.687892 -2.74508)
(4.76977 -1.19734 -0.678013)
(2.70833 -0.49713 7.72424)
(-18.2301 0.69348 25.4028)
(23.0617 0.08073 10.6939)
(12.5817 -0.0797437 11.1082)
(12.3376 -0.115237 5.00818)
(10.0337 -0.174862 1.85984)
(7.50716 -0.237986 -0.752988)
(5.92815 -0.276253 -3.61664)
(4.99239 -0.318635 -6.69962)
(3.93306 -0.278232 -9.11881)
(3.45472 -0.421396 -11.4925)
(4.25054 0.101816 -11.8121)
(4.53135 0.141805 -8.15431)
(5.10301 -0.774198 -2.49653)
(4.81852 -1.2662 -0.388904)
(2.3916 -0.608378 7.8247)
(-18.5001 0.819377 25.0734)
(23.068 0.0972205 10.6403)
(12.5939 -0.0767294 11.1024)
(12.35 -0.125754 4.99572)
(10.1022 -0.199508 1.86216)
(7.58453 -0.268436 -0.708677)
(6.00084 -0.299504 -3.55458)
(5.05539 -0.298632 -6.72401)
(3.82309 -0.135528 -9.32277)
(3.07357 -0.44452 -11.7091)
(4.11782 -0.0871198 -11.7469)
(4.72099 0.083812 -8.17136)
(5.32774 -0.359861 -1.91313)
(4.82141 -0.8341 0.208226)
(1.6443 -1.08227 8.23017)
(-18.7134 1.14192 24.7828)
(23.0999 0.0689862 10.4673)
(12.7056 -0.0403586 11.0527)
(12.4325 -0.0904872 5.00744)
(10.1686 -0.134047 1.89454)
(7.58311 -0.174611 -0.651937)
(5.9409 -0.211747 -3.46842)
(4.99089 -0.172595 -6.61014)
(3.87958 0.193441 -9.08322)
(3.4258 -0.187018 -11.2188)
(4.09992 -0.118334 -11.2948)
(4.62056 0.129701 -7.66086)
(5.2777 0.263497 -1.78882)
(4.11137 -0.156032 0.413344)
(0.614325 -0.770887 9.06458)
(-19.2755 0.8339 23.5384)
(23.4023 -0.0169926 3.6223)
(17.7699 -0.038089 8.78206)
(17.6166 0.0108104 6.39971)
(17.3321 0.0689201 4.17563)
(14.8272 0.105292 1.55571)
(12.4057 0.118548 -1.3648)
(9.92745 0.0769814 -4.16539)
(6.98778 -0.18431 -7.03662)
(4.86961 0.21927 -10.2052)
(3.45493 -0.259815 -10.6558)
(0.546928 -0.165573 -6.15731)
(-3.61825 0.354421 2.07356)
(-9.55174 0.45808 8.22647)
(-12.859 0.317783 16.6244)
(-26.6128 -0.525016 18.2505)
(23.4345 -0.0229085 3.70438)
(17.7756 -0.047562 8.8704)
(17.6041 0.0260842 6.44486)
(17.3154 0.105553 4.18342)
(14.8332 0.152238 1.53273)
(12.4072 0.170971 -1.38693)
(9.92663 0.181992 -4.1622)
(6.88278 0.130867 -7.07926)
(4.51042 0.392296 -10.5774)
(3.60543 -0.431537 -10.9801)
(0.497614 -0.225117 -6.50071)
(-3.28019 0.929926 1.65273)
(-9.14665 0.955227 8.06032)
(-12.7211 0.51039 16.9969)
(-26.5036 -0.710858 19.2656)
(23.4406 -0.0187333 3.73066)
(17.7871 -0.0330214 8.88676)
(17.6144 0.0291263 6.45166)
(17.3262 0.0893795 4.18918)
(14.8441 0.130223 1.53385)
(12.396 0.146078 -1.37227)
(9.88477 0.190733 -4.11996)
(7.02717 0.24802 -6.85157)
(5.01713 0.260703 -10.4021)
(3.54412 -0.618785 -10.9824)
(0.111682 -0.304456 -6.35286)
(-3.69028 1.0437 1.58323)
(-9.16803 1.01002 7.959)
(-12.5252 0.356625 17.0111)
(-26.4972 -0.564035 19.5838)
(23.452 -0.0218513 3.78383)
(17.8048 -0.0385146 8.93045)
(17.6318 0.0306632 6.4699)
(17.3256 0.0948066 4.19187)
(14.8376 0.137198 1.52319)
(12.3766 0.15445 -1.37796)
(9.85144 0.179203 -4.10539)
(7.06692 0.24997 -6.6972)
(5.30535 0.4564 -10.1455)
(3.61122 -0.429095 -11.0839)
(-0.0741895 -0.296692 -6.46981)
(-3.83486 0.910785 1.41849)
(-9.06678 0.884395 7.91022)
(-12.3854 0.249867 17.1223)
(-26.4242 -0.538461 19.9886)
(23.4604 -0.019558 3.82109)
(17.8194 -0.0345974 8.95994)
(17.6438 0.0347518 6.48483)
(17.3319 0.0878015 4.20342)
(14.8396 0.115731 1.52908)
(12.3653 0.120169 -1.36724)
(9.81995 0.1385 -4.08429)
(7.00617 0.201833 -6.64315)
(5.29765 0.465653 -10.0117)
(3.67874 -0.303643 -11.2122)
(-0.0666283 -0.298459 -6.68654)
(-3.88297 0.744266 1.20799)
(-9.08966 0.687945 7.95845)
(-12.527 0.148674 17.2522)
(-26.3654 -0.355788 20.0885)
(23.4733 -0.0238077 3.87019)
(17.8317 -0.0403639 9.00526)
(17.654 0.026994 6.50804)
(17.3469 0.0743203 4.21504)
(14.853 0.0917216 1.53046)
(12.3696 0.0759057 -1.36991)
(9.80339 0.0700478 -4.08268)
(6.9981 0.104723 -6.61483)
(5.28475 0.545198 -9.86979)
(3.84338 -0.124592 -11.3747)
(0.00693888 -0.364811 -6.99028)
(-3.91606 0.50863 1.01615)
(-9.11654 0.570888 8.02475)
(-12.6927 0.152551 17.395)
(-26.3035 -0.306793 20.1669)
(23.503 -0.0216362 3.93077)
(17.8082 -0.0344466 9.07485)
(17.5912 0.00755602 6.54365)
(17.2402 0.0326404 4.20775)
(14.746 0.0373059 1.48923)
(12.2543 0.00649411 -1.4516)
(9.6335 -0.0113624 -4.20492)
(6.71947 -0.00927396 -6.81969)
(4.86489 0.462485 -9.96627)
(4.46273 0.056211 -11.7093)
(0.405447 -0.319478 -7.59375)
(-4.01654 0.269904 0.58557)
(-8.90839 0.43231 7.82097)
(-12.3288 0.166872 17.3024)
(-26.3592 -0.230644 20.4413)
(23.5176 -0.00182718 3.96171)
(17.7893 -0.00130127 9.11378)
(17.5398 -0.00195896 6.55765)
(17.1347 -0.00204956 4.18341)
(14.6367 -0.0019911 1.43918)
(12.1471 -0.00209424 -1.54164)
(9.49147 -0.00234372 -4.33247)
(6.50889 -0.00264969 -7.00845)
(4.46817 -0.0044738 -10.0991)
(4.91328 -0.00667759 -11.9401)
(0.740281 -0.00725635 -8.02227)
(-4.06622 -0.00509769 0.21644)
(-8.65422 -0.00534329 7.52574)
(-11.8604 -0.00424039 17.0666)
(-26.457 0.000973402 20.6608)
(23.5015 0.0195094 3.92944)
(17.8057 0.032358 9.07335)
(17.5879 -0.0107182 6.54219)
(17.237 -0.0359567 4.2064)
(14.7428 -0.0407448 1.48779)
(12.2519 -0.0104716 -1.45352)
(9.6317 0.00636069 -4.20693)
(6.71825 0.00300549 -6.82035)
(4.86352 -0.474909 -9.95978)
(4.46914 -0.0695365 -11.7097)
(0.411475 0.311096 -7.60104)
(-4.02481 -0.27365 0.588309)
(-8.92447 -0.436723 7.82963)
(-12.3505 -0.170299 17.3079)
(-26.3569 0.2301 20.4245)
(23.4721 0.0228883 3.86927)
(17.8304 0.0384062 9.00392)
(17.6522 -0.029616 6.50687)
(17.3457 -0.0770614 4.21402)
(14.8522 -0.0947231 1.52938)
(12.3689 -0.0797025 -1.37101)
(9.80297 -0.0752162 -4.08372)
(6.99756 -0.111665 -6.61505)
(5.28431 -0.55906 -9.86634)
(3.8424 0.114099 -11.3771)
(0.00751556 0.360896 -6.99445)
(-3.92326 -0.509209 1.01529)
(-9.12665 -0.572456 8.02637)
(-12.7037 -0.15336 17.3935)
(-26.3025 0.304408 20.153)
(23.4588 0.0185245 3.81998)
(17.818 0.0327082 8.95826)
(17.6425 -0.0370052 6.48344)
(17.3315 -0.0902068 4.20225)
(14.8397 -0.118418 1.52784)
(12.3656 -0.123744 -1.36855)
(9.82052 -0.143512 -4.08588)
(7.00694 -0.208649 -6.64436)
(5.29852 -0.479014 -10.0095)
(3.67901 0.292973 -11.2165)
(-0.0681645 0.294025 -6.6892)
(-3.89332 -0.743898 1.20834)
(-9.1015 -0.689176 7.95997)
(-12.5383 -0.149638 17.2489)
(-26.3638 0.354303 20.0725)
(23.4502 0.0209917 3.78266)
(17.8034 0.0370746 8.92869)
(17.6307 -0.0323674 6.46839)
(17.3255 -0.0968099 4.19046)
(14.8381 -0.139585 1.52157)
(12.3775 -0.157878 -1.37986)
(9.85285 -0.184166 -4.1079)
(7.06829 -0.257029 -6.70012)
(5.30585 -0.469891 -10.1462)
(3.60987 0.41943 -11.0884)
(-0.0793421 0.29345 -6.47055)
(-3.84773 -0.909252 1.41961)
(-9.07921 -0.884979 7.91198)
(-12.3972 -0.2508 17.1195)
(-26.4223 0.537639 19.9723)
(23.4384 0.0179456 3.7292)
(17.7857 0.0318735 8.88463)
(17.6136 -0.0304252 6.44981)
(17.3266 -0.0910017 4.1874)
(14.8453 -0.132189 1.53183)
(12.3977 -0.148984 -1.37474)
(9.88692 -0.194924 -4.12338)
(7.02873 -0.253304 -6.85651)
(5.01679 -0.272911 -10.4053)
(3.54147 0.60979 -10.9869)
(0.104085 0.301241 -6.35218)
(-3.70619 -1.04233 1.58569)
(-9.18175 -1.01056 7.96092)
(-12.5381 -0.357374 17.0076)
(-26.4946 0.563441 19.5662)
(23.4322 0.0222728 3.70257)
(17.7743 0.0466431 8.86807)
(17.6035 -0.0270962 6.4429)
(17.3162 -0.106854 4.18151)
(14.8349 -0.153844 1.53053)
(12.4094 -0.173432 -1.38977)
(9.92946 -0.185568 -4.16629)
(6.88583 -0.135841 -7.08599)
(4.51412 -0.403817 -10.5798)
(3.60298 0.422826 -10.9843)
(0.488817 0.22242 -6.49975)
(-3.29859 -0.928704 1.65629)
(-9.16092 -0.955544 8.06239)
(-12.7341 -0.511111 16.993)
(-26.5007 0.710392 19.2474)
(23.3998 0.0166897 3.62021)
(17.7685 0.037587 8.77941)
(17.6162 -0.0114024 6.3974)
(17.3332 -0.0696698 4.1733)
(14.8294 -0.106199 1.55309)
(12.4085 -0.11991 -1.36801)
(9.93072 -0.0790766 -4.17)
(6.99158 0.181285 -7.04545)
(4.87126 -0.227586 -10.2068)
(3.44786 0.25518 -10.6584)
(0.534271 0.164398 -6.15333)
(-3.63815 -0.354294 2.07804)
(-9.56591 -0.458603 8.2282)
(-12.8702 -0.318282 16.619)
(-26.6094 0.524659 18.2314)
(22.784 0.00295718 0.941287)
(16.2589 -0.0325611 5.62345)
(16.2146 -0.0344587 5.88501)
(17.9115 -0.0105578 5.17175)
(16.348 0.012568 3.49977)
(14.0404 0.0395542 1.18187)
(11.1813 -0.00883686 -1.41079)
(7.38143 -0.230251 -4.47923)
(3.59527 0.0239588 -7.89936)
(-0.857448 -0.576423 -6.31836)
(-8.12238 -0.117141 1.09643)
(-14.3604 0.17261 7.71002)
(-17.786 0.0938809 12.1947)
(-17.6612 -0.112417 14.9124)
(-26.5824 -0.146369 8.74838)
(22.7821 0.00515119 0.94109)
(16.2926 -0.0447401 5.66832)
(16.2581 -0.0381166 5.9313)
(17.9454 0.000737906 5.20296)
(16.3804 0.0313288 3.5166)
(14.0514 0.0742603 1.20906)
(11.2136 0.102293 -1.40025)
(7.30281 0.104693 -4.52645)
(3.41433 0.0949367 -8.14899)
(-0.558258 -0.84439 -6.64956)
(-7.9946 -0.163658 0.728362)
(-14.3573 0.319775 7.55477)
(-17.9438 0.19286 12.3194)
(-17.9175 -0.13932 15.301)
(-26.6238 -0.210115 9.15712)
(22.7818 0.0051912 0.94133)
(16.3076 -0.0360942 5.68143)
(16.2795 -0.0271758 5.94049)
(17.9713 0.0051718 5.21162)
(16.417 0.0311748 3.5297)
(14.0865 0.0664539 1.243)
(11.2688 0.137477 -1.32803)
(7.61497 0.235458 -4.31359)
(4.09222 -0.0363589 -7.95663)
(-0.760796 -0.914878 -6.59187)
(-8.23653 -0.17923 0.80258)
(-14.4972 0.296416 7.54329)
(-17.984 0.186751 12.2823)
(-17.9536 -0.108892 15.3245)
(-26.6437 -0.195578 9.28634)
(22.7801 0.00560361 0.941975)
(16.3296 -0.0399507 5.70734)
(16.3172 -0.0324983 5.96432)
(18.0072 0.00283042 5.22748)
(16.4521 0.0337215 3.53891)
(14.113 0.0698782 1.26019)
(11.2917 0.11234 -1.30075)
(7.70479 0.244486 -4.19668)
(4.45423 0.195227 -7.82401)
(-0.755112 -0.764179 -6.73278)
(-8.27595 -0.225469 0.701399)
(-14.5501 0.271499 7.47266)
(-18.0221 0.158267 12.2739)
(-18.0106 -0.119238 15.4208)
(-26.6466 -0.211396 9.50419)
(22.7789 0.00459 0.942568)
(16.3487 -0.0358007 5.72708)
(16.3465 -0.0278144 5.98276)
(18.0369 0.00220723 5.24654)
(16.49 0.0278686 3.56283)
(14.1588 0.0569935 1.30308)
(11.3545 0.0962743 -1.24466)
(7.7466 0.241328 -4.10811)
(4.59553 0.2837 -7.71434)
(-0.689714 -0.578691 -6.86939)
(-8.22177 -0.258183 0.580051)
(-14.5812 0.21676 7.38564)
(-18.0664 0.124617 12.2451)
(-18.0674 -0.0900437 15.4227)
(-26.6215 -0.170813 9.55884)
(22.7771 0.00413811 0.942194)
(16.3707 -0.0362834 5.75102)
(16.3772 -0.031969 6.0064)
(18.068 -0.00622284 5.26894)
(16.524 0.0158937 3.5834)
(14.1877 0.0353561 1.32894)
(11.3832 0.0505626 -1.21612)
(7.78353 0.187236 -4.03694)
(4.75379 0.492113 -7.57672)
(-0.428482 -0.391618 -7.11148)
(-8.11071 -0.35726 0.356307)
(-14.6234 0.152855 7.30936)
(-18.1294 0.126636 12.246)
(-18.1391 -0.0630221 15.4555)
(-26.5863 -0.15211 9.60894)
(22.7787 0.00245688 0.942515)
(16.401 -0.0262827 5.78673)
(16.4031 -0.0275119 6.0507)
(18.0562 -0.0139285 5.30614)
(16.4711 -0.000176378 3.60108)
(14.0859 0.00925913 1.32158)
(11.2194 0.0102747 -1.27242)
(7.48241 0.0911654 -4.14968)
(4.5662 0.533146 -7.56407)
(0.667391 -0.118745 -7.70112)
(-7.68436 -0.326192 -0.253474)
(-14.5543 0.107298 7.11781)
(-18.0187 0.12916 12.2245)
(-18.1199 -0.019335 15.5611)
(-26.6574 -0.112725 9.76757)
(22.7796 -0.000188452 0.942157)
(16.4147 -0.00140263 5.80475)
(16.4127 -0.00196682 6.0756)
(18.0272 -0.0022635 5.32047)
(16.3931 -0.00233456 3.58987)
(13.9592 -0.0025874 1.27698)
(11.0271 -0.00303704 -1.36375)
(7.18657 -0.0030184 -4.29679)
(4.2552 -0.00594281 -7.61395)
(1.5378 -0.00546349 -8.13756)
(-7.33415 -0.0065381 -0.751735)
(-14.433 -0.00652049 6.92118)
(-17.8477 -0.00531003 12.1473)
(-18.0586 -0.00364019 15.6157)
(-26.7482 -0.00955261 9.90988)
(22.7792 -0.00287802 0.943503)
(16.4 0.0239327 5.78627)
(16.4009 0.024165 6.0494)
(18.0535 0.00994207 5.30425)
(16.4677 -0.00428578 3.59894)
(14.0824 -0.0144556 1.31912)
(11.216 -0.016849 -1.27451)
(7.4806 -0.0992297 -4.14955)
(4.5686 -0.550536 -7.55724)
(0.684638 0.106441 -7.71105)
(-7.67286 0.319152 -0.265298)
(-14.5503 -0.114724 7.11323)
(-18.0166 -0.135063 12.2213)
(-18.1199 0.0164202 15.5536)
(-26.6497 0.10202 9.74813)
(22.7772 -0.00487975 0.943341)
(16.3701 0.0341117 5.75028)
(16.3764 0.0289448 6.00477)
(18.0672 0.0025656 5.26693)
(16.523 -0.020225 3.5815)
(14.1868 -0.040463 1.32712)
(11.3825 -0.0572896 -1.21769)
(7.78289 -0.196535 -4.03721)
(4.75485 -0.512046 -7.57338)
(-0.429313 0.381632 -7.11484)
(-8.10916 0.353425 0.351782)
(-14.6241 -0.15678 7.30572)
(-18.1291 -0.130804 12.2425)
(-18.1419 0.0599783 15.4512)
(-26.5811 0.146147 9.59579)
(22.7787 -0.00548228 0.94374)
(16.3479 0.033824 5.72555)
(16.3462 0.0251371 5.98026)
(18.0369 -0.00548049 5.24402)
(16.4901 -0.0317921 3.5607)
(14.1588 -0.0617071 1.30123)
(11.3544 -0.102595 -1.24653)
(7.74618 -0.250469 -4.10929)
(4.59693 -0.302232 -7.71224)
(-0.692335 0.567928 -6.87123)
(-8.22484 0.253978 0.579466)
(-14.5845 -0.219805 7.3841)
(-18.0681 -0.128203 12.2411)
(-18.0706 0.0861223 15.4142)
(-26.6132 0.165175 9.53938)
(22.7798 -0.00666643 0.943071)
(16.3287 0.0380893 5.70524)
(16.317 0.0301079 5.96139)
(18.0073 -0.00583957 5.22468)
(16.4524 -0.0373205 3.53638)
(14.1132 -0.0743046 1.25782)
(11.2917 -0.118473 -1.30336)
(7.70365 -0.254032 -4.19971)
(4.45258 -0.213106 -7.82392)
(-0.760896 0.754246 -6.73375)
(-8.28282 0.222022 0.701849)
(-14.5549 -0.273484 7.4709)
(-18.0241 -0.160723 12.2699)
(-18.0144 0.116773 15.413)
(-26.6386 0.20923 9.48545)
(22.7812 -0.00664476 0.94212)
(16.3063 0.034392 5.67893)
(16.2787 0.0252603 5.93718)
(17.9707 -0.00766757 5.20826)
(16.4169 -0.0341201 3.52648)
(14.0864 -0.0700748 1.23983)
(11.2684 -0.142498 -1.33159)
(7.61234 -0.242654 -4.31886)
(4.08712 0.0211887 -7.95902)
(-0.768995 0.905518 -6.59194)
(-8.24676 0.176293 0.804219)
(-14.5042 -0.298064 7.54152)
(-17.9867 -0.189002 12.2771)
(-17.957 0.106263 15.3147)
(-26.6345 0.193683 9.26659)
(22.7812 -0.00664934 0.941376)
(16.2908 0.0432663 5.66555)
(16.2567 0.0365607 5.92785)
(17.9445 -0.00286811 5.19933)
(16.3799 -0.0339427 3.51303)
(14.051 -0.0775446 1.2054)
(11.2132 -0.106749 -1.40468)
(7.30063 -0.111099 -4.53366)
(3.41219 -0.108924 -8.15049)
(-0.568315 0.835565 -6.64889)
(-8.00718 0.161497 0.730684)
(-14.3654 -0.320704 7.553)
(-17.9468 -0.19428 12.3139)
(-17.9208 0.137663 15.2909)
(-26.6145 0.208922 9.13757)
(22.7827 -0.00368046 0.941073)
(16.2567 0.0316746 5.62026)
(16.2128 0.0334391 5.88117)
(17.9104 0.00923237 5.16757)
(16.3475 -0.0141466 3.49561)
(14.0399 -0.0415019 1.17761)
(11.1809 0.00611011 -1.41635)
(7.37903 0.226373 -4.48809)
(3.59067 -0.0334216 -7.89847)
(-0.872767 0.57139 -6.31448)
(-8.13784 0.115699 1.09964)
(-14.3696 -0.173411 7.70779)
(-17.7886 -0.0950278 12.1883)
(-17.6636 0.111168 14.9014)
(-26.5725 0.145483 8.72883)
(23.7914 0.00146228 1.54591)
(14.556 -0.0091847 4.11258)
(13.2075 -0.0224238 4.95891)
(15.6084 -0.0194522 5.23946)
(14.6297 -0.0074405 4.73594)
(12.8924 0.0293649 3.57312)
(10.2778 -0.069569 2.06861)
(6.31285 -0.20053 -0.304549)
(1.12583 -0.208031 -2.66001)
(-5.53742 -0.691965 1.11485)
(-11.3876 -0.258777 6.83427)
(-16.3182 -0.0996676 11.385)
(-16.7332 -0.147353 13.2377)
(-15.2627 -0.167625 12.1598)
(-27.1952 -0.021487 5.64497)
(23.7859 0.00364081 1.54196)
(14.5618 -0.0100016 4.12397)
(13.236 -0.021019 4.98064)
(15.6465 -0.00679693 5.26448)
(14.6842 0.00978178 4.7646)
(12.9429 0.0700233 3.62399)
(10.386 0.075921 2.1024)
(6.24971 0.167168 -0.274109)
(1.23908 -0.208619 -2.89941)
(-5.12741 -0.94841 0.769898)
(-11.2861 -0.330796 6.64951)
(-16.4208 -0.131972 11.4063)
(-16.9653 -0.184816 13.3791)
(-15.4822 -0.225225 12.3109)
(-27.1618 -0.039608 5.64586)
(23.7844 0.00375131 1.54052)
(14.5708 -0.00774926 4.13058)
(13.2555 -0.01478 4.98699)
(15.6726 0.000433018 5.27008)
(14.7304 0.0150416 4.77392)
(13.0002 0.0655731 3.65352)
(10.5105 0.128888 2.15508)
(6.70175 0.275658 -0.0643976)
(1.95339 -0.278039 -2.77234)
(-5.27732 -0.954354 0.758916)
(-11.3373 -0.301826 6.71846)
(-16.449 -0.126106 11.4101)
(-17.01 -0.146628 13.3717)
(-15.5553 -0.177547 12.3356)
(-27.1646 -0.057751 5.65641)
(23.7816 0.00400426 1.53784)
(14.5731 -0.00784697 4.13862)
(13.2746 -0.0160066 4.99984)
(15.7026 -1.85165e-05 5.28535)
(14.777 0.0168329 4.79199)
(13.0507 0.0615956 3.68401)
(10.5765 0.0982722 2.19126)
(6.87043 0.306717 0.0774187)
(2.34982 -0.0253976 -2.71985)
(-5.23866 -0.862689 0.603571)
(-11.2912 -0.365143 6.66986)
(-16.478 -0.134798 11.3917)
(-17.0908 -0.14171 13.3812)
(-15.6417 -0.170457 12.3716)
(-27.1506 -0.083893 5.66605)
(23.7801 0.00297464 1.53714)
(14.5816 -0.00650859 4.14744)
(13.2949 -0.0138831 5.01072)
(15.7301 -0.000968764 5.29816)
(14.8294 0.0119752 4.81112)
(13.1346 0.0492187 3.72362)
(10.7064 0.0856293 2.24294)
(6.9938 0.320073 0.170469)
(2.57867 0.0917156 -2.66498)
(-5.18792 -0.67538 0.485487)
(-11.2504 -0.36689 6.63798)
(-16.4888 -0.122632 11.3659)
(-17.1124 -0.102368 13.3599)
(-15.6708 -0.124672 12.3675)
(-27.1415 -0.110115 5.65497)
(23.7767 0.00248628 1.53441)
(14.5846 -0.00434301 4.15282)
(13.3113 -0.0145453 5.02106)
(15.7548 -0.00947599 5.31337)
(14.8697 -0.00505219 4.83111)
(13.1842 0.0171521 3.75329)
(10.7849 0.0313416 2.27749)
(7.08627 0.289818 0.257343)
(2.93535 0.366108 -2.59066)
(-4.8842 -0.500343 0.203111)
(-11.1492 -0.437539 6.50828)
(-16.5078 -0.139641 11.3473)
(-17.1452 -0.0901531 13.3551)
(-15.6822 -0.0972291 12.3644)
(-27.1018 -0.100705 5.62168)
(23.7695 0.00094768 1.53212)
(14.6013 -0.00282228 4.16051)
(13.3512 -0.0122461 5.03955)
(15.7976 -0.01497 5.34389)
(14.9003 -0.0179472 4.86648)
(13.1662 -0.00899613 3.78267)
(10.7131 -0.00820981 2.27298)
(6.8412 0.180408 0.210445)
(3.17849 0.496044 -2.64182)
(-3.58983 -0.218373 -0.522036)
(-10.718 -0.369699 6.08014)
(-16.4318 -0.104496 11.3282)
(-17.1832 -0.0570497 13.4319)
(-15.8031 -0.0692082 12.4572)
(-27.0862 -0.0781238 5.62166)
(23.7653 -4.40835e-05 1.5302)
(14.6009 -0.00105542 4.16154)
(13.3624 -0.002405 5.04831)
(15.807 -0.00329568 5.36152)
(14.8799 -0.0033883 4.88056)
(13.0834 -0.00337624 3.7763)
(10.5582 -0.00375453 2.22778)
(6.54605 -0.00319605 0.113729)
(3.12694 -0.00867723 -2.67628)
(-2.45864 -0.00268889 -1.09148)
(-10.3063 -0.0037707 5.67517)