/*--------------------------------*- C++ -*----------------------------------*\
| =========                 |                                                 |
| \\      /  F ield         | OpenFOAM: The Open Source CFD Toolbox           |
|  \\    /   O peration     | Version:  4.1                                   |
|   \\  /    A nd           | Web:      www.OpenFOAM.org                      |
|    \\/     M anipulation  |                                                 |
\*---------------------------------------------------------------------------*/
FoamFile
{
    version     2.0;
    format      ascii;
    class       volScalarField;
    location    "11";
    object      p;
}
// * * * * * * * * * * * * * * * * * * * * * * * * * * * * * * * * * * * * * //

dimensions      [0 2 -2 0 0 0 0];

internalField   nonuniform List<scalar> 
6750
(
-523.363
-141.002
-496.69
-528.89
-601.878
-586.29
-499.295
-327.141
-214.126
-162.81
-151.923
-149.892
-146.297
-105.689
-155.781
-520.389
-139.336
-496.528
-528.428
-601.205
-585.699
-502.038
-332.28
-217.376
-164.022
-152.537
-149.175
-147.106
-104.878
-155.912
-518.323
-138.792
-496.315
-528.092
-600.671
-585.152
-503.198
-334.623
-219.481
-164.775
-152.989
-148.706
-148.288
-104.778
-156.1
-515.488
-138.054
-496.119
-527.622
-599.948
-584.699
-505.511
-338.466
-222.347
-165.593
-152.834
-147.615
-148.625
-105.371
-156.087
-513.105
-137.594
-495.834
-527.298
-599.259
-584.199
-506.739
-341.016
-224.456
-166.254
-152.563
-146.87
-148.952
-106.412
-156.071
-510.889
-137.053
-495.612
-527.077
-598.635
-583.845
-507.73
-343.374
-226.323
-166.928
-152.061
-146.452
-148.084
-107.741
-155.897
-509.407
-136.488
-495.307
-526.984
-598.202
-583.541
-507.832
-344.639
-227.639
-167.905
-151.937
-147.449
-144.794
-109.246
-155.466
-508.997
-136.249
-495.131
-526.938
-598.078
-583.472
-507.828
-344.995
-227.961
-168.219
-151.264
-147.719
-144.741
-109.843
-155.451
-509.684
-136.469
-495.341
-527.021
-598.286
-583.59
-507.813
-344.45
-227.521
-168.092
-151.929
-148.236
-144.222
-109.322
-155.562
-511.329
-137.007
-495.673
-527.163
-598.774
-583.913
-507.617
-343.074
-226.259
-167.361
-152.415
-147.55
-146.854
-107.695
-156.03
-513.677
-137.542
-495.938
-527.443
-599.442
-584.283
-506.491
-340.535
-224.26
-166.505
-152.832
-147.592
-149.036
-106.324
-156.441
-516.155
-138.001
-496.262
-527.825
-600.157
-584.791
-505.126
-337.833
-222.054
-165.762
-153.069
-148.14
-148.605
-105.126
-156.528
-519.065
-138.757
-496.501
-528.358
-600.896
-585.242
-502.659
-333.815
-219.047
-164.841
-153.104
-149.125
-148.44
-104.48
-156.656
-521.177
-139.317
-496.743
-528.738
-601.438
-585.79
-501.396
-331.34
-216.845
-164.001
-152.613
-149.571
-147.252
-104.495
-156.506
-524.192
-141.02
-496.944
-529.257
-602.115
-586.366
-498.506
-326.031
-213.558
-162.741
-151.921
-150.21
-146.493
-105.26
-156.418
-770.504
-130.139
-414.852
-518.337
-557.414
-531.475
-432.267
-273.851
-177.953
-136.884
-138.011
-132.749
-143.174
-83.5756
-207.989
-766.646
-125.779
-416.332
-519.052
-559.875
-535.23
-437.999
-279.509
-181.32
-138.125
-138.523
-133.494
-143.554
-82.6848
-207.954
-764.217
-124.533
-417.751
-519.385
-561.262
-536.943
-440.639
-282.241
-183.569
-139.369
-139.275
-134.544
-144.164
-82.2606
-208.297
-760.449
-122.237
-418.971
-519.869
-563.049
-539.612
-445.1
-286.746
-186.775
-141.122
-139.998
-134.853
-144.368
-82.3806
-207.901
-757.12
-121.612
-420.191
-520.28
-564.373
-541.426
-448.044
-289.875
-189.242
-142.451
-140.341
-135.783
-143.952
-83.0283
-207.258
-753.569
-121.345
-421.026
-520.598
-565.437
-543.078
-450.772
-292.964
-191.694
-144.078
-140.84
-136.478
-141.273
-83.9331
-206.098
-750.398
-122.335
-421.534
-520.814
-566.076
-544.107
-452.264
-294.804
-193.44
-145.515
-141.154
-134.434
-138.594
-84.682
-205.037
-749.254
-122.881
-421.534
-520.834
-566.229
-544.395
-452.703
-295.394
-193.941
-145.948
-140.417
-133.4
-138.144
-84.6422
-204.864
-751.1
-121.971
-421.459
-520.823
-566.045
-544.005
-452.093
-294.591
-193.356
-145.616
-141.182
-134.194
-137.682
-84.5429
-205.052
-754.339
-121.123
-420.925
-520.601
-565.35
-542.892
-450.458
-292.654
-191.698
-144.441
-141.174
-136.401
-139.998
-83.714
-206.185
-758.019
-121.53
-420.048
-520.282
-564.224
-541.148
-447.553
-289.397
-189.138
-142.631
-140.545
-136.571
-143.47
-82.8035
-207.716
-761.402
-122.262
-418.812
-519.878
-562.837
-539.25
-444.456
-286.127
-186.573
-141.197
-140.121
-135.169
-144.272
-82.0565
-208.558
-765.224
-124.67
-417.59
-519.404
-560.986
-536.481
-439.823
-281.471
-183.257
-139.403
-139.337
-134.891
-144.34
-81.9726
-209.191
-767.679
-125.984
-416.159
-519.071
-559.55
-534.701
-437.072
-278.614
-180.901
-138
-138.585
-133.69
-143.784
-82.352
-208.933
-771.563
-130.429
-414.698
-518.368
-557.028
-530.836
-431.178
-272.803
-177.51
-136.754
-138.016
-132.826
-143.499
-83.2065
-209.101
-901.603
-177.098
-272.131
-421.645
-406.969
-371.245
-305.415
-214.312
-165.335
-135.672
-144.361
-126.965
-156.001
-42.6584
-301.439
-899.691
-172.969
-273.533
-423.297
-410.016
-374.915
-309.212
-217.413
-166.923
-136.108
-143.715
-127.914
-155.999
-40.9519
-301.629
-898.669
-171.611
-275.338
-424.315
-411.753
-376.803
-311.085
-218.923
-167.814
-135.896
-143.135
-127.802
-156.256
-40.1875
-302.005
-896.966
-168.697
-276.653
-425.535
-414.129
-379.681
-314.186
-221.5
-169.309
-136.072
-142.847
-129.207
-157.243
-39.6623
-300.532
-895.655
-167.343
-278.337
-426.763
-416.083
-381.854
-316.443
-223.423
-170.625
-136.116
-142.855
-129.494
-157.092
-39.4028
-298.43
-894.248
-165.968
-279.397
-427.686
-417.764
-383.863
-318.64
-225.488
-172.237
-137.171
-143.743
-131.539
-157.126
-39.2852
-295.315
-892.916
-166.018
-280.394
-428.492
-419.012
-385.281
-320.112
-226.936
-173.631
-138.568
-145.773
-129.706
-150.249
-39.6358
-291.77
-892.337
-166.195
-280.556
-428.597
-419.282
-385.656
-320.571
-227.465
-174.105
-139.039
-144.772
-126.977
-148.12
-39.3762
-290.585
-893.222
-165.931
-280.28
-428.415
-418.897
-385.156
-320.017
-226.906
-173.772
-138.812
-145.899
-128.612
-148.492
-39.1277
-291.799
-894.537
-166.058
-279.252
-427.575
-417.584
-383.672
-318.503
-225.481
-172.513
-137.697
-144.258
-130.666
-153.905
-38.7047
-295.335
-896.001
-167.582
-278.139
-426.616
-415.834
-381.589
-316.238
-223.362
-170.874
-136.329
-143.247
-129.185
-157.146
-38.9029
-299.456
-897.343
-169.031
-276.422
-425.37
-413.831
-379.36
-313.924
-221.373
-169.47
-136.171
-143.083
-128.711
-157.031
-39.367
-301.937
-899.081
-172.038
-275.089
-424.138
-411.407
-376.418
-310.754
-218.742
-167.953
-136.131
-143.455
-128.203
-156.87
-40.0903
-304.034
-900.122
-173.447
-273.259
-423.108
-409.638
-374.493
-308.841
-217.186
-167.045
-136.269
-144.094
-127.81
-156.454
-40.8474
-303.849
-902.051
-177.637
-271.861
-421.451
-406.556
-370.768
-304.979
-214.023
-165.469
-135.841
-144.816
-126.964
-156.633
-42.608
-303.982
-979.441
-252.963
-215.137
-377.051
-344.495
-312.673
-270.459
-204.555
-169.058
-135.362
-151.664
-113.352
-172.999
6.83846
-409.314
-978.472
-250.658
-215.063
-377.515
-345.485
-314.285
-272.352
-206.249
-170.021
-135.595
-151.189
-113.443
-174.697
9.99525
-409.583
-977.94
-249.86
-215.708
-378
-346.219
-315.298
-273.472
-207.216
-170.841
-135.516
-151.288
-112.929
-173.571
10.9455
-410.389
-977.024
-248.082
-215.808
-378.357
-347.119
-316.672
-275.163
-208.787
-172.042
-135.494
-150.565
-113.045
-178.531
14.0569
-408.382
-976.358
-247.176
-216.389
-378.949
-348.05
-317.845
-276.546
-210.1
-173.281
-135.765
-150.748
-113.57
-180.593
17.5344
-403.963
-975.639
-246.101
-216.563
-379.257
-348.776
-318.854
-277.849
-211.497
-174.813
-137.004
-152.098
-117.297
-181.755
18.6449
-394.49
-975.051
-245.724
-216.966
-379.704
-349.475
-319.659
-278.805
-212.541
-176.093
-138.473
-154.475
-118.838
-175.006
18.1247
-387.585
-974.744
-245.596
-217.012
-379.715
-349.6
-319.862
-279.119
-212.958
-176.643
-139.077
-155.152
-116.349
-170.158
18.1326
-385.308
-975.155
-245.813
-216.955
-379.675
-349.435
-319.633
-278.827
-212.652
-176.43
-138.934
-155.597
-117.409
-173.285
19.2897
-386.615
-975.777
-246.248
-216.538
-379.233
-348.742
-318.833
-277.909
-211.724
-175.445
-137.948
-154.268
-118.487
-179.946
19.0675
-393.347
-976.513
-247.413
-216.369
-378.926
-348.01
-317.818
-276.618
-210.358
-173.94
-136.516
-151.982
-114.806
-181.997
18.508
-405.137
-977.208
-248.376
-215.778
-378.334
-347.08
-316.641
-275.231
-209.02
-172.579
-135.962
-151.348
-113.403
-179.52
14.6621
-411.367
-978.144
-250.204
-215.68
-377.981
-346.178
-315.254
-273.523
-207.425
-171.318
-135.936
-151.707
-113.237
-175.651
11.1883
-414.544
-978.69
-251.036
-215.029
-377.496
-345.444
-314.237
-272.399
-206.443
-170.514
-136.021
-151.745
-113.784
-175.468
10.094
-414.128
-979.668
-253.377
-215.11
-377.034
-344.451
-312.608
-270.486
-204.729
-169.586
-135.805
-152.165
-113.947
-173.879
6.21374
-414.264
-1058.59
-299.151
-202.296
-364.668
-323.225
-288.639
-260.711
-211.918
-190.729
-149.421
-182.794
-113.075
-213.068
49.859
-540.659
-1058.01
-297.884
-202.025
-364.803
-323.635
-289.432
-261.701
-212.935
-191.254
-149.124
-182.571
-113.643
-215.092
47.2106
-535.648
-1057.7
-297.453
-202.315
-365.118
-324.035
-289.97
-262.318
-213.564
-191.905
-149.338
-183.593
-114.449
-213.735
46.4132
-536.342
-1057.14
-296.497
-202.204
-365.246
-324.425
-290.67
-263.252
-214.602
-192.853
-149.742
-182.793
-112.653
-222.317
44.8223
-524.257
-1056.74
-296.067
-202.431
-365.582
-324.913
-291.301
-264.036
-215.481
-193.85
-150.567
-184.291
-111.806
-232.809
38.0881
-496.273
-1056.29
-295.544
-202.389
-365.679
-325.215
-291.789
-264.753
-216.381
-194.958
-151.751
-186.77
-112.098
-238.537
35.7283
-466.477
-1055.97
-295.403
-202.508
-365.884
-325.564
-292.2
-265.286
-217.035
-195.783
-152.757
-188.895
-112.936
-239.005
37.5844
-453.057
-1055.75
-295.349
-202.502
-365.854
-325.6
-292.287
-265.466
-217.314
-196.158
-153.138
-189.737
-112.821
-236.443
39.1585
-453.197
-1055.95
-295.484
-202.546
-365.881
-325.565
-292.221
-265.353
-217.184
-196.069
-153.184
-189.611
-112.931
-240.766
35.8986
-448.844
-1056.33
-295.636
-202.391
-365.67
-325.234
-291.84
-264.888
-216.673
-195.512
-152.684
-188.389
-113.026
-241.572
33.2022
-462.027
-1056.76
-296.211
-202.445
-365.584
-324.946
-291.372
-264.219
-215.859
-194.538
-151.615
-186.064
-112.284
-235.83
34.8139
-492.79
-1057.17
-296.687
-202.212
-365.242
-324.467
-290.758
-263.466
-215.013
-193.519
-150.609
-183.736
-113.153
-225.025
42.5782
-527.291
-1057.74
-297.664
-202.321
-365.114
-324.081
-290.065
-262.547
-213.989
-192.552
-150.113
-183.737
-114.788
-215.846
45.5345
-543.034
-1058.06
-298.117
-202.027
-364.797
-323.686
-289.535
-261.944
-213.371
-191.939
-149.965
-183.033
-114.323
-216.41
46.9195
-543.675
-1058.64
-299.402
-202.297
-364.656
-323.271
-288.737
-260.954
-212.359
-191.453
-150.283
-182.931
-113.802
-214.548
49.3082
-551.348
-1139.91
-332.915
-203.784
-370.174
-328.732
-298.442
-281.748
-240.533
-228.907
-177.862
-228.904
-115.589
-301.477
37.1919
-675.631
-1139.6
-332.244
-203.628
-370.273
-329.002
-298.982
-282.443
-241.306
-229.232
-177.437
-228.526
-116.884
-295.619
29.6552
-677.483
-1139.43
-332.01
-203.8
-370.491
-329.261
-299.333
-282.848
-241.773
-229.716
-177.9
-229.469
-117.583
-296.005
27.1937
-682.101
-1139.12
-331.492
-203.735
-370.592
-329.519
-299.823
-283.514
-242.587
-230.482
-178.492
-229.799
-114.45
-306.302
20.1714
-649.363
-1138.89
-331.264
-203.872
-370.825
-329.839
-300.25
-284.038
-243.204
-231.18
-179.184
-230.855
-113.36
-312.138
13.1348
-610.356
-1138.63
-330.983
-203.845
-370.898
-330.032
-300.593
-284.539
-243.837
-231.936
-179.805
-232.518
-113.43
-319.02
8.50976
-565.911
-1138.46
-330.924
-203.91
-371.034
-330.251
-300.868
-284.889
-244.247
-232.439
-180.215
-233.858
-113.763
-320.815
7.8775
-541.778
-1138.29
-330.915
-203.895
-371.014
-330.273
-300.935
-285.028
-244.447
-232.685
-180.341
-234.424
-114.184
-320.356
8.77187
-539.498
-1138.35
-331.009
-203.941
-371.033
-330.266
-300.898
-284.959
-244.384
-232.642
-180.559
-234.224
-113.882
-321.666
7.72385
-545.772
-1138.57
-331.072
-203.856
-370.891
-330.062
-300.655
-284.681
-244.107
-232.331
-180.489
-233.094
-113.666
-320.527
8.5312
-570.993
-1138.82
-331.365
-203.881
-370.82
-329.882
-300.336
-284.234
-243.573
-231.724
-180.08
-231.675
-113.866
-314.732
12.9321
-616.696
-1139.03
-331.622
-203.742
-370.586
-329.575
-299.934
-283.756
-243.019
-231.079
-179.378
-230.334
-114.696
-308.818
20.0753
-658.42
-1139.33
-332.148
-203.801
-370.479
-329.321
-299.452
-283.113
-242.242
-230.355
-178.759
-229.84
-117.463
-297.879
26.9627
-693.453
-1139.5
-332.393
-203.628
-370.261
-329.071
-299.112
-282.728
-241.799
-229.916
-178.343
-229.03
-117.256
-297.212
30.8123
-691.043
-1139.81
-333.063
-203.779
-370.152
-328.794
-298.565
-282.036
-241.042
-229.63
-178.728
-229.118
-115.932
-301.628
39.2902
-693.826
-1221.91
-363.097
-212.382
-385.299
-343.109
-315.75
-307.314
-272.474
-270.54
-213.871
-278.052
-124.12
-384.851
18.4925
-962.365
-1221.78
-362.776
-212.311
-385.408
-343.357
-316.217
-307.906
-273.138
-270.803
-214.115
-277.309
-129.574
-358.613
27.4363
-984.516
-1221.71
-362.648
-212.403
-385.556
-343.532
-316.452
-308.179
-273.478
-271.183
-214.785
-278.08
-128.481
-360.578
21.3113
-981.55
-1221.58
-362.388
-212.379
-385.662
-343.753
-316.857
-308.725
-274.154
-271.895
-215.597
-279.637
-128.233
-377.727
1.91324
-938.956
-1221.48
-362.257
-212.455
-385.822
-343.969
-317.147
-309.081
-274.585
-272.494
-216.366
-281.622
-129.016
-386.887
-2.70211
-893.173
-1221.38
-362.101
-212.445
-385.894
-344.124
-317.422
-309.477
-275.076
-273.148
-216.93
-283.334
-130.354
-389.07
7.34346
-835.153
-1221.3
-362.047
-212.481
-385.984
-344.263
-317.604
-309.703
-275.345
-273.546
-217.392
-284.734
-132.807
-389.704
9.46072
-794.563
-1221.24
-362.017
-212.461
-385.974
-344.288
-317.671
-309.832
-275.52
-273.772
-217.523
-285.149
-133.639
-388.574
11.7467
-794.131
-1221.21
-362.082
-212.477
-385.965
-344.269
-317.625
-309.77
-275.477
-273.723
-217.757
-284.959
-133.489
-389.712
11.5975
-811.04
-1221.22
-362.157
-212.437
-385.865
-344.14
-317.472
-309.613
-275.332
-273.491
-217.581
-283.842
-131.505
-390.16
10.2653
-853.576
-1221.3
-362.305
-212.437
-385.781
-343.988
-317.216
-309.27
-274.94
-272.971
-217.199
-282.283
-130.148
-389.917
-0.592202
-909.571
-1221.36
-362.434
-212.359
-385.616
-343.783
-316.949
-308.965
-274.583
-272.45
-216.459
-280.229
-128.728
-380.424
3.71251
-955.15
-1221.46
-362.682
-212.37
-385.493
-343.556
-316.546
-308.446
-273.956
-271.809
-215.659
-278.645
-129.009
-362.297
25.3463
-1000.21
-1221.52
-362.811
-212.279
-385.343
-343.388
-316.324
-308.2
-273.646
-271.468
-214.966
-277.907
-130.136
-360.86
33.7507
-1002.8
-1221.62
-363.112
-212.336
-385.213
-343.119
-315.838
-307.616
-273.01
-271.264
-214.685
-278.58
-123.995
-387.61
24.333
-978.936
-1307.98
-392.913
-226.485
-409.812
-368.02
-345.324
-345.297
-316.825
-322.203
-265.048
-330.307
-157.279
-422.576
107.022
-1504.38
-1307.95
-392.814
-226.483
-409.972
-368.333
-345.814
-345.89
-317.46
-322.498
-265.414
-330.223
-162.621
-401.941
144.58
-1523
-1307.94
-392.756
-226.529
-410.083
-368.464
-345.969
-346.081
-317.713
-322.939
-266.205
-332.175
-162.2
-406.86
131.315
-1516.05
-1307.91
-392.663
-226.546
-410.222
-368.712
-346.358
-346.608
-318.343
-323.755
-267.147
-335.821
-163.683
-433.941
72.8733
-1468.99
-1307.89
-392.598
-226.588
-410.341
-368.874
-346.552
-346.868
-318.677
-324.478
-268.134
-340.303
-168.189
-464.12
16.5726
-1419.92
-1307.87
-392.527
-226.598
-410.432
-369.036
-346.801
-347.246
-319.137
-325.329
-268.934
-344.912
-172.552
-494.171
12.4443
-1312.16
-1307.84
-392.48
-226.614
-410.495
-369.128
-346.914
-347.402
-319.348
-325.804
-269.779
-347.452
-178.016
-492.137
24.4214
-1255.68
-1307.82
-392.444
-226.599
-410.505
-369.16
-346.993
-347.549
-319.536
-326.091
-270.093
-348.106
-180.461
-493.606
18.3283
-1247.41
-1307.8
-392.434
-226.585
-410.476
-369.11
-346.934
-347.471
-319.474
-325.974
-270.168
-347.484
-179.027
-493.755
24.3017
-1274.05
-1307.78
-392.444
-226.548
-410.397
-369.014
-346.848
-347.385
-319.388
-325.672
-269.647
-345.174
-174.088
-496.02
13.8115
-1329.86
-1307.75
-392.479
-226.517
-410.284
-368.839
-346.61
-347.062
-319.034
-324.998
-269.076
-340.764
-169.069
-465.169
22.8169
-1442.47
-1307.73
-392.518
-226.465
-410.153
-368.68
-346.438
-346.86
-318.793
-324.412
-268.258
-336.452
-164.705
-434.959
80.6851
-1496.39
-1307.7
-392.577
-226.427
-409.985
-368.411
-346.045
-346.369
-318.24
-323.767
-267.501
-333.232
-163.575
-409.272
141.081
-1544.67
-1307.67
-392.632
-226.386
-409.866
-368.281
-345.904
-346.211
-318.032
-323.403
-266.782
-331.563
-164.521
-405.833
154.502
-1552.22
-1307.64
-392.698
-226.37
-409.673
-367.925
-345.39
-345.629
-317.452
-323.268
-266.572
-332.092
-160.077
-427.12
118.033
-1533.67
-1399.38
-424.127
-244.561
-441.545
-400.678
-383.36
-391.661
-370.884
-384.201
-333.803
-391.08
-230.857
-473.048
287.096
-2206.23
-1399.43
-424.185
-244.621
-441.777
-401.14
-383.957
-392.398
-371.48
-384.349
-333.326
-391.619
-226.527
-464.65
312.605
-2209.71
-1399.43
-424.18
-244.638
-441.869
-401.263
-384.038
-392.558
-371.562
-384.891
-333.494
-395.118
-220.525
-465.343
310.342
-2211.8
-1399.46
-424.215
-244.695
-442.055
-401.598
-384.457
-393.166
-372.033
-385.657
-333.459
-399.133
-215.456
-482.408
281.315
-2187.1
-1399.45
-424.21
-244.722
-442.149
-401.745
-384.564
-393.374
-372.141
-386.305
-333.675
-403.713
-215.127
-504.677
200.902
-2182.12
-1399.47
-424.204
-244.753
-442.258
-401.952
-384.81
-393.789
-372.474
-387.141
-333.749
-409.251
-215.374
-561.593
101.915
-2048.92
-1399.45
-424.166
-244.762
-442.297
-402.019
-384.856
-393.896
-372.542
-387.547
-334.176
-412.57
-222.599
-572.11
88.6955
-1970.49
-1399.43
-424.124
-244.758
-442.318
-402.065
-384.943
-394.07
-372.709
-387.888
-334.418
-413.524
-226.244
-561.479
86.1113
-1986.34
-1399.39
-424.053
-244.73
-442.264
-401.969
-384.848
-393.952
-372.62
-387.73
-334.465
-412.294
-222.511
-563.359
97.8276
-2013.1
-1399.35
-423.989
-244.697
-442.194
-401.872
-384.802
-393.903
-372.64
-387.499
-334.371
-408.962
-216.457
-550.647
114.693
-2092.82
-1399.27
-423.905
-244.637
-442.039
-401.628
-384.541
-393.534
-372.398
-386.895
-334.636
-404.166
-217.41
-502.928
218.368
-2217.9
-1399.2
-423.85
-244.595
-441.916
-401.467
-384.438
-393.378
-372.369
-386.407
-334.679
-400.079
-220.008
-483.968
293.031
-2231.4
-1399.09
-423.759
-244.506
-441.678
-401.09
-383.991
-392.796
-371.979
-385.855
-335.037
-396.275
-226.256
-471.106
321.46
-2255.2
-1398.99
-423.76
-244.492
-441.566
-400.96
-383.912
-392.668
-371.924
-385.39
-334.923
-392.378
-232.782
-473.61
320.574
-2254.52
-1398.85
-423.651
-244.402
-441.282
-400.431
-383.267
-391.933
-371.383
-385.542
-335.636
-392.341
-237.425
-485.212
295.61
-2249.98
-1495.84
-458.439
-265.585
-478.575
-439.127
-427.18
-444.901
-432.281
-460.309
-418.675
-473.089
-343.997
-652.043
390.759
-3091.71
-1495.96
-458.625
-265.711
-478.94
-439.866
-428.076
-446.023
-433.079
-458.834
-415.968
-469.043
-337.67
-644.938
400.967
-3085.99
-1496
-458.66
-265.714
-479.048
-440.021
-428.145
-446.134
-433.041
-458.556
-415.487
-470.9
-330.813
-630.12
410.581
-3097.95
-1496.08
-458.795
-265.812
-479.327
-440.521
-428.712
-446.894
-433.392
-458.473
-413.88
-474.577
-320.143
-616.851
422.822
-3089.47
-1496.08
-458.841
-265.831
-479.429
-440.699
-428.787
-447.06
-433.285
-458.829
-413.459
-482.647
-311.747
-604.803
410.584
-3101.39
-1496.12
-458.894
-265.878
-479.582
-440.994
-429.091
-447.561
-433.501
-459.687
-412.946
-492.406
-305.445
-635.114
340.205
-3026.31
-1496.1
-458.865
-265.877
-479.611
-441.064
-429.097
-447.641
-433.411
-460.038
-412.673
-496.13
-305.271
-649.047
305.729
-2987.82
-1496.09
-458.809
-265.88
-479.639
-441.127
-429.199
-447.86
-433.541
-460.427
-412.589
-497.426
-305.666
-642.961
328.228
-3022.33
-1496.02
-458.68
-265.833
-479.546
-440.969
-429.04
-447.691
-433.4
-460.31
-412.726
-496.204
-305.46
-642.692
337.622
-3041.47
-1495.95
-458.551
-265.796
-479.454
-440.835
-428.991
-447.665
-433.501
-460.234
-413.153
-492.976
-307.236
-631.402
372.824
-3098.58
-1495.81
-458.362
-265.701
-479.22
-440.47
-428.629
-447.217
-433.332
-459.772
-413.976
-483.48
-314.59
-614.572
435.064
-3166.22
-1495.68
-458.222
-265.653
-479.062
-440.255
-428.523
-447.107
-433.472
-459.76
-414.575
-475.863
-324.605
-633.915
439.988
-3164.45
-1495.48
-457.999
-265.503
-478.698
-439.684
-427.894
-446.39
-433.228
-460.476
-416.82
-474.372
-335.907
-652.84
423.861
-3165.19
-1495.3
-457.954
-265.5
-478.552
-439.507
-427.808
-446.313
-433.261
-461.136
-417.428
-473.752
-342.801
-668.677
411.395
-3156.14
-1495.05
-457.69
-265.326
-478.106
-438.661
-426.83
-445.164
-432.572
-463.437
-420.894
-479.445
-350.458
-678.164
399.589
-3160.2
-1596.59
-497.756
-289.847
-521.571
-485.215
-478.922
-507.978
-504.502
-562.754
-516.193
-610.743
-467.565
-989.286
449.208
-4301.9
-1596.78
-498.062
-290.046
-522.136
-486.387
-480.303
-510.202
-504.938
-557.921
-509.836
-605.111
-459.372
-992.004
452.268
-4282.78
-1596.85
-498.131
-290.043
-522.281
-486.651
-480.36
-510.568
-504.643
-555.42
-509.242
-602.28
-453.42
-969.31
455.987
-4289.99
-1596.97
-498.356
-290.189
-522.689
-487.415
-481.156
-511.761
-504.766
-553.255
-508.179
-601.85
-448.136
-951.122
467.473
-4264.79
-1596.99
-498.441
-290.206
-522.817
-487.68
-481.201
-511.988
-504.43
-551.774
-507.072
-601.493
-445.146
-910.912
481.086
-4290.97
-1597.05
-498.532
-290.271
-523.029
-488.107
-481.591
-512.659
-504.575
-551.756
-506.911
-607.274
-440.709
-907.485
480.443
-4249.41
-1597.02
-498.495
-290.261
-523.053
-488.198
-481.55
-512.732
-504.32
-551.447
-506.71
-610.845
-436.884
-898.931
477.311
-4271.07
-1597
-498.411
-290.262
-523.081
-488.276
-481.653
-513.003
-504.37
-551.808
-506.413
-611.637
-434.239
-904.816
501.37
-4301.66
-1596.9
-498.214
-290.192
-522.932
-488.03
-481.389
-512.735
-504.074
-551.827
-506.218
-609.958
-434.77
-901.236
516.303
-4351.16
-1596.79
-498.008
-290.141
-522.791
-487.813
-481.288
-512.661
-504.138
-552.474
-506.342
-608.094
-438.679
-904.242
515.323
-4372.55
-1596.58
-497.712
-290.002
-522.443
-487.26
-480.75
-512.009
-503.897
-553.218
-506.558
-605.512
-443.974
-937.353
505.882
-4379.45
-1596.39
-497.482
-289.937
-522.21
-486.909
-480.6
-511.766
-504.133
-555.091
-506.669
-605.797
-443.965
-976.166
490.48
-4395.94
-1596.09
-497.128
-289.714
-521.663
-486.021
-479.67
-510.553
-504.171
-558.156
-508.355
-609.999
-454.346
-1007.85
475.801
-4389.61
-1595.83
-497.04
-289.711
-521.45
-485.701
-479.552
-510.114
-504.514
-561.073
-509.125
-613.763
-459.911
-1028.97
461.996
-4384.09
-1595.44
-496.622
-289.441
-520.752
-484.363
-478.003
-507.753
-504.391
-566.926
-517.282
-621.989
-473.272
-1030.93
458.878
-4394.23
-1699.19
-543.176
-315.947
-567.032
-533.806
-530.237
-570.079
-582.597
-670.286
-628.39
-805.973
-610.59
-1494.76
499.664
-5930.93
-1699.46
-543.629
-316.263
-567.987
-535.705
-532.889
-574.45
-581.192
-664.251
-615.225
-794.243
-592.878
-1490.95
511.295
-5870.2
-1699.57
-543.753
-316.277
-568.255
-536.21
-533.039
-575.746
-578.319
-660.543
-608.099
-786.992
-582.562
-1433.32
506.733
-5917.65
-1699.74
-544.088
-316.5
-568.913
-537.447
-534.351
-578.082
-576.85
-658.182
-600.254
-783.5
-581.569
-1423.24
531.947
-5853.55
-1699.78
-544.236
-316.537
-569.15
-537.938
-534.462
-578.806
-575.096
-655.007
-596.425
-776.815
-568.015
-1365.59
549.38
-5967.05
-1699.86
-544.378
-316.637
-569.484
-538.619
-535.06
-579.99
-574.625
-654.329
-596.333
-779.444
-567.014
-1400.09
582.097
-5921.96
-1699.84
-544.337
-316.626
-569.541
-538.803
-535.032
-580.219
-573.881
-652.586
-594.37
-776.544
-556.346
-1362.97
563.317
-5976.77
-1699.8
-544.21
-316.622
-569.572
-538.919
-535.153
-580.619
-573.76
-652.893
-593.064
-780.164
-552.685
-1382.12
572.731
-5959.65
-1699.67
-543.923
-316.513
-569.339
-538.549
-534.739
-580.185
-573.379
-653.133
-592.719
-777.754
-546
-1397.54
600.463
-6047.29
-1699.5
-543.605
-316.421
-569.087
-538.167
-534.497
-579.887
-573.67
-654.716
-592.443
-776.978
-558.721
-1349.26
627.287
-6140.22
-1699.21
-543.163
-316.203
-568.534
-537.298
-533.641
-578.757
-574.016
-656.596
-593.475
-780.414
-562.757
-1390.32
590.93
-6099.13
-1698.92
-542.799
-316.085
-568.121
-536.672
-533.319
-577.991
-575.728
-660.286
-597.544
-790.082
-572.335
-1455.78
553.573
-6060.1
-1698.49
-542.277
-315.744
-567.248
-535.264
-531.774
-575.677
-577.527
-663.87
-606.919
-798.292
-582.044
-1482.47
547.256
-6076.84
-1698.11
-542.118
-315.712
-566.863
-534.677
-531.478
-574.301
-580.742
-667.947
-614.595
-807.027
-595.981
-1529.13
544.551
-6043.46
-1697.57
-541.509
-315.287
-565.706
-532.553
-528.497
-569.836
-582.533
-675.084
-628.864
-823.923
-621.263
-1537.19
528.289
-6062.09
-1798.83
-597.704
-346.903
-618.467
-594.532
-589.427
-647.302
-662.725
-785.767
-718.92
-1073.6
-664.575
-2208.72
705.688
-8028.38
-1799.15
-598.255
-347.344
-619.879
-597.311
-594.299
-654.548
-664.516
-781.676
-710.782
-1043.78
-659.666
-2119.49
693.415
-8115.76
-1799.29
-598.426
-347.387
-620.341
-598.105
-595.06
-656.905
-659.103
-777.215
-705.836
-1018.28
-670.03
-1969.51
726.248
-8311.16
-1799.49
-598.836
-347.684
-621.299
-599.877
-597.363
-660.829
-657.317
-778.653
-695.342
-1001.04
-652.102
-1949.09
785.568
-8237.41
-1799.55
-599.027
-347.743
-621.692
-600.623
-597.847
-662.349
-654.33
-776.799
-687.155
-1000.09
-638.788
-1956.21
756.459
-8344.78
-1799.63
-599.192
-347.872
-622.169
-601.581
-598.843
-664.4
-653.409
-778.361
-682.095
-1009.05
-590.477
-2213.73
617.483
-7888.7
-1799.6
-599.129
-347.859
-622.271
-601.855
-598.916
-664.906
-652.209
-775.736
-678.855
-1007.81
-619.056
-1985.45
674.501
-8192.33
-1799.54
-598.945
-347.846
-622.294
-602
-599.025
-665.524
-651.729
-776.346
-674.938
-1013.36
-606.463
-2000.3
729.021
-8209.1
-1799.37
-598.571
-347.701
-621.955
-601.483
-598.35
-664.781
-651.008
-776.582
-675.493
-1010.63
-601.883
-2058.46
686.134
-8155.73
-1799.14
-598.147
-347.569
-621.545
-600.901
-597.72
-664.032
-650.906
-777.663
-675.166
-998.341
-609.723
-1885.31
794.534
-8612.42
-1798.77
-597.581
-347.28
-620.735
-599.664
-596.219
-662.054
-651.145
-778.763
-679.834
-1002.91
-637.227
-1957.5
860.034
-8634.4
-1798.39
-597.102
-347.108
-620.065
-598.699
-595.255
-660.346
-653.255
-779.436
-685.583
-1000.04
-632.173
-1873.43
821.816
-8701.1
-1797.84
-596.451
-346.651
-618.788
-596.682
-592.493
-656.491
-654.918
-780.585
-696.578
-1035.64
-666.519
-2036.67
749.967
-8608.16
-1797.34
-596.239
-346.58
-618.143
-595.756
-591.361
-654.035
-659.753
-785.574
-699.788
-1058.79
-648.105
-2157.26
700.59
-8409.44
-1796.68
-595.487
-345.988
-616.442
-592.671
-585.944
-646.684
-656.945
-791.447
-708.428
-1097.39
-677.567
-2203.95
731.346
-8371.48
-1895.91
-664.062
-380.924
-672.14
-655.687
-639.116
-716.909
-707.287
-915.431
-781.97
-1514.15
-714.121
-3221.22
597.99
-10698.8
-1896.28
-664.729
-381.537
-674.075
-659.537
-646.489
-727.464
-719.726
-909.375
-779.204
-1426.22
-777.268
-2907.25
869.488
-11216.4
-1896.46
-664.972
-381.656
-674.848
-660.828
-648.425
-730.872
-716.236
-896.527
-776.676
-1344.4
-739.563
-2589.61
1031.01
-11744.8
-1896.69
-665.468
-382.068
-676.223
-663.37
-652.314
-736.738
-717.777
-894.887
-772.731
-1326.22
-740.305
-3002.14
924.77
-11088.2
-1896.76
-665.709
-382.185
-676.897
-664.593
-653.707
-739.112
-714.776
-888.726
-760.894
-1305.13
-675.346
-2777.18
936.298
-11299.8
-1896.84
-665.88
-382.361
-677.602
-666.022
-655.545
-742.432
-714.91
-892.998
-753.114
-1330.81
-645.292
-2979.22
661.081
-10690.6
-1896.8
-665.761
-382.338
-677.805
-666.501
-656.007
-743.328
-713.456
-885.894
-744.961
-1282.72
-655.726
-2500.13
854.03
-11670.7
-1896.7
-665.464
-382.278
-677.811
-666.72
-656.195
-744.537
-712.864
-889.443
-737.902
-1329.01
-609.993
-2831.35
714.809
-11129.1
-1896.45
-664.928
-382.029
-677.311
-665.978
-655.204
-743.435
-712.215
-888.624
-740.632
-1305.89
-632.896
-2577.67
884.836
-11485
-1896.13
-664.304
-381.767
-676.624
-665.05
-653.908
-742.288
-711.739
-892.219
-744.045
-1294.99
-688.877
-2535.07
942.811
-11796.8
-1895.62
-663.512
-381.301
-675.412
-663.243
-651.356
-739.369
-710.986
-893.376
-751.234
-1312.04
-634.313
-3185.54
624.882
-11087.3
-1895.09
-662.813
-380.961
-674.304
-661.712
-649.18
-736.885
-711.665
-897.853
-756.264
-1323.6
-745.202
-2659.32
1065.55
-12236
-1894.36
-661.935
-380.283
-672.464
-658.886
-644.65
-731.544
-709.29
-904.966
-762.717
-1370.06
-795.753
-2704.48
1077.93
-12088.3
-1893.67
-661.582
-380.08
-671.419
-657.444
-642.193
-728.337
-710.575
-918.369
-761.776
-1447.62
-808.026
-2898.66
893.747
-11691.9
-1892.84
-660.609
-379.23
-669.1
-653.308
-634.287
-718.413
-696.782
-928.124
-766.004
-1546.23
-788.5
-3074.74
780.921
-11358.7
-1955.31
-757.743
-432.142
-728.602
-755.861
-722.606
-853.387
-772.71
-1115.97
-848.321
-1870.3
-772.805
-3231.84
1948.07
-15687.2
-1955.6
-758.315
-432.709
-730.553
-759.328
-730.296
-862.581
-792.168
-1110.93
-860.108
-1728.12
-810.236
-3243.16
2038.04
-15980.5
-1955.76
-758.535
-432.809
-731.378
-760.491
-732.638
-865.527
-793.425
-1096.87
-862.845
-1649.79
-761.293
-3308.35
1557.43
-16690.6
-1955.95
-758.958
-433.175
-732.788
-762.907
-737.046
-871.435
-799.738
-1093.8
-861.876
-1609.68
-509.521
-4030.13
1221.76
-14647.5
-1956.01
-759.159
-433.249
-733.503
-764.002
-738.873
-873.483
-800.209
-1087.83
-851.405
-1671.09
-604.016
-3831.69
1095.61
-15687.8
-1956.06
-759.262
-433.382
-734.201
-765.379
-740.958
-877.056
-802.961
-1091.37
-851.505
-1693.92
-646.675
-3322.26
1420.74
-16116.3
-1956
-759.097
-433.296
-734.391
-765.716
-741.562
-877.513
-803.402
-1081.46
-849.632
-1633.78
-650.279
-3046.7
1720.53
-17105.5
-1955.87
-758.761
-433.187
-734.306
-765.947
-741.545
-879.255
-802.502
-1088.87
-839.483
-1751.92
-543.109
-3885.94
1019.35
-15546
-1955.6
-758.213
-432.881
-733.707
-765.107
-740.28
-877.779
-800.396
-1084.74
-834.298
-1696.74
-618.94
-3738.38
1689.14
-15655.2
-1955.25
-757.576
-432.584
-732.867
-764.222
-738.419
-877.129
-797.171
-1089.13
-838.537
-1622.73
-569.452