/*--------------------------------*- C++ -*----------------------------------*\
| =========                 |                                                 |
| \\      /  F ield         | OpenFOAM: The Open Source CFD Toolbox           |
|  \\    /   O peration     | Version:  4.1                                   |
|   \\  /    A nd           | Web:      www.OpenFOAM.org                      |
|    \\/     M anipulation  |                                                 |
\*---------------------------------------------------------------------------*/
FoamFile
{
    version     2.0;
    format      ascii;
    class       surfaceScalarField;
    location    "11";
    object      phi;
}
// * * * * * * * * * * * * * * * * * * * * * * * * * * * * * * * * * * * * * //

dimensions      [0 3 -1 0 0 0 0];

internalField   nonuniform List<scalar> 
19125
(
489.247
-33.5795
956.606
521.164
-16.3781
1476.12
515.798
5.7348
1083.87
483.218
0.793062
775.158
484.512
-16.62
301.523
496.65
12.0376
-343.013
357.5
136.711
-1048.01
135.716
192.175
-1305.69
-54.3355
149.594
-1066.3
-149.653
139.088
-661.558
-102.453
98.6877
-197.261
-45.7505
-20.0125
423.327
-51.9017
10.131
1243.63
-83.8795
-5.77929
1150.29
-0.318969
2081.96
475.509
-38.4222
972.11
504.974
-14.4222
1511.13
498.997
6.53167
1118.05
461.414
-0.644516
800.047
448.835
-20.7232
314.965
451.313
11.4929
-324.673
328.902
152.232
-1028.91
138.147
214.45
-1301.91
-39.4866
185.257
-1083.13
-137.449
175.446
-685.197
-103.065
121.534
-254.34
-46.6363
-39.7934
334.228
-51.2051
13.0078
1287.41
-85.3252
-1.13029
1214.75
-0.202035
2057.66
468.733
-40.3164
981.744
497.598
-11.3381
1526.74
490.965
6.66787
1135.19
450.158
-1.78624
812.593
430.108
-23.0382
323.216
429.038
9.23943
-315.35
320.863
151.557
-1019.45
154.996
212.532
-1299.09
0.235335
193.195
-1095.72
-92.3166
186.824
-713.347
-93.3601
115.97
-308.82
-52.6231
-64.4785
238.998
-53.3119
7.76461
1248.48
-88.423
6.66049
1267.71
-0.665213
2015.77
460.026
-38.1566
993.424
490.277
-9.29871
1544.45
483.258
5.85066
1152.05
437.947
-1.15079
825.201
410.217
-23.2082
333.588
410.309
3.67539
-298.867
318.572
134.984
-1006.16
170.07
194.855
-1297.47
33.5089
180.04
-1108.83
-49.6877
174.711
-741.205
-73.3829
97.1147
-340.266
-50.5327
-79.5099
238.68
-53.996
3.43016
1195.72
-88.0044
12.6723
1271.9
-1.0475
2037.84
453.258
-32.2877
1001.42
484.076
-7.80712
1559.6
476.55
4.07282
1167.38
428.085
-0.105445
836.189
391.925
-20.3877
341.32
388.517
-1.75301
-287.193
311.024
104.303
-994.451
180.763
160.522
-1294.03
56.2421
153.06
-1117.99
-27.1035
157.062
-760.447
-82.0617
97.0445
-353.958
-64.65
-98.83
161.878
-54.6181
-15.2033
1135.95
-88.1956
16.7027
1256.33
-1.90253
2050.74
446.463
-21.4428
1007.07
477.769
-6.0349
1577.89
470.3
1.3693
1183.93
419.837
0.360747
846.41
375.906
-14.3396
347.293
365.802
-4.70734
-278.981
298.547
63.195
-984.299
189.653
106.803
-1289.55
82.8219
107.057
-1125.99
12.0666
121.159
-780.428
-73.7592
110.424
-384.223
-73.991
-56.6796
-108.525
-57.5058
-38.6079
983.565
-88.1014
16.4616
1245.58
-2.2559
2066.06
442.796
-6.19463
1004.7
473.318
-2.35913
1593.54
465.209
-0.316016
1199.82
413.82
0.0109165
855.96
362.862
-4.36331
351.216
340.936
-2.04869
-277.815
276.018
17.7515
-979.156
190.224
31.9602
-1284.33
109.793
34.1753
-1130.66
70.1478
45.2553
-801.835
34.4494
52.1423
-416.833
-34.4026
-22.8042
-347.763
-66.0083
-18.0261
759.652
-87.3251
7.0375
1253.06
-0.597881
2058.13
442.959
9.74134
1000.63
472.961
2.19789
1596.17
463.909
-0.180828
1204.13
412.083
0.272189
858.912
359.312
7.19848
352.498
332.691
3.57157
-278.492
265.572
-26.2019
-979.078
185.791
-48.0529
-1283.15
112.346
-44.8236
-1131.29
82.633
-42.1298
-807.67
62.606
-30.3464
-430.954
-27.3688
34.6629
-382.763
-74.3916
7.59029
658.323
-89.2624
-7.23883
1273.73
0.956436
2030.23
443.424
24.1159
1004.95
473.841
6.00883
1591.21
465.611
-1.66973
1198.21
414.158
0.241637
855.321
363.986
16.5401
350.961
343.643
5.20125
-278.077
278.544
-71.6279
-980.31
188.751
-119.496
-1284.94
104.24
-113.342
-1128.76
64.972
-117.054
-798.769
41.7971
-100.468
-415.173
-31.9679
79.6634
-380.498
-67.5176
32.8667
739.856
-87.0326
-17.8818
1250.34
2.74967
2059.29
447.382
34.2835
1006.29
478.569
7.95756
1575.42
471.045
-4.08794
1182.14
420.662
0.987257
845.443
377.654
22.0707
346.597
368.808
1.46369
-280.084
301.113
-112.548
-985.767
190.092
-171.648
-1289.68
84.248
-160.543
-1123.95
23.479
-164.167
-780.2
-41.2908
-113.885
-391.333
-65.8816
97.2426
-213.977
-57.8871
23.3281
962.053
-86.9332
-18.1233
1242.22
3.02314
2068.02
454.335
39.6536
1000.12
485.086
9.60076
1557.12
477.646
-5.6682
1165.29
429.434
2.16484
834.717
394.278
24.4847
340.083
391.699
-4.51157
-289.15
313.308
-142.692
-996.179
181.559
-205.077
-1293.73
57.991
-188.924
-1115.36
-19.8229
-188.822
-759.263
-82.3271
-113.459
-357.773
-70.8342
74.0313
115.401
-55.386
0.319437
1131.92
-87.8845
-14.1067
1257.06
1.96664
2052.33
461.236
41.4311
991.682
491.463
11.77
1541.89
484.634
-6.35728
1149.7
439.711
2.81607
823.262
413.005
24.0103
331.833
413.519
-10.3853
-301.516
320.541
-158.473
-1008.03
170.6
-221.928
-1296.81
33.9486
-202.381
-1105.62
-48.7217
-201.951
-738.335
-74.3958
-130.271
-336.434
-53.8758
55.2449
241.11
-54.322
-7.08102
1199.18
-87.5055
-7.60237
1273.89
1.37718
2039.56
470.07
39.2158
979.747
498.969
14.9299
1524.1
492.599
-6.16229
1132.58
452.299
1.58899
810.198
433.293
21.481
320.938
432.266
-12.6466
-318.647
322.541
-158.078
-1021.49
154.912
-222.739
-1298.16
-1.60594
-192.952
-1091.78
-95.0244
-188.75
-708.337
-93.429
-132.757
-302.059
-53.0776
35.7681
238.606
-53.6723
-12.5699
1251.38
-87.9012
0.451584
1271.46
0.622872
2017.51
476.929
34.0955
969.949
506.501
16.8755
1508.39
500.832
-5.35118
1115.19
463.845
0.00236459
797.279
452.376
17.1881
312.29
454.681
-12.989
-328.395
330.346
-141.152
-1031.12
136.85
-198.429
-1300.79
-43.5365
-154.653
-1078.28
-142.71
-149.177
-678.619
-104.034
-105.864
-241.688
-46.6922
17.8285
336.508
-51.5431
-9.75248
1290.23
-84.7389
5.39158
1220.13
0.553928
2058.78
490.744
954.458
522.879
1473.45
517.909
1080.84
486.065
771.98
488.511
298.392
500.246
-347.375
359.061
-1050.62
134.531
-1304.44
-57.353
-1061.12
-153.61
-655.529
-103.041
-182.83
-45.6456
428.732
-52.2159
1246.7
-83.2885
1158.21
2082.97
1336.51
-49.0945
580.034
1572.84
-87.1414
1261.79
1662.1
-38.375
996.22
1720.79
-11.6928
714.57
1752.09
20.4012
258.786
1697.22
72.2481
-312.531
1396.72
109.28
-781.69
940.25
115.586
-885.116
493.198
95.0252
-653.322
162.341
98.7446
-355.711
-41.5246
119.783
-13.1009
-91.0241
39.9152
446.78
-138.567
21.2009
1280.98
-222.182
-15.4423
1239.36
-4.1119
2073.89
1317.98
-57.1588
591.366
1539.14
-89.2081
1292.03
1625.81
-36.1086
1029.12
1676.79
-8.63747
746.018
1704.42
23.714
284.019
1662.01
80.0757
-290.094
1389.16
121.675
-768.45
962.794
128.961
-888.928
530.111
117.073
-672.493
195.878
126.188
-378.409
-31.6424
145.805
-52.8426
-93.8523
46.6228
389.729
-140.224
27.6773
1327.3
-228.897
-8.23593
1296.22
-3.87451
2044.72
1312.27
-65.0985
598.976
1527.4
-83.6235
1306.03
1610.49
-29.3927
1045.38
1656.81
-4.1948
761.827
1681.55
25.13
297.054
1645.37
79.2218
-278.316
1387.15
121.669
-761.215
977.04
129.951
-889.978
556.931
124.115
-682.651
224.063
139.398
-393.689
-34.5085
160.395
-64.8398
-113.36
4.0374
360.435
-149.59
15.2811
1297.11
-240.242
11.4713
1338.65
-9.50415
2000.86
1299.81
-67.0814
609.706
1510.12
-73.9668
1324.49
1593.05
-24.1711
1063.9
1636.21
-1.25497
779.106
1659.66
23.3208
311.943
1631.94
72.3937
-264.316
1389
112.562
-754.114
993.299
121.984
-893.8
584.634
119.887
-695.935
258.707
138.446
-414.326
-17.8509
164.736
-68.0486
-118.607
-39.9969
383.468
-153.447
-10.3812
1256.23
-239.535
29.3315
1340.13
-14.9655
2020.69
1290.74
-65.3083
618.243
1496.75
-59.2891
1338.91
1577.71
-17.5221
1079.78
1617.22
1.30603
794.113
1638.17
19.2166
324.48
1616.43
59.2424
-252.31
1387.41
93.8221
-746.686
1006.33
103.949
-894.919
608.255
105.412
-705.44
287.694
129.516
-430.957
-18.9644
190.731
-73.2951
-143.208
-96.1327
342.256
-156.751
-63.3893
1202.5
-240.975
38.359
1331.52
-17.8822
2027.66
1276.91
-52.4115
625.886
1478.04
-37.6891
1355.16
1558.73
-11.1229
1096.84
1595.86
1.50409
809.082
1614.45
12.0257
335.902
1597.63
38.8457
-241.771
1383.23
63.1931
-739.271
1020.89
71.7641
-895.015
639.222
75.253
-714.169
343.107
93.8535
-448.65
68.7564
185.553
-104.695
-107.017
-125.626
96.741
-165.368
-84.9909
1063.52
-238.729
33.216
1324.08
-14.5066
2036.86
1258.56
-17.3709
628.945
1457.09
-11.0466
1368.37
1537.88
-3.97014
1111.88
1573.05
0.0835878
822.213
1588.36
3.22004
344.705
1572.61
11.597
-234.813
1370.09
19.573
-733.018
1027.8
22.6609
-892.935
666.629
25.162
-719.398
389.534
32.9937
-463.88
191.327
83.5454
-116.619
-35.2277
-55.8224
-191.011
-183.178
-40.4762
863.087
-236.556
11.659
1327.99
-4.62782
2025.19
1251.2
27.3471
628.518
1450.41
14.9231
1371
1531.25
3.86695
1115.45
1565.86
-1.03869
825.42
1579.72
-4.56027
346.417
1563.13
-16.1951
-234.107
1363.44
-27.5928
-732.222
1027.79
-32.2485
-892.592
672.671
-30.1767
-720.825
395.326
-29.0636
-468.268
215.592
-45.6818
-121.993
-21.2676
30.1817
-231.908
-197.503
8.35389
785.728
-241.131
-14.4246
1343.44
5.06337
1995.57
1262.67
56.741
628.081
1461.03
41.5861
1366.19
1541
12.0239
1110.08
1575.75
-1.44126
820.972
1591.03
-12.8464
343.966
1574.86
-42.5167
-235.578
1370.55
-69.7665
-733.832
1025.43
-79.2697
-892.796
662.509
-78.2309
-717.795
384.445
-87.8236
-461.945
207.705
-170.646
-113.468
-18.3518
106.848
-231.108
-184.753
72.5958
842.015
-235.319
-36.8652
1323.34
16.1765
2026.22
1279.32
67.4936
624.385
1480.9
62.5924
1352.83
1561.43
18.9173
1094.72
1598.55
-0.489608
807.37
1617.27
-19.6006
334.637
1599.88
-62.2228
-242.987
1383.77
-99.3925
-740.035
1019.64
-110.525
-894.297
639.234
-109.768
-712.003
350.836
-132.088
-447.537
100.526
-205.662
-106.007
-87.6312
100.642
-19.614
-165.468
80.6077
1031.88
-235.103
-41.5877
1316.58
21.8183
2039.97
1292.65
68.5075
616.27
1499.26
76.7536
1336.35
1580.41
25.7246
1077.33
1620.22
2.49237
791.934
1641.33
-23.349
322.722
1618.69
-74.8167
-253.924
1387.88
-117.416
-747.338
1005.46
-128.213
-893.623
608.238
-125.42
-702.486
293.436
-148.184
-428.365
-15.9992
-179.234
-74.7658
-149.972
35.2346
314.783
-157.567
23.5952
1196.53
-239.658
-31.7987
1329.36
18.5699
2030.86
1301.7
66.0405
607.461
1512.68
85.9436
1321.72
1595.94
30.9802
1061.19
1639.53
5.63885
776.533
1663.13
-24.9027
309.784
1634.2
-81.1855
-266.217
1389.27
-125.881
-754.639
992.122
-135.84
-892.038
583.447
-129.915
-692.445
258.399
-150.538
-410.934
-23.4967
-172.012
-61.7601
-127.263
-13.6703
393.782
-152.631
-11.8284
1259.97
-237.392
-12.5157
1339.37
12.4787
2025.35
1314.25
57.7292
596.554
1530.12
91.1074
1303.06
1613.62
37.6555
1042.41
1660.46
10.1451
758.849
1685.32
-23.2857
294.47
1647.59
-81.5661
-280.538
1387.08
-125.176
-761.688
975.407
-134.512
-887.82
554.701
-122.486
-678.5
222.998
-137.628
-389.543
-30.8657
-160.134
-60.0707
-112.413
-53.4648
359.95
-149.279
-25.5943
1302.01
-237.988
7.05323
1340.6
6.06775
2006.08
1319.97
49.4027
588.851
1541.97
88.5617
1288.93
1629.12
39.7583
1025.94
1680.7
13.1077
742.733
1708.44
-19.8654
281.135
1664.24
-73.2384
-292.525
1388.79
-111.963
-768.88
960.094
-120.183
-886.415
525.801
-98.9524
-667.517
191.756
-108.807
-373.393
-31.1177
-132.534
-46.4119
-92.8398
-45.9115
390.68
-139.695
-19.6584
1331.15
-226.538
14.2847
1299.75
5.79738
2049.35
1338.55
577.51
1575.82
1258.68
1665.64
992.929
1724.99
710.986
1756.27
255.532
1699.23
-315.305
1395.69
-782.184
936.261
-882.162
487.645
-647.547
157.452
-350.584
-41.1504
-6.49147
-89.598
448.248
-138.1
1285.58
-219.984
1245.11
2078.51
1518.15
-15.5725
266.54
1930.15
-87.8211
872.066
2141.47
-76.3787
792.969
2253.71
-50.2453
603.239
2221.51
-13.3664
281.432
1983.91
17.984
-92.3945
1528.48
33.4026
-346.344
990.564
47.3142
-368.33
504.354
49.685
-189.439
158.848
61.8273
-24.1477
-110.36
31.9453
277.465
-134.923
49.0551
454.598
-224.316
9.91467
1360.22
-343.885
-51.5133
1371.4
1.59647
2029.52
1512.55
-17.4204
270.245
1915.05
-92.2726
893.987
2125.51
-77.3144
819.596
2237.47
-47.7126
631.52
2209.86
-7.73788
306.005
1986.98
26.0537
-75.2884
1549.98
42.6449
-340.688
1026.02
56.7705
-374.424
540.565
66.611
-203.966
190.063
72.068
-38.1482
-103.64
22.0243
250.779
-142.08
43.8908
433.331
-237.815
21.2838
1411.67
-362.058
-45.7341
1414.68
-2.84605
1990.86
1514.54
-21.9594
272.973
1915.08
-90.2556
903.482
2123
-70.5994
830.744
2233.46
-40.3013
643.954
2207.21
-1.2895
316.861
1990.8
31.7623
-67.6199
1562.03
48.4246
-338.228
1044.26
61.8838
-377.312
563.063
76.6815
-211.53
202.005
85.5467
-46.1111
-129.904
48.5705
240.522
-178.678
54.8567
398.243
-251.675
7.01432
1384.38
-377.246
-26.6604
1445.15
-18.0695
1946.42
1511.64
-23.3297
277.339
1908.6
-81.8818
919.146
2116.62
-62.6446
847.922
2227.95
-33.7689
661.243
2204.94
2.38462
331.285
1997
33.187
-57.8027
1578.52
48.646
-335.857
1067.7
61.1275
-382.224
591.398
78.7696
-221.721
224.412
97.1685
-58.9623
-127.691
88.0086
244.615
-204.527
8.97124
506.189
-260.244
-49.8373
1368.8
-374.561
-9.98951
1437.78
-29.911
1960.66
1511.75
-25.3496
281.204
1906.48
-67.8355
930.13
2112.47
-49.2747
860.42
2222.79
-24.4643
674.486
2201.47
5.61414
342.566
2000.24
31.8484
-49.7337
1590.59
44.9171
-333.308
1086.68
55.5499
-385.435
615.901
73.7089
-229.602
242.384
108.477
-68.7492
-144.695
156.164
245.629
-239.805
-53.4425
499.78
-278.946
-132.449
1324.25
-381.888
9.37889
1415.1
-43.263
1957.66
1508.2
-23.5172
285.125
1897.99
-44.9775
942.514
2102.28
-31.6509
874.931
2212.28
-14.8278
689.443
2193.25
5.40139
355.153
1999.91
23.8247
-40.4129
1601.81
33.0563
-329.313
1109.43
40.5345
-387.611
650.741
55.4724
-237.248
306.162
87.3498
-82.9448
-70.5191
204.172
223.978
-216.445
-83.055
272.277
-303.033
-182.924
1200.58
-378.186
23.8533
1384.76
-45.3762
1955.46
1498.52
-8.84334
288.38
1882.82
-13.5608
952.664
2085.35
-9.59095
887.286
2194.88
-4.50608
702.361
2177.29
1.72741
365.965
1990.74
7.78777
-32.2241
1604.44
11.1811
-324.842
1125.75
14.0998
-387.81
683.87
20.748
-242.797
369.854
34.5222
-97.0375
145.649
99.1038
212.653
-33.1726
-40.6951
-54.5496
-314.741
-94.8098
1056.54
-368.888
8.53148
1397.46
-17.5128
1924.44
1492.58
13.4867
289.365
1875.06
19.1283
955.829
2077.34
12.5167
891.07
2186.99
5.0741
706.189
2169.72
-3.45776
368.867
1985.12
-11.4739
-30.2465
1603.09
-15.3187
-323.685
1130.13
-17.8218
-387.718
693.482
-19.1882
-244.237
382.631
-21.0849
-101.811
193.117
-43.7382
210.362
2.05493
23.8023
-105.345
-322.582
19.0365
996.519
-373.25
-21.4727
1424.11
21.4507
1883.7
1500.78
24.8334
287.416
1885.67
49.5052
950.92
2087.94
34.6495
885.682
2196.92
16.0599
701.008
2178.6
-6.08756
364.911
1990.81
-26.182
-33.0768
1603.04
-36.1385
-325.243
1123.32
-43.5274
-387.37
681.997
-54.0569
-241.606
370.556
-75.3614
-96.2272
185.534
-188.427
216.242
-0.126595
77.4075
-99.0531
-311.681
145.356
1027.25
-364.464
-29.9251
1384.58
50.433
1928.23
1508.87
25.7523
284.189
1899.27
71.3352
940.6
2103.73
51.9908
872.919
2213.64
25.9695
687.553
2194.21
-5.69028
353.671
1999.82
-33.3608
-41.4258
1600.52
-47.3368
-329.53
1107.97
-58.5944
-386.68
652.269
-74.8097
-235.553
321.961
-110.237
-82.3537
-27.726
-172
227.253
-131.228
57.8265
103.469
-297.189
171.43
1171.76
-366.353
-8.49737
1364.32
53.049
1964.78
1511.93
23.6265
280.056
1907.09
84.659
927.869
2113.35
64.992
858.07
2223.73
35.3125
672.209
2202.11
-2.12521
340.775
1999.88
-34.2134
-50.846
1589.27
-50.7556
-333.307
1085.63
-64.5465
-384.03
617.703
-82.0821
-227.287
251.71
-106.553
-66.0561
-143.7
-96.5579
245.201
-245.21
23.9042
450.215
-277.678
85.1527
1315.27
-376.435
15.5973
1404.03
37.6056
1967.82
1511.78
22.1612
276.125
1909.08
92.4026
916.671
2117.33
72.5683
845.356
2228.7
41.7795
658.694
2205.34
1.74822
329.274
1996.34
-32.4661
-58.9658
1576.92
-50.3031
-335.664
1066.15
-65.3976
-380.418
590.722
-80.1623
-218.938
221.468
-93.1381
-55.0919
-140.836
-50.1153
254.104
-214.121
-29.3171
520.29
-254.629
9.90257
1375.73
-369.202
32.4502
1437.09
24.6615
1971.57
1514.71
17.5141
271.702
1915.54
93.8729
900.764
2123.65
78.9515
827.922
2234.09
49.0847
641.098
2207.39
8.33539
314.587
1989.73
-26.4507
-68.8985
1559.89
-44.2184
-337.927
1042.18
-60.305
-375.2
561.408
-69.5937
-208.297
200.818
-79.8495
-42.2403
-129.494
-29.0142
249.143
-179.493
-50.3563
430.99
-247.991
-15.2985
1395.71
-373.042
48.6578
1449.45
7.96238
1957.71
1512.7
15.6036
268.95
1915.47
88.8935
891.143
2126.09
77.6425
816.632
2238.01
51.4171
628.482
2209.89
13.9984
303.591
1985.66
-18.1553
-76.5914
1547.53
-34.7023
-340.263
1023.32
-50.5119
-371.999
538.25
-51.9084
-200.13
188.33
-69.6132
-33.7072
-103.573
-39.7265
256.207
-139.881
-55.5295
432.163
-233.915
-7.24322
1417.13
-357.659
52.7481
1419.4
2.42887
2001.97
1518.36
265.236
1930.6
869.143
2142
789.895
2254.08
600.015
2221.21
278.823
1982
-93.8018
1525.22
-345.861
986.745
-365.512
501.507
-185.056
157.801
-20.106
-106.337
278.67
-129.776
448.288
-219.423
1366.25
-338.224
1377.1
2042.86
1453.62
-3.15854
211.914
1747.4
-47.3561
591.239
1950.26
-62.1879
599.324
2052.88
-59.3505
506.358
1996.86
-46.0742
338.507
1749.73
-28.3366
150.457
1352.89
-8.15325
41.4249
917.348
19.4943
53.2189
503.559
37.0384
205.353
172.449
51.8165
290.968
-113.778
67.585
574.955
-106.723
-0.182576
463.53
-310.424
-24.8682
1571.51
-448.497
-115.343
1528.42
-3.50116
1980.91
1451.07
-2.71664
212.381
1745.39
-49.9421
602.259
1952.46
-64.3975
614.736
2060.97
-59.7873
523.444
2011.77
-43.9468
353.078
1772.89
-24.5377
159.791
1382.37
-2.65983
44.3417
950.294
27.09
50.0518
531.706
55.0126
196.647
186.002
73.1616
286.21
-127.296
55.1035
576.558
-123.293
-40.4001
469.545
-319.085
-27.9531
1610.54
-452.724
-116.853
1549.83
-17.5281
1953.39
1453.19
-4.57865
212.834
1750.66
-50.5443
606.608
1958.74
-61.6205
619.896
2068.73
-55.21
529.382
2021.87
-38.2588
358.028
1785.99
-18.7487
162.477
1397.76
3.20773
44.1364
967.647
32.5413
47.345
555.774
65.0153
190.34
208.468
91.3049
283.051
-124.304
56.4063
571.991
-123.864
-13.0751
370.477
-338.085
5.22793
1565.42
-470.193
-135.824
1596.23
-54.7312
1915.95
1452.25
-4.44407
213.537
1751.63
-46.0027
615.229
1962.69
-55.8988
631.131
2076.55
-49.1809
541.355
2034.12
-32.4288
367.889
1803.38
-14.4079
168.599
1419.56
5.6097
45.556
992.249
32.9744
44.6548
583.867
68.3956
183.281
234.092
104.152
277.964
-160.775
124.113
571.773
-211.919
38.8
505.457
-345.333
-62.9166
1570.35
-460.801
-140.243
1557.66
-105.336
1942.07
1453.78
-5.35192
214.233
1756.2
-38.9439
620.653
1968.48
-45.6237
637.865
2083.97
-38.9407
548.756
2044.12
-23.9804
373.974
1816.73
-8.81358
172.059
1435.97
7.52877
45.534
1011.56
30.3891
41.5614
609.015
64.7327
176.603
264.51
107.503
272.405
-154.662
216.515
572.399
-251.574
125.944
509.547
-347.29
-175.776
1532.83
-433.286
-84.8592
1445.71
-144.987
1947.65
1453.85
-5.50939
214.981
1757.42
-26.8512
626.849
1970.84
-30.4911
646.379
2088.44
-25.4753
558.383
2052.02
-14.7312
382.319
1829.45
-4.29788
177.645
1453.81
6.48693
47.3651
1034.89
22.1147
39.5837
644.16
48.022
170.191
324.178
83.1796
261.361
-38.4251
230.568
572.528
-185.379
206.176
338.999
-352.603
-229.608
1421.64
-386.233
-21.7364
1355.27
-112.101
1918.22
1452.41
-2.64555
215.993
1755.35
-8.70252
631.572
1968.66
-9.4221
652.913
2087.34
-7.80527
566.009
2053.76
-4.28829
389.097
1835.73
-0.782877
182.29
1465.36
2.92533
49.0925
1052.82
8.61141
38.2379
673.945
19.1801
164.914
374.041
35.5009
250.545
135.259
116.156
565.845
-5.47502
110.231
182.13
-379.145
-127.887
1328.49
-397.675
-5.14075
1399.39
-40.3662
1845.85
1450.2
3.49222
216.399
1751.65
12.042
633.63
1964.78
12.8039
655.717
2083.97
10.0359
569.157
2051.65
5.06571
391.832
1835.72
0.638183
184.27
1468.13
-3.35673
50.1809
1059.14
-8.3997
38.2809
684.177
-13.5498
163.459
385.91
-14.4269
246.383
184.555
-37.6637
565.536
76.8727
-28.909
141.476
-391.11
48.6841
1287.93
-428.045
-12.4555
1468.36
30.4955
1785.3
1452.53
5.89173
215.535
1755.16
29.4929
630.844
1968.19
33.2762
652.17
2086.49
27.4743
565.276
2052.38
15.6111
388.474
1833.86
4.19913
181.883
1463.39
-7.14102
49.0126
1051.41
-22.3626
38.5658
674.139
-43.1235
165.241
378.274
-65.0559
250.266
177.52
-185.609
564.941
60.6037
-163.724
152.677
-352.602
190.305
1298.83
-375.719
21.0125
1374.23
115.742
1858.27
1453.91
5.4234
214.645
1757.21
41.0131
625.782
1970.41
47.8913
645.095
2087.68
40.6752
557.085
2050.79
24.8633
381.304
1827.71
8.7721
177.087
1452.04
-8.32924
47.3267
1034.44
-31.5626
40.1146
648.977
-63.6209
170.41
345.899
-104.557
260.223
52.9099
-234.475
569.108
-76.6922
-169.313
238.66
-328.982
213.433
1400.93
-351.323
87.3504
1320.32
171.419
1937.07
1453.61
4.53159
213.842
1755.6
47.5979
619.298
1967.67
57.6702
636.224
2082.9
50.5823
547.072
2042.71
33.1662
372.657
1814.98
14.3009
171.357
1434.45
-6.61435
45.51
1011.66
-35.0838
42.2799
614.456
-70.8154
177.11
284.114
-112.608
272.336
-114.151
-161.927
570.918
-226.553
-46.9531
440.257
-334.41
116.525
1520.04
-410.24
150.656
1416.55
137.112
1971.75
1452.1
4.68358
213.109
1750.86
51.7812
613.726
1961.6
62.9651
629.323
2075.12
56.2769
539.471
2032.37
38.7802
366.411
1801.39
18.4776
167.839
1417.91
-4.40531
45.6003
991.918
-35.1346
45.627
585.729
-67.8799
184.313
238.381
-99.9096
279.555
-159.219
-82.9542
572.729
-218.482
17.4949
515.103
-336.79
29.5013
1581.06
-453.512
149.051
1555.41
77.4495
1965.88
1453.1
2.77859
212.38
1749.89
50.8369
604.915
1957.51
65.3884
617.88
2067.03
60.5872
527.27
2019.73
44.3152
356.356
1783.53
24.1868
161.588
1395.63
1.41418
44.1548
966.754
-29.9205
48.4588
555.712
-56.9065
191.771
207.942
-79.1993
284.819
-134.441
-65.5634
574.135
-145.491
41.0383
418.497
-333.018
28.8488
1583.89
-468.652
130.9
1603.23
29.0001
1938.54
1450.99
3.19186
211.911
1744.59
47.9309
600.453
1951.16
62.8537
612.604
2059.12
59.8898
521.213
2009.41
46.2867
351.328
1770.23
27.8994
158.882
1380.13
6.84787
44.4054
949.103
-22.2589
51.3631
532.04
-38.4363
198.464
188.85
-57.469
287.753
-117.78
-78.4717
575.747
-113.933
10.1994
459.155
-311.68
25.284
1618.44
-448.074
129.948
1556.75
9.10411
1975.48
1453.59
211.43
1746.63
589.336
1948.89
597.069
2050.83
503.976
1994.16
336.612
1746.6
149.418
1350.09
41.4159
915.473
54.7085
504.099
207.284
177.74
290.979
-99.237
569.008
-91.8348
455.386
-299.526
1577.31
-441.182
1541.65
2005.84
1468
-2.65708
226.933
1583.73
-21.4808
482.051
1681.36
-32.2434
507
1714.69
-36.0096
476.955
1644.77
-33.3155
410.339
1460.69
-22.6516
333.001
1192.26
-6.81976
304.382
893.295
16.8763
341.966
592.805
27.5952
492.321
312.433
36.7445
559.063
61.0734
126.158
813.812
-13.2849
78.3946
532.547
-294.952
-71.8182
1894.03
-402.799
-72.0022
1645.64
-82.1671
2098.02
1465.29
-2.34069
227.352
1581.48
-22.1989
486.785
1683.08
-33.1791
514.075
1722.08
-36.5213
484.953
1656.85
-32.6136
417.606
1476.37
-20.711
338.333
1209.91
-3.24638
307.223
912.036
23.1754
341.63
604.792
43.0533
488.432
295.128
66.7048
565.913
8.23918
147.658
841.947
-31.2213
45.3785
542.02
-272.124
-93.2918
1872.92
-376.403
-109.988
1692.09
-128.834
2113.83
1465.96
-3.44672
227.621
1584.65
-22.9023
488.623
1687.84
-32.4965
516.027
1728.57
-34.8219
486.945
1664.78
-29.9535
419.166
1485.28
-17.6796
338.941
1219.4
0.202292
306.572
923.547
26.866
339.503
623.265
50.9427
482.732
321.898
86.2884
564.834
50.4147
146.609
844.522
33.0659
-23.2554
456.459
-309.034
19.1438
1795.08
-443.822
-131.55
1752.58
-294.17
2107.94
1464.25
-3.23654
228.072
1584.2
-20.1725
492.544
1690.39
-29.2106
521.658
1735.05
-31.4048
493.281
1674.61
-26.4709
424.841
1497.79
-15.2548
342.998
1233.84
1.34052
308.365
940.333
26.2625
338.764
643.098
53.3619
478.096
355.341
89.4168
562.593
44.5954
188.138
840.989
-35.2565
46.8205
515.232
-275.889
31.8353
1798.29
-360.686
-72.7648
1583.67
-459.112
2182.18
1464.31
-3.4958
228.423
1586.75
-16.7625
494.805
1694.91
-23.9699
524.466
1741.64
-25.6376
496.258
1682.98
-21.0727
427.229
1507.44
-11.8254
344.172
1244.53
1.92311
307.856
953.183
22.7237
336.451
661.582
48.7818
472.783
386.834
77.9555
558.613
90.9771
217.336
839.057
-76.8892
190.136
534.097
-186.885
-78.888
1753.55
-178.721
-33.0978
1397.88
-445.666
2173.93
1463.51
-3.07196
228.829
1587.52
-11.345
497.424
1697.8
-16.1681
528.29
1747.15
-17.3647
500.761
1691.04
-14.0052
431.357
1517.65
-7.8753
347.089
1256.7
1.25516
308.978
968.016
15.5795
335.415
683.657
34.8453
468.485
417.619
53.3847
551.969
195.022
172.279
840.181
-20.9237
252.656
492.423
-163.043
-144.347
1629.21
-55.2219
-49.5455
1263.9
-258.13
2100.95
1463.22
-1.88381
229.213
1588.6
-4.15893
498.999
1700.11
-5.28949
530.524
1750.92
-5.62526
503.467
1696.62
-4.4117
433.799
1524.8
-2.36541
348.6
1265.29
0.745777
309.111
978.965
6.14004
334.002
699.933
14.056
464.734
434.333
23.4928
546.037
255.756
75.4804
841.22
66.0418
148.729
475.772
-205.205
-84.7993
1540.19
-120.092
-26.1779
1290.92
-70.9358
1992.9
1461.68
1.51807
229.439
1586.3
4.86079
499.987
1698.19
6.65605
531.882
1749.85
6.77491
505.102
1696.82
5.07467
435.373
1526.33
2.54775
349.848
1268.13
-0.715023
309.836
983.355
-4.88058
334.076
705.601
-8.57059
463.838
434.944
-3.31958
543.851
256.885
-25.5061
844.581
131.377
-50.245
465.956
-248.312
67.4796
1515.34
-217.412
43.3146
1367.97
44.5819
1928.35
1462.55
3.47211
229.033
1586.82
12.5435
498.892
1697.93
17.351
530.363
1748.61
18.112
503.253
1694.36
14.1995
433.598
1522.82
7.49321
348.48
1263.83
-1.77988
309.063
978.359
-14.8802
334.04
700.166
-29.6584
464.52
437.147
-35.4435
545.408
269.789
-131.079
837.871
106.59
-204.9
470.532
-171.487
135.027
1509.36
-73.7808
64.8463
1254.99
258.118
2022.4
1463.86
3.48321
228.549
1587.45
17.8493
496.884
1697.16
25.0665
527.669
1745.92
26.3001
500.135
1689.39
21.1674
430.868
1515.9
11.2619
346.809
1255.39
-2.78117
308.831
968.182
-22.9559
335.402
687.042
-45.8943
467.785
431.636
-69.7715
549.956
250.973
-212.762
831.453
29.0966
-216.968
472.603
-131.035
100.912
1595.17
0.493798
35.1275
1218.51
476.16
2133.93
1464.45
3.15811
228.154
1586.64
20.8921
494.058
1694.42
29.9967
523.519
1740.68
31.8656
495.247
1681.66
26.4549
426.39
1506.04
14.6141
343.624
1243.69
-2.43653
307.512
954.16
-27.4974
336.349
666.976
-53.4617
471.859
405.178
-91.8569
556.219
153.705
-220.053
829.681
-36.3319
-89.8564
503.182
-154.86
15.1078
1724.37
-117.522
64.994
1349.35
522.562
2216.84
1464.3
3.46446
227.755
1583.82
23.4496
491.654
1689.59
33.0064
520.541
1733.84
35.0063
492.08
1673.19
29.7027
423.82
1496.47
16.8585
342.313
1233.23
-1.53793
307.943
941.392
-28.7571
338.725
646.944
-52.121
477.422
366.01
-92.2747
560.909
64.1335
-179.007
833.56
-42.3439
9.95457
521.772
-258.711
9.13417
1803.4
-341.131
134.715
1568.11
351.195
2223.35
1466.09
2.3646
227.267
1584.26
22.5977
487.602
1686.91
33.4866
514.745
1727.12
36.5249
485.544
1663.04
32.2125
417.929
1483.67
19.7726
338.042
1218.56
1.73429
305.991
924.333
-25.5206
339.455
625.788
-44.0935
482.291
327.234
-71.9608
563.059
44.7603
-162.235
839.838
15.6621
-21.4208
478.971
-298.934
92.4678
1815.15
-438.742
124.884
1752.87
169.085
2145.96
1465.47
2.65538
226.968
1581.14
21.7207
485.653
1682.16
32.3937
512.678
1720.58
35.8849
483.439
1655.03
32.8109
416.275
1474.7
21.6322
337.362
1209.04
5.18652
306.605
912.547
-19.3627
341.705
607.545
-28.7997
488.172
303.284
-42.9334
562.988
24.3727
-143.137
835.56
-15.7416
-56.2707
534.12
-259.172
72.1479
1882.19
-371.123
93.3166
1700.27
113.576
2146.23
1468.2
226.534
1583.4
480.815
1680.41
505.457
1713.09
475.262
1642.77
408.809
1458.76
331.796
1191.05
303.528
893.331
342.016
595.664
491.596
321.818
553.426
75.0098
804.392
-0.548089
533.166
-288.046
1900.71
-412.275
1676.84
2123.38
1531.84
-1.67925
230.77
1568.99
-10.2852
448.219
1593.14
-14.1722
485.208
1574.02
-15.1167
497.393
1496.87
-13.8035
487.64
1353.15
-7.04181
474.635
1155.75
3.75523
497.15
927.452
22.4704
561.88
708.822
28.1525
700.548
486.201
48.3485
771.277
309.278
142.428
970.085
55.5373
179.52
754.847
-16.0132
-241.431
2020.65
-87.5463
5.2033
1736.22
-92.5434
2596.08
1530.3
-1.56993
231.167
1566.72
-10.5822
450.663
1592.26
-14.367
488.73
1575.78
-15.013
501.331
1501.16
-13.0848
491.507
1359.78
-5.56989
478.236
1164.03
6.40176
500.326
936.909
27.5037
563.721
711.089
39.974
702.43
463.364
72.3565
789.629
252.181
183.955
1011.6
31.3023
183.138
759.28
-78.409
-178.524
1919.72
-217.903
-112.973
1949.76
-214.848
2568.49
1530.56
-2.19485
231.39
1567.98
-11.048
451.67
1594.24
-14.2753
489.677
1578.62
-14.5165
502.076
1504.79
-12.0477
491.953
1364.11
-4.23728
478.291
1169.03
8.12723
499.923
944.696
29.1416
562.198
723.378
45.3663
698.658
486.902
81.2499
792.415
303.121
194.591
1017.67
100.828
119.16
722.729
-103.824
-0.834176
1822.04
-309.518
-124.085
1969.38
-532.222
2624.85
1529.49
-2.13138
231.815
1566.82
-9.57039
453.733
1594.22
-12.5469
492.533
1580.6
-12.9187
505.31
1508.78
-10.5364
495.144
1370.03
-3.54323
481.057
1176.73
7.87837
501.915
954.943
26.9691
562.718
735.809
45.4198
697.176
513.439
72.8467
793.365
346.515
185.448
1017.05
101.825
147.138
731.944
72.6784
26.1381
1800.47
-6.98023
-32.2686
1571.52
-709.516
2808.09
1529.32
-2.28316
232.13
1567.52
-7.83939
454.879
1595.81
-10.1761
493.802
1583.28
-10.6034
506.471
1512.54
-8.54666
495.981
1374.7
-2.91139
481.377
1182.31
6.49961
501.633
962.373
21.8945
561.457
746.651
39.11
694.814
530.518
54.931
792.661
377.721
155.596
1021.71
87.4576
217.118
754.38
115.597
-17.0589
1768.61
224.631
-8.0135
1264.59
-661.681
2762.21
1528.67
-2.00333
232.528
1567.14
-5.11907
456.237
1596.35
-6.71261
495.617
1585.22
-7.23748
508.52
1516
-5.90885
497.946
1379.58
-2.37034
482.963
1188.56
3.79056
502.709
970.092
14.2061
561.568
757.253
26.468
693.965
538.722
33.9154
791.515
405.973
97.4958
1031.03
125.019
214.168
776.326
118.446
-58.8416
1677.57
322.828
-51.3503
1102.85
-407.4
2577.08
1528.48
-1.5106
232.809
1567.65
-2.13911
456.849
1597.6
-2.4523
496.321
1587.29
-2.67679
509.216
1518.99
-2.21993
498.409
1383.31
-1.11568
483.025
1192.86
0.954054
502.393
975.316
4.96214
560.79
763.93
9.87233
692.715
538.015
14.731
791.135
399.527
36.3846
1040.82
163.674
111.607
814.186
90.7383
-29.8566
1584.14
315.132
-35.5628
1050.73
-100.503
2441.76
1527.45
0.410897
233.083
1566.33
1.64733
457.316
1596.6
2.29667
496.868
1586.84
2.3055
509.878
1519.31
1.59032