/*--------------------------------*- C++ -*----------------------------------*\
| =========                 |                                                 |
| \\      /  F ield         | OpenFOAM: The Open Source CFD Toolbox           |
|  \\    /   O peration     | Version:  4.1                                   |
|   \\  /    A nd           | Web:      www.OpenFOAM.org                      |
|    \\/     M anipulation  |                                                 |
\*---------------------------------------------------------------------------*/
FoamFile
{
    version     2.0;
    format      ascii;
    class       volVectorField;
    location    "11";
    object      U;
}
// * * * * * * * * * * * * * * * * * * * * * * * * * * * * * * * * * * * * * //

dimensions      [0 1 -1 0 0 0 0];

internalField   nonuniform List<vector> 
6750
(
(13.9921 -0.133451 11.1514)
(2.20428 -0.0738053 16.8968)
(7.4178 0.0275239 11.9469)
(5.09238 0.0121516 8.29901)
(5.1128 -0.0604019 3.05817)
(5.8003 0.071888 -4.14471)
(5.54287 0.606572 -13.2389)
(3.02027 0.839212 -16.8114)
(0.12005 0.611451 -13.7809)
(-1.35501 0.622891 -8.33528)
(-2.13521 0.423885 -1.60343)
(-0.315992 -0.0679929 5.1844)
(-0.796067 0.0328733 13.9704)
(-0.0299429 -0.0272493 12.5002)
(-2.64733 -0.00258276 23.5157)
(13.7691 -0.223599 11.3608)
(2.01968 -0.100514 17.3294)
(7.27107 0.0377827 12.3329)
(4.85074 0.000543251 8.532)
(4.86071 -0.116093 3.10553)
(5.23441 0.0733459 -4.0275)
(5.07493 0.898922 -13.0351)
(2.87263 1.2672 -16.733)
(0.333811 1.02933 -13.9549)
(-1.21436 0.918099 -8.58528)
(-2.04395 0.661151 -2.42923)
(-0.385553 -0.143697 4.0508)
(-0.771164 0.0789456 14.4561)
(-0.0417596 -0.0295694 13.2762)
(-2.66876 -0.00124149 23.2471)
(13.6373 -0.217609 11.4865)
(1.94276 -0.0664513 17.5097)
(7.19839 0.0361395 12.5162)
(4.73556 -0.00949606 8.64239)
(4.72289 -0.120639 3.14515)
(4.94659 0.0564758 -3.97695)
(4.85994 0.835957 -12.947)
(2.90582 1.17674 -16.6905)
(0.673365 1.07309 -14.146)
(-0.649464 1.06328 -9.11317)
(-1.61686 0.69573 -3.72778)
(-0.538922 -0.320007 2.72212)
(-0.793354 0.0614992 13.9687)
(-0.0633671 0.0165992 13.8977)
(-2.72168 -0.0017945 22.7862)
(13.4642 -0.229659 11.63)
(1.85856 -0.059462 17.7103)
(7.13475 0.0385888 12.6957)
(4.6203 -0.00884756 8.7567)
(4.56656 -0.135178 3.21445)
(4.64714 0.0454257 -3.80827)
(4.73035 0.851077 -12.7874)
(2.98728 1.19397 -16.6523)
(0.927641 1.08606 -14.3203)
(-0.144586 1.03518 -9.57437)
(-1.16175 0.621361 -4.47289)
(-0.519747 -0.385718 2.64059)
(-0.798002 0.0299781 13.3534)
(-0.0693596 0.0570595 13.9364)
(-2.69596 -0.00507575 23.0397)
(13.3339 -0.201212 11.725)
(1.79526 -0.0463868 17.881)
(7.07485 0.0280689 12.8566)
(4.52262 -0.00443311 8.85198)
(4.44384 -0.125078 3.25102)
(4.34487 -0.00121028 -3.71297)
(4.54145 0.674742 -12.6549)
(3.01588 1.00609 -16.5966)
(1.13743 0.943963 -14.4413)
(0.164608 0.932497 -9.8495)
(-0.959346 0.467524 -4.75853)
(-0.880857 -0.506623 1.64936)
(-0.802023 0.00219609 12.6695)
(-0.0747665 0.0847095 13.7423)
(-2.68787 -0.00715277 23.1868)
(13.2171 -0.159206 11.7868)
(1.7307 -0.0411943 18.0959)
(7.01556 0.0172284 13.0365)
(4.43378 0.00337878 8.93962)
(4.34748 -0.102363 3.27527)
(4.06861 -0.0209144 -3.66467)
(4.30275 0.493318 -12.5454)
(2.98741 0.79297 -16.5261)
(1.36617 0.775138 -14.5443)
(0.53327 0.838196 -10.1303)
(-0.436936 0.639306 -5.27183)
(-1.12563 -0.534987 -1.0248)
(-0.873018 -0.181759 10.9664)
(-0.0677237 0.102621 13.6052)
(-2.67836 -0.0145571 23.3696)
(13.176 -0.0803335 11.7405)
(1.69918 -0.0254197 18.2874)
(6.9636 -0.000782019 13.2228)
(4.3623 0.000150115 9.02852)
(4.28156 -0.05738 3.28843)
(3.83261 -0.0292083 -3.71841)
(3.97469 0.224968 -12.5162)
(2.82867 0.409732 -16.4519)
(1.53902 0.424976 -14.6045)
(0.953653 0.512308 -10.4663)
(0.476343 0.580513 -5.8687)
(0.202333 -0.204407 -4.5032)
(-1.13861 -0.21151 8.39732)
(-0.00948294 0.0770679 13.6888)
(-2.69873 -0.00878678 23.2929)
(13.1899 0.0107489 11.6778)
(1.70757 -0.000627248 18.3228)
(6.9512 -0.00159991 13.2823)
(4.34235 0.000470827 9.06407)
(4.26225 0.00858903 3.3013)
(3.76939 0.00519593 -3.74464)
(3.84935 -0.0242219 -12.5265)
(2.72834 -0.0502085 -16.4329)
(1.54312 -0.0384434 -14.6046)
(1.00163 -0.000561308 -10.5523)
(0.731108 0.048661 -6.1248)
(0.538283 -0.0248304 -4.87533)
(-1.31393 -0.0214347 7.13445)
(-0.0111822 0.00110843 13.939)
(-2.73997 0.00119574 22.9887)
(13.1847 0.0981377 11.746)
(1.70322 0.0248105 18.261)
(6.96863 -0.00166546 13.2052)
(4.36721 0.00216457 9.02411)
(4.28508 0.0716905 3.28711)
(3.85531 0.0352678 -3.71516)
(4.01428 -0.272334 -12.5294)
(2.8421 -0.489716 -16.4638)
(1.49378 -0.466267 -14.5795)
(0.873563 -0.475448 -10.4189)
(0.455063 -0.424553 -5.84547)
(0.34167 0.377156 -4.79716)
(-1.18627 0.137426 8.18089)
(-0.00159543 -0.0825937 13.6642)
(-2.69871 0.0102535 23.3039)
(13.235 0.171928 11.7792)
(1.73774 0.0416056 18.0684)
(7.02336 -0.0180605 13.0185)
(4.44365 0.00104841 8.93251)
(4.35648 0.112983 3.27106)
(4.1005 0.020934 -3.67216)
(4.34006 -0.540461 -12.5635)
(3.00475 -0.856918 -16.5326)
(1.35869 -0.80785 -14.5228)
(0.566622 -0.835181 -10.1408)
(-0.198668 -0.703176 -5.41615)
(-0.76592 0.579127 -2.69313)
(-0.918612 0.202972 10.7843)
(-0.0416111 -0.111727 13.5843)
(-2.67615 0.0194173 23.3854)
(13.3572 0.210903 11.7111)
(1.8038 0.0476132 17.854)
(7.0854 -0.0275244 12.8355)
(4.53775 0.00986207 8.83931)
(4.45902 0.133251 3.24212)
(4.3848 -0.00216403 -3.73224)
(4.57478 -0.720063 -12.6774)
(3.03122 -1.06663 -16.5986)
(1.13886 -0.993387 -14.4156)
(0.198108 -1.00829 -9.85209)
(-0.823041 -0.579796 -4.87572)
(-1.01068 0.507232 0.97267)
(-0.823445 0.0480577 12.6343)
(-0.0707185 -0.0925538 13.7624)
(-2.68744 0.0137878 23.1975)
(13.4918 0.236902 11.6107)
(1.86848 0.0616833 17.6827)
(7.1475 -0.0370427 12.6719)
(4.63957 0.0148473 8.73881)
(4.58674 0.141419 3.20039)
(4.69184 -0.0515308 -3.83734)
(4.76008 -0.892549 -12.8128)
(2.99931 -1.24875 -16.6507)
(0.925935 -1.13722 -14.2875)
(-0.138478 -1.11986 -9.54633)
(-1.13969 -0.696837 -4.42699)
(-0.572817 0.315192 2.59524)
(-0.811366 -0.0288837 13.3915)
(-0.062906 -0.0643109 13.9735)
(-2.69477 0.00942592 23.0494)
(13.6681 0.222858 11.464)
(1.95432 0.0690214 17.4816)
(7.21334 -0.0342914 12.4894)
(4.75842 0.0149238 8.61939)
(4.74789 0.125291 3.12583)
(4.99505 -0.0631022 -4.0144)
(4.88708 -0.871855 -12.9748)
(2.91404 -1.22725 -16.6864)
(0.66182 -1.12446 -14.1037)
(-0.68522 -1.14834 -9.04463)
(-1.63392 -0.776889 -3.58674)
(-0.53166 0.286184 2.77125)
(-0.805225 -0.0572031 13.9997)
(-0.0570488 -0.0206258 13.953)
(-2.72129 0.00507274 22.7943)
(13.8019 0.2274 11.3363)
(2.03264 0.103746 17.3002)
(7.28794 -0.0353645 12.3032)
(4.87629 0.00484901 8.50495)
(4.88959 0.120006 3.0823)
(5.28658 -0.0800341 -4.07005)
(5.1021 -0.929412 -13.0654)
(2.87606 -1.3104 -16.7275)
(0.299305 -1.0643 -13.9009)
(-1.27667 -0.982253 -8.48779)
(-2.08975 -0.709547 -2.19576)
(-0.370748 0.129465 4.10684)
(-0.783284 -0.0771877 14.4843)
(-0.0340976 0.0263203 13.3509)
(-2.66903 0.00295878 23.2483)
(14.0255 0.13524 11.1271)
(2.21895 0.0759541 16.868)
(7.43689 -0.0258639 11.9145)
(5.12183 -0.009055 8.26685)
(5.14712 0.0628298 3.03025)
(5.85694 -0.0754276 -4.19515)
(5.57133 -0.624808 -13.2752)
(3.02475 -0.865113 -16.8066)
(0.0859372 -0.63363 -13.7289)
(-1.39477 -0.672405 -8.26053)
(-2.17208 -0.451989 -1.37575)
(-0.300781 0.0595277 5.26255)
(-0.807347 -0.0309089 13.9998)
(-0.0219258 0.0262398 12.603)
(-2.64818 0.00335892 23.5159)
(25.2866 -0.190244 9.30786)
(14.3968 -0.386412 16.472)
(18.4176 -0.199553 12.4797)
(19.2599 -0.0726504 8.93698)
(19.4137 0.0662859 3.63324)
(19.9956 0.291789 -3.51509)
(18.2525 0.451251 -10.2495)
(13.4973 0.479302 -12.4032)
(7.71002 0.369493 -9.94902)
(3.46107 0.431714 -6.20594)
(-0.195433 0.579729 -2.27999)
(-0.443939 0.0960004 4.59228)
(-2.12921 0.0655381 14.0962)
(0.232385 -0.0647782 13.3505)
(-7.68659 -0.023464 23.3706)
(25.2355 -0.325859 9.47171)
(13.9584 -0.56001 16.8373)
(18.0814 -0.239253 12.8516)
(18.802 -0.0644037 9.25825)
(18.8714 0.140975 3.85933)
(19.4624 0.486362 -3.24875)
(17.9898 0.733303 -10.0343)
(13.5975 0.773151 -12.3959)
(8.11853 0.663074 -10.1567)
(3.89246 0.661201 -6.48232)
(0.13352 0.758332 -2.74375)
(-0.539057 0.344803 3.73952)
(-2.11471 0.171489 14.5943)
(0.14411 -0.0960666 14.0224)
(-7.73687 -0.020642 23.0942)
(25.196 -0.336005 9.57693)
(13.8112 -0.462583 17.0101)
(17.9544 -0.167437 13.045)
(18.5984 -0.0297791 9.42715)
(18.6166 0.135727 3.9879)
(19.2047 0.433536 -3.1055)
(17.8706 0.661038 -9.91959)
(13.6715 0.70367 -12.3817)
(8.35949 0.669815 -10.2618)
(4.24635 0.764401 -6.61985)
(0.454594 0.871447 -2.7795)
(-0.92473 0.147901 2.93187)
(-2.20053 0.134166 14.2096)
(0.00375384 0.00384564 14.5935)
(-7.8555 -0.0297064 22.6115)
(25.115 -0.384274 9.71506)
(13.5656 -0.465968 17.2129)
(17.7926 -0.16192 13.2367)
(18.3844 -0.0183737 9.59223)
(18.3598 0.141797 4.12929)
(18.9703 0.44665 -2.9267)
(17.7975 0.690239 -9.79479)
(13.7878 0.740417 -12.3927)
(8.60828 0.713168 -10.3976)
(4.61289 0.791668 -6.8196)
(0.893981 0.924222 -2.79839)
(-1.00061 -0.0584081 2.98527)
(-2.25671 0.0355176 13.6459)
(-0.0245074 0.124667 14.6501)
(-7.78078 -0.074682 22.8526)
(25.0506 -0.374816 9.81558)
(13.3926 -0.372203 17.3826)
(17.6539 -0.111653 13.4137)
(18.1901 0.00427829 9.74196)
(18.1202 0.122206 4.24898)
(18.727 0.372414 -2.77565)
(17.69 0.582877 -9.67281)
(13.8626 0.639059 -12.3759)
(8.82499 0.64068 -10.492)
(4.9238 0.774037 -6.99844)
(1.26646 0.942531 -2.85738)
(-1.45091 -0.41665 2.22972)
(-2.32265 -0.168384 12.9937)
(-0.0528825 0.202796 14.4938)
(-7.7556 -0.0956238 22.9946)
(24.9822 -0.355802 9.8944)
(13.1503 -0.29076 17.5757)
(17.462 -0.08496 13.5993)
(17.9632 0.010509 9.88184)
(17.8603 0.093169 4.34336)
(18.4513 0.291142 -2.65763)
(17.5407 0.467158 -9.56081)
(13.9209 0.523394 -12.3481)
(9.09333 0.539799 -10.5761)
(5.3438 0.677136 -7.18653)
(2.1211 1.19454 -3.0816)
(-0.354346 -0.777281 -1.01834)
(-2.59701 -0.522773 11.3084)
(0.00111126 0.224793 14.3874)
(-7.71724 -0.102336 23.1545)
(24.9122 -0.222514 9.89371)
(12.8871 -0.141068 17.729)
(17.2408 -0.040907 13.7656)
(17.718 0.00593125 10.0065)
(17.5875 0.0418489 4.40756)
(18.1339 0.144974 -2.59563)
(17.2965 0.244711 -9.47765)
(13.8762 0.283728 -12.3022)
(9.2928 0.302553 -10.6212)
(5.75415 0.369444 -7.34053)
(2.75025 0.875771 -3.22952)
(1.73317 -0.492115 -3.00211)
(-3.0746 -0.402775 8.84246)
(0.112153 0.143281 14.4752)
(-7.75693 -0.0565456 23.0489)
(24.8831 0.0338236 9.86511)
(12.8029 0.0120847 17.7501)
(17.1686 -0.00154237 13.8022)
(17.6414 -0.00407135 10.037)
(17.5018 -0.00456131 4.41996)
(18.0243 -0.014132 -2.59135)
(17.1938 -0.0244859 -9.46653)
(13.8325 -0.0297018 -12.2929)
(9.33789 -0.0183525 -10.6331)
(5.84116 0.00393241 -7.3823)
(2.80433 0.117797 -3.28061)
(2.22992 -0.115048 -3.41717)
(-3.33094 -0.0833495 7.83966)
(0.0948438 -0.00566755 14.6939)
(-7.85056 0.00132605 22.7241)
(24.9324 0.262679 9.89207)
(12.9386 0.162868 17.7049)
(17.2787 0.0430461 13.7477)
(17.7503 -0.0086333 9.99667)
(17.6167 -0.0480245 4.40409)
(18.1655 -0.168346 -2.60266)
(17.3153 -0.285825 -9.49036)
(13.8668 -0.331527 -12.3049)
(9.2492 -0.321028 -10.6032)
(5.70563 -0.331772 -7.31457)
(2.68048 -0.681214 -3.20617)
(2.16477 0.442881 -3.45086)
(-3.12767 0.217622 8.61812)
(0.137921 -0.162694 14.4386)
(-7.7516 0.0591172 23.0642)
(24.9982 0.369141 9.88152)
(13.1857 0.310443 17.5489)
(17.4914 0.0926126 13.5779)
(17.9937 -0.00700279 9.86747)
(17.8911 -0.0961164 4.33377)
(18.4846 -0.309269 -2.67217)
(17.5582 -0.500322 -9.5752)
(13.915 -0.561079 -12.3451)
(9.07097 -0.557448 -10.5517)
(5.3638 -0.653474 -7.17057)
(2.27344 -1.23565 -3.10104)
(0.188119 0.639653 -1.79015)
(-2.6767 0.571151 11.0003)
(0.0747514 -0.246341 14.3322)
(-7.70716 0.119871 23.1827)
(25.0679 0.385141 9.79631)
(13.4232 0.38954 17.3547)
(17.6804 0.119881 13.389)
(18.223 0.00138489 9.72204)
(18.1557 -0.123585 4.23289)
(18.7629 -0.387757 -2.79729)
(17.7056 -0.612087 -9.68805)
(13.8569 -0.67482 -12.3671)
(8.80992 -0.67058 -10.4588)
(4.93584 -0.820797 -6.97016)
(1.39352 -1.05969 -2.83524)
(-1.52972 0.526212 1.89158)
(-2.37341 0.297511 12.9442)
(-0.0301722 -0.219003 14.4901)
(-7.75062 0.11969 23.0208)
(25.1338 0.39049 9.69122)
(13.5972 0.480149 17.1831)
(17.8196 0.1711 13.2091)
(18.4205 0.0265966 9.56734)
(18.3997 -0.140749 4.1076)
(19.0083 -0.458747 -2.95376)
(17.8112 -0.715832 -9.81011)
(13.7796 -0.774898 -12.3792)
(8.58858 -0.745565 -10.3582)
(4.60337 -0.854461 -6.78447)
(0.902098 -0.969834 -2.7622)
(-1.15641 -0.0447066 3.07512)
(-2.27369 -0.0134367 13.6846)
(0.0119982 -0.134138 14.6583)
(-7.777 0.0923751 22.8827)
(25.2159 0.340206 9.55024)
(13.8454 0.474289 16.9789)
(17.9829 0.175974 13.0148)
(18.6379 0.0376989 9.39738)
(18.6609 -0.134165 3.96059)
(19.2448 -0.44328 -3.13815)
(17.8816 -0.682449 -9.93587)
(13.6584 -0.735247 -12.3643)
(8.3346 -0.702529 -10.2152)
(4.21785 -0.829121 -6.57638)
(0.466693 -0.954699 -2.76687)
(-0.869052 -0.173485 2.87501)
(-2.22614 -0.118124 14.2457)
(0.0441081 -0.00803017 14.6234)
(-7.85666 0.0444033 22.6443)
(25.2558 0.328245 9.4434)
(13.994 0.569945 16.8049)
(18.1108 0.248322 12.8189)
(18.8441 0.0735644 9.22444)
(18.9194 -0.137902 3.82765)
(19.5047 -0.493834 -3.28546)
(17.9993 -0.751791 -10.0515)
(13.5797 -0.804296 -12.3752)
(8.07446 -0.690645 -10.1007)
(3.83854 -0.721568 -6.43049)
(0.0951878 -0.83996 -2.68549)
(-0.493256 -0.390468 3.73162)
(-2.13562 -0.161809 14.6302)
(0.186952 0.0877428 14.0696)
(-7.74073 0.0318113 23.1202)
(25.3069 0.191146 9.27938)
(14.434 0.391987 16.44)
(18.4486 0.205784 12.4458)
(19.3048 0.0792456 8.89912)
(19.4649 -0.0628845 3.59649)
(20.0378 -0.29466 -3.55792)
(18.2567 -0.461945 -10.2697)
(13.4697 -0.498877 -12.3788)
(7.64589 -0.386374 -9.88331)
(3.3964 -0.486847 -6.14668)
(-0.235515 -0.638448 -2.18117)
(-0.398088 -0.116037 4.63528)
(-2.14597 -0.0591661 14.1365)
(0.271518 0.0603924 13.4268)
(-7.6919 0.0302553 23.3947)
(26.1561 -0.0549347 3.93461)
(19.3582 -0.387983 11.8554)
(22.268 -0.378039 10.2729)
(25.4194 -0.269947 7.48672)
(25.6081 -0.112706 2.76208)
(24.3447 0.0239658 -2.90923)
(20.3055 0.0965811 -6.92129)
(14.3057 0.168793 -7.3165)
(7.94805 0.171567 -4.75111)
(3.71475 0.279033 -1.95595)
(-1.0157 0.277134 1.66721)
(-0.531207 0.201532 5.22947)
(-3.61838 -0.00131186 14.669)
(0.72797 -0.233425 14.5911)
(-12.4103 0.00363547 23.2118)
(26.1828 -0.0992922 4.01062)
(19.1651 -0.567857 12.168)
(22.1107 -0.485653 10.6411)
(25.2348 -0.30566 7.8696)
(25.4213 -0.0608052 3.10916)
(24.2696 0.146842 -2.64764)
(20.4496 0.246187 -6.82142)
(14.643 0.330436 -7.39889)
(8.411 0.361252 -4.96358)
(4.06177 0.391993 -2.17711)
(-0.671 0.107391 1.2675)
(-0.680175 0.307029 4.77035)
(-3.63306 0.115031 15.2234)
(0.365435 -0.325761 15.196)
(-12.4369 0.0142646 22.8302)
(26.1934 -0.10832 4.06586)
(19.1578 -0.49015 12.31)
(22.1103 -0.388093 10.8123)
(25.1916 -0.227263 8.05376)
(25.368 -0.0159779 3.27636)
(24.2637 0.162096 -2.51795)
(20.5409 0.251233 -6.76784)
(14.8206 0.326185 -7.43204)
(8.64014 0.401949 -5.07519)
(4.3265 0.440916 -2.34514)
(-0.595871 0.149516 1.14298)
(-1.39949 0.244505 4.94386)
(-3.74643 0.127844 14.9218)
(0.150618 -0.194173 15.5774)
(-12.5716 -0.0582006 22.3257)
(26.1992 -0.130697 4.15381)
(19.0555 -0.510906 12.5241)
(22.0497 -0.402356 11.0376)
(25.122 -0.226926 8.27483)
(25.3087 -0.00414769 3.47135)
(24.2724 0.185306 -2.37082)
(20.6707 0.28153 -6.72378)
(15.0597 0.357979 -7.49935)
(8.92794 0.452282 -5.22519)
(4.65836 0.509741 -2.57691)
(-0.316275 0.394811 1.13325)
(-1.79524 0.315312 5.40414)
(-3.85067 -0.0642852 14.572)
(0.0793963 -0.106607 15.5458)
(-12.4184 -0.138736 22.5354)
(26.2076 -0.135281 4.23084)
(19.0197 -0.417541 12.683)
(22.0241 -0.306768 11.2174)
(25.0654 -0.154373 8.4598)
(25.2458 0.0317257 3.63544)
(24.2583 0.191017 -2.24109)
(20.7578 0.269933 -6.671)
(15.2438 0.334771 -7.53588)
(9.16791 0.438502 -5.33541)
(4.96392 0.604101 -2.7463)
(-0.150168 0.608789 1.09575)
(-2.40324 -0.15305 5.27832)
(-4.01426 -0.485002 14.0168)
(-0.185462 -0.00769058 15.5007)
(-12.2959 -0.200131 22.5517)
(26.2218 -0.148565 4.30831)
(18.914 -0.339012 12.8611)
(21.9209 -0.245068 11.4159)
(24.9458 -0.119922 8.65426)
(25.1257 0.0306081 3.80068)
(24.1924 0.164686 -2.10903)
(20.8157 0.231429 -6.60668)
(15.4375 0.284869 -7.55992)
(9.48504 0.385398 -5.44023)
(5.41069 0.60477 -2.94144)
(0.905433 1.14785 0.637353)
(-1.59399 -0.623457 2.89896)
(-4.5561 -1.06528 12.5368)
(-0.169606 0.114981 15.4414)
(-12.1943 -0.284244 22.5891)
(26.2219 -0.110892 4.36572)
(18.7391 -0.173112 13.0112)
(21.7349 -0.114409 11.5882)
(24.7524 -0.0495348 8.8237)
(24.9267 0.0273133 3.93896)
(24.0317 0.100544 -1.99915)
(20.7706 0.138654 -6.53887)
(15.5433 0.168914 -7.55444)
(9.74582 0.231658 -5.50953)
(5.89076 0.357599 -3.12722)
(1.82229 1.04836 0.496102)
(2.69352 -0.209276 -1.58379)
(-5.09381 -0.887011 10.5222)
(0.121924 0.144755 15.4427)
(-12.2295 -0.210548 22.4345)
(26.2127 0.0167193 4.38133)
(18.6484 0.0178515 13.0523)
(21.6424 0.00828818 11.6329)
(24.6646 0.000764299 8.86584)
(24.8381 -0.00616357 3.96769)
(23.9504 -0.0119628 -1.98118)
(20.7263 -0.0128957 -6.52787)
(15.5583 -0.0115062 -7.55428)
(9.83064 0.00293409 -5.52843)
(6.01641 0.0342841 -3.18318)
(1.96257 0.199807 0.448846)
(3.58836 0.00941862 -2.01433)
(-5.22789 -0.197631 9.78067)
(0.136332 -0.0431065 15.5722)
(-12.3424 0.0136379 22.0947)
(26.2262 0.127237 4.35044)
(18.7739 0.20134 12.9847)
(21.7672 0.131117 11.5654)
(24.7784 0.0545815 8.80574)
(24.9466 -0.0342123 3.9253)
(24.0414 -0.117734 -2.0115)
(20.7623 -0.1591 -6.5462)
(15.5201 -0.187433 -7.54953)
(9.71412 -0.220057 -5.49186)
(5.88446 -0.274933 -3.11009)
(1.8193 -0.820443 0.549622)
(3.49234 0.0668252 -2.00007)
(-5.07104 0.439941 10.2811)
(0.213328 -0.201116 15.3737)
(-12.2177 0.227522 22.4396)
(26.2219 0.15 4.29087)
(18.9295 0.360305 12.8338)
(21.9365 0.261604 11.3893)
(24.962 0.128515 8.63053)
(25.1402 -0.031709 3.78151)
(24.1996 -0.174434 -2.12401)
(20.8065 -0.246097 -6.61142)
(15.4177 -0.300864 -7.54802)
(9.47158 -0.382565 -5.41596)
(5.45584 -0.562703 -2.93158)
(1.19253 -1.22403 0.647088)
(-0.243852 0.530315 0.985161)
(-4.65028 1.11452 12.1546)
(0.0793414 -0.129241 15.3296)
(-12.1819 0.329984 22.6281)
(26.208 0.137602 4.20969)
(19.0285 0.435502 12.6519)
(22.0316 0.320986 11.1869)
(25.0764 0.162811 8.43124)
(25.2565 -0.0313602 3.61178)
(24.2621 -0.198117 -2.258)
(20.7462 -0.282291 -6.67262)
(15.2261 -0.352587 -7.51714)
(9.15984 -0.452704 -5.3028)
(5.0121 -0.652313 -2.71216)
(0.00894328 -0.693764 1.0492)
(-2.4933 0.390749 5.03466)
(-4.08059 0.81001 13.9296)
(-0.0822823 0.0315294 15.4547)
(-12.2887 0.255482 22.5954)
(26.2003 0.131947 4.13127)
(19.0638 0.524417 12.4903)
(22.0546 0.414509 11.0041)
(25.1311 0.235779 8.24232)
(25.3173 0.0065946 3.44417)
(24.2729 -0.189913 -2.38893)
(20.6554 -0.293004 -6.72267)
(15.0392 -0.37846 -7.47507)
(8.9114 -0.473992 -5.18687)
(4.66091 -0.56607 -2.53269)
(-0.389722 -0.395332 1.2446)
(-2.00957 -0.148692 5.58016)
(-3.8456 0.17434 14.6229)
(0.19754 0.145116 15.5182)
(-12.422 0.174844 22.6113)
(26.1952 0.109197 4.04229)
(19.1671 0.500603 12.2734)
(22.1143 0.397998 10.7756)
(25.1998 0.235006 8.01705)
(25.375 0.0187703 3.24516)
(24.2608 -0.165222 -2.53793)
(20.5197 -0.260665 -6.76487)
(14.7938 -0.345271 -7.40307)
(8.61873 -0.420081 -5.03018)
(4.30944 -0.479371 -2.29661)
(-0.597232 -0.175383 1.2305)
(-1.40089 -0.178651 4.99013)
(-3.75776 -0.0647634 14.9982)
(0.252327 0.219348 15.5891)
(-12.5899 0.0923945 22.411)
(26.1848 0.099561 3.98666)
(19.1744 0.575636 12.1299)
(22.1138 0.494314 10.6025)
(25.2422 0.313384 7.83012)
(25.4273 0.0646227 3.07548)
(24.2646 -0.14843 -2.66844)
(20.4251 -0.254747 -6.81679)
(14.6131 -0.351294 -7.36561)
(8.37832 -0.376413 -4.91017)
(4.0439 -0.434719 -2.11899)
(-0.697978 -0.157366 1.3455)
(-0.638506 -0.39967 4.81299)
(-3.6388 -0.0996563 15.274)
(0.473273 0.335657 15.2265)
(-12.4634 0.0123293 22.9093)
(26.1587 0.0548896 3.91055)
(19.3683 0.391921 11.8165)
(22.2705 0.383451 10.2328)
(25.4256 0.275394 7.44446)
(25.6113 0.11622 2.72506)
(24.3345 -0.023896 -2.9318)
(20.2726 -0.102136 -6.91532)
(14.2657 -0.183332 -7.27718)
(7.89934 -0.181656 -4.68957)
(3.69491 -0.326426 -1.90114)
(-1.01281 -0.317114 1.71023)
(-0.428904 -0.198452 5.22624)
(-3.62651 0.0114033 14.731)
(0.863813 0.236678 14.6438)
(-12.4437 0.0124461 23.2916)
(27.0508 -0.00795642 2.26374)
(18.3745 -0.206529 7.61218)
(19.5031 -0.298373 7.49433)
(23.3634 -0.299175 6.05011)
(23.3287 -0.247614 3.45689)
(21.5631 -0.172699 0.657648)
(17.7485 -0.0823326 -1.03136)
(12.9355 0.0477758 -1.05394)
(7.57179 0.115322 0.53043)
(4.32888 0.207007 1.57602)
(-1.52422 0.434714 4.78239)
(0.586158 0.0913652 5.24505)
(-5.06041 -0.0840797 16.0085)
(1.08684 -0.564083 16.3197)
(-16.6237 -0.00534153 22.4786)
(27.0345 -0.0162695 2.27191)
(18.317 -0.304666 7.78846)
(19.5137 -0.397259 7.73166)
(23.4179 -0.370863 6.31015)
(23.4507 -0.277958 3.67269)
(21.7757 -0.160997 0.788844)
(18.0571 -0.0302244 -1.00045)
(13.2845 0.147211 -1.10914)
(7.97008 0.284545 0.410074)
(4.55956 0.362651 1.47103)
(-1.50006 0.347268 4.58737)
(0.308699 -0.112441 5.25974)
(-5.14032 -0.228545 16.5964)
(0.94041 -0.696424 16.7143)
(-16.5911 -0.0348218 21.9752)
(27.0202 -0.0208484 2.2796)
(18.3571 -0.27109 7.85853)
(19.5903 -0.333702 7.81649)
(23.4926 -0.302522 6.40904)
(23.5466 -0.21416 3.75473)
(21.9062 -0.108814 0.83566)
(18.2209 0.0103569 -0.996983)
(13.4648 0.170212 -1.1414)
(8.17685 0.341613 0.342926)
(4.86824 0.46981 1.43452)
(-1.28367 0.246982 4.45308)
(0.334351 -0.305926 4.33869)
(-5.36766 -0.0201192 16.2936)
(0.700632 -0.646675 17.0216)
(-16.6936 -0.181807 21.4756)
(27.0046 -0.0255556 2.29218)
(18.337 -0.287152 7.9926)
(19.626 -0.354371 7.98291)
(23.5559 -0.316807 6.58187)
(23.6555 -0.217139 3.89232)
(22.0727 -0.105987 0.915992)
(18.4454 0.0188113 -0.985017)
(13.7278 0.187477 -1.18462)
(8.46552 0.385071 0.256134)
(5.18513 0.562429 1.36297)
(-0.925255 0.419222 4.53193)
(-1.21796 0.142451 6.25152)
(-5.50618 0.0116768 16.2767)
(0.742164 -0.871396 16.9187)
(-16.4885 -0.433695 21.5581)
(26.9919 -0.026841 2.30511)
(18.3676 -0.236139 8.07881)
(19.6936 -0.279039 8.08963)
(23.6267 -0.239117 6.69908)
(23.7495 -0.149082 3.98844)
(22.2046 -0.0559908 0.971893)
(18.6144 0.0457899 -0.979649)
(13.9271 0.186504 -1.22123)
(8.69682 0.387589 0.18242)
(5.50796 0.623368 1.2971)
(-0.486881 0.980094 4.58125)
(-1.6544 0.345076 6.19739)
(-5.87704 -0.702506 15.8438)
(1.20628 -0.688009 16.5153)
(-16.4213 -0.769096 21.4191)
(26.9853 -0.031886 2.31913)
(18.3644 -0.197136 8.1763)
(19.7166 -0.231048 8.22093)
(23.6606 -0.19689 6.84438)
(23.8135 -0.119826 4.11176)
(22.3182 -0.0435632 1.05275)
(18.7862 0.0367415 -0.953324)
(14.1551 0.151128 -1.24648)
(8.99212 0.333671 0.10952)
(5.98618 0.572396 1.16112)
(0.42125 1.45666 4.56785)
(0.291124 0.96158 3.50649)
(-6.63986 -1.33164 14.5618)
(2.05532 -0.268436 15.9211)
(-16.3649 -0.825891 21.3028)
(26.9858 -0.0288399 2.33804)
(18.3362 -0.107453 8.25417)
(19.6893 -0.114994 8.32899)
(23.638 -0.0926102 6.96776)
(23.8116 -0.0489778 4.21964)
(22.3598 -0.00751189 1.1271)
(18.8859 0.0339002 -0.921688)
(14.3155 0.0949077 -1.25745)
(9.23425 0.200088 0.0509277)
(6.41896 0.342354 1.02454)
(1.10138 1.09243 4.46492)
(4.0366 1.25864 0.610969)
(-6.91564 -1.16862 13.3577)
(1.72837 0.00446045 16.1906)
(-16.2988 -0.422596 20.7501)
(26.9875 0.00255184 2.34572)
(18.2957 0.0100953 8.2848)
(19.6422 0.0102773 8.37017)
(23.5965 0.00672067 7.01245)
(23.7791 0.00227935 4.25688)
(22.3457 -0.000224262 1.15305)
(18.9001 -0.000773672 -0.907671)
(14.3644 0.000962995 -1.25633)
(9.3272 0.0150055 0.0353193)
(6.57251 0.0584054 0.97188)
(1.13027 0.23728 4.43582)
(5.36539 0.284942 -0.113812)
(-6.60103 -0.212816 12.779)
(1.06629 -0.0669261 16.6464)
(-16.2932 -0.0344734 20.1822)
(26.9875 0.0326645 2.33093)
(18.3368 0.124677 8.2413)
(19.6857 0.132482 8.31542)
(23.6313 0.104423 6.95497)
(23.7992 0.0534148 4.2093)
(22.3411 0.00652936 1.12038)
(18.8624 -0.037108 -0.923348)
(14.2952 -0.0944578 -1.25262)
(9.22147 -0.167536 0.0587547)
(6.45388 -0.22225 1.02518)
(1.09553 -0.688251 4.47845)
(5.13911 -0.760576 0.0284426)
(-6.67117 0.719935 12.9525)
(2.18136 -0.0508261 15.9904)
(-16.3189 0.384177 20.8254)
(26.9872 0.0328216 2.31453)
(18.365 0.20994 8.16087)
(19.7126 0.244978 8.20175)
(23.6546 0.207385 6.825)
(23.8027 0.124976 4.09681)
(22.3015 0.0431415 1.04459)
(18.7638 -0.0412162 -0.953677)
(14.1384 -0.155215 -1.23793)
(8.99686 -0.314006 0.12019)
(6.0983 -0.500933 1.15875)
(0.78059 -1.38382 4.59368)
(2.42044 -1.24279 1.68737)
(-6.78589 1.3449 14.3015)
(2.84088 0.281046 15.5899)
(-16.4157 0.914236 21.4699)
(26.9941 0.0269272 2.29943)
(18.3648 0.246241 8.05941)
(19.6843 0.290452 8.06642)
(23.6166 0.248122 6.67561)
(23.7358 0.153943 3.97064)
(22.1868 0.0560368 0.963074)
(18.5928 -0.0502273 -0.978387)
(13.9151 -0.195284 -1.20895)
(8.70822 -0.392944 0.198949)
(5.61541 -0.65076 1.31488)
(-0.144323 -1.21318 4.60837)
(-0.99347 -0.454217 5.29304)
(-6.07663 1.06053 15.7258)
(1.7594 0.72081 16.3349)
(-16.4847 0.96152 21.5918)
(27.0081 0.0262813 2.28626)
(18.3337 0.295138 7.97124)
(19.6135 0.36301 7.95773)
(23.5421 0.323611 6.55606)
(23.6377 0.220535 3.87287)
(22.0513 0.104665 0.907023)
(18.422 -0.0256429 -0.982205)
(13.7144 -0.201911 -1.16873)
(8.46849 -0.404216 0.278398)
(5.22213 -0.62361 1.40101)
(-0.843275 -0.620383 4.61392)
(-1.29747 -0.0980585 6.36364)
(-5.54058 0.274227 16.3768)
(0.966402 0.946854 16.9433)
(-16.5375 0.599077 21.7206)
(27.0244 0.021312 2.27344)
(18.3548 0.276961 7.83458)
(19.5768 0.340089 7.78862)
(23.4765 0.307657 6.38041)
(23.5251 0.21664 3.73321)
(21.8795 0.107195 0.825799)
(18.1921 -0.0168142 -0.993518)
(13.4461 -0.184858 -1.12311)
(8.17295 -0.35442 0.369875)
(4.86759 -0.509214 1.47388)
(-1.26647 -0.334859 4.54829)
(-0.0466429 0.291924 5.00649)
(-5.35303 0.0938304 16.4607)
(0.79977 0.718684 17.112)
(-16.7527 0.271338 21.6421)
(27.0392 0.0165253 2.26564)
(18.3151 0.308963 7.76322)
(19.4995 0.402122 7.7025)
(23.4007 0.374762 6.28013)
(23.4274 0.279589 3.6504)
(21.7465 0.158517 0.779129)
(18.0264 0.0224604 -0.995851)
(13.2656 -0.164577 -1.08811)
(7.95922 -0.293776 0.442342)
(4.57572 -0.392039 1.51312)
(-1.44337 -0.390846 4.6288)
(0.486928 0.142147 5.18324)
(-5.13814 0.194761 16.6695)
(1.11342 0.787511 16.7922)
(-16.6667 0.0786385 22.1458)
(27.0558 0.00801833 2.2573)
(18.3734 0.208458 7.58578)
(19.4882 0.300895 7.46382)
(23.3445 0.301315 6.01844)
(23.3021 0.248415 3.43332)
(21.529 0.170477 0.647296)
(17.7116 0.0757273 -1.02668)
(12.9099 -0.0612612 -1.02999)
(7.55135 -0.122485 0.566694)
(4.35091 -0.242287 1.61009)
(-1.40179 -0.508894 4.76418)
(0.8502 -0.0204656 5.10449)
(-5.06512 0.11095 16.084)
(1.34091 0.628894 16.3915)
(-16.7225 0.0225095 22.7043)
(28.7198 -0.00871023 2.5046)
(17.7708 -0.0922095 5.73242)
(16.5086 -0.153173 5.91974)
(19.9201 -0.179624 5.31323)
(19.2996 -0.173987 4.12903)
(17.7099 -0.130189 2.73951)
(15.0378 -0.0602687 2.00675)
(12.0306 0.0483289 2.2823)
(7.80415 0.0855105 4.06212)
(6.18268 0.133453 4.90817)
(-0.285816 0.636473 8.02662)
(3.87011 0.421523 5.05558)
(-7.0156 -0.160139 19.4354)
(4.53766 -0.334984 18.244)
(-20.8496 -0.362641 22.0295)
(28.7089 -0.0143604 2.50874)
(17.7175 -0.135857 5.80435)
(16.5086 -0.204544 6.02788)
(19.9706 -0.225228 5.43695)
(19.4107 -0.203563 4.23916)
(17.8696 -0.132496 2.81579)
(15.2321 -0.0288469 2.04012)
(12.2289 0.126315 2.26587)
(8.03108 0.219474 3.99045)
(6.23743 0.291215 4.9152)
(-0.805916 0.803386 8.23453)
(3.54244 0.456095 5.17301)
(-7.34766 -0.685677 19.7022)
(5.28361 -0.500847 18.3028)
(-20.8507 -0.510177 21.9585)
(28.6977 -0.0162014 2.51189)
(17.7345 -0.122607 5.83166)
(16.5609 -0.174528 6.05816)
(20.0323 -0.187846 5.4711)
(19.4922 -0.163371 4.2675)
(17.9657 -0.0975147 2.82889)
(15.3366 -0.00169789 2.03243)
(12.3361 0.142713 2.23742)
(8.18322 0.26675 3.91875)
(6.48562 0.455012 4.8855)
(-0.41354 0.817602 8.24897)
(4.45199 -0.0148801 3.80761)
(-7.22415 -0.270119 18.9968)
(4.18721 -0.719326 19.0232)
(-20.9158 -1.03231 21.6246)
(28.6865 -0.0191855 2.51647)
(17.7051 -0.128281 5.8909)
(16.5761 -0.186622 6.1432)
(20.082 -0.201545 5.56695)
(19.5851 -0.172965 4.35069)
(18.0936 -0.103146 2.8849)
(15.4907 -0.000317879 2.052)
(12.5041 0.153431 2.21981)
(8.3946 0.303192 3.84921)
(6.70043 0.519248 4.84194)
(0.166425 0.883817 8.19235)
(3.55757 -0.158803 4.99966)
(-7.83031 0.422555 19.1235)
(5.92723 -0.723074 18.2617)
(-20.7521 -2.29799 22.1239)
(28.675 -0.0190142 2.52037)
(17.7142 -0.102615 5.92582)
(16.6216 -0.145644 6.18738)
(20.1433 -0.154438 5.61612)
(19.6707 -0.126669 4.39114)
(18.1969 -0.069078 2.90639)
(15.6055 0.0159432 2.04657)
(12.6295 0.143704 2.18729)
(8.55805 0.297402 3.7749)
(6.95355 0.486419 4.78114)
(0.642064 1.21836 8.15938)
(3.80854 0.686289 5.17765)
(-8.80002 -0.114361 18.6454)
(9.48986 -0.164607 16.1017)
(-20.5756 -2.81261 22.4703)
(28.6652 -0.0187433 2.52448)
(17.7052 -0.082906 5.9658)
(16.644 -0.121446 6.24645)
(20.1884 -0.131922 5.68684)
(19.7477 -0.108973 4.45519)
(18.3009 -0.0635608 2.95056)
(15.7311 0.00450982 2.06163)
(12.7762 0.108937 2.16876)
(8.74461 0.246337 3.70743)
(7.27397 0.382754 4.67357)
(1.00638 1.2086 8.15406)
(5.79665 1.44185 4.07768)
(-9.65847 -0.777017 17.4029)
(11.317 -0.211469 14.6545)
(-20.0021 -2.10719 21.9824)
(28.6583 -0.0162184 2.52968)
(17.7076 -0.0466148 5.99213)
(16.6636 -0.062185 6.28493)
(20.22 -0.065492 5.73511)
(19.8008 -0.0508928 4.49994)
(18.3736 -0.0268692 2.98056)
(15.8195 0.00803079 2.06919)
(12.8808 0.0647301 2.15037)
(8.88504 0.143059 3.65082)
(7.51721 0.210504 4.57268)
(1.08485 0.715907 8.11308)
(7.24443 1.37136 3.46707)
(-9.31547 -0.825761 16.4423)
(9.82706 -0.301 15.4003)
(-19.9852 -0.809538 20.9101)
(28.6574 -0.00222999 2.53194)
(17.6817 0.000480718 6.00704)
(16.6364 0.00374054 6.30671)
(20.2023 0.00394151 5.7613)
(19.796 0.00278591 4.52433)
(18.3837 0.00146696 2.99924)
(15.8443 0.000822002 2.07979)
(12.9203 0.00387875 2.15069)
(8.94299 0.0145994 3.63542)
(7.60479 0.0571055 4.53283)
(0.945515 0.135835 8.12978)
(7.74223 0.329797 3.21492)
(-8.62482 -0.0413545 16.0786)
(7.87231 0.0411155 16.4963)
(-20.1157 -0.0899769 20.096)
(28.6614 0.0172524 2.52637)
(17.6924 0.053097 5.98908)
(16.6387 0.0696437 6.28185)
(20.1949 0.0705151 5.73143)
(19.7746 0.0528675 4.49628)
(18.3492 0.0260242 2.97824)
(15.7994 -0.00935116 2.06919)
(12.8685 -0.0584404 2.15318)
(8.88264 -0.110946 3.65152)