/*--------------------------------*- C++ -*----------------------------------*\
| =========                 |                                                 |
| \\      /  F ield         | OpenFOAM: The Open Source CFD Toolbox           |
|  \\    /   O peration     | Version:  4.1                                   |
|   \\  /    A nd           | Web:      www.OpenFOAM.org                      |
|    \\/     M anipulation  |                                                 |
\*---------------------------------------------------------------------------*/
FoamFile
{
    version     2.0;
    format      ascii;
    class       volScalarField;
    location    "11.5";
    object      p;
}
// * * * * * * * * * * * * * * * * * * * * * * * * * * * * * * * * * * * * * //

dimensions      [0 2 -2 0 0 0 0];

internalField   nonuniform List<scalar> 
204246
(
6.66174
-20.3258
-20.4218
-19.0812
-19.9583
-19.9509
-20.8082
-21.1336
-21.5174
-21.8902
-22.256
-22.5449
-22.7723
-22.8694
-22.9071
-22.8413
-24.5058
-25.2869
-24.773
-25.3474
-24.8313
-25.6427
-25.7317
-25.8971
-26.0119
-26.0819
-26.0856
-26.8612
-26.4114
-27.1296
-26.6756
-27.3388
-26.7215
-27.2462
-26.8599
-28.0895
-28.7544
-28.0778
-28.8236
-28.7998
-28.6814
-28.4146
-28.921
-28.72
-29.4178
-28.8841
-29.5063
-28.9561
-29.6819
-29.464
-29.2547
-29.0342
-30.3416
-31.2096
-30.2083
-30.5857
-30.7593
-31.0028
-30.3708
-30.9588
-30.7341
-31.4229
-30.8562
-31.4523
-30.8721
-31.5853
-31.3446
-31.0792
-30.7685
-31.9271
-32.756
-32.6116
-32.3988
-32.0694
-32.502
-32.0842
-32.5273
-32.2842
-32.9505
-32.3838
-32.9946
-32.4368
-33.1268
-32.694
-33.1446
-32.1425
-33.4412
-34.2882
-34.1372
-33.8764
-33.4594
-33.8279
-33.5599
-34.4458
-33.2843
-34.3997
-33.1853
-34.1631
-34.1763
-34.0758
-33.7332
-34.1875
-34.0209
-34.1019
-33.4715
-35.0046
-35.5797
-35.0781
-35.219
-35.138
-35.8218
-35.2383
-35.8709
-35.5096
-36.1517
-35.7797
-36.4188
-36.0298
-36.7547
-36.6145
-36.5052
-36.3805
-37.8849
-38.6573
-38.4532
-39.2061
-39.0683
-40.0126
-40.0668
-41.3872
-42.0422
-42.7074
-43.2989
-44.8791
-45.4934
-47.339
-48.4362
-49.6694
-51.0029
-53.9638
-56.2976
-57.9192
-60.3183
-62.0723
-63.9554
-66.0293
-68.1703
-70.0744
-71.7467
-72.9692
-73.7712
-74.1093
-74.0974
-73.8166
-73.5596
-73.3753
-73.5048
-73.1171
-71.0968
-69.9672
-67.783
-66.4457
-64.0331
-62.3734
-59.6225
-57.4973
-54.2736
-51.6469
-47.9027
-44.4765
-40.0734
-35.5829
-30.5762
-25.0943
-19.0297
-12.4514
-5.09367
3.11785
12.0545
22.2505
33.7163
46.7972
61.5248
78.2299
96.8999
117.768
140.814
166.659
196.073
235.092
294.043
387.288
512.237
-3.1326
-9.57714
-14.4261
-17.3146
-18.7116
-19.4957
-20.154
-20.7475
-21.1873
-21.6395
-22.0112
-22.408
-22.6694
-22.9057
-22.9548
-23.1739
-23.756
-24.381
-24.6587
-24.863
-24.9855
-25.2274
-25.5735
-25.7222
-25.9351
-26.0094
-26.1854
-26.4151
-26.585
-26.7638
-26.9313
-27.0554
-27.1013
-27.1189
-27.2411
-27.5928
-28.0238
-28.138
-28.3942
-28.6545
-28.6116
-28.6287
-28.7102
-28.8578
-29.0191
-29.1088
-29.2015
-29.3089
-29.4689
-29.5707
-29.3972
-29.4333
-29.8009
-30.2689
-30.3701
-30.4336
-30.6633
-30.7461
-30.7405
-30.7735
-30.9045
-31.0481
-31.1122
-31.1758
-31.2622
-31.4031
-31.473
-31.2399
-31.2229
-31.5781
-32.048
-32.3101
-32.2995
-32.2905
-32.3032
-32.3111
-32.3494
-32.4641
-32.5946
-32.6574
-32.7226
-32.7991
-32.9068
-33.0039
-32.9554
-32.8693
-33.1632
-33.6289
-33.8919
-33.829
-33.7541
-33.7136
-33.7879
-33.9109
-33.8859
-33.909
-33.8563
-33.9465
-34.14
-34.0552
-34.1125
-34.1378
-34.207
-34.1178
-34.1362
-34.5125
-34.9465
-35.0885
-35.1249
-35.294
-35.4547
-35.5475
-35.6365
-35.7892
-35.9118
-36.0869
-36.2195
-36.4149
-36.6006
-36.7604
-36.6642
-36.865
-37.3487
-37.8699
-38.2641
-38.6536
-39.0427
-39.4556
-39.9887
-40.6738
-41.4874
-42.1145
-42.9397
-43.8698
-44.9912
-46.1965
-47.5077
-48.8083
-50.371
-52.2275
-54.2962
-56.441
-58.5852
-60.6691
-62.7723
-64.9738
-67.0964
-69.1627
-70.9949
-72.5859
-73.7835
-74.9675
-75.3035
-75.4235
-75.2485
-75.0833
-75.0965
-74.6093
-73.6447
-72.4436
-70.9417
-69.3744
-67.6014
-65.7738
-63.7158
-61.5394
-59.1043
-56.4853
-53.55
-50.3242
-46.7001
-42.7055
-38.2768
-33.4298
-28.0879
-22.2161
-15.6506
-8.40429
-0.432001
8.44837
18.3011
29.4238
41.917
56.0756
71.911
89.5089
108.632
129.246
151.282
176.819
212.658
278.843
376.762
-16.6773
-13.7624
-15.0002
-16.6256
-18.0171
-19.0988
-19.8891
-20.5378
-21.0466
-21.5019
-21.8956
-22.2741
-22.5791
-22.8862
-23.0728
-23.3847
-23.7063
-24.1012
-24.451
-24.7062
-24.9609
-25.1193
-25.4093
-25.5824
-25.8097
-25.9329
-26.1322
-26.2747
-26.5045
-26.6318
-26.8644
-26.9646
-27.1409
-27.2031
-27.4074
-27.5723
-27.8021
-28.0187
-28.192
-28.4258
-28.4854
-28.5929
-28.6468
-28.7909
-28.8733
-29.0331
-29.0875
-29.2611
-29.3502
-29.5087
-29.5208
-29.6331
-29.7732
-29.994
-30.1979
-30.3069
-30.4991
-30.5644
-30.6749
-30.7126
-30.8378
-30.8997
-31.033
-31.0631
-31.2186
-31.2922
-31.4046
-31.3635
-31.4263
-31.5488
-31.7834
-31.9886
-32.0835
-32.1777
-32.1818
-32.249
-32.2679
-32.3737
-32.4291
-32.5583
-32.5913
-32.7324
-32.7919
-32.9248
-32.9261
-33.008
-33.1232
-33.357
-33.5569
-33.608
-33.6576
-33.6377
-33.7005
-33.7094
-33.7723
-33.7218
-33.7773
-33.7885
-33.9012
-33.8854
-33.955
-33.9708
-34.0454
-34.0512
-34.1555
-34.3066
-34.5433
-34.7377
-34.8627
-35.018
-35.1278
-35.2921
-35.3703
-35.5368
-35.6139
-35.7661
-35.871
-36.0465
-36.1936
-36.3571
-36.4556
-36.6725
-36.9553
-37.2967
-37.6661
-38.043
-38.4297
-38.8178
-39.3156
-39.9159
-40.5618
-41.2783
-42.0692
-42.9852
-44.0169
-45.1809
-46.468
-47.8852
-49.4404
-51.1436
-53.0262
-55.0512
-57.1473
-59.2923
-61.4927
-63.7099
-65.8822
-67.9369
-69.8235
-71.4441
-72.7873
-73.7824
-74.4916
-74.7854
-74.7139
-74.2649
-73.4559
-72.4835
-71.4446
-70.2424
-68.8629
-67.2774
-65.509
-63.5552
-61.456
-59.1357
-56.6431
-53.896
-50.9169
-47.6389
-44.0588
-40.1123
-35.7733
-30.9705
-25.6616
-19.7747
-13.2363
-6.07516
1.88269
10.683
20.4756
31.3392
43.5261
57.1492
72.4776
89.4672
108.101
127.683
148.196
170.044
199.094
242.517
300.124
-19.1944
-16.6325
-16.6396
-17.3045
-18.0822
-18.8651
-19.6023
-20.2631
-20.823
-21.3125
-21.7319
-22.1163
-22.4539
-22.7779
-23.0543
-23.3643
-23.6444
-23.9541
-24.271
-24.5684
-24.8667
-25.0642
-25.3483
-25.5351
-25.7482
-25.9079
-26.1221
-26.2685
-26.4812
-26.6125
-26.8246
-26.9367
-27.1225
-27.2354
-27.4545
-27.599
-27.7696
-27.9507
-28.1386
-28.3643
-28.4667
-28.6148
-28.6965
-28.8358
-28.9094
-29.0512
-29.1164
-29.2685
-29.3502
-29.5089
-29.5814
-29.7323
-29.8497
-30.001
-30.1434
-30.2859
-30.4811
-30.5723
-30.7095
-30.7789
-30.9023
-30.9583
-31.0772
-31.121
-31.2527
-31.3126
-31.4403
-31.4714
-31.5788
-31.6787
-31.8308
-31.9672
-32.0775
-32.2095
-32.2521
-32.3423
-32.3792
-32.4746
-32.5154
-32.6266
-32.6705
-32.8002
-32.8672
-33.014
-33.067
-33.1866
-33.2958
-33.4628
-33.6005
-33.6852
-33.7865
-33.8163
-33.8953
-33.8957
-33.9372
-33.9108
-33.9588
-33.9604
-34.0329
-34.0348
-34.132
-34.168
-34.26
-34.3003
-34.4234
-34.5317
-34.7174
-34.8832
-35.0469
-35.245
-35.3456
-35.5177
-35.6026
-35.7751
-35.8709
-36.0805
-36.2061
-36.415
-36.5446
-36.7481
-36.8585
-37.1075
-37.3052
-37.5839
-37.9229
-38.3006
-38.7193
-39.1475
-39.6782
-40.2112
-40.8573
-41.519
-42.3043
-43.1195
-44.0643
-45.123
-46.3478
-47.6971
-49.19
-50.8136
-52.6162
-54.5622
-56.6345
-58.8258
-61.1171
-63.4448
-65.7496
-67.9814
-70.0477
-71.9131
-73.5145
-74.8578
-75.8504
-76.5951
-77.0321
-77.2995
-77.393
-76.9492
-76.0414
-74.8721
-73.4934
-72.0001
-70.3715
-68.6593
-66.7945
-64.8094
-62.6143
-60.2297
-57.5782
-54.6788
-51.4633
-47.9421
-44.0438
-39.7633
-35.0068
-29.7504
-23.8328
-17.2888
-10.0224
-1.96093
6.96659
16.8697
27.8493
40.035
53.467
68.166
84.0618
101.209
119.986
142.099
170.243
205.568
244.333
-20.2322
-18.0527
-17.795
-18.0212
-18.4508
-18.9716
-19.5474
-20.1425
-20.6748
-21.1593
-21.5828
-21.9499
-22.2894
-22.5875
-22.8836
-23.1758
-23.4821
-23.8032
-24.1076
-24.3871
-24.6635
-24.8823
-25.1095
-25.324
-25.5251
-25.714
-25.8975
-26.083
-26.2765
-26.4344
-26.6265
-26.7699
-26.9466
-27.079
-27.2583
-27.442
-27.6305
-27.8065
-27.9668
-28.1407
-28.258
-28.3926
-28.4908
-28.6125
-28.7176
-28.8546
-28.9453
-29.0848
-29.1763
-29.3045
-29.4008
-29.529
-29.6573
-29.8278
-29.9844
-30.1173
-30.2679
-30.3648
-30.4882
-30.5717
-30.6823
-30.7693
-30.889
-30.9579
-31.0781
-31.1422
-31.2421
-31.2921
-31.3823
-31.48
-31.6355
-31.7651
-31.8582
-31.9653
-32.0176
-32.099
-32.1411
-32.2206
-32.286
-32.3909
-32.4558
-32.5743
-32.651
-32.7628
-32.8361
-32.9383
-33.0487
-33.2171
-33.3461
-33.4228
-33.5029
-33.524
-33.5889
-33.622
-33.6736
-33.659
-33.6981
-33.6933
-33.747
-33.7455
-33.7905
-33.8087
-33.8645
-33.9078
-33.9955
-34.115
-34.2713
-34.411
-34.5544
-34.7034
-34.8438
-35.0056
-35.1272
-35.2791
-35.3797
-35.4907
-35.6015
-35.7232
-35.8532
-35.9644
-36.0919
-36.2332
-36.4623
-36.7216
-36.9561
-37.2555
-37.4961
-37.8521
-38.1795
-38.6371
-39.1794
-39.8193
-40.5298
-41.3315
-42.2268
-43.2475
-44.4049
-45.7018
-47.1311
-48.6999
-50.4301
-52.3072
-54.3411
-56.5314
-58.8578
-61.2584
-63.6709
-66.0225
-68.2492
-70.3089
-72.1715
-73.7637
-75.0129
-75.7459
-75.9201
-75.4545
-74.6219
-73.7914
-72.9246
-71.8983
-70.7143
-69.3468
-67.8045
-66.1059
-64.2945
-62.3311
-60.2323
-57.942
-55.4492
-52.7137
-49.7242
-46.4338
-42.8274
-38.8431
-34.4702
-29.6323
-24.2813
-18.3801
-11.8075
-4.45449
3.78511
12.9715
23.1408
34.2459
46.2189
58.8999
72.271
86.4244
102.13
120.944
144.509
172.861
201
-20.5238
-19.0058
-18.7027
-18.7314
-18.9739
-19.3092
-19.7163
-20.1952
-20.6575
-21.1032
-21.5309
-21.9039
-22.2688
-22.6368
-22.9349
-23.2348
-23.4919
-23.7758
-24.0593
-24.3504
-24.6372
-24.8909
-25.1446
-25.3573
-25.581
-25.7746
-25.9874
-26.1646
-26.351
-26.5118
-26.7261
-26.8552
-27.0504
-27.1849
-27.4048
-27.5284
-27.6704
-27.8249
-27.9989
-28.2182
-28.3516
-28.4969
-28.6082
-28.7616
-28.8426
-28.9811
-29.0583
-29.2006
-29.2911
-29.4634
-29.56
-29.719
-29.7985
-29.9035
-30.0354
-30.1752
-30.362
-30.4684
-30.6185
-30.7122
-30.8469
-30.9113
-31.0293
-31.0909
-31.2109
-31.2802
-31.4161
-31.4865
-31.6014
-31.6604
-31.7596
-31.8752
-31.985
-32.1161
-32.1853
-32.2891
-32.3391
-32.4271
-32.4638
-32.5591
-32.6138
-32.7317
-32.8173
-32.9803
-33.0751
-33.2177
-33.2966
-33.4011
-33.5295
-33.642
-33.7616
-33.8171
-33.8985
-33.9049
-33.9438
-33.9385
-33.97
-33.9645
-34.0023
-34.0125
-34.0956
-34.1427
-34.2378
-34.2982
-34.4093
-34.4652
-34.6034
-34.7807
-34.9525
-35.1195
-35.2368
-35.4194
-35.5187
-35.6918
-35.8026
-36.0222
-36.1404
-36.346
-36.4832
-36.6851
-36.8595
-37.0419
-37.1494
-37.3459
-37.6573
-38.0039
-38.3797
-38.7458
-39.2016
-39.6192
-40.1273
-40.6572
-41.284
-41.9672
-42.7608
-43.6631
-44.7161
-45.9036
-47.233
-48.6942
-50.321
-52.1125
-54.0891
-56.2524
-58.5777
-61.0221
-63.5323
-66.0638
-68.5438
-70.9132
-73.0356
-74.8731
-76.3814
-77.6317
-78.6723
-79.5054
-79.8008
-79.3153
-78.2665
-76.9257
-75.4478
-73.9093
-72.2859
-70.6203
-68.867
-67.0325
-65.0593
-62.9541
-60.6333
-58.0985
-55.292
-52.2095
-48.8042
-45.0609
-40.936
-36.4108
-31.394
-25.8798
-19.7501
-12.8748
-5.16614
3.4195
12.8738
23.174
34.2034
45.8716
58.1504
71.1364
85.3479
102.011
121.777
144.571
166.041
-20.3389
-19.2534
-18.9845
-19.0398
-19.2146
-19.4264
-19.7634
-20.1568
-20.5876
-20.9927
-21.3643
-21.7121
-22.0275
-22.3362
-22.6439
-22.94
-23.2495
-23.5563
-23.8462
-24.1148
-24.3814
-24.6373
-24.8549
-25.0752
-25.2691
-25.4805
-25.6828
-25.8837
-26.066
-26.2403
-26.4032
-26.5777
-26.7499
-26.9216
-27.0852
-27.2805
-27.4819
-27.6569
-27.7994
-27.9389
-28.0789
-28.2042
-28.3237
-28.4403
-28.5656
-28.6864
-28.7941
-28.9116
-29.0118
-29.1105
-29.2443
-29.384
-29.536
-29.69
-29.8349
-29.9693
-30.0922
-30.2146
-30.3284
-30.4347
-30.5345
-30.6411
-30.7531
-30.8418
-30.9489
-31.0263
-31.1122
-31.1945
-31.2832
-31.3859
-31.51
-31.6259
-31.732
-31.83
-31.9006
-31.9775
-32.0295
-32.0927
-32.1583
-32.2438
-32.3173
-32.416
-32.5004
-32.5925
-32.7107
-32.8371
-32.9803
-33.1258
-33.2486
-33.349
-33.4295
-33.4776
-33.5343
-33.5805
-33.6273
-33.6267
-33.6484
-33.6338
-33.6556
-33.6421
-33.6552
-33.6669
-33.7072
-33.7635
-33.8353
-33.9492
-34.0699
-34.1813
-34.3148
-34.4471
-34.6112
-34.7693
-34.9232
-35.0622
-35.1838
-35.2608
-35.3892
-35.4723
-35.6139
-35.6774
-35.7982
-35.8465
-36.0955
-36.2969
-36.4007
-36.5393
-36.7255
-37.0018
-37.3316
-37.741
-38.2081
-38.7519
-39.3587
-40.0443
-40.8129
-41.6938
-42.706
-43.8595
-45.1513
-46.5827
-48.1749
-49.9345
-51.883
-54.02
-56.3324
-58.8012
-61.3923
-64.0489
-66.7031
-69.2581
-71.6426
-73.7905
-75.6428
-77.0542
-77.8368
-77.7051
-77.1601
-76.5408
-75.816
-74.854
-73.6857
-72.3234
-70.8575
-69.3132
-67.6972
-66.0056
-64.2175
-62.3134
-60.2698
-58.0359
-55.5881
-52.8905
-49.9133
-46.625
-42.9839
-38.9523
-34.4772
-29.5493
-24.075
-17.9605
-11.1567
-3.60726
4.66928
13.6854
23.3842
33.7619
44.8118
56.6208
69.5776
84.4199
101.339
120.097
137.178
-20.7161
-19.7861
-19.5528
-19.6266
-19.7012
-19.8221
-20.0657
-20.3512
-20.6985
-21.1025
-21.431
-21.8043
-22.1495
-22.5141
-22.8184
-23.0627
-23.3269
-23.6054
-23.8834
-24.1749
-24.4624
-24.7336
-24.9823
-25.2056
-25.4239
-25.6271
-25.8317
-26.0249
-26.2252
-26.404
-26.5909
-26.7569
-26.9365
-27.0926
-27.2643
-27.4103
-27.5715
-27.7369
-27.9132
-28.0891
-28.2399
-28.3903
-28.5181
-28.6618
-28.7643
-28.8903
-28.9752
-29.1221
-29.2074
-29.3774
-29.4817
-29.6108
-29.7045
-29.8186
-29.9479
-30.0887
-30.2337
-30.363
-30.5121
-30.6363
-30.7579
-30.841
-30.9593
-31.027
-31.1431
-31.2183
-31.3619
-31.4365
-31.5629
-31.6094
-31.6843
-31.8011
-31.9121
-32.0249
-32.1093
-32.2204
-32.273
-32.3558
-32.3812
-32.4582
-32.5087
-32.6139
-32.7029
-32.8796
-32.9975
-33.1346
-33.2282
-33.3438
-33.4795
-33.6139
-33.7275
-33.8116
-33.8761
-33.8983
-33.936
-33.9404
-33.9614
-33.9523
-33.9624
-33.963
-34.02
-34.0531
-34.1336
-34.1917
-34.2784
-34.3202
-34.4405
-34.6221
-34.7911
-34.9721
-35.094
-35.2676
-35.3823
-35.5784
-35.7015
-35.9131
-36.0416
-36.2142
-36.3649
-36.5587
-36.6945
-36.8653
-36.9254
-37.0957
-37.3448
-37.5991
-37.8749
-38.1126
-38.4333
-38.7244
-39.1023
-39.4996
-39.9816
-40.5139
-41.1359
-41.8553
-42.7069
-43.6946
-44.831
-46.1179
-47.5842
-49.2278
-51.0734
-53.132
-55.4071
-57.9001
-60.5746
-63.3705
-66.2293
-69.1096
-71.9249
-74.5626
-76.8508
-78.7704
-80.3689
-81.6185
-82.1868
-81.8608
-80.7237
-79.2293
-77.5553
-75.846
-74.1237
-72.4246
-70.7481
-69.0494
-67.3164
-65.4912
-63.5685
-61.4819
-59.1926
-56.6865
-53.9058
-50.8575
-47.4623
-43.7064
-39.5008
-34.8676
-29.7376
-24.0642
-17.8262
-10.9791
-3.54167
4.49345
13.1142
22.3578
32.2599
42.9646
54.7506
67.9914
82.7111
98.5918
112.647
-20.0227
-19.3665
-19.3532
-19.5082
-19.7201
-19.868
-20.0285
-20.3055
-20.5599
-20.9135
-21.232
-21.5129
-21.8257
-22.112
-22.4402
-22.7252
-23.0145
-23.3071
-23.5961
-23.8772
-24.1357
-24.3943
-24.6229
-24.8423
-25.033
-25.2372
-25.446
-25.6476
-25.8437
-26.0376
-26.2143
-26.3943
-26.5736
-26.7631
-26.952
-27.1349
-27.309
-27.4687
-27.6281
-27.7689
-27.9122
-28.0494
-28.1868
-28.3008
-28.4287
-28.5425
-28.6591
-28.7568
-28.8743
-28.9724
-29.106
-29.2536
-29.4083
-29.5606
-29.7131
-29.8474
-29.9672
-30.0913
-30.1903
-30.3096
-30.414
-30.5375
-30.6467
-30.7503
-30.8456
-30.9322
-30.9999
-31.0993
-31.2
-31.316
-31.4317
-31.5446
-31.6522
-31.754
-31.8434
-31.9116
-31.9726
-32.0188
-32.0757
-32.1386
-32.2047
-32.2835
-32.3698
-32.4398
-32.5758
-32.7136
-32.88
-33.0425
-33.1965
-33.3199
-33.4288
-33.5088
-33.5657
-33.6122
-33.6493
-33.6499
-33.6559
-33.633
-33.6282
-33.5891
-33.5778
-33.5732
-33.5953
-33.6405
-33.6882
-33.8057
-33.9162
-33.9965
-34.1151
-34.2504
-34.4234
-34.5832
-34.7586
-34.8846
-35.0398
-35.0972
-35.2561
-35.3063
-35.4506
-35.503
-35.6179
-35.6441
-35.8336
-35.9743
-36.0662
-36.1785
-36.3412
-36.5603
-36.8246
-37.153
-37.5317
-37.9762
-38.4744
-39.0328
-39.6567
-40.3675
-41.184
-42.1276
-43.2098
-44.4475
-45.8602
-47.4449
-49.2198
-51.2088
-53.4317
-55.9018
-58.5959
-61.4659
-64.4573
-67.5064
-70.5219
-73.3939
-76.0551
-78.3915
-80.1853
-81.1395
-81.2961
-80.8607
-80.1768
-79.052
-77.5616
-75.873
-74.1328
-72.4384
-70.7998
-69.2395
-67.6681
-66.0533
-64.3674
-62.5718
-60.648
-58.5264
-56.2046
-53.6143
-50.7307
-47.4833
-43.7925
-39.6758
-35.0674
-29.97
-24.3562
-18.2296
-11.5695
-4.39949
3.29161
11.5446
20.4328
30.1319
40.8023
52.6232
65.6054
79.3666
91.3271
-20.2958
-19.9519
-19.9171
-19.9562
-20.0266
-20.144
-20.2984
-20.5547
-20.7678
-21.0774
-21.4106
-21.7372
-22.0659
-22.3718
-22.6617
-22.9609
-23.1532
-23.3935
-23.6792
-23.9782
-24.2884
-24.5675
-24.8361
-25.0573
-25.2775
-25.4796
-25.6847
-25.8687
-26.0637
-26.2391
-26.4237
-26.585
-26.7541
-26.9224
-27.1061
-27.2732
-27.4482
-27.6339
-27.8115
-27.9793
-28.1242
-28.278
-28.4093
-28.5447
-28.6522
-28.7791
-28.8883
-29.0218
-29.0957
-29.2326
-29.3313
-29.455
-29.5634
-29.6924
-29.8331
-29.9822
-30.1346
-30.2648
-30.4113
-30.5179
-30.6451
-30.7446
-30.872
-30.9424
-31.0692
-31.1324
-31.2753
-31.3408
-31.4719
-31.5024
-31.5833
-31.7079
-31.8146
-31.9507
-32.0457
-32.1353
-32.203
-32.2806
-32.2937
-32.333
-32.3601
-32.4566
-32.5447
-32.6994
-32.82
-32.9874
-33.0964
-33.2354
-33.3942
-33.5462
-33.6873
-33.7935
-33.8693
-33.909
-33.9462
-33.9454
-33.9541
-33.935
-33.9269
-33.9072
-33.9234
-33.9353
-33.9793
-34.0138
-34.0901
-34.1399
-34.2576
-34.4115
-34.564
-34.7457
-34.8758
-35.0811
-35.2135
-35.4309
-35.5535
-35.7804
-35.8907
-36.047
-36.1672
-36.3303
-36.4659
-36.6286
-36.619
-36.7311
-36.9239
-37.079
-37.2469
-37.3817
-37.5938
-37.7734
-38.0292
-38.3177
-38.6737
-39.0873
-39.5704
-40.1343
-40.7992
-41.5877
-42.5192
-43.6127
-44.8942
-46.3582
-48.0235
-49.9131
-52.0491
-54.4593
-57.1557
-60.1266
-63.3106
-66.6159
-69.9493
-73.262
-76.4872
-79.4667
-81.9436
-83.8009
-84.9965
-85.3015
-84.3529
-82.7112
-80.7804
-78.6747
-76.585
-74.5894
-72.7512
-71.0761
-69.4654
-67.898
-66.2803
-64.6106
-62.8292
-60.9031
-58.8085
-56.4939
-53.9425
-51.0927
-47.8634
-44.2264
-40.1527
-35.6374
-30.6594
-25.2275
-19.3229
-12.9524
-6.09676
1.25642
9.2309
17.9808
27.6337
38.2289
49.8058
61.9267
72.3931
-19.6532
-19.5804
-19.702
-19.8484
-19.9824
-20.0892
-20.1988
-20.3772
-20.6061
-20.7822
-21.0116
-21.2935
-21.5902
-21.8963
-22.2828
-22.6603
-22.8803
-23.1287
-23.3695
-23.6354
-23.905
-24.1587
-24.3845
-24.6049
-24.8068
-25.0317
-25.2742
-25.4749
-25.6722
-25.8777
-26.0669
-26.2481
-26.418
-26.6066
-26.7946
-26.9753
-27.1546
-27.325
-27.4904
-27.6375
-27.7827
-27.9228
-28.0644
-28.1964
-28.3191
-28.405
-28.5261
-28.5998
-28.729
-28.8471
-28.9887
-29.1318
-29.2809
-29.432
-29.579
-29.7254
-29.8531
-29.9803
-30.0946
-30.2309
-30.3551
-30.4772
-30.5436
-30.6526
-30.7412
-30.842
-30.9121
-31.0219
-31.0945
-31.2236
-31.3482
-31.4678
-31.5908
-31.6985
-31.8173
-31.9041
-31.9693
-32.0007
-32.0429
-32.0748
-32.1064
-32.1519
-32.2181
-32.2717
-32.3953
-32.5543
-32.7363
-32.9345
-33.1365
-33.3182
-33.4602
-33.5786
-33.6536
-33.6992
-33.7301
-33.7276
-33.7205
-33.6755
-33.6542
-33.5983
-33.556
-33.5209
-33.5049
-33.5178
-33.5429
-33.6299
-33.7116
-33.8096
-33.9441
-34.1021
-34.2669
-34.423
-34.587
-34.7277
-34.9038
-35.0229
-35.1772
-35.2837
-35.4022
-35.4753
-35.5751
-35.6347
-35.7453
-35.8331
-35.9215
-36.0237
-36.1521
-36.3163
-36.5103
-36.7432
-37.0116
-37.3257
-37.6877
-38.1001
-38.5672
-39.0945
-39.701
-40.406
-41.2318
-42.2057
-43.3621
-44.7079
-46.2611
-48.0407
-50.0657
-52.3757
-55.0094
-57.9925
-61.282
-64.7845
-68.4012
-72.0612
-75.6637
-79.0609
-82.112
-84.6113
-86.2149
-86.6064
-86.056
-84.7089
-82.6631
-80.3094
-77.9637
-75.7359
-73.7619
-72.032
-70.5455
-69.1631
-67.7639
-66.2975
-64.7416
-63.0701
-61.2476
-59.2357
-56.9993
-54.52
-51.7117
-48.5437
-44.9911
-41.0336
-36.6725
-31.9094
-26.7356
-21.1216
-15.0612
-8.53463
-1.4337
6.42372
15.1493
24.7097
35.1103
45.9417
55.2375
-19.4017
-19.534
-19.6853
-19.8388
-20.0259
-20.1834
-20.3619
-20.5124
-20.7545
-21.0122
-21.3248
-21.6374
-21.9124
-22.1785
-22.4009
-22.6492
-22.9282
-23.207
-23.4869
-23.7692
-24.1196
-24.4042
-24.6572
-24.8812
-25.0802
-25.2796
-25.4971
-25.6928
-25.8735
-26.0341
-26.2362
-26.3949
-26.5562
-26.7231
-26.9206
-27.1
-27.2867
-27.4924
-27.6848
-27.8598
-28.0141
-28.1721
-28.3064
-28.4468
-28.5492
-28.6974
-28.7629
-28.9104
-28.9477
-29.0527
-29.1463
-29.2801
-29.3984
-29.5341
-29.6918
-29.8538
-30.0016
-30.1358
-30.2726
-30.3954
-30.5354
-30.6539
-30.8026
-30.8693
-31.007
-31.0524
-31.1745
-31.2298
-31.3468
-31.3883
-31.4691
-31.576
-31.711
-31.8552
-31.9697
-32.0616
-32.1522
-32.2269
-32.2402
-32.2546
-32.2423
-32.2898
-32.3743
-32.4976
-32.6022
-32.7364
-32.884
-33.0655
-33.2605
-33.4581
-33.6376
-33.7769
-33.8887
-33.9616
-33.9941
-33.9948
-33.9837
-33.9514
-33.9072
-33.8687
-33.8442
-33.8256
-33.8268
-33.8402
-33.8819
-33.9113
-34.0035
-34.1494
-34.3105
-34.481
-34.6437
-34.8584
-35.0233
-35.2229
-35.3751
-35.5397
-35.6781
-35.8297
-35.957
-36.1003
-36.2114
-36.3352
-36.341
-36.4021
-36.5067
-36.5628
-36.6646
-36.7153
-36.8321
-36.9431
-37.0991
-37.2838
-37.5208
-37.8151
-38.1664
-38.5846
-39.0802
-39.6679
-40.3667
-41.1994
-42.1997
-43.3871
-44.791
-46.4341
-48.337
-50.5395
-53.0842
-56.023
-59.3647
-63.0654
-67.0231
-71.1211
-75.2251
-79.1984
-82.8991
-86.1246
-88.5316
-89.8505
-89.8585
-88.4862
-86.0467
-83.1304
-80.134
-77.3669
-75.0038
-73.0678
-71.5346
-70.2329
-68.9869
-67.7235
-66.4056
-65.0044
-63.4733
-61.7687
-59.8652
-57.7299
-55.3224
-52.6284
-49.5747
-46.1461
-42.3712
-38.2557
-33.767
-28.8857
-23.5898
-17.8484
-11.5845
-4.59719
3.25862
11.9299
21.3462
31.1101
39.4878
-18.876
-19.1577
-19.4097
-19.6406
-19.8533
-20.0328
-20.2074
-20.3738
-20.5389
-20.7134
-20.9132
-21.1837
-21.488
-21.8593
-22.1663
-22.4307
-22.67
-22.8941
-23.1555
-23.3912
-23.6274
-23.8798
-24.1284
-24.373
-24.6039
-24.8277
-25.1131
-25.3592
-25.5477
-25.7436
-25.9221
-26.0968
-26.2587
-26.4345
-26.6324
-26.8023
-26.9634
-27.1379
-27.323
-27.4796
-27.6343
-27.7792
-27.9372
-28.0762
-28.1983
-28.3074
-28.4249
-28.5235
-28.6312
-28.7251
-28.8577
-29.006
-29.148
-29.2935
-29.4526
-29.6092
-29.7488
-29.8777
-29.9838
-30.1093
-30.2258
-30.3499
-30.4598
-30.569
-30.6511
-30.7601
-30.8497
-30.9449
-31.0213
-31.1327
-31.2489
-31.362
-31.4864
-31.6271
-31.7685
-31.9073
-32.0197
-32.0675
-32.0677
-32.0709
-32.0494
-32.0474
-32.0654
-32.0811
-32.1992
-32.3565
-32.5376
-32.7558
-33.0015
-33.2431
-33.4598
-33.6345
-33.7556
-33.8383
-33.8713
-33.8639
-33.8475
-33.7915
-33.7416
-33.6573
-33.5851
-33.5131
-33.4555
-33.4284
-33.4153
-33.4525
-33.5034
-33.5917
-33.7142
-33.8836
-34.0663
-34.2681
-34.4714
-34.6584
-34.8457
-35.0064
-35.1639
-35.296
-35.4245
-35.5177
-35.6235
-35.6969
-35.7955
-35.8674
-35.9238
-35.9844
-36.0624
-36.1585
-36.2753
-36.4329
-36.6179
-36.8141
-37.0347
-37.2943
-37.6048
-37.9703
-38.3983
-38.9011
-39.4934
-40.1971
-41.0497
-42.0771
-43.3132
-44.7901
-46.5339
-48.5823
-50.9713
-53.7631
-57.0252
-60.7853
-64.9725
-69.4504
-74.0614
-78.6414
-83.0102
-86.9823
-90.3247
-92.6549
-93.4125
-92.4291
-89.9647
-86.6896
-82.9432
-79.3679
-76.3951
-74.0764
-72.3719
-71.0357
-69.9258
-68.9007
-67.8446
-66.7113
-65.4488
-64.0591
-62.4734
-60.6729
-58.6735
-56.4315
-53.868
-50.9538
-47.7395
-44.2242
-40.3907
-36.2027
-31.6566
-26.6957
-21.2255
-15.1023
-8.10877
-0.247109
8.31707
17.1908
24.8508
-18.6782
-19.0248
-19.2678
-19.4955
-19.7353
-19.9395
-20.1274
-20.3317
-20.5415
-20.7519
-20.9841
-21.2421
-21.4573
-21.7317
-22.0221
-22.3224
-22.6485
-22.9421
-23.2666
-23.5698
-23.8556
-24.1302
-24.3943
-24.6384
-24.8763
-25.08
-25.2615
-25.4484
-25.6188
-25.8075
-25.9772
-26.1639
-26.353
-26.523
-26.7417
-26.9527
-27.1524
-27.3626
-27.5491
-27.7401
-27.8987
-28.0414
-28.2002
-28.3729
-28.4439
-28.5898
-28.6445
-28.7484
-28.803
-28.8797
-28.9448
-29.069
-29.2103
-29.3527
-29.5079
-29.6891
-29.8687
-30.0163
-30.1569
-30.289
-30.4389
-30.5708
-30.7069
-30.7941
-30.9202
-30.9615
-31.0514
-31.1046
-31.2084
-31.2479
-31.3173
-31.4173
-31.553
-31.7007
-31.8521
-32.0045
-32.1224
-32.212
-32.2574
-32.2267
-32.1859
-32.1675
-32.1828
-32.281
-32.3345
-32.4349
-32.5875
-32.7914
-33.0241
-33.281
-33.5449
-33.775
-33.9371
-34.0268
-34.078
-34.0959
-34.0656
-34.0181
-33.9497
-33.8853
-33.8132
-33.7551
-33.6973
-33.6635
-33.6623
-33.6593
-33.7167
-33.8298
-33.9909
-34.1606
-34.3418
-34.5475
-34.7408
-34.9397
-35.117
-35.3014
-35.4613
-35.6158
-35.7495
-35.8804
-35.9812
-36.0766
-36.1048
-36.1432
-36.1842
-36.2042
-36.2104
-36.2071
-36.2303
-36.2795
-36.354
-36.4721
-36.6276
-36.8178
-37.0519
-37.3349
-37.6747
-38.0812
-38.5656
-39.1433
-39.8399
-40.6849
-41.7185
-42.9874
-44.5322
-46.3869
-48.5892
-51.1929
-54.2895
-57.9823
-62.2888
-67.1239
-72.2961
-77.604
-82.8109
-87.7021
-92.0274
-95.3712
-97.0832
-96.8557
-94.9826
-91.3443
-86.6208
-81.9214
-77.8983
-74.9687
-72.9299
-71.4799
-70.5324
-69.8166
-69.0778
-68.1845
-67.1666
-66.0573
-64.7864
-63.3671
-61.7372
-59.9083
-57.827
-55.4316
-52.7482
-49.7867
-46.5616
-43.0395
-39.2199
-35.0383
-30.3708
-25.09
-18.9897
-11.94
-4.14634
4.03464
11.1546
-18.542
-18.848
-19.106
-19.3322
-19.5675
-19.7686
-19.9562
-20.1582
-20.3524
-20.5461
-20.7593
-21.0091
-21.2501
-21.5366
-21.828
-22.1046
-22.4023
-22.6525
-22.9065
-23.1734
-23.4213
-23.6865
-23.9297
-24.2013
-24.4844
-24.7339
-24.9606
-25.1758
-25.3807
-25.5581
-25.7357
-25.9111
-26.0853
-26.2531
-26.421
-26.5927
-26.7572
-26.9244
-27.1129
-27.288
-27.4626
-27.6261
-27.7822
-27.9499
-28.1093
-28.2616
-28.3615
-28.4638
-28.5626
-28.6588
-28.7554
-28.8795
-29.0064
-29.1534
-29.2983
-29.4531
-29.6007
-29.7376
-29.8479
-29.967
-30.0836
-30.2299
-30.3615
-30.4863
-30.6186
-30.732
-30.8111
-30.8909
-30.9612
-31.0537
-31.1435
-31.2385
-31.3543
-31.5046
-31.68
-31.8702
-32.0328
-32.1367
-32.1902
-32.1669
-32.0758
-32.0005
-31.9459
-31.892
-31.9666
-32.1001
-32.2733
-32.5022
-32.7695
-33.0649
-33.376
-33.6496
-33.8599
-34.0148
-34.068
-34.0488
-34.0368
-33.9706
-33.8924
-33.7801
-33.6754
-33.5633
-33.4686
-33.3724
-33.3109
-33.3116
-33.3146
-33.3601
-33.4506
-33.6212
-33.84
-34.0932
-34.3413
-34.5742
-34.7862
-34.9682
-35.1469
-35.3113
-35.4634
-35.5916
-35.7072
-35.7911
-35.8763
-35.9365
-35.9794
-36.0185
-36.0503
-36.0773
-36.1123
-36.1403
-36.19
-36.2704
-36.3829
-36.5247
-36.7014
-36.9173
-37.1789
-37.4944
-37.8728
-38.33
-38.8946
-39.5861
-40.438
-41.5067
-42.839
-44.4863
-46.4864
-48.8985
-51.8101
-55.3545
-59.6289
-64.6565
-70.2934
-76.313
-82.4082
-88.2712
-93.5783
-98.0268
-101.2
-102.581
-101.175
-97.0888
-91.5021
-85.3551
-79.6951
-75.5881
-73.0673
-71.5818
-70.8682
-70.4451
-69.9781
-69.3332
-68.601
-67.7749
-66.8423
-65.7734
-64.4779
-63.0245
-61.3945
-59.5149
-57.354
-54.9093
-52.2408
-49.3645
-46.2048
-42.7839
-38.9456
-34.5341
-29.3732
-23.2021
-16.1311
-8.54182
-1.87021
-18.4977
-18.7494
-19.0067
-19.2299
-19.4404
-19.6492
-19.84
-20.0426
-20.2461
-20.4481
-20.652
-20.8898
-21.1178
-21.3738
-21.647
-21.9224
-22.2325
-22.5207
-22.8128
-23.1098
-23.3967
-23.6794
-23.9485
-24.2004
-24.4442
-24.6716
-24.8953
-25.1075
-25.3235
-25.519
-25.717
-25.907
-26.1138
-26.3087
-26.5208
-26.7289
-26.9411
-27.1522
-27.3482
-27.5492
-27.7175
-27.8933
-28.0473
-28.209
-28.3272
-28.4191
-28.5017
-28.5771
-28.6462
-28.7109
-28.7843
-28.8839
-29.0119
-29.186
-29.3641
-29.5353
-29.7227
-29.8895
-30.0397
-30.1763
-30.3057
-30.4475
-30.6092
-30.7043
-30.8373
-30.8936
-30.9611
-31.005
-31.0701
-31.1083
-31.1671
-31.2432
-31.3508
-31.4829
-31.6545
-31.8662
-32.0633
-32.2223
-32.3239
-32.3406
-32.302
-32.1855
-32.0803
-32.0058
-31.9732
-32.0653
-32.2151
-32.4145
-32.6815
-32.9963
-33.3502
-33.7071
-34.0083
-34.1903
-34.267
-34.2646
-34.2096
-34.1526
-34.0724
-33.9715
-33.864
-33.7388
-33.6212
-33.5356
-33.4582
-33.4054
-33.4245
-33.5025
-33.6343
-33.7713
-33.9552
-34.1775
-34.4136
-34.6522
-34.875
-35.0842
-35.2634
-35.4272
-35.5768
-35.7161
-35.8276
-35.9136
-35.9643
-36.0013
-36.0159
-36.0095
-35.9892
-35.9818
-35.9758
-35.975
-35.9931
-36.0328
-36.0942
-36.1846
-36.3128
-36.4727
-36.6691
-36.9093
-37.1967
-37.5437
-37.9723
-38.5059
-39.1666
-40.008
-41.089
-42.4599
-44.172
-46.2934
-48.9044
-52.142
-56.1569
-61.0977
-66.9544
-73.5649
-80.6049
-87.6448
-94.2398
-100.068
-104.703
-107.331
-106.824
-104.024
-98.5312
-91.0131
-83.0709
-76.5498
-72.8357
-71.2797
-70.7265
-70.6027
-70.4645
-70.2526
-69.787
-69.2712
-68.6141
-67.8039
-66.8778
-65.7303
-64.5191
-63.134
-61.4936
-59.57
-57.4224
-55.1392
-52.5796
-49.8062
-46.7945
-43.3209
-39.1793
-34.0312
-27.7525
-20.7845
-14.535
-18.4684
-18.731
-18.9603
-19.1585
-19.3297
-19.5303
-19.7134
-19.9062
-20.1123
-20.3113
-20.5076
-20.7407
-20.9702
-21.207
-21.4697
-21.7249
-22.0091
-22.2789
-22.5554
-22.8309
-23.0944
-23.3696
-23.6316
-23.8973
-24.1635
-24.4168
-24.6611
-24.8925
-25.1074
-25.3159
-25.5137
-25.6999
-25.8869
-26.0643
-26.2352
-26.4142
-26.5989
-26.7862
-26.9721
-27.1662
-27.3382
-27.5142
-27.6784
-27.8605
-28.0192
-28.1682
-28.2891
-28.3946
-28.4897
-28.5779
-28.6678
-28.7612
-28.866
-28.9917
-29.1292
-29.2774
-29.4214
-29.5523
-29.6693
-29.7923
-29.9219
-30.0524
-30.2389
-30.4293
-30.5858
-30.691
-30.7811
-30.8456
-30.9072
-30.9782
-31.0475
-31.1166
-31.2127
-31.3378
-31.5096
-31.7275
-31.9557
-32.1647
-32.3069
-32.3335
-32.2064
-32.078
-31.9617
-31.848
-31.7444
-31.7957
-31.9299
-32.1455
-32.4216
-32.7365
-33.1093
-33.4983
-33.8425
-34.1261
-34.3108
-34.3496
-34.2826
-34.1691
-34.0954
-33.9787
-33.847
-33.7178
-33.5681
-33.4144
-33.2886
-33.1953
-33.1407
-33.0945
-33.1631
-33.3167
-33.5376
-33.8214
-34.1229
-34.4263
-34.6808
-34.8914
-35.093
-35.2809
-35.455
-35.6198
-35.7563
-35.8652
-35.9489
-36.0101
-36.0338
-36.0227
-35.9929
-35.9559
-35.9086
-35.8646
-35.8324
-35.8282
-35.8564
-35.9143
-35.9993
-36.1077
-36.2492
-36.4225
-36.6262
-36.8646
-37.1593
-37.5438
-38.0397
-38.6742
-39.5081
-40.602
-42.0193
-43.839
-46.1537
-49.0946
-52.8116
-57.5158
-63.3572
-70.3596
-78.2619
-86.6412
-94.8022
-102.147
-108.163
-112.684
-115.493
-114.528
-108.713
-99.0892
-88.0425
-78.014
-71.5391
-68.8199
-68.4325
-69.4533
-70.6438
-70.9221
-70.7576
-70.5203
-70.1016
-69.5022
-68.8311
-68.044
-67.1564
-66.2245
-65.0964
-63.7107
-62.124
-60.3354
-58.364
-56.0719
-53.7695
-51.259
-48.2648
-44.3735
-39.1678
-32.9945
-27.1254
-18.6021
-18.8148
-18.987
-19.1425
-19.2841
-19.4539
-19.6267
-19.802
-19.9986
-20.2007