/*--------------------------------*- C++ -*----------------------------------*\
| =========                 |                                                 |
| \\      /  F ield         | OpenFOAM: The Open Source CFD Toolbox           |
|  \\    /   O peration     | Version:  4.1                                   |
|   \\  /    A nd           | Web:      www.OpenFOAM.org                      |
|    \\/     M anipulation  |                                                 |
\*---------------------------------------------------------------------------*/
FoamFile
{
    version     2.0;
    format      ascii;
    class       volScalarField;
    location    "10";
    object      p;
}
// * * * * * * * * * * * * * * * * * * * * * * * * * * * * * * * * * * * * * //

dimensions      [0 2 -2 0 0 0 0];

internalField   nonuniform List<scalar> 
6750
(
-560.017
-121.592
-528.717
-602.305
-625.808
-587.5
-419.958
-254.737
-168.078
-126.517
-124.614
-121.284
-121.651
-80.5057
-129.522
-556.684
-118.995
-530.044
-601.32
-626.118
-589.389
-423.619
-258.033
-168.656
-126.654
-124.985
-121.293
-121.895
-79.4887
-128.569
-554.388
-118.164
-530.593
-600.577
-626.67
-590.412
-425.176
-259.914
-169.776
-127.396
-125.547
-121.014
-122.743
-78.7905
-127.962
-551.192
-117.093
-531.591
-599.818
-627.286
-592.153
-428.085
-262.718
-170.965
-127.627
-125.668
-121.096
-122.292
-78.4103
-126.693
-548.428
-116.687
-532.146
-599.096
-627.743
-593.127
-429.837
-264.743
-171.882
-127.954
-125.637
-120.599
-122.04
-78.6596
-125.319
-545.742
-116.387
-532.79
-598.631
-628.087
-593.959
-431.592
-266.761
-172.738
-128.344
-124.42
-119.06
-120.142
-79.3135
-123.743
-543.737
-116.302
-533.063
-598.303
-628.174
-594.088
-432.342
-267.965
-173.34
-128.914
-123.547
-118.132
-117.185
-80.3408
-122.5
-543.07
-116.307
-533.089
-598.24
-628.225
-594.152
-432.616
-268.367
-173.492
-129.091
-122.91
-117.241
-116.638
-80.8858
-122.189
-544.034
-116.18
-532.984
-598.316
-628.151
-594.062
-432.192
-267.788
-173.221
-128.885
-123.234
-117.418
-116.826
-80.2789
-122.492
-546.176
-116.248
-532.677
-598.674
-628.004
-593.843
-431.304
-266.5
-172.6
-128.333
-124.351
-118.067
-118.933
-79.0498
-123.776
-548.974
-116.558
-532.009
-599.172
-627.592
-592.896
-429.401
-264.371
-171.665
-127.726
-125.283
-119.027
-122.115
-78.2636
-125.57
-551.809
-116.996
-531.453
-599.928
-627.057
-591.795
-427.524
-262.248
-170.724
-127.273
-125.254
-119.958
-122.204
-78.027
-127.115
-555.063
-118.12
-530.468
-600.717
-626.369
-589.924
-424.493
-259.374
-169.533
-127.023
-124.964
-120.231
-122.51
-78.465
-128.502
-557.395
-118.993
-529.931
-601.485
-625.764
-588.805
-422.853
-257.428
-168.399
-126.145
-124.306
-120.6
-121.774
-79.1889
-129.213
-560.76
-121.664
-528.632
-602.509
-625.427
-586.819
-419.09
-254.145
-167.908
-126.008
-123.942
-120.775
-121.675
-80.2214
-130.311
-796.501
-149.072
-400.718
-535.375
-521.445
-461.221
-334.779
-211.225
-153.428
-118.388
-121.786
-108.048
-126.353
-65.4838
-174.993
-792.779
-143.811
-403.891
-537.68
-525.058
-466.274
-339.305
-214.03
-153.522
-118.783
-122.072
-108.558
-125.906
-63.054
-174.289
-790.515
-142.243
-406.34
-538.595
-526.879
-468.592
-341.294
-215.76
-154.387
-119.496
-122.245
-108.657
-125.145
-61.8802
-173.539
-787.029
-139.262
-408.865
-540.194
-529.682
-472.476
-344.811
-218.299
-155.318
-119.843
-121.985
-108.353
-124.611
-60.0114
-171.704
-784.003
-138.157
-411.133
-541.275
-531.694
-475.065
-347.095
-220.195
-156.176
-120.525
-122.237
-109.49
-124.747
-58.7943
-169.51
-780.738
-137.374
-412.955
-542.283
-533.592
-477.602
-349.453
-222.172
-157.232
-121.939
-123.282
-110.518
-120.237
-58.0681
-166.722
-777.659
-138.102
-414.181
-542.848
-534.777
-479.126
-350.829
-223.435
-157.987
-123.022
-122.927
-109.293
-118.867
-58.2292
-164.837
-776.369
-138.706
-414.437
-542.977
-535.125
-479.614
-351.313
-223.907
-158.263
-123.504
-122.565
-108.849
-118.405
-58.5987
-164.414
-778.134
-137.952
-414.007
-542.768
-534.607
-478.908
-350.635
-223.354
-158.016
-123.252
-122.773
-109.076
-118.218
-58.1206
-164.931
-781.26
-137.336
-412.678
-542.126
-533.28
-477.218
-349.146
-222.107
-157.374
-122.436
-123.614
-109.803
-118.965
-57.9402
-166.91
-784.602
-138.251
-410.752
-541.036
-531.242
-474.508
-346.667
-220.111
-156.353
-121.039
-122.02
-109.084
-124.164
-58.8407
-169.835
-787.659
-139.451
-408.413
-539.891
-529.119
-471.778
-344.289
-218.182
-155.533
-120.198
-121.734
-108.248
-124.716
-60.0751
-172.497
-791.177
-142.525
-405.842
-538.233
-526.211
-467.743
-340.662
-215.6
-154.622
-119.681
-121.91
-108.588
-124.936
-61.9341
-174.619
-793.459
-144.149
-403.352
-537.274
-524.318
-465.332
-338.599
-213.83
-153.78
-118.827
-121.76
-108.479
-125.929
-63.1465
-175.59
-797.199
-149.48
-400.168
-534.922
-520.611
-460.143
-333.959
-211.049
-153.763
-118.377
-121.506
-108.022
-126.64
-65.6547
-176.578
-877.003
-211.097
-238.445
-392.787
-359.882
-315.1
-252.386
-183.619
-152.583
-120.417
-128.222
-104.987
-142.723
-30.9725
-266.375
-875.519
-207.426
-239.65
-394.524
-361.843
-317.387
-254.304
-184.671
-151.98
-120.989
-128.666
-105.869
-140.274
-28.7137
-263.203
-874.707
-206.198
-241.203
-395.424
-362.853
-318.567
-255.297
-185.534
-152.221
-121.545
-128.605
-106.75
-135.076
-27.7107
-260.941
-873.412
-203.518
-242.311
-396.628
-364.421
-320.493
-256.952
-186.77
-152.551
-122.016
-127.913
-106.272
-134.097
-25.5727
-255.171
-872.432
-202.127
-243.77
-397.746
-365.673
-321.911
-258.121
-187.762
-152.904
-122.747
-128.318
-106.532
-133.972
-23.8621
-248.323
-871.393
-200.601
-244.751
-398.682
-366.839
-323.295
-259.313
-188.787
-153.324
-123.662
-129.534
-107.457
-133.69
-23.2653
-240.338
-870.468
-200.11
-245.704
-399.523
-367.766
-324.276
-260.085
-189.472
-153.594
-124.383
-129.171
-106.983
-133.143
-22.7003
-235.562
-869.943
-200.123
-245.917
-399.689
-368.009
-324.58
-260.366
-189.759
-153.692
-124.715
-128.776
-107.065
-131.979
-22.2576
-235.133
-870.447
-200.327
-245.613
-399.41
-367.66
-324.177
-260.041
-189.53
-153.743
-124.619
-129.158
-107.181
-132.326
-22.872
-235.611
-871.421
-200.856
-244.591
-398.518
-366.676
-323.14
-259.273
-188.951
-153.67
-124.15
-130.095
-107.405
-133.442
-23.6367
-240.729
-872.459
-202.46
-243.574
-397.537
-365.454
-321.699
-258.074
-187.995
-153.404
-123.38
-129.199
-106.95
-133.874
-24.3089
-249.344
-873.451
-203.91
-242.074
-396.382
-364.166
-320.241
-256.903
-187.041
-153.106
-122.552
-128.192
-106.598
-135.04
-26.023
-257.196
-874.752
-206.633
-240.94
-395.144
-362.554
-318.257
-255.215
-185.811
-152.796
-121.956
-128.549
-107.179
-135.561
-28.1966
-263.613
-875.572
-207.887
-239.366
-394.222
-361.522
-317.05
-254.2
-184.945
-152.571
-121.258
-128.727
-106.427
-140.66
-29.2636
-266.315
-877.06
-211.577
-238.151
-392.452
-359.52
-314.699
-252.219
-183.918
-153.19
-120.617
-128.329
-105.499
-143.613
-31.955
-270.034
-935.886
-270.856
-196.007
-352.629
-317.885
-279.483
-240.531
-190.435
-165.616
-130.051
-141.412
-102.531
-176.98
-2.61785
-371.665
-935.137
-268.906
-195.683
-352.789
-318.212
-280.331
-241.428
-190.935
-165.113
-130.752
-142.513
-104.049
-172.527
-5.57591
-365.106
-934.69
-268.14
-196.092
-353.097
-318.548
-280.899
-241.95
-191.433
-165.39
-131.997
-143.751
-105.104
-169.353
-4.85288
-361.578
-933.959
-266.645
-196.003
-353.244
-318.911
-281.678
-242.775
-192.188
-165.685
-133.032
-144.092
-102.882
-168.355
-4.91666
-349.428
-933.393
-265.829
-196.328
-353.598
-319.352
-282.328
-243.382
-192.77
-165.886
-133.888
-145.032
-102.666
-170.189
-5.8148
-334.754
-932.787
-264.941
-196.353
-353.748
-319.671
-282.882
-243.974
-193.367
-166.068
-134.539
-145.541
-102.716
-170.418
-7.19531
-320.441
-932.327
-264.554
-196.545
-354.013
-320.016
-283.295
-244.361
-193.743
-166.118
-134.963
-145.362
-102.39
-169.021
-7.44116
-310.72
-931.983
-264.492
-196.558
-354.02
-320.096
-283.411
-244.508
-193.925
-166.146
-135.105
-145.098
-102.571
-167.765
-6.87555
-309.06
-932.182
-264.758
-196.564
-353.977
-320.014
-283.278
-244.388
-193.855
-166.319
-135.192
-145.411
-102.881
-169.148
-7.50309
-312.457
-932.728
-265.132
-196.334
-353.683
-319.662
-282.861
-244.054
-193.61
-166.467
-134.988
-145.786
-103.423
-171.13
-7.26515
-323.297
-933.317
-266.05
-196.303
-353.517
-319.334
-282.3
-243.5
-193.116
-166.441
-134.493
-145.415
-104.034
-171.709
-5.96694
-338.418
-933.873
-266.91
-195.966
-353.146
-318.886
-281.652
-242.933
-192.612
-166.328
-133.627
-144.257
-103.631
-169.684
-5.15673
-353.913
-934.597
-268.423
-196.043
-352.976
-318.497
-280.85
-242.115
-191.9
-166.087
-132.543
-143.745
-105.833
-170.194
-5.08656
-367.035
-935.044
-269.2
-195.63
-352.657
-318.154
-280.282
-241.608
-191.435
-165.845
-131.208
-142.616
-105.223
-173.303
-5.62251
-371.42
-935.791
-271.148
-195.943
-352.469
-317.791
-279.385
-240.69
-190.971
-166.389
-130.363
-141.684
-103.647
-178.005
-2.54825
-379.819
-994.844
-303.707
-183.797
-336.013
-298.89
-264.447
-241.903
-205.759
-188.181
-150.855
-170.946
-106.016
-232.771
-4.37532
-526.636
-994.419
-302.711
-183.551
-336.163
-299.184
-265.001
-242.47
-206.199
-187.982
-151.974
-171.104
-106.203
-221.63
-5.40055
-526.947
-994.163
-302.302
-183.768
-336.429
-299.428
-265.31
-242.75
-206.534
-188.332
-153.337
-172.333
-105.388
-219.749
-2.00347
-523.335
-993.732
-301.536
-183.68
-336.569
-299.694
-265.784
-243.268
-207.096
-188.652
-154.417
-172.807
-103.56
-219.934
-0.0307918
-509.994
-993.397
-301.131
-183.836
-336.832
-299.988
-266.145
-243.601
-207.45
-188.838
-155.182
-173.813
-103.519
-222.171
0.804972
-495.651
-993.028
-300.706
-183.806
-336.927
-300.182
-266.454
-243.959
-207.842
-189.024
-155.662
-174.462
-103.823
-220.46
5.32776
-481.598
-992.757
-300.557
-183.866
-337.065
-300.379
-266.673
-244.181
-208.052
-189.065
-155.95
-174.716
-104.605
-216.631
5.65197
-470.098
-992.513
-300.557
-183.845
-337.047
-300.41
-266.73
-244.295
-208.196
-189.123
-156.027
-174.644
-104.963
-214.552
5.64739
-467.996
-992.543
-300.712
-183.891
-337.04
-300.382
-266.677
-244.255
-208.198
-189.268
-156.214
-174.837
-105.145
-217.001
5.40696
-473.903
-992.838
-300.857
-183.819
-336.875
-300.184
-266.478
-244.116
-208.128
-189.405
-156.143
-174.745
-104.664
-221.322
4.82642
-486.986
-993.199
-301.266
-183.835
-336.755
-299.984
-266.177
-243.817
-207.848
-189.368
-155.818
-174.195
-104.541
-223.824
0.29556
-501.757
-993.506
-301.682
-183.672
-336.478
-299.692
-265.836
-243.544
-207.585
-189.281
-155.087
-173.163
-104.679
-221.79
-0.686285
-516.896
-993.909
-302.445
-183.747
-336.311
-299.406
-265.353
-243.047
-207.067
-189.025
-153.986
-172.675
-106.847
-221.505
-2.43278
-531.16
-994.149
-302.854
-183.529
-336.036
-299.163
-265.056
-242.797
-206.766
-188.705
-152.547
-171.562
-107.951
-223.242
-5.33544
-535.504
-994.557
-303.828
-183.757
-335.852
-298.826
-264.462
-242.216
-206.344
-188.957
-151.268
-171.555
-107.477
-234.312
-4.24155
-536.744
-1054.89
-328.582
-184.379
-338.242
-303.856
-274.749
-262.333
-234.115
-222.542
-186.017
-209.385
-123.109
-281.628
6.36984
-818.843
-1054.72
-328.142
-184.287
-338.408
-304.181
-275.331
-262.979
-235.015
-222.7
-187.648
-208.95
-123.85
-265.13
26.2782
-828.967
-1054.62
-327.933
-184.396
-338.588
-304.351
-275.572
-263.199
-235.421
-223.196
-188.878
-209.897
-122.037
-264.945
26.191
-819.896
-1054.45
-327.567
-184.372
-338.738
-304.607
-276.024
-263.719
-236.11
-223.637
-189.849
-210.828
-119.948
-272.134
15.0326
-796.494
-1054.31
-327.35
-184.454
-338.922
-304.813
-276.301
-263.977
-236.467
-223.977
-190.667
-212.883
-121.43
-280.321
5.90269
-774.978
-1054.16
-327.122
-184.448
-339.021
-304.98
-276.587
-264.315
-236.889
-224.346
-191.274
-214.582
-124.491
-285.254
6.56248
-745.847
-1054.05
-327.019
-184.481
-339.115
-305.108
-276.758
-264.477
-237.088
-224.525
-191.845
-215.622
-128.772
-280.197
6.04924
-732.686
-1053.96
-326.979
-184.462
-339.106
-305.136
-276.833
-264.599
-237.246
-224.672
-192.058
-215.794
-129.724
-276.498
5.18922
-733.467
-1053.91
-327.06
-184.475
-339.074
-305.102
-276.777
-264.556
-237.223
-224.724
-192.143
-215.714
-129.353
-279.135
6.56126
-741.293
-1053.93
-327.18
-184.438
-338.95
-304.978
-276.641
-264.475
-237.159
-224.731
-191.852
-214.812
-125.631
-284.171
6.72731
-757.59
-1054.03
-327.392
-184.434
-338.821
-304.8
-276.37
-264.194
-236.844
-224.526
-191.469
-213.198
-122.797
-280.336
7.05718
-786.296
-1054.13
-327.593
-184.348
-338.622
-304.594
-276.119
-263.999
-236.576
-224.323
-190.792
-211.23
-121.73
-271.943
16.9264
-808.696
-1054.26
-327.932
-184.353
-338.44
-304.307
-275.652
-263.49
-235.926
-223.989
-189.903
-210.529
-124.425
-264.444
29.9211
-833.482
-1054.33
-328.135
-184.247
-338.253
-304.132
-275.421
-263.299
-235.534
-223.542
-188.667
-209.734
-126.638
-264.457
30.5696
-842.179
-1054.46
-328.534
-184.314
-338.044
-303.744
-274.78
-262.609
-234.602
-223.49
-186.933
-210.29
-125.999
-280.225
10.8507
-832.316
-1114.2
-348.506
-190.362
-347.029
-312.243
-287.692
-283.373
-264.791
-262.183
-231.951
-250.374
-172.418
-291.676
134.721
-1278.52
-1114.2
-348.395
-190.388
-347.318
-312.799
-288.477
-284.31
-265.846
-262.07
-233.354
-249.025
-171.092
-284.164
156.872
-1278.81
-1114.19
-348.316
-190.451
-347.496
-312.996
-288.676
-284.49
-266.113
-262.105
-234.272
-250.497
-168.938
-286.143
153.499
-1273.04
-1114.17
-348.214
-190.502
-347.737
-313.39
-289.211
-285.11
-266.733
-262.277
-234.801
-251.538
-165.273
-295.208
133.085
-1252.55
-1114.15
-348.136
-190.561
-347.922
-313.62
-289.443
-285.327
-266.933
-262.355
-235.341
-253.67
-163.334
-307.546
100.884
-1232.12
-1114.13
-348.048
-190.588
-348.076
-313.859
-289.752
-285.698
-267.29
-262.599
-235.543
-255.33
-160.257
-325.853
63.9288
-1182.25
-1114.1
-347.984
-190.611
-348.174
-313.985
-289.892
-285.838
-267.428
-262.713
-235.976
-256.792
-163.831
-324.739
59.4397
-1172.02
-1114.08
-347.929
-190.601
-348.199
-314.026
-289.989
-285.986
-267.604
-262.915
-236.146
-257.317
-165.162
-321.253
61.822
-1175.14
-1114.06
-347.905
-190.579
-348.152
-313.943
-289.92
-285.931
-267.598
-262.998
-236.344
-257.01
-164.579
-322.229
64.3691
-1182.73
-1114.04
-347.901
-190.531
-348.037
-313.799
-289.821
-285.887
-267.637
-263.155
-236.324
-255.878
-162.733
-321.675
71.1381
-1199.55
-1114
-347.927
-190.477
-347.852
-313.531
-289.528
-285.585
-267.435
-263.164
-236.482
-254.468
-166.544
-305.447
108.532
-1248.39
-1113.97
-347.96
-190.407
-347.648
-313.293
-289.326
-285.441
-267.372
-263.306
-236.178
-252.338
-169.334
-294.083
139.135
-1269.55
-1113.93
-348.01
-190.334
-347.359
-312.854
-288.771
-284.833
-266.835
-263.348
-235.884
-251.315
-173.805
-286.378
157.784
-1289.01
-1113.87
-348.077
-190.285
-347.163
-312.648
-288.585
-284.684
-266.615
-263.482
-234.982
-249.708
-176.394
-286.029
160.241
-1294.61
-1113.8
-348.131
-190.233
-346.816
-311.997
-287.717
-283.663
-265.518
-263.78
-233.682
-251.503
-177.829
-295.072
139.795
-1294.45
-1178.63
-367.16
-200.703
-363.453
-328.477
-309.38
-312.396
-303.834
-314.582
-296.008
-310.423
-245.189
-366.08
243.217
-1832.78
-1178.75
-367.277
-200.843
-363.887
-329.388
-310.464
-313.931
-305.054
-312.365
-293.659
-307.474
-244.499
-361.233
250.764
-1828.28
-1178.8
-367.3
-200.89
-364.093
-329.662
-310.685
-314.153
-305.078
-311.238
-294.086
-307.998
-243.886
-359.224
252.962
-1828.64
-1178.87
-367.397
-201.015
-364.445
-330.262
-311.374
-314.916
-305.529
-309.857
-292.639
-307.913
-241.686
-358.086
254.159
-1818.11
-1178.88
-367.449
-201.085
-364.653
-330.564
-311.618
-315.102
-305.519
-309.135
-292.694
-310.203
-239.64
-355.676
244.025
-1814.77
-1178.91
-367.489
-201.159
-364.864
-330.911
-311.997
-315.503
-305.75
-308.904
-292.597
-313.903
-237.137
-361.888
215.451
-1787.84
-1178.9
-367.477
-201.197
-364.965
-331.067
-312.136
-315.625
-305.805
-308.814
-292.972
-316.92
-237.418
-361.518
209.124
-1781.32
-1178.9
-367.425
-201.21
-365.01
-331.132
-312.26
-315.799
-305.987
-309.018
-293.313
-318.228
-237.575
-362.457
212.405
-1782.46
-1178.85
-367.328
-201.178
-364.941
-330.997
-312.167
-315.738
-306.011
-309.317
-293.535
-317.848
-238.294
-362.63
215.905
-1792.5
-1178.8
-367.215
-201.126
-364.815
-330.803
-312.071
-315.729
-306.182
-309.828
-293.598
-314.819
-238.965
-363.366
224.221
-1808.02
-1178.7
-367.073
-201.029
-364.56
-330.408
-311.707
-315.414
-306.173
-310.524
-294.262
-311.73
-242.864
-360.229
249.143
-1831.5
-1178.59
-366.953
-200.949
-364.322
-330.079
-311.496
-315.303
-306.395
-311.713
-294.648
-309.864
-245.449
-363.658
255.039
-1838.56
-1178.43
-366.794
-200.791
-363.906
-329.407
-310.78
-314.538
-306.144
-313.633
-296.683
-310.426
-248.422
-366.321
251.8
-1846.92
-1178.26
-366.765
-200.751
-363.674
-329.104
-310.574
-314.308
-306.264
-315.124
-296.588
-310.221
-249.272
-369.204
247.335
-1847.76
-1178.04
-366.584
-200.569
-363.163
-328.054
-309.386
-312.585
-305.148
-318.008
-299.758
-313.673
-251.253
-374.952
240.172
-1851.32
-1248.08
-385.583
-213.32
-383.422
-346.784
-332.309
-339.695
-348.196
-377.537
-371.699
-385.045
-348.56
-521.02
248.392
-2514.37
-1248.31
-385.882
-213.574
-384.13
-348.222
-334.023
-342.514
-346.955
-369.67
-364.997
-382.579
-344.034
-519.489
250.645
-2510.63
-1248.45
-385.983
-213.631
-384.43
-348.702
-334.266
-343.289
-345.23
-366.696
-362.756
-381.255
-341.359
-514.794
255.112
-2516.52
-1248.59
-386.236
-213.836
-384.976
-349.657
-335.234
-344.667
-344.42
-363.379
-358.948
-380.542
-336.482
-508.824
264.029
-2512.58
-1248.65
-386.397
-213.929
-385.276
-350.157
-335.535
-345.202
-343.648
-361.214
-357.376
-381.28
-333.317
-498.576
270.042
-2517.87
-1248.71
-386.543
-214.044
-385.595
-350.711
-336.067
-345.895
-343.593
-359.969
-357.064
-384.012
-331.882
-497.714
268.365
-2502.83
-1248.72
-386.581
-214.092
-385.734
-350.966
-336.256
-346.174
-343.462
-358.971
-356.784
-385.875
-331.252
-496.207
263.201
-2504.03
-1248.72
-386.532
-214.114
-385.799
-351.072
-336.424
-346.413
-343.627
-358.919
-356.444
-386.433
-332.143
-500.453
263.135
-2507.87
-1248.66
-386.371
-214.064
-385.689
-350.859
-336.279
-346.288
-343.727
-359.745
-357.169
-386.92
-332.918
-501.92
267.371
-2519.42
-1248.57
-386.161
-213.993
-385.501
-350.54
-336.13
-346.131
-344.193
-361.431
-358.049
-385.9
-333.348
-504.169
272.611
-2532.9
-1248.39
-385.875
-213.842
-385.115
-349.912
-335.614
-345.53
-344.638
-363.415
-358.938
-384.143
-336.937
-510.913
269.242
-2545.37
-1248.21
-385.617
-213.728
-384.763
-349.363
-335.35
-345.054
-345.909
-366.299
-361.322
-384.155
-341.333
-521.958
259.633
-2545.69
-1247.93
-385.277
-213.475
-384.125
-348.306
-334.346
-343.662
-347.342
-370.433
-366.162
-386.021
-348.553
-530.194
247.821
-2546.09
-1247.66
-385.162
-213.419
-383.78
-347.781
-334.114
-342.841
-349.762
-374.266
-369.168
-387.809
-352.388
-534.729
241.542
-2543.38
-1247.29
-384.775
-213.107
-382.956
-346.156
-332.206
-339.775
-351.679
-383.281
-376.615
-391.196
-359.49
-537.068
238.42
-2546.92
-1324.29
-405.848
-227.746
-406.206
-367.636
-354.038
-368.29
-396.76
-432.526
-436.906
-478.36
-468.517
-732.768
208.074
-3424.32
-1324.63
-406.323
-228.153
-407.358
-369.882
-357.518
-372.336
-394.025
-422.007
-430.338
-473.318
-465.445
-738.655
216.859
-3411.66
-1324.85
-406.505
-228.246
-407.869
-370.604
-358.329
-373.197
-388.711
-414.408
-426.795
-467.705
-457.968
-729.096
218.261
-3422.78
-1325.07
-406.913
-228.554
-408.733
-372.024
-360.113
-374.941
-386.399
-408.608
-423.083
-465.109
-454.537
-732.486
220.454
-3393.16
-1325.18
-407.189
-228.692
-409.223
-372.774
-360.789
-375.653
-383.524
-405.465
-420.265
-461.724
-448.409
-714.928
219.507
-3409.32
-1325.28
-407.441
-228.86
-409.719
-373.578
-361.678
-376.552
-382.293
-404.388
-418.488
-462.985
-450.082
-717.583
227.517
-3394.67
-1325.3
-407.529
-228.927
-409.94
-373.961
-362.033
-376.978
-381.403
-403.141
-416.105
-461.539
-444.704
-708.951
226.914
-3414.73
-1325.3
-407.475
-228.957
-410.032
-374.114
-362.258
-377.294
-381.381
-402.884
-415.251
-462.395
-445.332
-724.412
229.198
-3412.36
-1325.22
-407.246
-228.883
-409.86
-373.811
-362.01
-377.117
-381.835
-404.291
-416.676
-464.131
-445.829
-724.04
236.887
-3440.76
-1325.09
-406.931
-228.778
-409.551
-373.327
-361.649
-376.816
-383.132
-406.286
-419.532
-466.058
-449.454
-720.502
239.937
-3450.63
-1324.85
-406.497
-228.555
-408.949
-372.412
-360.731
-376.028
-384.986
-408.271
-422.341
-467.403
-454.117
-740.827
224.457
-3439.06
-1324.59
-406.093
-228.38
-408.366
-371.574
-360.014
-375.398
-388.547
-412.482
-425.986
-471.408
-458.937
-748.978
216.992
-3451.47
-1324.18
-405.574
-228.003
-407.366
-370.008
-358.088
-373.692
-391.495
-419.614
-430.882
-476.731
-470.032
-753.699
214.408
-3459.66
-1323.78
-405.371
-227.899
-406.774
-369.201
-357.15
-372.874
-397.48
-428.128
-435.093
-482.713
-477.934
-759.816
205.829
-3455.56
-1323.25
-404.787
-227.41
-405.454
-366.67
-353.267
-368.43
-399.989
-438.964
-442.565
-490.046
-486.008
-757.331
199.09
-3459.81
-1407.28
-430.103
-244.022
-432.48
-390.947
-372.97
-392.609
-412.427
-475.99
-482.528
-606.937
-575.254
-1018.59
201.648
-4479.29
-1407.73
-430.735
-244.641
-434.192
-394.646
-378.846
-401.791
-414.779
-468.49
-474.407
-595.031
-564.944
-1013.66
216.584
-4467.61
-1408.02
-431.006
-244.831
-435.026
-396.015
-380.918
-403.697
-410.656
-460.036
-468.777
-585.23
-559.721
-981.742
221.168
-4514.37
-1408.33
-431.554
-245.292
-436.322
-398.303
-384.229
-407.092
-413.084
-452.069
-464.726
-576.108
-560.327
-978.476
231.113
-4483.43
-1408.49
-431.943
-245.524
-437.115
-399.621
-385.924
-408.693
-411.851
-444.659
-462.737
-568.167
-551.874
-953.846
233.917
-4557.58
-1408.62
-432.291
-245.777
-437.87
-400.905
-387.663
-410.153
-411.32
-439.245
-462.279
-566.935
-551.575
-991.148
225.998
-4505.95
-1408.65
-432.422
-245.883
-438.231
-401.548
-388.484
-410.853
-409.697
-433.927
-460.19
-561.216
-541.944
-963.746
224.894
-4557.05
-1408.65
-432.355
-245.922
-438.362
-401.79
-388.848
-411.299
-409.125
-432.413
-459.767
-564.58
-538.366
-1002.78
214.843
-4523.64
-1408.55
-432.049
-245.81
-438.099
-401.351
-388.386
-411.053
-410.262
-435.967
-461
-567.19
-531.66
-1019.95
221.124
-4556.61
-1408.37
-431.618
-245.637
-437.596
-400.56
-387.479
-410.47
-412.211
-442.049
-462.615
-573.152
-542.551
-981.81
252.776
-4645.7
-1408.05
-431.031
-245.3
-436.68
-399.12
-385.636
-409.132
-413.573
-449.201
-464.752
-579.34
-550.016
-993.864
239.512
-4615.08
-1407.69
-430.474
-245.002
-435.74
-397.653
-383.767
-407.493
-414.612
-457.553
-467.271
-589.545
-561.079
-1009.73
229.234
-4595.88
-1407.15
-429.784
-244.444
-434.256
-395.163
-380.213
-404.035
-412.502
-466.683
-473.319
-603.611
-571.516
-1023.61
219.085
-4608.01
-1406.61
-429.483
-244.224
-433.299
-393.638
-377.919
-401.909
-416.992
-475.371
-479.383
-613.697
-580.401
-1046.5
209.847
-4575.81
-1405.94
-428.718
-243.497
-431.373
-389.588
-371.56
-391.764
-414.209
-482.336
-488.967
-629.227
-599.415
-1058.54
194.517
-4578.05
-1496.6
-461.235
-261.828
-462.76
-418.255
-392.912
-412.335
-415.772
-504.875
-514.84
-760.335
-602.897
-1343.37
178.038
-5978.59
-1497.09
-461.977
-262.626
-464.908
-423.094
-400.617
-427.903
-425.218
-507.065
-507.024
-751.332
-621.065
-1316.6
226.03
-6040.88
-1497.45
-462.331
-262.938
-466.048
-425.232
-403.89
-433.264
-421.994
-504.77
-500.159
-736.839
-620.693
-1227.05
269.671
-6182.81
-1497.8
-462.986
-263.553
-467.739
-428.457
-408.628
-440.144
-426.183
-503.197
-495.487
-736.272
-633.508
-1251.87
276.823
-6161.34
-1498
-463.463
-263.9
-468.829
-430.458
-411.34
-443.954
-426.961
-497.992
-488.501
-729.956
-619.286
-1240.78
254.101
-6190.11
-1498.16
-463.881
-264.25
-469.84
-432.339
-414.018
-447.409
-430.098
-494.929
-485.48
-737.322
-623.144
-1324.19
200.962
-5982.41
-1498.2
-464.038
-264.408
-470.345
-433.329
-415.429
-449.255
-430.23
-488.404
-480.278
-727.76
-614.338
-1249.78
201.284
-6097.23
-1498.2
-463.949
-264.458
-470.515
-433.705
-415.998
-450.239
-430.132
-487.23
-478.237
-742.833
-610.644
-1305.4
196.917
-6063.79
-1498.07
-463.575
-264.304
-470.158
-433.11
-415.253
-449.6
-430.757
-491.201
-479.949
-742.26
-606.505
-1323.23
206.15
-6068.63
-1497.85
-463.042
-264.048
-469.452
-431.943
-413.67
-447.926
-430.889
-498.763
-484.655
-748.412
-610.366
-1284.15
253.265
-6268.15
-1497.45
-462.327
-263.582
-468.228
-429.886
-410.807
-444.672
-428.598
-504.309
-490.158
-754.202
-623.011
-1372.85
277.21
-6286.34
-1497
-461.642
-263.142
-466.939
-427.704
-407.799
-440.69
-426.934
-509.641
-496.767
-756.463
-623.323
-1263.58
299.127
-6409.22
-1496.34
-460.821
-262.405
-465.022
-424.28
-402.772
-433.743
-422.828
-512.323
-505.759
-767.539
-646.941
-1307.2
287.954
-6318.23
-1495.7
-460.432
-262.048
-463.734
-421.989
-399.259
-428.077
-425.669
-514.419
-513.31
-778.717
-646.67
-1349.64
232.16
-6214.23
-1494.93
-459.543
-261.127
-461.361
-416.888
-391.179
-412.276
-415.365
-512.425
-523.864
-792.729
-646.873
-1376.71
207.213
-6145.06
-1588.87
-505.439
-286.782
-505.297
-467.017
-434.996
-473.553
-444.306
-597.249
-593.443
-1010.37
-712.75
-1726.05
257.022
-7693.34
-1589.32
-506.169
-287.592
-507.467
-471.698
-442.643
-487.406
-458.302
-600.121
-582.03
-976.758
-736.894
-1685.87
392.402
-7777.7
-1589.64
-506.544
-287.941
-508.672
-473.976
-446.135
-493.787
-457.766
-598.251
-569.433
-951.239
-685.897
-1560.85
371.457
-8119.48
-1589.98
-507.192
-288.586
-510.46
-477.453
-451.334
-502.419
-463.232
-598.757
-557.437
-968.506
-635.145
-2005.13
150.779
-7626.48
-1590.17
-507.659
-288.959
-511.637
-479.68
-454.417
-507.31
-465.231
-596.041
-543.575
-976.216
-634.792
-1663.78
272.732
-8029.96
-1590.3
-508.046
-289.328
-512.72
-481.822
-457.542
-512.308
-470.291
-599.579
-536.053
-990.092
-659.764
-1740.69
306.243
-7846.67
-1590.34
-508.148
-289.485
-513.26
-482.955
-459.238
-515.112
-471.404
-594.834
-528.001
-965.296
-633.262
-1526.02
367.846
-8260.39
-1590.31
-507.988
-289.516
-513.413
-483.413
-459.901
-516.89
-471.898
-596.998
-522.382
-1013.8
-582.63
-1870.72
134.802
-7903.23
-1590.15
-507.545
-289.317
-512.983
-482.731
-458.981
-515.808
-471.733
-599.419
-524.235
-1001.58
-604.76
-1625.26
358.402
-8147.72
-1589.88
-506.94
-289.001
-512.152
-481.397
-456.992
-513.369
-470.481
-605.378
-532.462
-997.748
-614.665
-1670.01
249.2
-8343.98
-1589.43
-506.158
-288.46
-510.767
-479.079
-453.595
-508.914
-466.047
-605.969
-540.877
-1019.43
-535.53
-2158.36
54.6664
-7769.18
-1588.9
-505.412
-287.944
-509.316
-476.664
-450.116
-504.002
-462.861
-609.111
-555.081
-1008.1
-604.681
-2040.9
208.514
-8191.21
-1588.19
-504.55
-287.134
-507.242
-473.029
-444.625
-495.773
-457.517
-610.952
-572.552
-1000.75
-689.797
-1721.68
349.109
-8415.74
-1587.48
-504.126
-286.718
-505.854
-470.643
-440.912
-489.517
-457.452
-612.98
-585.914
-1021.77
-758.556
-1761.54
357.039
-8104.02
-1586.7
-503.221
-285.756
-503.433
-465.81
-433.048
-476.381
-443.504
-612.372
-602.173
-1062.6
-771.257
-1809.66
232.68
-8063.51
-1681.91
-564.134
-315.797
-555.613
-527.077
-485.429
-557.399
-489.441
-716.668
-645.979
-1196.17
-695.033
-1896.55
193.24
-10580.3
-1682.28
-564.792
-316.502
-557.522
-530.8
-491.834
-566.593
-501.554
-720.13
-635.452
-1169.85
-680.101
-1988.58
277.183
-10696.8
-1682.54
-565.157
-316.82
-558.634
-532.723
-494.89
-571.587
-502.741
-720.246
-623.311
-1158.37
-637.568
-1972.98
32.5443
-11145.8
-1682.82
-565.744
-317.399
-560.294
-535.822
-499.75
-579.558
-508.763
-725.956
-612.26
-1200.64
-538.929
-2726.49
-470.008
-9874.69
-1682.97
-566.153
-317.735
-561.409
-537.843
-502.727
-584.182
-511.509
-727.646
-601.587
-1223.36
-635.089
-2114.29
10.7367
-10941
-1683.08
-566.458
-318.067
-562.431
-539.915
-505.869
-589.99
-517.137
-737.501
-590.666
-1252.02
-614.752
-2211.81
109.417
-10433.9
-1683.09
-566.472
-318.187
-562.922
-540.967
-507.545
-593.117
-519.376
-733.24
-581.744
-1204.59
-571.383
-1949.63
24.6334
-11345.3
-1683.03
-566.23
-318.18
-563.014
-541.444
-508.153
-595.801
-520.505
-741.896
-564.585
-1325.44
-504.81
-2683.85
-499.665
-10269.5
-1682.83
-565.726
-317.932
-562.513
-540.682
-507.053
-594.092
-518.913
-740.757
-566.901
-1293.35
-567.646
-2397.18
40.3841
-10647.6
-1682.51
-565.066
-317.57
-561.605
-539.349
-504.825
-591.301
-515.408
-743.639
-576.833
-1245
-434.316
-2361.07
-466.394
-11419.6
-1682.02
-564.246
-316.991
-560.162
-537.069
-501.245
-586.478
-509.601
-741.881
-579.281
-1314.14
-432.294
-2812
-294.674
-10107.7
-1681.43
-563.471
-316.446
-558.672
-534.817
-497.73
-581.954
-505.735
-740.868
-601.388
-1257.89
-437.446
-2964.3
-506.409
-10524.5
-1680.69
-562.605
-315.64
-556.64
-531.569
-492.558
-574.921
-500.409
-739.726
-621.521
-1233.12
-603.611
-2349.45
-285.674
-11599.5
-1679.96
-562.166
-315.217
-555.291
-529.534
-489.242
-570.257
-498.872
-739.812
-636.167
-1239.58
-718.274
-2168.08
271.317
-11014.6
-1679.18
-561.288
-314.313
-553.076
-525.68
-482.666
-562.122
-487.896
-739.907
-655.334
-1277.87
-789.856
-2189.19
57.3822
-11010.1
-1746.85
-662.068
-369.451
-621.662
-643.68
-591.893
-742.734
-622.406
-1010.28
-797.543
-1751.24
-872.252
-3217.32
728.782
-13931.4
-1747.06
-662.475
-369.811
-622.974
-645.516
-595.86
-745.063
-626.411
-1002.26
-777.673
-1689.48
-839.38
-3451.66
848.92
-14152.7
-1747.2
-662.682
-369.917
-623.72
-646.324
-597.646
-745.728
-625.391
-990.603
-754.065
-1597.62
-790.592
-3152.91
903.699
-14358.4
-1747.34
-663.004
-370.172
-624.843
-647.937
-600.734
-748.987
-627.131
-991.017
-730.377
-1649
-715.88
-3434.99
-133.269
-13324.8
-1747.4
-663.163
-370.24
-625.553
-648.804
-602.526
-749.93
-627.298
-983.044
-720.027
-1583.74
-715.49
-2473.98
481.85
-15295.9
-1747.43
-663.183
-370.312
-626.157
-649.933
-604.411
-753.851
-630.123
-995.028
-708.669
-1654.4
-717.693
-2935.5
1059.84
-13805.7
-1747.37
-662.962
-370.205
-626.358
-650.234
-605.312
-754.703
-632.246
-983.965
-698.987
-1559.97
-692.233
-2604.37
87.2775
-15306.1
-1747.22
-662.558
-370.038
-626.192
-650.434
-605.286
-757.616
-632.923
-1001.66
-683.176
-1748.1
-558.04
-3444.01
-240.729
-12906.2
-1746.94
-661.965
-369.683
-625.569
-649.599
-604.186
-755.668
-631.532
-995.361
-692.114
-1707.31
-657.059
-3560.2
-98.7963
-12964.8
-1746.54
-661.263
-369.287
-624.597
-648.625
-602.041
-754.709
-626.202
-1002.38
-688.936