/*--------------------------------*- C++ -*----------------------------------*\
| =========                 |                                                 |
| \\      /  F ield         | OpenFOAM: The Open Source CFD Toolbox           |
|  \\    /   O peration     | Version:  4.1                                   |
|   \\  /    A nd           | Web:      www.OpenFOAM.org                      |
|    \\/     M anipulation  |                                                 |
\*---------------------------------------------------------------------------*/
FoamFile
{
    version     2.0;
    format      ascii;
    class       surfaceScalarField;
    location    "10";
    object      phi;
}
// * * * * * * * * * * * * * * * * * * * * * * * * * * * * * * * * * * * * * //

dimensions      [0 3 -1 0 0 0 0];

internalField   nonuniform List<scalar> 
19125
(
610.545
-38.595
720.755
696.022
-23.679
1404.13
744.671
17.4517
1001.9
759.101
6.47735
544.907
851.142
11.2059
-58.9989
821.66
79.3983
-816.801
651.857
125.433
-1303.89
406.222
118.72
-1317.45
170.298
89.5019
-987.41
-5.53163
137.629
-608.441
-67.8299
47.9811
-116.328
-26.1694
-34.529
448.911
-38.8457
-2.63403
1273.07
-56.3192
-16.2765
1070.1
-5.93243
2124.51
592.638
-43.6844
736.772
674.539
-21.0252
1447.29
722.803
18.5541
1035.22
726.559
5.75346
566.551
811.582
11.5474
-40.3802
790.869
86.2714
-796.751
643.433
135.735
-1290.54
418.661
132.411
-1319.43
182.737
111.01
-994.153
-4.0758
172.382
-602.517
-74.4221
53.0753
-136.604
-28.2798
-63.7475
337.188
-38.9278
-1.49079
1310.32
-57.9165
-17.3452
1147.66
-7.31575
2098.61
585.517
-46.7309
745.806
666.73
-16.6582
1463.34
713.185
18.9778
1049.67
713.371
4.53613
576.863
794.763
11.0578
-32.0856
779.431
84.7629
-788.631
645.107
133.366
-1284.67
436.699
131.272
-1320.86
220.114
111.557
-1001.83
63.0758
164.615
-623.652
-45.4272
50.4013
-221.37
-40.7167
-56.9861
165.034
-40.8635
-8.63943
1258.88
-59.6006
-13.1771
1202.21
-9.56929
2059.33
575.196
-45.4833
758.142
657.948
-12.8188
1484.02
703.299
17.1999
1064.92
698.457
3.56609
587.86
778.381
7.51162
-20.414
771.407
74.131
-776.817
649.177
120.815
-1278.46
450.987
121.975
-1324.3
242.915
103.067
-1010.91
86.5604
150.091
-637.121
-43.9033
68.921
-236.725
-53.7553
-60.6612
243.199
-44.0163
-26.1886
1206.22
-59.1765
-6.39699
1198.86
-11.6733
2081.4
567.502
-40.8237
767.371
650.902
-9.28089
1499.53
694.588
14.4078
1077.68
685.418
2.8834
597.125
761.619
3.68927
-11.7459
760.287
56.6798
-767.277
650.142
97.6309
-1271.97
464.533
101.979
-1325.59
262.081
88.5443
-1018.84
100.673
134.961
-644.539
-50.346
96.5371
-241.14
-64.4135
-87.9959
192.263
-45.9325
-51.6077
1141.14
-58.4181
2.18395
1175.74
-12.5051
2093.85
558.253
-29.6531
776.201
642.437
-5.67127
1519.36
685.825
9.19011
1091.96
672.8
1.80668
605.819
744.478
0.197453
-4.55773
746.76
34.0278
-758.736
648.796
63.5023
-1265.3
478.19
69.06
-1326.24
286.963
62.7249
-1027.49
137.42
101.046
-655.472
-12.6025
103.994
-255.714
-49.9562
-54.2743
-160.168
-48.5832
-57.2496
992.566
-56.0827
8.85666
1159
-9.77378
2108.95
550.31
-9.73102
779.375
634.745
-1.83271
1537.67
677.868
2.40897
1105.9
661.734
0.464346
613.584
726.486
-0.210988
-0.48234
727.436
9.82211
-753.699
640.189
18.7493
-1259.17
487.032
20.707
-1324.6
312.469
20.7163
-1033.85
186.278
36.8655
-667.204
82.4694
44.5615
-294.099
-5.53458
-19.2263
-255.81
-55.2794
-25.8912
779.115
-54.8329
5.12644
1169.58
-3.36889
2099.83
548.371
13.4736
777.935
633.019
1.60981
1542.45
675.468
-3.78011
1110.17
658.308
-0.338516
615.953
720.645
1.06063
0.417891
719.901
-13.2919
-753.214
634.803
-28.2039
-1258.29
486.204
-31.5276
-1324.31
316.798
-25.7897
-1035.24
200.719
-39.1553
-669.009
114.264
-39.6249
-309.661
10.2264
16.4489
-260.83
-61.4278
13.0878
668.15
-55.7536
-6.50797
1193.61
3.73526
2073.3
551.634
32.0792
778.155
635.748
5.85892
1535.47
678.582
-9.94901
1104.79
662.53
-1.32556
613.085
728.178
0.379084
-0.869053
729.609
-37.697
-754.904
640.727
-71.6199
-1260.69
484.452
-77.2732
-1324.92
308.451
-66.4875
-1032.66
182.248
-102.817
-665.857
84.6795
-104.683
-294.829
0.037167
43.048
-252.475
-55.5127
48.6545
761.15
-54.2798
-10.5295
1167.35
10.3099
2100.89
559.552
42.464
774.459
643.538
9.73861
1517.05
686.884
-14.7026
1090.6
674.214
-2.20024
604.937
746.831
-3.23373
-5.49139
749.32
-60.3334
-760.409
650.062
-104.779
-1266.8
477.627
-108.929
-1326.26
286.903
-93.1777
-1026.69
141.514
-141.089
-656.088
4.60645
-111.441
-260.769
-34.9581
77.5057
-205.437
-47.558
56.6379
978.909
-54.7891
-3.08113
1157.94
13.5984
2110.46
568.86
46.6542
765.275
652.155
13.4499
1497.01
696.009
-17.1726
1075.98
687.423
-2.81883
595.8
764.583
-7.13106
-13.2404
763.178
-77.5552
-769.4
651.874
-127.208
-1273.49
464.981
-128.306
-1325.37
263.215
-108.884
-1018.19
104.418
-159.007
-645.995
-56.8917
-73.331
-245.95
-64.9777
79.1153
123.519
-44.8439
31.3358
1134.39
-57.2235
6.53209
1176.71
12.9937
2095.64
576.638
47.5876
755.828
659.344
17.3932
1481.31
705.024
-18.74
1062.91
700.923
-3.80454
586.109
781.827
-10.7416
-22.4044
774.564
-87.7984
-779.278
651.054
-138.943
-1279.99
451.43
-136.906
-1323.88
243.538
-118.045
-1010.25
86.8415
-172.877
-637.947
-48.3886
-47.7503
-233.474
-54.2293
74.0153
238.283
-42.8657
11.2814
1209.46
-58.382
13.6185
1202.81
10.764
2083
587.079
44.2858
743.38
668.303
21.7878
1460.41
715.224
-18.1996
1047.3
716.272
-5.07984
574.654
798.618
-11.226
-34.71
782.855
-88.8157
-791.518
647.234
-140.529
-1286.3
437.401
-137.425
-1320.43
220.18
-117.361
-1001.49
62.4658
-179.51
-623.989
-45.7457
-50.3709
-214.861
-39.3647
73.1664
182.963
-39.8381
3.22086
1262.58
-58.8536
17.5848
1208.37
8.39565
2060.59
594.275
38.9874
734.285
676.253
24.3826
1444.18
725.088
-17.0625
1032.56
729.8
-5.90586
563.984
815.831
-10.9658
-43.3834
794.574
-81.3511
-799.91
645.535
-129.187
-1292.25
418.68
-122.514
-1318.97
181.086
-94.5709
-993.98
-7.51076
-142.227
-601.986
-75.9724
-44.1053
-124.594
-26.55
39.1338
351.768
-37.9935
4.17679
1313.24
-57.2375
16.2303
1155.93
6.89242
2099.18
612.272
718.376
697.956
1400.9
747.304
998.903
762.888
541.884
855.903
-62.6172
825.745
-820.615
654.254
-1306
406.989
-1317.4
170.447
-988.899
-6.05649
-609.693
-66.959
-106.106
-24.5757
462.167
-38.0722
1276.52
-55.7046
1081.05
2125.05
1429.47
-42.7346
354.451
1786.19
-90.7533
1070.98
1968.6
-28.3931
816.577
2070.45
11.3325
434.089
2075.14
54.8343
-83.4009
1863.84
84.8099
-631.502
1437.34
80.5054
-901.535
919.711
65.6766
-819.896
467.022
65.3318
-547.415
148.012
157.166
-314.859
-57.7517
90.0209
82.8527
-39.0374
-60.4049
453.333
-95.4387
-34.6775
1341.77
-149.321
-74.6043
1143.16
-11.6466
2159.86
1412.96
-48.5336
363.067
1755.46
-91.2242
1105.27
1937.67
-25.8335
850.444
2037.37
14.8637
463.326
2049.34
60.5399
-58.0537
1858.06
92.4992
-613.159
1456.65
87.9883
-896.614
956.278
74.3524
-827.736
495.911
80.3931
-548.846
156.03
185.44
-290.909
-74.5776
96.5362
87.4914
-51.1053
-106.333
359.647
-100.113
-46.0278
1370.68
-154.098
-74.2243
1201.27
-19.9881
2132.25
1409.74
-55.6926
368.996
1748.37
-85.3018
1118.79
1927.43
-19.2248
864.005
2025.05
18.2724
475.829
2039.41
61.4039
-47.3035
1856.81
91.9124
-605.453
1466.92
87.7429
-894.533
978.401
74.2684
-832.255
531.827
78.7881
-553.649
213.539
173.734
-293.655
-65.262
102.771
51.1995
-71.2237
-91.7016
156.368
-104.976
-58.9497
1305.55
-156.471
-70.9662
1250.45
-29.6186
2093.33
1400.09
-57.6509
377.753
1735.71
-75.3078
1138.41
1915.22
-15.2471
881.429
2012.87
17.7829
490.701
2031.58
56.8781
-34.5957
1858.88
85.0264
-597.229
1480.55
81.4945
-893.88
1000
69.4175
-838.903
558.579
70.3158
-561.013
244.381
149.561
-298.748
-71.8943
152.48
29.8439
-112.024
-24.79
216.421
-111.619
-107.553
1254.42
-148.355
-60.2099
1224.84
-36.2487
2116.7
1394.33
-58.0588
385.192
1727.37
-61.236
1152.42
1904.92
-9.87218
894.763
2001
16.0878
502.734
2022.26
47.8747
-24.0034
1857.88
71.7922
-589.657
1490.08
69.2361
-891.911
1018.4
58.8684
-843.358
578.973
58.8246
-567.919
256.093
126.89
-298.987
-81.9585
219.425
29.9708
-133.906
52.8197
166.607
-120.346
-167.009
1187.04
-139.667
-34.1693
1169.02
-38.4447
2130.36
1383.91
-49.5248
392.595
1712.81
-39.9237
1169.15
1890
-5.46754
910.368
1985.14
11.0033
515.764
2009.23
32.2614
-13.0339
1854.45
49.2929
-581.454
1499.56
47.8479
-889.022
1039.29
40.2808
-847.38
607.089
39.8783
-576.334
292.861
88.4868
-302.839
46.9665
187.178
22.4306
-36.4073
49.331
-73.2997
-130.58
-125.6
1045.33
-126.596
-3.28836
1124.14
-28.0138
2143.02
1366.95
-18.6255
397.506
1693.05
-12.181
1183.84
1870.52
-1.85845
924.817
1964.28
3.16167
527.665
1989.72
9.75219
-3.41398
1843.68
15.1946
-573.555
1502.55
14.3563
-884.55
1055.75
11.5493
-849.062
632.324
12.5318
-583.085
327.678
31.9574
-306.026
141.689
72.9555
6.11464
8.06439
30.3193
-103.168
-148.934
-50.0086
860.523
-125.419
4.96279
1137.81
-8.76261
2126.48
1358.21
24.797
398.37
1684.71
15.4768
1188.29
1862.69
1.12196
929.203
1956
-5.18758
531
1981.5
-14.1622
-1.16559
1837.98
-22.5782
-571.924
1501.21
-23.5332
-883.625
1058.56
-20.4159
-849.703
637.332
-16.2541
-585.223
337.858
-31.6713
-305.904
164.42
-64.4034
1.13887
18.2671
8.56035
-92.9127
-161.085
20.3764
777.119
-131.469
-8.48506
1177.45
11.1051
2095.35
1369.47
52.1112
396.064
1695.4
42.8767
1182.14
1872.35
5.41477
923.545
1965.92
-12.3348
526.661
1991.09
-35.7781
-4.41814
1843.82
-55.4395
-574.77
1500.31
-55.3334
-885.379
1050.86
-47.1339
-848.76
627.155
-42.9657
-582.241
323.913
-87.3751
-306.91
139.927
-179.544
4.30168
12.5211
-18.0017
-98.4988
-149.064
98.0743
845.039
-123.229
1.85655
1131.18
30.19
2129.72
1385.38
59.2814
390.917
1714.56
63.7091
1167.04
1891.65
10.2555
908.678
1986.8
-16.8837
514.335
2010.6
-50.6639
-14.4002
1854.53
-76.943
-582.837
1497.7
-75.6042
-889.694
1035.98
-64.8447
-846.833
605.561
-63.2925
-575.946
298.153
-130.131
-305.922
74.5478
-232.624
15.9198
-9.38541
-35.696
-103.801
-127.963
164.155
1031.41
-122.337
36.0127
1118.16
41.6968
2147.62
1395.52
58.366
383.236
1728.93
77.398
1149.91
1906.56
15.9119
892.697
2002.75
-18.1602
500.897
2023.63
-59.0454
-25.7371
1857.9
-89.4197
-591.194
1488.46
-87.2397
-892.416
1016.11
-75.3018
-842.559
579.379
-76.9069
-567.849
266.539
-159.586
-303.697
-76.7782
-160.558
25.306
-107.414
25.2611
93.2062
-116.751
129.423
1178.46
-134.117
62.8912
1167.2
41.5772
2135.6
1401.24
56.1381
375.662
1737.24
87.0551
1135.66
1916.94
20.0379
879.083
2014.73
-18.3531
488.514
2032.97
-63.0574
-36.6254
1858.78
-95.6476
-598.869
1478.71
-92.9161
-894.24
997.54
-80.1132
-837.89
558.967
-87.3095
-561.275
252.117
-187.225
-303.456
-63.0151
-106.498
27.6017
-107.655
90.3853
217.803
-108.891
78.2381
1261.89
-146.241
73.7871
1229.26
34.4731
2121.14
1410.96
48.7804
366.821
1749.99
92.6648
1115.77
1929.27
26.7233
861.333
2027.04
-14.7124
473.242
2040.76
-61.7638
-49.7237
1856.49
-95.5801
-607.314
1464.8
-92.6847
-894.841
975.727
-80.2827
-831.19
531.312
-89.9278
-554.451
216.592
-198.549
-297.942
-61.3007
-96.8956
53.4367
-73.034
102.63
182.46
-102.087
55.5585
1314.31
-155.355
77.4359
1257.99
23.7336
2097.39
1414.2
42.8519
360.856
1757.12
91.8485
1102.08
1939.61
29.2481
847.544
2039.48
-11.0619
460.466
2050.73
-55.6693
-60.7273
1857.61
-87.1959
-615.173
1453.96
-84.4454
-896.834
952.204
-70.8831
-826.608
493.083
-74.4185
-550.365
155.815
-167.996
-295.267
-71.8819
-88.6444
94.8631
-49.3847
65.0523
366.854
-97.5516
41.1006
1375.86
-153.36
77.319
1211.85
14.463
2135.41
1430.78
352.278
1787.98
1067.67
1970.68
813.416
2072.63
430.857
2076.4
-86.5378
1862.91
-633.894
1433.6
-901.796
914.649
-819.274
464.224
-551.524
148.375
-320.655
-53.1875
89.9149
-36.0292
467.628
-92.7879
1347.84
-148.491
1156.91
2163.75
1474.45
-8.62745
158.856
1912.54
-73.6293
652.184
2164.09
-61.595
571.142
2264.63
-32.8411
332.026
2158.33
-10.164
16.2127
1802.15
3.10809
-284.25
1294.25
10.2455
-402.86
792.932
26.5865
-328.852
417.192
48.6505
-176.211
159.025
174.082
-79.8464
-32.9749
115.597
264.656
-13.6614
-40.1274
443.95
-134.923
-138.593
1517.4
-221.308
-113.589
1253.17
-43.5373
2212.05
1470.65
-9.00851
160.556
1905.54
-75.9302
672.685
2160.58
-61.6247
595.429
2266.8
-30.6872
354.958
2170.78
-6.45302
34.2542
1827.6
7.30581
-274.171
1329.77
14.5903
-403.138
828.323
32.9709
-332.669
427.424
61.0623
-160.357
147.948
197.814
-35.1638
-61.7545
126.552
286.241
-31.5955
-60.1251
349.489
-126.135
-191.521
1518.15
-206.17
-116.228
1283.94
-66.1343
2201.87
1473.06
-11.9692
162.166
1909.16
-74.0274
680.791
2163.73
-56.0622
603.875
2270.86
-25.2724
363.282
2178.11
-1.76453
40.7616
1839.37
11.368
-270.771
1345.51
18.0315
-404.119
848.447
34.4332
-336.653
454.353
60.0071
-158.498
194.495
186.222
-22.2036
-30.9614
140.025
263.187
11.1565
-72.8266
126.957
-132.672
-173.394
1431.26
-213.156
-116.068
1330.78
-100.831
2166.42
1471.77
-12.3857
164.662
1908.45
-66.9714
694.672
2165.35
-49.9273
618.394
2275.79
-21.2261
376.219
2188.39
0.758374
50.2831
1856.33
12.3939
-266.2
1367.77
17.6299
-404.916
872.165
31.929
-340.792
480.126
50.6183
-159.584
233.52
152.267
-18.1854
-24.9582
185.408
242.941
-21.5787
25.7879
114.432
-132.599
-185.087
1377.13
-181.871
-108.159
1266.2
-123.597
2199.95
1473.2
-13.8136
167.046
1911.05
-56.3721
703.983
2167.92
-39.974
627.942
2279.53
-15.2827
385.183
2195.56
3.64452
57.078
1868.16
13.0968
-262.964
1383.49
16.056
-405.662
890.453
26.1278
-344.521
497.098
37.8896
-161.834
246.376
115.377
-11.3719
0.891376
215.701
245.165
-16.1946
137.221
72.2652
-127.96
-192.101
1305.82
-136.777
-76.3209
1146
-120.988
2226.57
1472.55
-13.5746
169.517
1909.38
-38.7966
714.739
2166.54
-26.5691
639.812
2280.08
-9.3855
396.323
2200.86
4.08536
65.7433
1880.27
10.3833
-258.147
1401.33
11.1561
-405.185
911.293
16.607
-347.818
515.907
22.1947
-165.252
259.571
74.753
-5.87657
96.39
156.744
244.571
28.0378
112.894
19.3837
-129.405
-140.959
1151.63
-96.1726
-43.8625
1058.45
-78.2174
2235.43
1468.39
-6.794
171.979
1902.55
-12.7449
723.626
2159.24
-8.53227
650.09
2274.27
-3.05607
406.311
2199.65
1.37591
73.9178
1886.33
3.18064
-253.034
1414.05
2.66104
-403.777
928.052
3.96452
-350.419
529.576
6.13711
-168.55
271.332
26.979
-0.00572157
131.948
52.6809
249.565
48.3272
66.6223
26.7301
-153.014
-59.4592
980.366
-96.5534
-14.819
1052.31
-20.3143
2205.82
1463.93
6.35341
172.98
1896.74
15.6797
727.07
2153.66
9.91188
653.835
2269.62
2.29117
409.699
2197
-3.71929
76.5502
1886.69
-7.10636
-251.325
1417
-8.15044
-403.125
932.15
-9.65301
-351.237
529.994
-7.16562
-169.763
271.253
-23.3308
3.14946
120.803
-53.0398
257.312
60.3192
-3.25739
37.4565
-173.922
36.212
915.69
-116.612
13.8722
1091.45
26.6398
2169.88
1467.78
13.8458
171.285
1901.88
40.9422
722.784
2158.62
27.4468
649.272
2273.54
8.5606
405.476
2198.52
-6.26295
73.1396
1884.22
-13.9926
-253.576
1410.58
-15.9399
-403.947
923.664
-21.2731
-350.228
526.505
-23.3195
-168.926
271.738
-72.1557
-3.31548
117.732
-140.857
246.128
63.6253
-71.8126
24.1709
-148.433
128.188
965.123
-89.5204
44.8069
1041.33
86.6813
2213.03
1472.37
13.9286
168.805
1909.04
58.0588
713.26
2166.06
40.6369
638.465
2279.32
14.5516
395.088
2199.47
-5.53579
64.7267
1877.78
-16.3539
-258.783
1397.93
-20.4503
-405.336
908.154
-30.6366
-347.695
516.253
-40.7964
-166.566
267.658
-117.782
-11.698
111.048
-204.619
236.296
47.1202
-122.37
10.6922
-121.823
195.772
1132.77
-87.6307
78.8938
1049.88
132.825
2244.35
1472.98
12.344
166.288
1910.65
68.2505
702.047
2167.35
50.4913
626.14
2278.61
20.6528
383.545
2193.89
-2.3515
55.7948
1865.45
-15.3987
-263.711
1380.32
-21.9603
-405.771
888.496
-36.9298
-344.443
500.532
-56.595
-164.085
260.89
-162.499
-19.335
40.334
-193.286
234.533
23.6146
-51.9636
39.5271
-119.116
218.468
1298.5
-129.502
112.268
1144.22
137.842
2236.06
1471.45
11.9162
163.852
1907.88
74.9792
692.507
2164.59
56.5306
616.337
2274.63
24.8106
374.313
2186.42
0.379686
48.8532
1853.31
-14.1634
-266.99
1364.33
-22.2687
-404.952
870.277
-39.9897
-340.77
483.968
-68.8244
-162.733
245.793
-201.141
-26.6339
-5.46718
-148.031
233.613
-21.6957
57.0494
125.03
-129.807
199.398
1389.07
-181.149
121.6
1271.28
112.644
2207.66
1472.74
8.95789
161.319
1908.5
76.5874
678.408
2162.81
62.0111
601.552
2269.44
30.3555
361.067
2175.69
5.32288
39.0777
1835.77
-9.80241
-271.744
1341.61
-18.805
-404.144
846.485
-39.2544
-336.801
457.752
-71.9047
-162.634
203.718
-214.405
-30.6387
-24.3133
-125.478
258.924
4.6068
61.2952
149.302
-129.947
202.484
1445.78
-214.214
124.815
1339.04
74.6288
2173.6
1470.32
8.58301
159.69
1904.82
74.0248
670.15
2159.55
61.883
592.939
2265.21
32.5969
352.571
2168.11
9.27195
32.4236
1823.65
-5.27064
-275.237
1325.18
-14.1576
-403.008
825.06
-32.7047
-333.039
429.03
-60.1255
-166.109
152.986
-189.116
-44.5053
-51.3882
-114.668
288.433
-26.3383
50.1705
352.935
-122.77
147.926
1526.86
-208.287
124.38
1297.81
49.2953
2207.26
1474.17
157.99
1911.78
649.531
2162.92
568.451
2262.73
329.387
2155.14
14.0638
1797.34
-285.535
1288.25
-402.719
788.64
-330.56
418.593
-186.257
164.188
-90.8717
-23.4396
268.808
-10.3058
464.252
-131.538
1525.15
-225.108
1276.57
2217.1
1414.46
-2.5099
158.079
1652.74
-35.6253
424.658
1825.28
-46.2168
406.237
1874.87
-42.4375
287.056
1758.04
-35.9531
135.516
1478.87
-20.0325
-6.50352
1128.42
-0.531491
-57.5183
806.193
26.9153
-14.8304
563.186
49.4323
64.0032
345.951
179.276
115.055
152.243
177.243
424.375
48.9136
28.4445
520.996
-71.738
-268.232
1720.7
-161.829
-63.8198
1372.89
-95.3041
2411.36
1411.89
-2.26398
158.309
1652.96
-37.245
433.235
1831.39
-47.2679
418.051
1887.9
-42.4349
298.454
1776.67
-34.7944
144.325
1501.11
-18.2914
-0.350922
1151.08
2.27865
-55.9184
822.94
32.036
-9.65135
558.225
58.883
94.9086
331.915
202.656
167.767
136.584
221.74
437.077
39.0066
61.2414
414.271
-45.9948
-313.903
1648.82
-143.088
-136.433
1453.65
-124.298
2412.01
1413.14
-3.76647
158.617
1657.68
-37.7148
436.726
1837.79
-45.2081
421.711
1896.03
-39.2474
301.859
1786.28
-31.0327
146.746
1511.23
-15.1151
1.10183
1161.39
4.77505
-56.7698
835.172
32.2348
-10.6338
575.482
56.6617
103.415
386.148
184.415
185.373
241.324
228.169
401.583
111.05
52.4189
266.056
-47.9703
-261.891
1538.27
-160.802
-158.342
1465.52
-194.871
2394.01
1411.98
-3.73774
159.013
1659.6
-33.9853
443.326
1843.55
-40.7877
430.034
1905.93
-35.1178
309.71
1799.73
-27.2908
152.741
1526.95
-13.5935
5.0596
1177.8
4.21408
-55.2061
850.591
28.5762
-9.92521
592.001
47.0552
108.614
423.168
140.801
194.262
296.525
217.852
379.903
123.738
113.39
226.25
-23.3885
-224.308
1486.68
-99.6943
-146.142
1330.31
-246.018
2450.98
1412.67
-4.23043
159.423
1663.85
-28.6682
447.487
1849.88
-33.6143
434.748
1914.3
-28.3869
314.032
1809.86
-21.5597
155.785
1537.74
-11.0076
6.56904
1188.64
2.90053
-55.2501
861.619
21.6933
-10.6124
601.752
33.4683
111.622
429.904
95.6123
205.667
318.519
187.895
386.509
128.352
156.969
218.854
14.8534
-207.418
1402.43
-11.3797
-126.607
1152.7
-234.554
2489.92
1412.57
-4.13614
159.848
1666.44
-19.8961
452.108
1854.88
-22.9977
440.753
1922.15
-19.2943
319.965
1820.51
-14.5053
160.327
1550.16
-8.15818
9.35429
1201.51
0.477443
-54.1153
873.678
12.4392
-10.7268
609.71
17.9334
114.253
426.469
55.2215
217.757
328.722
127.604
402.61
149.194
134.482
221.401
29.2832
-157.769
1221.9
44.3726
-105.536
1022.29
-156.411
2478.11
1412.58
-3.14044
160.351
1668.12
-7.13141
455.323
1857.92
-7.76431
445.061
1927.2
-6.65019
324.385
1828.05
-5.07735
163.641
1559.32
-3.59086
11.1335
1211.14
-1.44641
-53.6775
882.525
2.38181
-11.7435
611.68
4.35893
115.872
417.754
18.0262
231.117
327.273
42.4127
425.238
174.602
69.4426
244.443
21.653
-57.7722
1033.32
68.5913
-47.1367
946.975
-41.3416
2438.66
1410.7
1.04
160.744
1666.26
7.56543
456.827
1856.92
8.48074
446.931
1927.44
6.22872
326.299
1829.85
3.8296
165.229
1562.26
0.445553
12.2307
1214.49
-3.66454
-53.1368
885.268
-7.47153
-12.1568
608.867
-5.07887
116.077
407.933
-14.7281
236.839
312.624
-44.4037
439.44
183.436
-26.1901
262.28
6.24991
70.8456
964.26
63.9189
43.7752
942.869
66.4649
2411.64
1410.98
4.20904
160.297
1665.79
20.3576
455.185
1855.78
23.0334
444.734
1925.31
18.1946
323.972
1826.35
12.5687
163.362
1557.55
4.68072
10.991
1209.15
-5.26075
-53.9532
880.762
-16.9243
-12.382
612.208
-19.2437
113.794
422.835
-54.5214
225.853
329.333
-123.607
418.835
184.741
-101.359
243.934
32.1113
175.775
1012.83
73.7353
107.446
936.038
178.114
2452.26
1412.34
4.32608
159.602
1665.2
29.2652
451.498
1853.14
33.498
440.064
1920.05
27.1143
319.261
1818.2
19.3448
159.796
1547.79
7.35381
8.95376
1199.46
-7.61239
-54.6501
872.921
-26.3213
-11.7591
612.808
-36.6572
110.962
436.015
-99.9555
210.53
340.108
-185.402
393.999
163.164
-134.998
221.278
41.7245
235.423
1194.56
49.8536
135.321
1013.88
254.428
2493.34
1412.69
3.54606
159.173
1663.14
34.3569
446.513
1848.51
40.6157
433.656
1912.29
33.9221
312.962
1807.41
25.0915
154.929
1535.28
9.89437
5.87529
1186.93
-9.01835
-56.0102
862.042
-33.8791
-12.0003
607.224
-53.0618
107.14
443.093
-151.866
196.708
337.225
-220.906
375.907
140.731
-117.648
218.674
24.9286
258.784
1390.94
-7.6938
157.981
1154.18
265.419
2503.7
1411.83
3.60098
158.73
1658.73
37.8501
442.123
1842.07
44.9229
428.687
1903.83
38.08
308.397
1797.2
28.8928
151.678
1524.45
11.471
4.18907
1176.11
-9.54488
-56.0905
851.427
-38.2851
-11.6798
598.123
-65.3934
102.902
434.97
-200.087
184.74
306.951
-230.237
370.964
121.173
-43.0612
236.221
-18.9022
289.107
1498.82
-98.7351
169.42
1339.67
213.064
2461.73
1412.93
2.19311
158.296
1656.6
37.2356
435.36
1836.03
46.9062
420.142
1893.55
41.3384
300.29
1783.29
32.8403
145.392
1508.25
14.8152
-0.0526559
1159.45
-7.08784
-57.7956
836.205
-39.0096
-12.8303
581.507
-69.7534
96.4262
395.45
-220.794
176.127
247.418
-220.441
397.16
106.727
-34.3914
281.326
-44.389
328.546
1557.46
-161.634
147.138
1478.57
142.586
2401.98
1411.71
2.48036
157.951
1651.83
35.5276
431.736
1829.51
45.8331
416.338
1885.23
41.4524
296.745
1773.45
34.2168
142.821
1497.89
16.8018
-1.65604
1148.7
-4.03714
-56.8711
823.144
-33.9571
-12.5293
562.941
-61.3486
85.692
337.531
-197.761
157.873
143.648
-176.951
438.828
40.1787
-6.79126
428.807
-44.0116
276.846
1662.75
-148.219
75.3824
1473.77
113.288
2415.09
1414.3
157.693
1651.57
423.031
1823.25
404.334
1871.9
285.126
1754.34
133.703
1474.91
-8.15274
1125.05
-58.754
805.899
-20.1005
567.581
49.5235
349.008
104.057
155.224
431.242
45.2777
551.179
-76.0691
1731.7
-178.442
1409.12
2410.19
1446.58
-2.15327
170.895
1529.19
-15.6944
347.435
1591.98
-21.5654
347.43
1584.99
-20.6921
296.142
1497.11
-15.8629
223.791
1331.9
-1.41372
155.924
1125.83
12.3119
143.002
923.141
38.6693
179.439
755.669
68.3895
226.733
553.546
186.483
296.043
372.825
191.554
572.377
138.959
32.6646
733.669
144.919
-446.203
1781.64
-81.044
-129.618
1649.74
-69.6772
2776.22
1444.37
-2.09579
171.333
1527.25
-16.4797
351.143
1593.06
-22.0755
352.76
1589.98
-20.7524
301.591
1504.44
-15.3271
229.329
1341.27
-0.454861
161.86
1136.84
14.379
146.45
933.096
41.2904
191.468
755.477
72.943
267.975
565.389
197.486
346.851
396.299
237.156
560.566
164.635
67.7982
610.802
87.0855
-387.736
1667.9
-202.734
-235.482
1849.33
-141.578
2696.63
1444.56
-2.98498
171.649
1529.09
-17.1393
352.86
1596.01
-21.7386
354.458
1593.88
-19.7954
303.031
1508.69
-14.0866
230.7
1345.86
0.164403
163.309
1142.37
15.0846
146.013
941.565
38.2882
193.178
770.586
66.2653
281.072
621.321
170.693
361.432
512.298
231.875
515.886
250.537
94.0983
501.517
122.828
-266.1
1544.34
-192.192
-277.279
1822.34
-249.088
2711.76
1443.07
-2.99589
172.135
1528.47
-15.1649
355.952
1597.59
-19.4517
358.637
1598.11
-17.9673
307.361
1514.63
-12.8493
234.981
1353.02
-0.491354
167.322
1150.73
13.4161
148.756
950.033
32.5731
196.487
781.168
54.2441
289.5
649.554
128.291
368.278
564.012
204.294
493.026
277.03
146.022
461.31
217.105
-203.619
1484.12
-57.7239
-289.733
1617.59
-303.153
2828.41
1442.69
-3.21787
172.556
1529.7
-12.5722
357.892
1600.24
-16.0617
360.818
1602.02
-15.0609
309.346
1519.18
-10.9661
236.743
1357.74
-1.34371
168.859
1156.1
10.1267
149.687
956.156
24.1512
197.751
787.68
38.7816
295.561
654.55
87.6487
379.44
584.109
161.818
499.426
309.904
187.548
451.534
300.142
-175.513
1384.09
56.9077
-289.776
1395.98
-291.366
2898.9
1441.8
-2.93674
173.042
1529.86
-8.45651
359.937
1602.03
-10.984
363.505
1605.55
-10.7677
312.153
1523.86
-8.30145
239.354
1363
-2.40705
171.278
1161.98
5.2946
151.736
961.92
14.0015
199.484
792.05
21.4558
301.449
652.695
52.1874
392.574
595.481
103.535
518.108
379.393
172.296
452.742
355.194
-128.639
1199.22
146.309
-190.539
1131.94
-213.099
2899.62
1441.47
-2.41858
173.446
1530.74
-3.46697
361.067
1604.1
-4.18293
364.902
1608.62
-4.44242
313.544
1527.49
-3.9162
240.382
1366.67
-2.5781
172.122
1165.89
-0.200663
152.595
965.477
2.82297
199.853
791.506
5.06986
306.229
649.332
16.7248
408.754
601.934
32.8057
543.366
466.485
78.7481
473.44
423.347
-34.3921
982.213
209.482
-57.901
1028.2
-60.6384
2853.66
1440.35
-0.157087
173.845
1529.99
2.10708
361.622
1604.06
3.10602
365.58
1609.18
2.38727
314.343
1528.6
0.8149
241.082
1368.07
-2.48201
172.664
1167.58
-5.85513
153.007
966.867
-8.26604
199.642
789.194
-8.42802
307.248
644.494
-17.0766
415.341
595.627
-36.9746
558.087
503.947
-54.2042
486.913
458.659
76.6921
898.465
213.538
73.3046
1056.79
107.668
2822.15
1440.14
2.35094
173.711
1529.04
7.34671
361.052
1602.64
9.54837
364.692
1607.37
8.3202
313.311
1526.53
4.90826
240.111
1365.93
-2.49855
171.605
1165.37
-10.882
151.631
965.554
-19.1567
198.328
793.566
-25.515
302.869
654.911
-54.9596
402.391
606.748
-105.691
535.715
479.612
-155.273
472.14
442.59
166.873
959.668
201.99
210.968
1038.98
246.516
2870.72
1441.24
3.15566
173.106
1528.48
11.8892
359.72
1600.41
14.6017
363.088
1603.8
12.4931
311.697
1522.33
7.43767
238.738
1361.94
-3.4932
170.33
1161.58
-15.5297
150.362
962.807
-29.5828
197.441
795.589
-44.3102
296.976
660.233
-94.2947
385.222
604.662
-165.61
509.49
394.815
-177.909
453.762
375.049
215.538
1165.66
140.326
312.016
1147.55
316.66
2916.6
1442.66
2.73791
172.538
1529.01
14.6065
357.448
1599
18.1426
360.128
1600.29
15.5657
308.601
1517.49
9.40899
235.76
1356.63
-4.28519
167.528
1155.91
-18.8176
147.993
957.86
-38.7814
195.252
792.711
-62.0251
290.004
663.71
-139.762
371.177
594.237
-210.325
490.096
316.838
-137.012
455.177
308.832
242.663
1371.82
50.1721
309.792
1415.06
326.627
2908.85
1442.99
2.65672
172.09
1527.89
16.5297
355.302
1596.49
20.5292
357.708
1596.47
17.6017
306.379
1513
10.8364
233.724
1351.98
-4.80459
165.728
1150.67
-20.4283
146.839
952.262
-45.5097
193.456
786.831
-76.5124
282.824
657.671
-185.942
360.082
568.805
-236.378
485.885
270.046
-75.016
472.988
213.865
296.555
1501.11
-66.1487
287.807
1641.67
271.931
2832.5
1444.34
1.86789
171.575
1528.3
15.8906
352.043
1594.72
20.9538
353.302
1592.05
18.7761
301.784
1506.87
12.3061
229.112
1344.62
-4.02125
161.416
1142.23
-19.7532
143.921
944.011
-49.6383
189.517
775.729
-85.1675
273.366
626.032
-214.713
354.596
512.03
-238.845
513.632
238.306
-40.9106
520.946
112.081
405.917
1574.33
-203.466
238.769
1843.16
164.261
2710.62
1444.15
2.00194
171.198
1526.42
15.1745
350.185
1591.67
20.5836
351.46
1588.01
18.9795
300.205
1502.44
13.1565
227.548
1339.72
-2.7571
159.799
1136.13
-17.4179
144.383
934.448
-47.1644
186.684
758.438
-81.3713
257.908
564.74
-203.993
340.854
392.564
-193.285
565.445
153.628
-10.0722
636.906
71.7817
456.216
1694.29
-220.357
132.836
1871.85
89.8067
2687.73
1446.34
170.712
1528.26
346.317
1590.42
345.916
1582.71
294.519
1494.61
221.591
1329.48
153.408
1124.03
140.277
923.628
171.255
757.229
211.489
548.273
290.909
363.174
585.27
121.344
773.462
121.246
1800.84
-109.38
1690.74
2758.76
1495.57
-0.766477
174.455
1523.75
-6.21178
321.569
1536.37
-7.52071
336.266
1505.97
-5.26444
326.55
1432.1
0.53667
295.952
1312.46
13.9643
271.138
1165.65
25.1376
282.721
1019.56
63.9415
313.752
890.964
105.127
348.136
712.291
197.648
456.524
570.286
169.929
690.4
211.888
4.99788
1081.19
81.3932
-572.373
1920.87
-407.255
-299.743
2197.38
9.91585
2952.49
1494.75
-0.721975
174.804
1522.64
-6.66321
323.708
1536.28
-7.79222
339.394
1507.85
-5.12092
329.883
1436
0.997352
300.714
1320.03
14.6984
277.092
1177.01
26.5152
288.101
1033.52
63.7331
335.164
901.608
105.378
399.635
750.245
196.216
499.647
632.44
208.596
639.704
319.834
8.02857
920.378
-103.437
-362.682
1881.48
-673.801
-260.902
2380.86
-166.806
2764.23
1494.85
-1.05949
175.037
1523.34
-7.10801
324.818
1537.46
-8.01014
340.555
1509.59
-5.04251
330.827
1438.19
0.944674
302.155
1323.56
14.0553
278.579
1182.27
25.8817
287.933
1042.96
55.3122
340.909
921.511
91.8203
416.084
807.683
166.128
505.347
739.184
211.567
581.416
420.167
28.2491
800.314
-31.3734
-131.997
1765.2
-635.665
-191.748
2357.47
-359.102
2801.83
1494.31
-1.07956
175.372
1522.87
-6.33555
326.625
1537.69
-7.25036
343.055
1511.18
-4.73004
333.559
1441.04
0.411638
305.655
1328.42
11.7178
282.277
1189.1
22.8203
291.14
1049.51
45.0416
346.349
931.658
74.9232
424.25
829.116
130.34
506.609
781.097
196.304
556.309
444.098
96.0196
730.538
178.891
-23.0986
1640.43
-400.371
-196.662
2201.77
-427.806
2994.4
1494.17
-1.17497
175.637
1523.27
-5.32198
327.777
1538.61
-6.16776
344.397
1512.76
-4.34448
334.813
1443.11
-0.466524
307.269
1331.28
8.34516
284.066
1193.65
17.3592
292.781
1054.74
32.4922
349.211
939.034
55.2409
430.946
836.242
95.8881
516.685
812.011
159.637
560.324
512.103
162.841
684.621
379.62
2.48953
1490.98
-214.1
-228.374
2021.41
-407.042
3143.59
1493.86
-1.07371
175.961
1523.18
-3.65249
328.946
1539.02
-4.42757
345.935
1513.99
-3.66972
336.506
1445.11
-1.55625
309.325
1334.23
3.92946
286.578
1198.19
9.8048
295.323
1059.54
18.5238
352.106
945.521
32.5603
438.148
840.07
63.3498
530.564
838.508
101.692
577.615
625.555
176.864
651.673
621.515
-41.2607
1247.01
33.6352
-165.571
1657.02
-249.515
3255.64
1493.77
-0.939458
176.21
1523.48
-1.81463
329.52
1539.68
-2.31142
346.587
1515.06
-2.62869
337.127
1446.44
-2.47606
309.928
1335.94
-1.17055
287.715
1201
0.632608
296.708
1062.74
3.21761
353.416
948.396
7.63603
445.501
850.663
20.7643
549.072
863.317
31.164
601.24
801.385
83.4025
628.834
745.526
-17.3181
1014.13
50.0402
-54.0908
1612.21
-44.8109
3200.05
1493.6
-0.602107
176.445
1523.4
0.249259
329.768
1539.76
0.0487341
346.867
1515.31
-1.33282
337.494
1446.89
-3.18381
310.207
1336.68
-6.39632
288.107