/*--------------------------------*- C++ -*----------------------------------*\
| =========                 |                                                 |
| \\      /  F ield         | OpenFOAM: The Open Source CFD Toolbox           |
|  \\    /   O peration     | Version:  4.1                                   |
|   \\  /    A nd           | Web:      www.OpenFOAM.org                      |
|    \\/     M anipulation  |                                                 |
\*---------------------------------------------------------------------------*/
FoamFile
{
    version     2.0;
    format      ascii;
    class       volVectorField;
    location    "10";
    object      U;
}
// * * * * * * * * * * * * * * * * * * * * * * * * * * * * * * * * * * * * * //

dimensions      [0 1 -1 0 0 0 0];

internalField   nonuniform List<vector> 
6750
(
(16.229 -0.152093 8.43131)
(3.96617 -0.105996 16.7338)
(9.4416 0.0749801 11.5874)
(7.89741 0.0439272 6.03283)
(8.88223 0.0582137 -0.376338)
(10.2357 0.357815 -9.77434)
(8.72785 0.56115 -16.4912)
(6.17992 0.520855 -17.3844)
(2.91674 0.392875 -13.5955)
(0.981335 0.615887 -8.5576)
(-1.39866 0.25824 -2.02162)
(-0.0742214 -0.103669 5.25508)
(-0.637855 -0.0142774 14.1928)
(0.132236 -0.0670896 11.7364)
(-2.11827 -0.0226988 23.8088)
(15.9733 -0.2544 8.6858)
(3.67594 -0.145106 17.2763)
(9.26908 0.112209 11.9191)
(7.59618 0.038218 6.18737)
(8.4188 0.0603852 -0.269425)
(9.80042 0.514595 -9.59306)
(8.4912 0.816071 -16.3134)
(6.23318 0.784339 -17.3586)
(3.15799 0.612963 -13.6644)
(1.03213 0.939082 -8.54677)
(-1.45752 0.271538 -2.34979)
(-0.140838 -0.291469 3.88337)
(-0.628788 -0.0139463 14.6442)
(0.106531 -0.108784 12.6401)
(-2.11539 -0.0402572 23.5454)
(15.8348 -0.249108 8.81809)
(3.57971 -0.09843 17.4666)
(9.19746 0.102103 12.0595)
(7.4619 0.0248648 6.2636)
(8.23181 0.0613318 -0.226234)
(9.61843 0.467468 -9.53523)
(8.41985 0.731285 -16.2418)
(6.33723 0.719662 -17.3566)
(3.46036 0.630958 -13.768)
(1.55142 0.984868 -8.92295)
(-0.437823 0.297828 -3.80072)
(-0.459556 -0.41442 1.80886)
(-0.652297 -0.0126662 14.0866)
(0.0889991 -0.0868284 13.3163)
(-2.13442 -0.0451838 23.1031)
(15.6377 -0.268397 8.99245)
(3.4557 -0.0859193 17.707)
(9.13146 0.107562 12.1987)
(7.32087 0.0267732 6.34183)
(8.01653 0.0572152 -0.138411)
(9.46589 0.474254 -9.41053)
(8.39617 0.753575 -16.1503)
(6.45073 0.745694 -17.3725)
(3.67358 0.620337 -13.8762)
(1.85048 0.87399 -9.14081)
(-0.201586 0.280625 -3.98281)
(-0.689714 -0.249519 2.44012)
(-0.694883 -0.0770234 13.4884)
(0.0603311 -0.0604404 13.3442)
(-2.08329 -0.0608514 23.3631)
(15.4878 -0.245495 9.11759)
(3.36971 -0.0602314 17.8844)
(9.06773 0.0883053 12.3171)
(7.19939 0.0149385 6.40703)
(7.82143 0.0269436 -0.0868252)
(9.28839 0.364658 -9.32038)
(8.33198 0.612302 -16.0629)
(6.53476 0.630928 -17.3669)
(3.89848 0.540237 -13.97)
(2.05567 0.814521 -9.28529)
(-0.0858451 0.464373 -4.15124)
(-0.927131 -0.453933 1.53604)
(-0.726982 -0.227465 12.7675)
(0.0523924 -0.0130429 13.1299)
(-2.04775 -0.0709603 23.5207)
(15.3339 -0.210166 9.23672)
(3.26265 -0.0438204 18.1156)
(8.99626 0.0717988 12.4506)
(7.08144 0.0167657 6.46193)
(7.63487 0.0120428 -0.0563277)
(9.09038 0.268714 -9.24753)
(8.23484 0.479627 -15.9768)
(6.60116 0.510813 -17.352)
(4.14335 0.453834 -14.0667)
(2.35778 0.706165 -9.47871)
(0.468174 0.663141 -4.49714)
(-0.579528 -0.467247 -2.07055)
(-0.828582 -0.352612 11.1188)
(0.0928307 0.0372766 12.9717)
(-2.0146 -0.068392 23.7165)
(15.2379 -0.119458 9.26958)
(3.17521 -0.0203789 18.3282)
(8.92404 0.0321773 12.59)
(6.97719 0.00444307 6.51434)
(7.47119 -0.00609926 -0.0621546)
(8.85111 0.119758 -9.23147)
(8.05145 0.238 -15.9119)
(6.59278 0.265836 -17.3136)
(4.35318 0.249802 -14.1328)
(2.70966 0.423907 -9.68518)
(1.24071 0.499921 -5.15328)
(0.692925 -0.17082 -3.64427)
(-1.03743 -0.266033 8.56502)
(0.146934 0.057791 13.0613)
(-2.01681 -0.0399573 23.6444)
(15.2257 0.0117659 9.24043)
(3.16155 -0.000962305 18.3811)
(8.90303 -0.00453752 12.6381)
(6.94441 -5.16737e-05 6.5363)
(7.42225 0.00251333 -0.0624807)
(8.76761 -0.00977102 -9.2366)
(7.97047 -0.0284785 -15.9052)
(6.55435 -0.03417 -17.3044)
(4.3752 -0.0166175 -14.1413)
(2.78127 -0.0089086 -9.72379)
(1.50025 0.0166671 -5.40845)
(1.15164 -0.00537484 -3.8559)
(-1.17401 -0.0380804 7.15767)
(0.160303 -0.00345793 13.3024)
(-2.04513 0.00106087 23.3576)
(15.2573 0.137047 9.25548)
(3.18855 0.0201659 18.3044)
(8.93148 -0.0383022 12.581)
(6.98526 -0.00268532 6.51334)
(7.48309 0.0104895 -0.058966)
(8.87748 -0.139669 -9.24061)
(8.07258 -0.287234 -15.9311)
(6.58265 -0.318549 -17.3221)
(4.30614 -0.272663 -14.1202)
(2.66473 -0.430991 -9.6628)
(1.19377 -0.466606 -5.15274)
(0.808716 0.169714 -3.6547)
(-1.04979 0.19384 8.34397)
(0.158633 -0.0671171 13.0416)
(-2.01554 0.0420897 23.6524)
(15.3584 0.220711 9.21493)
(3.27624 0.0458921 18.0907)
(9.00547 -0.0743139 12.4397)
(7.09494 -0.0131067 6.45755)
(7.65602 -0.00905108 -0.058181)
(9.12232 -0.289573 -9.26267)
(8.25926 -0.521715 -15.996)
(6.6039 -0.551255 -17.3575)
(4.12803 -0.474765 -14.0606)
(2.36998 -0.722284 -9.48455)
(0.53705 -0.732897 -4.56032)
(-0.240241 0.30761 -2.57332)
(-0.83635 0.345038 10.9611)
(0.12095 -0.0454705 12.9719)
(-2.01236 0.0726493 23.7254)
(15.5162 0.253295 9.09124)
(3.38449 0.0633142 17.8571)
(9.07897 -0.089021 12.3029)
(7.21843 -0.0108173 6.39825)
(7.85144 -0.0244282 -0.0946924)
(9.3249 -0.384595 -9.34139)
(8.35922 -0.65036 -16.0833)
(6.54499 -0.668359 -17.3706)
(3.89733 -0.570416 -13.9664)
(2.08084 -0.863151 -9.29853)
(-0.0410459 -0.544036 -4.19886)
(-1.03019 0.530461 1.13506)
(-0.714671 0.270532 12.7097)
(0.0736764 0.0117248 13.1549)
(-2.04651 0.0782627 23.5289)
(15.669 0.273938 8.9632)
(3.47189 0.0899492 17.6778)
(9.14441 -0.106552 12.1813)
(7.34455 -0.0224147 6.32873)
(8.05342 -0.0544125 -0.151885)
(9.50605 -0.492514 -9.43596)
(8.42556 -0.787407 -16.1714)
(6.46219 -0.779328 -17.3745)
(3.6701 -0.65581 -13.8722)
(1.86833 -0.926107 -9.14174)
(-0.224604 -0.257691 -3.91818)
(-0.737287 0.353546 2.42777)
(-0.678546 0.100247 13.5154)
(0.0751579 0.0626196 13.3894)
(-2.08474 0.0684592 23.369)
(15.8682 0.253136 8.78741)
(3.59798 0.102564 17.4347)
(9.21221 -0.100483 12.0383)
(7.49037 -0.0210033 6.24585)
(8.27456 -0.0588201 -0.247339)
(9.6619 -0.482838 -9.5659)
(8.45171 -0.759954 -16.2646)
(6.3518 -0.749511 -17.3592)
(3.45912 -0.668575 -13.7675)
(1.55421 -1.02877 -8.91769)
(-0.455031 -0.284521 -3.72101)
(-0.443184 0.49749 1.96651)
(-0.643164 0.0201032 14.1143)
(0.105748 0.0890403 13.3813)
(-2.13856 0.0511611 23.1054)
(16.008 0.25727 8.65428)
(3.69582 0.149712 17.2422)
(9.28536 -0.109766 11.8948)
(7.6284 -0.0343192 6.16591)
(8.46661 -0.0582824 -0.295105)
(9.8474 -0.527803 -9.62694)
(8.52572 -0.841529 -16.3379)
(6.2448 -0.81031 -17.3615)
(3.14347 -0.645836 -13.6644)
(1.01221 -0.972282 -8.5284)
(-1.5157 -0.249217 -2.17632)
(-0.113902 0.323058 4.03861)
(-0.621622 0.0248551 14.6664)
(0.123515 0.109277 12.7284)
(-2.12185 0.0466124 23.5401)
(16.2635 0.153409 8.40134)
(3.98842 0.108921 16.6978)
(9.46021 -0.0732356 11.5589)
(7.93471 -0.0417649 6.00657)
(8.93739 -0.0571454 -0.408397)
(10.2872 -0.36583 -9.8162)
(8.76604 -0.577303 -16.5215)
(6.19363 -0.538202 -17.3926)
(2.91589 -0.418734 -13.6127)
(0.988863 -0.636344 -8.56475)
(-1.41139 -0.241286 -1.89324)
(-0.0460305 0.119999 5.39371)
(-0.633659 0.0199701 14.2155)
(0.148854 0.0660554 11.8579)
(-2.12649 0.0266154 23.8004)
(25.6685 -0.162932 6.45563)
(16.8091 -0.401821 14.8919)
(21.0489 -0.161193 11.1576)
(23.1306 0.0253822 6.2491)
(23.7033 0.218834 -0.363208)
(22.9619 0.35448 -8.19572)
(19.1381 0.338045 -12.5975)
(13.3882 0.272614 -12.0746)
(7.21894 0.296987 -8.49477)
(3.43443 0.745984 -5.00769)
(-0.660312 0.479753 -0.341929)
(0.0546808 -0.196608 5.05735)
(-1.6877 -0.129871 14.4968)
(0.791034 -0.336622 12.2836)
(-6.34342 -0.0365679 24.0592)
(25.6502 -0.279515 6.59013)
(16.3888 -0.578601 15.3353)
(20.7527 -0.17626 11.5594)
(22.7584 0.0831372 6.56057)
(23.3216 0.366079 -0.0637258)
(22.7579 0.562443 -7.92691)
(19.2186 0.534193 -12.474)
(13.7421 0.443166 -12.143)
(7.70452 0.443152 -8.57451)
(3.60995 1.02184 -4.87454)
(-0.721486 0.517697 -0.429571)
(-0.198963 -0.510993 3.94503)
(-1.72086 -0.260032 14.8775)
(0.675804 -0.466644 13.1391)
(-6.31223 -0.0911212 23.7319)
(25.6261 -0.28607 6.67571)
(16.2859 -0.470737 15.5094)
(20.6802 -0.110526 11.7315)
(22.62 0.0950161 6.70607)
(23.1728 0.331417 0.0732308)
(22.6825 0.498447 -7.80813)
(19.2683 0.47445 -12.4173)
(13.9194 0.403607 -12.1798)
(8.02832 0.454681 -8.6473)
(4.07473 1.0557 -4.9844)
(0.184174 0.553543 -0.934733)
(-0.740034 -0.691888 2.31205)
(-1.85254 -0.255583 14.2687)
(0.677986 -0.387503 13.6954)
(-6.35293 -0.140158 23.2864)
(25.5673 -0.328052 6.79858)
(16.0826 -0.474198 15.7427)
(20.573 -0.107143 11.9236)
(22.4738 0.104414 6.85988)
(23.0365 0.347953 0.228258)
(22.6402 0.521343 -7.67799)
(19.3601 0.499278 -12.3749)
(14.1323 0.423121 -12.2442)
(8.30716 0.429813 -8.74559)
(4.39169 0.907506 -5.07254)
(0.606701 0.632715 -1.11999)
(-1.43565 -0.276032 3.37911)
(-1.99607 -0.401996 13.681)
(0.695395 -0.399307 13.6002)
(-6.18201 -0.18913 23.5137)
(25.5209 -0.325485 6.89608)
(15.9604 -0.380104 15.9175)
(20.4916 -0.0652243 12.0819)
(22.3402 0.0979953 6.99226)
(22.895 0.295515 0.362523)
(22.5721 0.440851 -7.55775)
(19.4098 0.423334 -12.3189)
(14.2953 0.361422 -12.2808)
(8.56327 0.362831 -8.83317)
(4.59269 0.780915 -5.09954)
(0.727192 1.08911 -1.08692)
(-1.78439 -0.0665673 3.1393)
(-2.19719 -0.857284 12.9334)
(0.740405 -0.279981 13.3008)
(-6.04902 -0.220868 23.6268)
(25.4708 -0.324432 6.98917)
(15.7615 -0.303531 16.1325)
(20.3456 -0.0464322 12.2608)
(22.162 0.0811511 7.12296)
(22.7087 0.238973 0.485581)
(22.4637 0.361886 -7.4412)
(19.4441 0.350322 -12.2559)
(14.4724 0.295998 -12.311)
(8.86158 0.29442 -8.93578)
(4.91688 0.632702 -5.16998)
(1.25128 1.32354 -1.1343)
(0.684191 0.528472 -1.1126)
(-2.5887 -0.948616 11.287)
(0.920751 -0.101203 13.0901)
(-5.9248 -0.203425 23.761)
(25.4042 -0.220785 7.03314)
(15.5094 -0.153151 16.327)
(20.1383 -0.0167729 12.4287)
(21.9358 0.0427402 7.23905)
(22.46 0.122957 0.58159)
(22.273 0.19235 -7.34276)
(19.397 0.188196 -12.1808)
(14.5865 0.156418 -12.3116)
(9.12091 0.152488 -9.01584)
(5.21367 0.3588 -5.23631)
(1.75246 0.813922 -1.35789)
(2.13895 0.217272 -1.77396)
(-2.96106 -0.485478 9.04567)
(0.949355 0.056103 13.2405)
(-5.90553 -0.108603 23.6233)
(25.3659 0.0207362 7.0291)
(15.403 0.010442 16.3789)
(20.0511 -0.00274106 12.4753)
(21.8474 -0.00659077 7.26872)
(22.3611 -0.0134628 0.600639)
(22.1873 -0.0222277 -7.32578)
(19.357 -0.0280164 -12.1669)
(14.5969 -0.0278859 -12.3141)
(9.17627 -0.0119561 -9.03978)
(5.26668 -0.00150929 -5.24207)
(1.92717 0.0214829 -1.45364)
(2.48494 0.121871 -1.6913)
(-3.15448 -0.0860348 7.96288)
(0.905861 -0.0112817 13.5386)
(-5.97706 0.00719728 23.3148)
(25.418 0.245485 7.01804)
(15.5418 0.170642 16.3021)
(20.1601 0.0143343 12.4134)
(21.9547 -0.0522896 7.22951)
(22.4788 -0.145372 0.570481)
(22.2852 -0.230624 -7.36085)
(19.3875 -0.234935 -12.1967)
(14.5449 -0.199811 -12.3112)
(9.05349 -0.169642 -9.00223)
(5.16128 -0.352222 -5.23156)
(1.7214 -0.746062 -1.37553)
(2.19305 -0.0245992 -1.67711)
(-2.99276 0.322444 8.86781)
(0.995997 -0.0723541 13.2117)
(-5.90345 0.120576 23.6383)
(25.481 0.332229 6.96923)
(15.7856 0.318119 16.1057)
(20.3624 0.0479557 12.2422)
(22.1809 -0.0865628 7.10881)
(22.7283 -0.256158 0.468706)
(22.4749 -0.392981 -7.46336)
(19.4342 -0.388162 -12.2708)
(14.4396 -0.330448 -12.3073)
(8.82067 -0.313414 -8.92564)
(4.91877 -0.63034 -5.18527)
(1.3616 -1.35486 -1.19928)
(1.25972 -0.30912 -1.62484)
(-2.6159 0.816714 11.1452)
(1.01454 0.102918 13.0671)
(-5.9233 0.216097 23.7857)
(25.5312 0.330906 6.87203)
(15.9829 0.393096 15.8875)
(20.5063 0.0682136 12.0595)
(22.3603 -0.101345 6.97329)
(22.9158 -0.309388 0.339875)
(22.5822 -0.467429 -7.58378)
(19.3995 -0.456919 -12.3331)
(14.2681 -0.394045 -12.2737)
(8.53929 -0.393387 -8.82447)
(4.61611 -0.818492 -5.1293)
(0.953254 -1.16944 -1.14497)
(-1.52904 0.0106017 2.13219)
(-2.2364 0.93192 12.8431)
(0.86839 0.295617 13.296)
(-6.05331 0.246126 23.6603)
(25.578 0.331007 6.77233)
(16.1058 0.484893 15.7104)
(20.5871 0.111599 11.8978)
(22.4956 -0.105339 6.83628)
(23.0586 -0.358445 0.200518)
(22.6497 -0.54429 -7.70703)
(19.3479 -0.530463 -12.3884)
(14.1022 -0.456615 -12.2343)
(8.28101 -0.473468 -8.73768)
(4.4191 -0.980675 -5.09955)
(0.769353 -0.650083 -1.10844)
(-1.36862 0.318129 3.27392)
(-1.99633 0.574405 13.728)
(0.754234 0.415142 13.6425)
(-6.19708 0.221112 23.5451)
(25.6373 0.288003 6.64823)
(16.3109 0.479585 15.4744)
(20.6946 0.115146 11.7018)
(22.6437 -0.0949104 6.67742)
(23.196 -0.339361 0.0396013)
(22.6904 -0.517153 -7.84136)
(19.2524 -0.501182 -12.4313)
(13.8864 -0.435741 -12.1692)
(7.99925 -0.506606 -8.64335)
(4.08746 -1.13406 -5.00442)
(0.256076 -0.571408 -0.868809)
(-0.758555 0.635471 2.52602)
(-1.84045 0.313643 14.3263)
(0.723105 0.403566 13.7683)
(-6.377 0.16372 23.3144)
(25.6615 0.28046 6.5621)
(16.4149 0.586217 15.2985)
(20.7674 0.181773 11.5267)
(22.7838 -0.0816339 6.52811)
(23.3463 -0.372118 -0.101476)
(22.7654 -0.578769 -7.9631)
(19.2004 -0.560603 -12.4882)
(13.6989 -0.477344 -12.1312)
(7.65306 -0.498163 -8.57429)
(3.59653 -1.09049 -4.88821)
(-0.703871 -0.505341 -0.331759)
(-0.16455 0.527569 4.11)
(-1.70973 0.30471 14.9213)
(0.71874 0.486344 13.2366)
(-6.34485 0.110438 23.7524)
(25.6796 0.163162 6.42834)
(16.8368 0.406111 14.8539)
(21.0645 0.165212 11.1215)
(23.1576 -0.0235562 6.21162)
(23.7277 -0.221528 -0.407789)
(22.9662 -0.36421 -8.23856)
(19.112 -0.355267 -12.6144)
(13.3283 -0.2975 -12.0669)
(7.16082 -0.345419 -8.51535)
(3.42971 -0.799696 -5.03539)
(-0.638497 -0.47695 -0.241759)
(0.122862 0.227498 5.21041)
(-1.6796 0.155584 14.5522)
(0.841228 0.34687 12.4096)
(-6.38397 0.046941 24.0816)
(25.4112 -0.0270769 1.99946)
(19.4217 -0.32444 9.12148)
(22.132 -0.306288 7.58278)
(25.7789 -0.184451 3.97661)
(25.6169 -0.0832878 -0.990211)
(22.9289 -0.0201491 -5.65775)
(17.6523 0.0174261 -7.47263)
(11.6438 0.100379 -6.2741)
(6.04006 0.240665 -3.79264)
(3.67527 0.858238 -2.07885)
(-0.858862 0.605232 2.13107)
(1.35693 -0.146408 5.03442)
(-3.0744 -0.493232 15.714)
(2.22437 -0.526915 13.5655)
(-10.8456 -0.160373 24.4469)
(25.4175 -0.0522071 2.03993)
(19.2995 -0.472588 9.44142)
(22.0878 -0.390844 7.95007)
(25.7614 -0.198062 4.32833)
(25.6801 -0.0482782 -0.698783)
(23.1439 0.0361156 -5.49543)
(18.0106 0.0801969 -7.47581)
(12.08 0.187862 -6.37615)
(6.42478 0.324908 -3.73653)
(3.57263 1.09069 -1.66477)
(-1.14136 0.666517 2.31484)
(1.11645 -0.329761 4.03537)
(-3.2612 -1.07151 15.9872)
(2.52195 -0.716708 14.0274)
(-10.7401 -0.309007 24.1568)
(25.4177 -0.0584608 2.07574)
(19.3214 -0.401262 9.5694)
(22.1389 -0.3063 8.0876)
(25.7937 -0.141472 4.46567)
(25.735 -0.0157084 -0.585601)
(23.2523 0.0558154 -5.43415)
(18.1677 0.0931856 -7.48217)
(12.2721 0.187171 -6.43841)
(6.69503 0.352247 -3.7667)
(3.8725 1.1352 -1.60697)
(-0.352732 0.74931 2.05867)
(1.65709 -0.426951 1.01503)
(-3.46685 -1.02909 15.171)
(2.48194 -0.612522 14.57)
(-10.7677 -0.459142 23.7291)
(25.4133 -0.0695714 2.13264)
(19.2726 -0.417691 9.77494)
(22.1565 -0.320721 8.29377)
(25.8254 -0.144875 4.65052)
(25.8111 -0.00966796 -0.442376)
(23.406 0.064831 -5.36799)
(18.3972 0.102496 -7.50303)
(12.5396 0.194905 -6.51932)
(6.97138 0.321605 -3.82987)
(4.15479 0.967229 -1.62837)
(0.306456 0.885977 1.80331)
(1.16057 -0.277561 1.26924)
(-3.81429 -0.950253 14.6145)
(2.91331 -0.678236 14.0998)
(-10.4789 -0.663149 24.0307)
(25.4137 -0.0726772 2.18682)
(19.2787 -0.342865 9.91707)
(22.1965 -0.244981 8.44033)
(25.8546 -0.0945176 4.79093)
(25.8639 0.0191282 -0.329207)
(23.514 0.0767599 -5.31012)
(18.5573 0.0985214 -7.5106)
(12.7301 0.165962 -6.58038)
(7.20159 0.247703 -3.89408)
(4.3087 0.74494 -1.60106)
(0.485897 1.19353 1.78882)
(1.58431 0.552203 0.415786)
(-4.22237 -1.13882 13.8654)
(3.58835 -0.52926 13.1663)
(-10.2175 -0.729087 24.2278)
(25.421 -0.0812175 2.2436)
(19.2388 -0.285457 10.0817)
(22.184 -0.202667 8.6167)
(25.8433 -0.0770493 4.95557)
(25.8851 0.0206467 -0.195335)
(23.6104 0.0682659 -5.23314)
(18.734 0.0792434 -7.50343)
(12.9514 0.124725 -6.63693)
(7.45792 0.175123 -3.97525)
(4.48301 0.544724 -1.60078)
(0.607908 1.16303 1.67582)
(3.28963 0.863812 -0.749457)
(-4.68823 -1.02333 12.2799)
(4.2042 -0.33909 12.3827)
(-10.0011 -0.609411 24.3858)
(25.4276 -0.0690268 2.29709)
(19.1516 -0.153758 10.2249)
(22.1022 -0.099663 8.77687)
(25.7641 -0.0314933 5.10836)
(25.8329 0.0224589 -0.0655249)
(23.6345 0.0468327 -5.14624)
(18.8475 0.0456502 -7.47403)
(13.122 0.061369 -6.67206)
(7.67107 0.0736956 -4.04321)
(4.57808 0.291394 -1.59443)
(0.730572 0.63783 1.56088)
(3.96698 0.518609 -0.757482)
(-5.00642 -0.567829 10.364)
(4.13683 -0.153282 12.5501)
(-9.96873 -0.264605 24.1509)
(25.4212 -0.00225853 2.31691)
(19.0816 0.00875543 10.2772)
(22.0347 0.00472289 8.83069)
(25.7059 -0.00172604 5.15502)
(25.7877 -0.00647968 -0.0300768)
(23.6206 -0.0112601 -5.12389)
(18.8705 -0.0164251 -7.46615)
(13.1649 -0.0177752 -6.68343)
(7.72417 -0.00340641 -4.06558)
(4.53912 0.0102438 -1.57941)
(0.726945 -0.0189857 1.56462)
(4.00974 0.200992 -0.643389)
(-5.11277 -0.0729566 9.58281)
(3.79163 -0.00432222 13.1451)
(-10.0514 0.0168266 23.7547)
(25.4229 0.069073 2.28268)
(19.1468 0.168422 10.2099)
(22.0943 0.105872 8.76322)
(25.7569 0.0266871 5.09541)
(25.8241 -0.0355145 -0.0785238)
(23.6182 -0.0682024 -5.15712)
(18.8162 -0.0742324 -7.47789)
(13.0748 -0.08947 -6.66611)
(7.6198 -0.0778563 -4.03809)
(4.55676 -0.270726 -1.61769)
(0.756109 -0.588136 1.53982)
(3.98142 -0.225072 -0.79144)
(-5.03474 0.468361 10.1996)
(4.2913 0.151737 12.4277)
(-9.97205 0.303905 24.2144)
(25.4192 0.0832991 2.22925)
(19.2393 0.29599 10.0598)
(22.1782 0.20639 8.5967)
(25.8368 0.0723201 4.93743)
(25.875 -0.0323081 -0.211237)
(23.5894 -0.0876851 -5.2442)
(18.6988 -0.104794 -7.50502)
(12.9095 -0.149764 -6.62914)
(7.42898 -0.184968 -3.97759)
(4.51469 -0.538427 -1.65291)
(0.74069 -1.06697 1.59596)
(3.6164 -0.630533 -0.947062)
(-4.69761 0.954559 12.1003)
(4.40431 0.349603 12.2665)
(-10.0164 0.665241 24.471)
(25.4114 0.0723529 2.17099)
(19.2795 0.351002 9.8896)
(22.1895 0.248567 8.41529)
(25.8471 0.0910667 4.76811)
(25.8514 -0.0285785 -0.348104)
(23.4893 -0.0938394 -5.3213)
(18.5209 -0.122289 -7.50961)
(12.6946 -0.191599 -6.5705)
(7.19215 -0.271266 -3.90328)
(4.38737 -0.78073 -1.67666)
(0.736777 -1.18331 1.70823)
(2.36257 -0.685651 -0.329357)
(-4.22509 1.26185 13.7641)
(3.782 0.548797 13.1277)
(-10.2477 0.807025 24.3162)
(25.4112 0.069301 2.116)
(19.2724 0.423951 9.74469)
(22.1468 0.323591 8.26573)
(25.8155 0.141868 4.62421)
(25.7957 0.00109092 -0.462993)
(23.3777 -0.0817161 -5.37884)
(18.3573 -0.127619 -7.49971)
(12.5014 -0.225482 -6.50769)
(6.96527 -0.364264 -3.84572)
(4.23487 -1.04221 -1.70704)
(0.526556 -0.944834 1.72358)
(1.2748 0.14377 1.39811)
(-3.82558 1.18483 14.7298)
(2.97859 0.705739 14.1542)
(-10.5288 0.741503 24.1005)
(25.4158 0.0581528 2.05858)
(19.321 0.405695 9.53615)
(22.1276 0.30866 8.05601)
(25.7816 0.139348 4.43514)
(25.7158 0.00888929 -0.609175)
(23.2179 -0.0700762 -5.44612)
(18.1209 -0.115468 -7.47738)
(12.2302 -0.218893 -6.42655)
(6.69019 -0.408323 -3.79071)
(3.9401 -1.22772 -1.68394)
(-0.184075 -0.770186 2.04007)
(1.56954 0.375887 1.38668)
(-3.46004 1.10327 15.3068)
(2.52321 0.646661 14.6626)
(-10.8345 0.514742 23.793)
(25.416 0.0519136 2.0226)
(19.2991 0.475615 9.40627)
(22.0753 0.392863 7.91628)
(25.748 0.196333 4.29533)
(25.6587 0.0421529 -0.724237)
(23.1061 -0.0502908 -5.50815)
(17.9594 -0.10562 -7.46901)
(12.027 -0.226485 -6.36405)
(6.4007 -0.390995 -3.77277)
(3.62349 -1.18363 -1.74911)
(-1.05445 -0.652259 2.37378)
(1.23439 0.389458 4.03172)
(-3.23728 1.12155 16.0597)
(2.55602 0.781324 14.1619)
(-10.8221 0.350503 24.2084)
(25.4101 0.0268505 1.98224)
(19.4213 0.325756 9.08478)
(22.1182 0.307514 7.5463)
(25.7632 0.183674 3.93996)
(25.5904 0.0797263 -1.01966)
(22.8841 0.0105431 -5.67222)
(17.5885 -0.0353967 -7.46412)
(11.5703 -0.131061 -6.26955)
(6.01387 -0.303811 -3.86614)
(3.72538 -0.935208 -2.18187)
(-0.770962 -0.606958 2.18378)
(1.43808 0.203861 5.20497)
(-3.04074 0.539985 15.7914)
(2.24292 0.577221 13.7365)
(-10.9459 0.180326 24.5149)
(26.5731 -0.00614698 1.66098)
(17.898 -0.152356 5.47048)
(18.0826 -0.21898 5.0724)
(21.7167 -0.211704 3.30763)
(21.0406 -0.18605 1.08843)
(18.5236 -0.114307 -0.95857)
(14.7066 -0.0238659 -1.74475)
(10.8774 0.110945 -1.21368)
(7.04301 0.255028 -0.18637)
(6.05225 0.893004 0.306355)
(1.00692 0.822445 3.85368)
(4.02221 0.0454425 5.01417)
(-5.00319 -1.07391 18.4347)
(6.7306 -0.165299 14.7471)
(-15.6404 -0.403924 25.4132)
(26.5491 -0.013093 1.66291)
(17.8539 -0.228353 5.60982)
(18.1292 -0.294807 5.25712)
(21.8255 -0.265927 3.48055)
(21.2198 -0.220812 1.2071)
(18.7608 -0.119606 -0.892926)
(14.9703 0.00656463 -1.74703)
(11.1211 0.185496 -1.19698)
(7.19391 0.320143 0.111015)
(5.83758 1.12501 0.903015)
(0.79567 1.15408 4.13133)
(4.06834 0.227875 3.86825)
(-5.36572 -1.91006 18.1641)
(7.39836 -0.610993 14.9159)
(-15.5884 -0.618294 25.504)
(26.5331 -0.017323 1.66669)
(17.8829 -0.202753 5.66378)
(18.2029 -0.244228 5.31362)
(21.9055 -0.213453 3.53408)
(21.3197 -0.170708 1.24145)
(18.875 -0.0827525 -0.876809)
(15.0852 0.0246284 -1.7621)
(11.2345 0.177385 -1.22367)
(7.36868 0.330567 0.179883)
(6.01274 1.14306 1.12282)
(1.90404 1.32431 3.81984)
(5.45624 0.36904 1.86236)
(-5.31213 -1.61393 16.9969)
(7.163 -0.888148 15.409)
(-15.5563 -0.837625 25.1353)
(26.5132 -0.0211853 1.67114)
(17.8678 -0.212581 5.76725)
(18.2553 -0.259108 5.4377)
(21.9931 -0.225974 3.64581)
(21.4519 -0.178243 1.31613)
(19.0432 -0.0899883 -0.838091)
(15.2718 0.0244295 -1.75849)
(11.4132 0.180073 -1.23582)
(7.55012 0.304859 0.216465)
(6.18439 0.932633 1.22715)
(2.57056 1.26665 3.59352)
(5.98764 0.377406 1.41215)
(-5.56075 -1.32775 16.3379)
(8.1372 -0.896391 14.3977)
(-15.1232 -1.32156 25.6067)
(26.4969 -0.0225846 1.67616)
(17.8896 -0.174465 5.83237)
(18.3244 -0.203969 5.51012)
(22.0745 -0.171677 3.71176)
(21.5576 -0.130354 1.35869)
(19.1648 -0.0629344 -0.822035)
(15.3949 0.0243979 -1.7674)
(11.5314 0.142956 -1.25858)
(7.69052 0.224954 0.229701)
(6.26925 0.650634 1.3511)
(2.61418 1.16852 3.66402)
(6.38415 0.84761 1.31451)
(-5.85052 -1.23147 15.4634)
(9.58992 -0.754115 12.5895)
(-14.7131 -1.42853 26.0408)
(26.4829 -0.0233935 1.68108)
(17.894 -0.1444 5.90562)
(18.3721 -0.17154 5.60344)
(22.1441 -0.145869 3.80191)
(21.6623 -0.111361 1.4228)
(19.2982 -0.0614104 -0.789133)
(15.5413 0.00645563 -1.76312)
(11.6712 0.0981671 -1.27579)
(7.83092 0.14938 0.234715)
(6.31674 0.424044 1.47429)
(2.45685 0.940645 3.79567)
(6.7824 0.895781 1.31554)
(-5.88891 -1.10652 13.5782)
(10.184 -0.690447 11.3441)
(-14.083 -1.18713 26.1044)
(26.4759 -0.0233633 1.6887)
(17.899 -0.0805231 5.95934)
(18.3994 -0.0892429 5.67668)
(22.1859 -0.0734836 3.87718)
(21.734 -0.0539188 1.47851)
(19.3959 -0.0316538 -0.760614)
(15.6503 -0.00155046 -1.76077)
(11.7767 0.0417195 -1.29892)
(7.93117 0.0535651 0.229583)
(6.27013 0.195626 1.60125)
(2.26517 0.503914 4.01274)
(6.98431 0.63706 1.51369)
(-5.73311 -0.655413 11.6284)
(10.1636 -0.494497 11.0204)
(-13.6483 -0.552857 25.6964)
(26.4694 -0.00833927 1.69373)
(17.8734 0.00031353 5.98369)
(18.3809 0.00287712 5.70748)
(22.1803 -0.000102028 3.90745)
(21.7462 -0.00253271 1.50248)
(19.425 -0.00842441 -0.744477)
(15.6881 -0.0149923 -1.75407)
(11.8133 -0.0156342 -1.30594)
(7.95947 -0.00218347 0.224959)
(6.18787 0.0113948 1.65846)
(2.09876 -0.015746 4.16842)
(6.92391 0.131708 1.67723)
(-5.67492 0.0337292 10.9365)
(9.92911 -0.0139769 11.31)
(-13.6287 0.0735766 25.2969)
(26.4722 0.018332 1.68632)
(17.875 0.0834083 5.95611)
(18.3718 0.0912282 5.67159)
(22.1636 0.0689946 3.87075)
(21.7143 0.0449382 1.47394)
(19.3777 0.0131989 -0.761444)
(15.6287 -0.0257353 -1.76043)
(11.7529 -0.0674884 -1.3004)
(7.91522 -0.0572971 0.215863)
(6.29535 -0.181673 1.55032)
(2.36125 -0.492737 3.9545)
(7.01484 -0.421115 1.51438)
(-5.60736 0.739229 11.4356)
(10.2785 0.483282 10.8979)
(-13.647 0.685007 25.7887)
(26.4855 0.0264021 1.67762)
(17.8871 0.148333 5.89515)
(18.3526 0.170487 5.59273)
(22.1223 0.138045 3.7916)
(21.6373 0.0985953 1.41571)
(19.2719 0.0406705 -0.791916)
(15.5143 -0.0333086 -1.76463)
(11.651 -0.123421 -1.28052)
(7.83388 -0.161029 0.207947)
(6.37701 -0.431196 1.39639)
(2.62257 -0.910761 3.69987)
(6.91983 -0.71808 1.31064)
(-5.75611 1.22226 13.3296)
(10.3278 0.724512 11.2741)
(-14.0986 1.30097 26.2117)
(26.4982 0.0215838 1.67306)
(17.8891 0.177034 5.81715)
(18.3107 0.203481 5.49411)
(22.0553 0.165093 3.69694)
(21.532 0.118224 1.34846)
(19.136 0.0426526 -0.827212)
(15.3683 -0.050418 -1.7705)
(11.5182 -0.169724 -1.26633)
(7.71307 -0.249596 0.18949)
(6.35985 -0.694128 1.24975)
(2.8409 -1.17557 3.53693)
(6.59279 -0.825777 1.30051)
(-5.79383 1.41963 15.3896)
(9.74333 0.817516 12.5929)
(-14.7795 1.5401 26.1587)
(26.5137 0.0199801 1.66766)
(17.8655 0.21393 5.74952)
(18.2399 0.257709 5.41885)
(21.9729 0.219079 3.62836)
(21.4255 0.165519 1.30408)
(19.0138 0.0684086 -0.8446)
(15.2448 -0.0527208 -1.76227)
(11.4007 -0.21306 -1.24665)
(7.58098 -0.347253 0.162424)
(6.27952 -1.01127 1.11715)
(2.76195 -1.28713 3.47926)
(5.99988 -0.396624 1.51886)
(-5.59595 1.53281 16.4934)
(8.25763 0.96408 14.4612)
(-15.2256 1.42921 25.7057)
(26.5339 0.0166714 1.66281)
(17.879 0.203047 5.6441)
(18.1843 0.242465 5.29226)
(21.8817 0.207339 3.51386)
(21.2885 0.159619 1.22648)
(18.8399 0.0637041 -0.886328)
(15.053 -0.0496664 -1.76716)
(11.2212 -0.212226 -1.23872)
(7.40452 -0.386177 0.111452)
(6.09985 -1.24083 1.01045)
(2.05127 -1.32247 3.74823)
(5.4266 -0.246278 2.00863)
(-5.3594 1.72087 17.1902)
(7.27434 0.944614 15.5059)
(-15.6957 0.933389 25.2273)
(26.5504 0.0128629 1.65874)
(17.8503 0.227913 5.58866)
(18.1095 0.292426 5.23421)
(21.8001 0.25952 3.45891)
(21.1861 0.20957 1.19078)
(18.7234 0.0989898 -0.903833)
(14.9352 -0.0359873 -1.75078)
(11.1009 -0.228892 -1.21755)
(7.2173 -0.386711 0.0181466)
(5.9102 -1.23203 0.776403)
(0.878978 -1.14358 4.13072)
(4.12792 -0.077251 3.94944)
(-5.39117 1.96817 18.2889)
(7.44541 0.677575 15.0977)
(-15.7575 0.733114 25.5661)
(26.5747 0.00608054 1.65658)
(17.8943 0.151759 5.448)
(18.0615 0.217131 5.04748)
(21.6887 0.207297 3.28381)
(21.0023 0.178225 1.06904)
(18.4797 0.0992712 -0.972816)
(14.6608 0.00238407 -1.74965)
(10.844 -0.147315 -1.25681)
(7.06943 -0.32308 -0.338989)
(6.11643 -0.991237 0.161035)
(1.03502 -0.833028 3.8993)
(3.98574 0.0585067 5.2929)
(-4.98179 1.10942 18.5347)
(6.56211 0.227251 15.1103)
(-15.8342 0.47789 25.4445)
(27.9155 -0.00703073 1.89691)
(17.7148 -0.0651296 4.14042)
(15.5891 -0.100607 4.02237)
(18.6271 -0.103523 3.14525)
(17.7162 -0.0847331 1.97339)
(16.0104 -0.0186223 0.850776)
(13.8384 0.043679 0.490153)
(11.6675 0.175092 0.907263)
(8.88107 0.35568 1.62904)
(8.55671 0.942244 2.28198)
(3.13836 0.895324 5.62219)
(7.08544 0.0673248 6.75032)
(-6.36707 -2.19666 20.1887)
(13.4931 -0.433565 15.9673)
(-21.7266 -0.270657 29.0427)
(27.9077 -0.0122304 1.90166)
(17.6704 -0.100075 4.19446)
(15.5869 -0.137131 4.09988)
(18.6633 -0.129495 3.2248)
(17.7894 -0.0964791 2.04823)
(16.1009 -0.00438911 0.920661)
(13.9598 0.0862653 0.52782)
(11.7925 0.253583 1.00848)
(8.99125 0.422507 2.02447)
(8.44804 1.1481 2.861)
(3.46495 1.26741 5.63546)
(7.3444 0.281799 5.53349)
(-6.05467 -2.70923 18.8608)
(11.4541 -1.07099 17.5922)
(-21.941 -0.528592 28.9427)
(27.9003 -0.0141743 1.90537)
(17.6757 -0.0919927 4.21839)
(15.6202 -0.116499 4.1235)
(18.7021 -0.105723 3.24627)
(17.8367 -0.0755306 2.06663)
(16.1479 0.00273499 0.936637)
(14.0171 0.0804528 0.523743)
(11.858 0.2144 1.01347)
(9.12521 0.390946 2.14733)
(8.62717 1.0678 3.04214)
(4.57625 1.37999 5.16404)
(8.83061 0.47675 4.23324)
(-5.68263 -1.6952 17.5401)
(11.8785 -1.53985 17.4065)
(-21.9454 -1.09075 28.8834)
(27.8922 -0.0171288 1.91077)
(17.649 -0.0956855 4.26334)
(15.6285 -0.124313 4.18385)
(18.7354 -0.115228 3.30843)
(17.8963 -0.0829651 2.12367)
(16.2207 -0.00338585 0.985042)
(14.1066 0.0849678 0.554737)
(11.954 0.211223 1.04218)
(9.22816 0.353116 2.22841)
(8.75066 0.85231 3.14138)
(5.08455 1.24232 4.9129)
(9.46569 0.62303 3.74685)
(-5.75608 -1.29843 17.0496)
(14.2952 -1.58104 15.4353)
(-21.3183 -1.67212 29.6566)
(27.8844 -0.0176208 1.91566)
(17.6468 -0.0775953 4.29157)
(15.6551 -0.0974823 4.21544)
(18.773 -0.0889723 3.33812)
(17.9463 -0.0626719 2.14785)
(16.2731 -0.00173416 1.00213)
(14.1618 0.0677753 0.562603)
(12.0186 0.157629 1.05023)
(9.30679 0.258403 2.28323)
(8.81962 0.591299 3.2748)
(5.11166 1.0467 5.00078)
(9.82749 0.998099 3.67545)
(-5.36847 -1.03304 16.0525)
(16.0205 -1.71501 13.3025)
(-20.4985 -1.7329 30.0577)
(27.8773 -0.0174695 1.921)
(17.6341 -0.0617098 4.32164)
(15.6675 -0.0813338 4.25491)
(18.8029 -0.0790014 3.37959)
(17.9942 -0.0599511 2.18403)
(16.3294 -0.0137793 1.03062)
(14.2237 0.0444347 0.583663)
(12.0876 0.111373 1.0655)
(9.37067 0.175983 2.33709)
(8.85745 0.395834 3.42185)
(5.01362 0.773577 5.22796)
(10.1052 1.11478 3.73139)
(-4.10353 -0.929375 13.9154)
(16.3604 -1.48516 11.6926)
(-19.0032 -1.53174 29.6785)
(27.8713 -0.0161385 1.92573)
(17.6339 -0.0343386 4.33924)
(15.6852 -0.0434253 4.27708)
(18.8314 -0.0435423 3.40278)
(18.0344 -0.0347958 2.20184)
(16.3708 -0.013998 1.04115)
(14.265 0.0152541 0.591192)
(12.1341 0.04718 1.06642)
(9.40606 0.0671688 2.37824)
(8.81309 0.19109 3.59301)
(4.96575 0.39189 5.51445)
(10.2546 0.812758 4.05371)
(-2.36821 -0.488836 11.6325)
(16.5007 -0.688603 10.3416)
(-17.9709 -0.833421 29.1914)
(27.8653 -0.00900224 1.9302)
(17.6223 -0.00465954 4.34824)
(15.6797 -0.00263634 4.28795)
(18.8343 -0.00528691 3.41533)
(18.0455 -0.00844513 2.21344)
(16.3853 -0.0145761 1.04929)
(14.2823 -0.0179736 0.596486)
(12.1546 -0.0163438 1.06422)
(9.41795 -0.00928979 2.38713)
(8.75261 0.00110249 3.66205)
(4.90777 -0.0160679 5.67392)
(10.1869 0.0759715 4.29187)
(-1.50857 0.127756 10.7696)
(16.5182 0.0355823 9.95878)
(-17.9996 0.14562 28.9883)
(27.8667 0.00711783 1.92729)
(17.6165 0.0271835 4.33927)
(15.6648 0.03631 4.27493)
(18.8162 0.0309622 3.40002)
(18.0227 0.0167536 2.20046)
(16.3612 -0.0136805 1.03872)
(14.2579 -0.0473536 0.584258)
(12.1287 -0.07581 1.05317)
(9.41395 -0.0866806 2.34537)
(8.84993 -0.197995 3.52526)
(5.05953 -0.406252 5.42767)
(10.2772 -0.691471 4.0423)