/*--------------------------------*- C++ -*----------------------------------*\
| =========                 |                                                 |
| \\      /  F ield         | OpenFOAM: The Open Source CFD Toolbox           |
|  \\    /   O peration     | Version:  4.1                                   |
|   \\  /    A nd           | Web:      www.OpenFOAM.org                      |
|    \\/     M anipulation  |                                                 |
\*---------------------------------------------------------------------------*/
FoamFile
{
    version     2.0;
    format      ascii;
    class       volScalarField;
    location    "1073";
    object      p;
}
// * * * * * * * * * * * * * * * * * * * * * * * * * * * * * * * * * * * * * //

dimensions      [0 2 -2 0 0 0 0];

internalField   nonuniform List<scalar> 
204246
(
136.337
-10.289
41.9309
21.1445
18.8211
25.0741
13.7969
25.2086
12.2297
25.0398
11.4316
25.6128
9.76087
25.8602
10.932
23.1875
17.3513
11.7574
24.0899
9.2631
25.3244
9.63363
23.9545
10.4115
23.8445
10.2369
24.7513
8.47454
25.6902
8.21941
25.7028
8.67555
24.7999
11.2148
20.928
17.4796
10.629
23.1934
9.30788
22.8309
9.66319
22.9068
9.34199
23.7898
7.50784
24.6039
7.30739
24.2415
8.41073
21.8708
10.5738
19.1182
16.1152
8.73157
21.2748
6.99784
20.2885
6.66562
19.4739
5.33614
19.0067
2.31409
17.5209
1.46865
13.8261
0.10684
8.72187
-2.20824
2.95989
-1.81525
-9.07017
-6.51285
-15.1468
-10.9479
-21.719
-15.7992
-28.6385
-19.406
-36.2582
-21.2257
-38.5579
-22.2589
-36.1898
-24.2485
-31.1341
-22.2731
-21.9283
-23.5468
-14.2705
-19.1679
-7.2882
-15.3023
-0.171489
-14.2687
3.28936
-12.9866
4.67177
-12.6144
4.32669
-12.3742
1.32796
-12.6248
-1.36719
-13.3083
-5.11829
-11.8258
-17.1817
-9.09243
-21.8103
-9.24942
-26.1791
-10.1746
-27.4747
-11.9657
-28.4543
-12.7317
-29.0484
-13.0202
-28.9005
-13.392
-27.1999
-15.6434
-20.896
-25.5974
-14.0527
-27.6816
-12.0902
-27.8397
-11.2984
-27.5729
-10.8177
-27.2183
-10.4407
-26.8558
-10.1171
-26.088
-10.3749
-24.2056
-12.658
-17.8664
-22.7924
-11.2432
-24.898
-9.47183
-25.0237
-8.6518
-24.8169
-8.11738
-24.3593
-7.59058
-23.6884
-7.03139
-22.5852
-6.70441
-20.0351
-8.21474
-12.8364
-16.9546
-4.93712
-17.5086
-1.46908
-15.4605
0.951885
-11.8048
3.62004
-7.14396
7.49664
-1.39
12.6044
5.59438
18.9112
14.5731
26.8944
26.1289
36.3853
42.9086
45.1483
59.0049
63.5415
76.8495
86.5965
99.9683
114.308
129.211
149.148
166.979
195.265
217.924
261.824
290.77
378.501
394.424
601.465
44.5616
21.4018
20.8556
24.7899
17.9756
22.401
16.9406
21.1853
16.2457
20.6526
15.7181
20.5996
15.5519
19.5794
16.8798
17.3434
20.0255
14.3984
19.8532
14.5853
19.5154
15.1292
19.1356
15.0026
19.3364
14.66
19.8453
14.2633
19.6933
14.3944
19.3482
14.9271
18.3247
16.4739
16.3164
19.3331
13.8368
18.8108
14.302
18.3594
14.1689
18.5034
13.791
18.9283
13.3658
18.6249
13.5515
17.9771
14.2955
16.7708
15.2264
14.8623
17.9197
12.2371
17.0988
12.368
16.1944
11.6926
15.6061
10.5229
14.8258
9.02701
12.7001
7.44288
10.4779
5.74123
6.81171
3.34218
1.50752
2.16334
-4.44258
-4.94176
-10.2844
-11.3638
-16.3223
-17.2085
-22.8137
-22.245
-28.6897
-26.9177
-31.6004
-29.6612
-31.2823
-29.2332
-29.7435
-28.1099
-23.2955
-24.2816
-18.4082
-17.9421
-12.5256
-13.6162
-7.46755
-9.35764
-4.02979
-7.15434
-2.1594
-6.15727
-1.97559
-6.01479
-3.25554
-7.14092
-5.29683
-8.23415
-8.852
-8.03562
-13.761
-11.387
-16.8029
-13.3851
-19.4708
-15.8559
-21.111
-17.5672
-22.5215
-18.4817
-23.3341
-18.9891
-23.2587
-19.6231
-21.8464
-21.2151
-18.6501
-23.4991
-18.1186
-23.0567
-17.6128
-22.5655
-17.1458
-22.1337
-16.7481
-21.734
-16.4252
-21.3008
-16.2959
-20.5342
-16.6622
-18.8974
-18.2615
-15.6738
-20.6231
-15.3165
-20.2953
-14.9662
-19.9103
-14.5359
-19.5029
-14.1447
-19.0366
-13.7268
-18.4114
-13.3412
-17.3694
-13.2891
-15.2028
-14.1793
-11.3454
-15.5156
-9.84751
-13.8396
-8.03522
-11.5158
-5.74905
-8.7853
-2.83998
-5.35798
0.860741
-0.845175
5.59683
4.96234
10.9953
12.7066
17.9402
22.4756
26.1133
34.8633
38.5534
47.6275
54.1897
63.7103
73.3946
83.8531
96.8904
108.475
125.652
138.467
161.674
175.101
210.353
216.996
291.718
257.158
391.837
19.3965
27.5411
23.2171
24.2713
20.1507
22.1856
17.8549
21.2591
16.6882
20.745
16.0825
20.3833
15.9123
19.5887
16.7031
17.9444
18.4388
15.8624
19.1319
15.1028
19.3739
15.0275
19.274
14.9526
19.3184
14.7597
19.5152
14.4965
19.5286
14.5232
19.2977
14.9611
18.5169
16.0844
16.8667
17.7203
15.0698
18.2329
14.4962
18.3553
14.1982
18.4429
13.9017
18.5823
13.5863
18.4602
13.6155
17.9959
14.0642
17.0202
14.8914
15.3827
16.2994
13.4194
16.5065
12.5126
16.193
11.7128
15.5976
10.6496
14.7063
9.268
13.1136
8.09004
10.2069
6.55115
6.44845
4.2651
1.62852
0.746806
-3.33051
-4.35828
-9.06627
-10.4782
-15.1034
-17.0338
-21.5432
-23.1994
-27.5803
-27.8009
-31.3123
-30.4095
-32.0989
-30.6925
-29.8289
-28.7609
-25.066
-24.4921
-19.518
-18.4324
-13.3615
-12.3428
-7.7883
-8.57427
-3.9669
-6.27923
-1.86564
-5.48795
-1.42649
-5.58799
-2.5298
-6.58882
-4.73989
-7.46374
-8.30522
-8.90788
-12.4372
-11.3639
-15.8474
-13.5648
-18.7791
-15.6251
-20.8649
-17.3152
-22.3878
-18.3127
-23.2686
-18.8919
-23.2617
-19.4996
-22.1876
-20.6749
-20.0652
-22.2161
-18.7635
-22.5955
-17.8018
-22.4374
-17.1663
-22.0769
-16.6985
-21.6559
-16.3415
-21.1641
-16.1673
-20.4134
-16.434
-19.0819
-17.5629
-16.9638
-19.2407
-15.8033
-19.7355
-15.0002
-19.6785
-14.4597
-19.3789
-14.024
-18.9408
-13.6012
-18.3113
-13.2233
-17.2924
-13.1155
-15.4333
-13.6191
-12.5391
-14.2669
-10.349
-13.4323
-8.06897
-11.5774
-5.8223
-8.66954
-3.25604
-4.78444
0.223511
-0.00820699
4.86886
5.95019
10.8976
13.4066
18.4013
22.921
28.015
34.5308
39.5538
48.5569
55.1693
65.4028
75.0735
86.3303
99.8772
112.401
130.982
144.86
170.514
185.195
224.898
232.821
308.981
287.71
376.491
3.4104
18.6327
14.5499
20.8753
16.8956
20.4433
17.415
19.7077
17.322
19.071
17.2868
18.6193
17.4903
17.7948
18.1873
16.7496
18.9718
16.2588
18.3683
16.438
17.9343
16.6382
17.7657
16.5329
17.8173
16.374
17.9016
16.3324
17.6982
16.4753
17.3603
16.86
16.7449
17.5856
15.9681
18.1932
15.657
17.5286
15.8292
17.1674
15.7288
17.0823
15.5516
17.0512
15.4847
16.7222
15.6139
16.2463
15.9371
15.6147
16.3538
14.7609
16.8889
14.2976
16.0557
14.2372
15.3819
13.7485
14.7656
12.953
13.8874
11.8878
12.3727
10.5117
10.5142
8.91015
7.50261
6.53629
3.69611
3.20119
-0.982764
-2.17524
-6.37795
-8.44992
-12.5794
-15.1203
-19.1995
-22.0552
-25.4339
-28.5858
-30.0412
-32.3467
-32.2825
-33.2321
-31.5495
-31.4721
-27.5614
-26.8546
-22.145
-20.5082
-16.1423
-14.1804
-10.528
-8.46393
-6.46123
-5.10533
-3.94487
-3.5401
-3.18061
-3.54998
-3.66803
-4.49033
-5.39622
-5.88759
-8.07471
-7.74884
-10.9985
-11.2165
-14.0048
-14.591
-16.5828
-17.4661
-18.8443
-19.3823
-20.6007
-20.5275
-21.6308
-21.1815
-21.7215
-21.6517
-20.9245
-22.1097
-19.8794
-22.0682
-19.7716
-21.517
-19.4917
-20.9675
-19.1424
-20.4984
-18.8128
-20.0722
-18.545
-19.6105
-18.4221
-18.9522
-18.5711
-17.9313
-19.0889
-16.7983
-19.1892
-16.8868
-18.7914
-16.8124
-18.3783
-16.5875
-17.9677
-16.2998
-17.5322
-15.9795
-16.9771
-15.6855
-16.132
-15.5927
-14.6942
-15.5294
-13.1818
-14.8112
-12.3847
-13.3887
-11.1042
-11.5367
-9.22696
-9.31847
-6.88173
-6.48012
-3.76626
-2.84856
0.265742
1.8058
5.19125
7.98522
11.4534
15.707
19.2839
25.4901
29.6297
36.5631
42.681
50.0142
58.6784
66.506
78.0919
86.4006
101.61
110.396
130.959
138.052
171.098
165.981
223.469
210.334
281.43
5.091
19.1071
15.0547
19.8973
17.7261
19.908
18.05
19.5773
17.8069
19.0804
17.6144
18.5861
17.6715
17.9069
17.9713
17.1999
18.1978
16.9728
17.8778
16.8282
17.7439
16.7089
17.7315
16.5504
17.7402
16.4431
17.718
16.454
17.5693
16.5479
17.3223
16.7983
16.8728
17.1753
16.3584
17.3876
16.2308
17.0914
16.0758
17.0111
15.8247
16.9559
15.635
16.8492
15.5791
16.5903
15.6167
16.2158
15.757
15.7207
15.9524
15.0646
16.0422
14.7791
15.5731
14.3598
15.2533
13.8108
14.7432
13.1108
13.8893
12.2503
12.5131
11.0335
10.4755
9.37364
7.84308
6.89717
4.4829
3.51006
0.405008
-1.171
-4.88441
-7.00362
-11.1633
-13.7965
-18.0398
-21.0894
-24.8165
-27.9554
-30.522
-32.8027
-33.6195
-34.6397
-33.4486
-33.1374
-29.8371
-28.2214
-23.6737
-21.2372
-16.526
-14.1209
-10.3183
-8.21857
-5.75926
-4.45011
-3.09381
-2.68743
-2.1038
-2.43267
-2.65893
-3.26127
-4.46863
-4.97639
-6.97267
-7.41337
-9.82793
-10.5254
-12.8554
-13.9022
-15.7834
-16.8206
-18.3165
-19.0425
-20.2544
-20.3917
-21.4423
-21.0937
-21.809
-21.5219
-21.3899
-21.6622
-20.6618
-21.4305
-20.2584
-21.1536
-19.7096
-20.7744
-19.1847
-20.3186
-18.7407
-19.8431
-18.392
-19.3336
-18.1959
-18.7038
-18.2291
-17.9294
-18.4368
-17.2562
-18.329
-17.1102
-18.1777
-16.8005
-17.9742
-16.4733
-17.673
-16.1416
-17.2874
-15.807
-16.7513
-15.4985
-15.9426
-15.393
-14.8181
-14.9776
-13.5354
-14.2487
-12.5261
-12.9973
-11.103
-11.3044
-9.21218
-9.01895
-6.68834
-6.11105
-3.41849
-2.37352
0.747997
2.49358
5.96715
8.70274
12.5873
16.6009
20.9219
26.3546
31.5814
38.3092
45.1866
52.9284
62.2135
70.8468
83.2953
92.665
109.103
118.758
141.262
149.013
183.365
180.303
229.591
218.229
263.327
2.41704
14.1099
11.3277
16.4629
15.3125
17.838
16.8484
18.2669
17.4972
18.1417
17.7625
17.8172
18.0086
17.3712
18.2317
16.9842
18.2496
17.0456
17.7197
17.1953
17.3967
17.2336
17.2676
17.1545
17.2214
17.0982
17.1529
17.1402
16.9786
17.2443
16.754
17.4304
16.4754
17.6286
16.2652
17.5466
16.4257
17.0298
16.5176
16.7532
16.4339
16.5682
16.339
16.3779
16.3314
16.1021
16.3745
15.7969
16.443
15.4864
16.5124
15.2044
16.3836
15.2357
15.8139
15.1853
15.3415
14.7516
14.9535
14.2438
14.2393
13.5257
13.1399
12.4926
11.6098
10.9507
9.43498
8.73515
6.39049
5.52188
2.41421
0.992615
-2.62062
-4.82552
-8.8028
-11.7921
-15.9668
-19.6071
-23.536
-27.437
-30.4226
-33.7381
-35.1238
-37.0072
-36.2109
-36.3216
-33.2258
-31.6791
-27.1182
-24.4059
-19.5921
-16.4742
-12.4102
-9.53139
-6.87848
-4.71468
-3.44961
-2.20243
-1.97987
-1.61163
-2.11093
-2.31341
-3.55661
-3.98528
-5.99826
-6.50928
-9.02812
-9.92166
-12.31
-13.5389
-15.5727
-16.8538
-18.3989
-19.5413
-20.5413
-21.3295
-21.7635
-22.1864
-21.9962
-22.4004
-21.5973
-22.2547
-21.0717
-21.611
-20.7093
-20.9801
-20.3442
-20.4377
-19.9927
-19.976
-19.702
-19.5493
-19.45
-19.1231
-19.2634
-18.6288
-19.1224
-18.0744
-19.0857
-17.6504
-18.617
-17.6999
-18.2323
-17.6317
-17.8704
-17.4724
-17.5115
-17.2533
-17.1413
-17.0048
-16.7125
-16.6958
-16.1411
-16.4607
-15.3502
-16.0491
-14.6524
-15.121
-13.9222
-14.0984
-12.8727
-12.7501
-11.4582
-11.0407
-9.533
-8.87279
-7.02652
-6.02751
-3.82556
-2.26584
0.240593
2.60217
5.40217
8.79296
12.0301
16.4775
20.619
25.7402
31.4404
37.0208
44.8669
50.8143
61.2881
67.5463
81.3335
87.3097
106.138
109.368
139.791
133.343
174.523
172.015
212.607
5.57393
16.0277
12.6253
16.6525
15.8581
17.7238
17.1784
18.1722
17.7381
18.1551
17.9191
17.8907
18.0205
17.504
18.1002
17.2046
17.936
17.3263
17.4884
17.3632
17.2699
17.2871
17.2007
17.1669
17.151
17.1099
17.0693
17.1463
16.9246
17.2093
16.7597
17.3162
16.5465
17.3675
16.4441
17.1966
16.6086
16.8331
16.6264
16.628
16.4827
16.4757
16.3509
16.2975
16.291
16.0627
16.2871
15.7739
16.2677
15.4774
16.196
15.2535
15.9556
15.2899
15.5324
15.1557
15.2318
14.8172
14.8338
14.3659
14.208
13.738
13.2648
12.7816
11.9179
11.4055
10.0331
9.41649
7.44361
6.52389
3.99082
2.43993
-0.682463
-2.97593
-6.70593
-9.80137
-13.9906
-17.8557
-22.1476
-26.4298
-30.2249
-33.9881
-36.3844
-38.6957
-38.7986
-38.9958
-36.3789
-34.2464
-29.5264
-25.8445
-20.6148
-16.7896
-12.3292
-9.15494
-6.06628
-3.97187
-2.26069
-1.1271
-0.643587
-0.25781
-0.736093
-0.895189
-2.14057
-2.62726
-4.51959
-5.28607
-7.4932
-8.70714
-10.885
-12.4015
-14.44
-15.9365
-17.64
-18.9134
-20.0855
-21.0275
-21.541
-22.1611
-22.061
-22.4454
-21.9283
-22.2079
-21.43
-21.6928
-20.955
-21.0085
-20.4133
-20.3718
-19.9388
-19.7631
-19.5111
-19.2424
-19.1393
-18.7683
-18.8724
-18.3037
-18.6967
-17.8469
-18.5065
-17.5597
-18.0981
-17.5824
-17.7452
-17.4577
-17.4664
-17.2594
-17.1825
-16.9996
-16.8792
-16.7149
-16.5197
-16.4464
-15.951
-16.1145
-15.2588
-15.6151
-14.5058
-14.9394
-13.7074
-13.8796
-12.622
-12.4816
-11.1012
-10.7043
-9.05329
-8.42486
-6.40344
-5.44613
-3.06505
-1.52408
1.18849
3.50591
6.63201
9.8675
13.6008
17.7961
22.5487
27.563
33.9062
39.5665
48.0119
54.2127
65.3032
71.8091
86.2541
92.3735
111.999
114.219
142.161
138.815
170.023
166.183
194.984
4.39341
14.0649
10.8227
15.035
14.3027
16.3838
16.1615
17.2177
17.1577
17.5233
17.69
17.4825
17.9757
17.3003
18.066
17.1583
17.8926
17.3592
17.4498
17.4882
17.217
17.4811
17.083
17.419
16.9936
17.3991
16.8912
17.4457
16.7669
17.4898
16.6616
17.5187
16.5351
17.557
16.5118
17.3082
16.7439
16.9066
16.821
16.6696
16.7663
16.449
16.6763
16.2421
16.6247
16.0125
16.5967
15.7984
16.5854
15.5998
16.5228
15.5218
16.2528
15.6621
15.8386
15.6235
15.5895
15.4354
15.2899
15.1229
14.8382
14.6367
14.1351
13.8932
13.0454
12.7246
11.4151
10.9405
9.08465
8.27411
5.85089
4.4649
1.44871
-0.746796
-4.37736
-7.55615
-11.7576
-15.9232
-20.4834
-25.3165
-29.7432
-34.5041
-37.8199
-41.2838
-42.2345
-43.1821
-41.0631
-39.2135
-34.569
-30.5732
-24.8577
-20.1787
-14.9911
-10.783
-7.10598
-4.11854
-2.24608
-0.521901
-0.0260942
0.677054
0.229604
0.18154
-1.04391
-1.56302
-3.45675
-4.36935
-6.6654
-8.01171
-10.4194
-12.0074
-14.3434
-15.9998
-17.9603
-19.469
-20.8188
-21.9473
-22.5587
-23.2004
-23.0534
-23.3835
-22.6176
-22.8642
-21.8563
-21.954
-21.2405
-21.118
-20.7323
-20.463
-20.3495
-19.9393
-20.0794
-19.5128
-19.8129
-19.1442
-19.5619
-18.7406
-19.3288
-18.3207
-19.0486
-18.0751
-18.4913
-18.099
-18.0985
-18.0263
-17.7483
-17.8898
-17.4454
-17.6893
-17.1681
-17.4497
-16.8709
-17.2206
-16.4686
-16.9613
-15.9918
-16.5626
-15.5139
-15.832
-15.0463
-15.0466
-14.2614
-14.0938
-13.1493
-12.8733
-11.6933
-11.2332
-9.80683
-9.02517
-7.35608
-6.11045
-4.16253
-2.33045
-0.0135145
2.49926
5.38917
8.55481
12.4051
16.083
21.3064
25.3775
32.48
36.8279
46.2861
50.8
63.2631
67.0966
84.7715
85.4744
110.069
108.157
136.605
136.517
163.534
7.4264
15.9449
12.359
16.0582
15.0757
16.7395
16.5831
17.3227
17.392
17.5489
17.8246
17.4994
17.9954
17.3711
17.9962
17.2507
17.7575
17.4298
17.3584
17.4928
17.1692
17.4637
17.0266
17.4054
16.9325
17.3651
16.8547
17.366
16.7611
17.4053
16.6468
17.451
16.5433
17.3919
16.5828
17.141
16.7805
16.8139
16.8222
16.6204
16.74
16.4153
16.6428
16.2073
16.5685
15.9712
16.5025
15.7282
16.418
15.5195
16.2577
15.4563
15.9641
15.5695
15.5941
15.5075
15.4332
15.3566
15.197
15.1118
14.8289
14.7438
14.2736
14.1601
13.4085
13.2312
12.1127
11.7715
10.2357
9.53204
7.53208
6.21571
3.65331
1.5102
-1.74614
-4.92276
-8.9699
-13.3096
-18.0965
-23.4472
-28.5789
-34.1307
-38.5676
-42.9488
-45.1713
-46.8636
-45.6483
-43.7176
-38.8999
-33.8391
-27.2455
-21.5427
-15.6788
-10.9064
-6.66068
-3.48744
-1.03771
0.64603
1.52571
2.1674
1.93491
1.87962
0.754619
0.238066
-1.55022
-2.56467
-4.69379
-6.24841
-8.57441
-10.4616
-12.7897
-14.7842
-16.8421
-18.6619
-20.1951
-21.5677
-22.386
-23.2163
-23.2773
-23.6213
-23.165
-23.1267
-22.4422
-22.266
-21.6132
-21.363
-20.8449
-20.5221
-20.2246
-19.7453
-19.7255
-19.1585
-19.3351
-18.7091
-19.007
-18.3125
-18.7827
-17.9301
-18.5309
-17.7811
-18.0916
-17.8015
-17.7384
-17.7292
-17.4418
-17.5868
-17.1762
-17.3992
-16.9158
-17.1815
-16.6252
-16.9213
-16.2602
-16.6373
-15.819
-16.2301
-15.3554
-15.6169
-14.7818
-14.8504
-13.9381
-13.8456
-12.8127
-12.5199
-11.3078
-10.808
-9.33986
-8.55432
-6.81469
-5.58712
-3.53854
-1.76249
0.708095
3.09836
6.21058
9.22573
13.3044
16.8332
22.3527
26.2415
33.6104
37.7578
47.3767
51.583
64.1548
67.388
84.3041
84.6326
106.32
103.973
126.739
125.6
147.014
6.81635
15.2828
11.33
15.5515
14.1707
16.152
15.8813
16.8032
16.9429
17.1658
17.5838
17.2704
17.8677
17.2756
17.9335
17.2578
17.7371
17.4523
17.3917
17.5418
17.207
17.5294
17.0552
17.4994
16.9359
17.484
16.8449
17.5018
16.7539
17.5441
16.667
17.575
16.6105
17.5048
16.6775
17.2475
16.8944
16.9022
16.9876
16.7279
16.9118
16.5241
16.8225
16.304
16.7602
16.0733
16.7167
15.8524
16.6654
15.6984
16.5
15.7181
16.2334
15.8887
15.8973
15.8756
15.793
15.8218
15.6425
15.688
15.4004
15.4526
14.9842
15.0226
14.2953
14.2573
13.2094
12.9866
11.5737
10.9975
9.15911
8.0184
5.63413
3.67927
0.594033
-2.45587
-6.40875
-10.7667
-15.6797
-21.3088
-27.0155
-33.4806
-39.2156
-45.1854
-49.0592
-52.1712
-51.8407
-50.3386
-45.6839
-40.4523
-33.3412
-26.3244
-19.2051
-12.7585
-7.57678
-3.14294
-0.62753
1.87843
2.46337
3.58066
3.09373
3.2487
1.95317
1.46289
-0.41551
-1.51626
-3.77114
-5.37411
-7.91981
-9.88392
-12.531
-14.7193
-17.1236
-19.2449
-21.0813
-22.746
-23.7154
-24.6549
-24.6157
-24.8952
-24.0034
-23.9878
-22.745
-22.6458
-21.6937
-21.4822
-20.9889
-20.618
-20.5533
-20.0472
-20.2506
-19.6707
-20.0058
-19.3162
-19.7285
-18.8956
-19.4322
-18.483
-19.0443
-18.2905
-18.4804
-18.287
-18.091
-18.1955
-17.7766
-18.046
-17.5098
-17.8969
-17.2593
-17.7162
-17.0369
-17.506
-16.7804
-17.2765
-16.4979
-16.9395
-16.2361
-16.4378
-15.8574
-15.9236
-15.2914
-15.2523
-14.5289
-14.3613
-13.4905
-13.1705
-12.1144
-11.5616
-10.2987
-9.41598
-7.87971
-6.5993
-4.67678
-2.96379
-0.456907
1.67418
5.07196
7.54782
12.182
14.92
21.2071
24.1193
32.5077
35.4082
46.6313
48.7815
64.332
64.1081
83.5923
84.0183
104.435
104.933
124.976
9.23209
17.3067
12.8505
16.8195
15.126
16.9014
16.4089
17.1528
17.2094
17.3186
17.6781
17.3402
17.8888
17.3016
17.8813
17.2903
17.6657
17.4515
17.3189
17.5182
17.1336
17.5079
16.9814
17.4689
16.8746
17.4381
16.7953
17.4337
16.7121
17.4656
16.6237
17.5011
16.5905
17.4166
16.6868
17.1623
16.8976
16.8262
16.9602
16.6715
16.8894
16.4823
16.8023
16.2612
16.7146
16.0171
16.629
15.7758
16.5153
15.603
16.2985
15.5842
16.0085
15.7262
15.6835
15.7089
15.606
15.6865
15.5092
15.6347
15.3616
15.5244
15.105
15.2771
14.6602
14.7717
13.9174
13.8537
12.729
12.3236
10.8613
9.90122
7.96608
6.20375
3.58394
0.702552
-2.91202
-7.26426
-12.1798
-18.2148
-24.5299
-32.0128
-39.0092
-46.4246
-52.1681
-57.0258
-58.7006
-58.2956
-53.9262
-47.6033
-39.0737
-30.462
-22.2297
-14.704
-8.23136
-3.07006
0.537866
3.07814
4.36188
5.20316
5.1937
5.23198
4.19483
3.70111
1.97913
0.821954
-1.29015
-3.11511
-5.59549
-7.87108
-10.5432
-13.1354
-15.6815
-18.2396
-20.3733
-22.4054
-23.7742
-24.9813
-25.3299
-25.6695
-25.1623
-24.7982
-23.8672
-23.2374
-22.527
-21.8966
-21.3845
-20.688
-20.4588
-19.7149
-19.8043
-19.0578
-19.4078
-18.7068
-19.1182
-18.3281
-18.8287
-18.0312
-18.5759
-17.9498
-18.1308
-18.0042
-17.7841
-17.9274
-17.5081
-17.821
-17.249
-17.6889
-17.0163
-17.5109
-16.8172
-17.3125
-16.5793
-17.0853
-16.3395
-16.7608
-16.0963
-16.2952
-15.7303
-15.782
-15.1814
-15.103
-14.4405
-14.2164
-13.4266
-13.0585
-12.0838
-11.5128
-10.3257
-9.46645
-7.99726
-6.79021
-4.92172
-3.34898
-0.869885
1.05427
4.433
6.60958
11.2577
13.6212
19.8642
22.3213
30.5547
32.8432
43.8025
44.8742
59.3992
59.1943
75.613
75.4914
92.7182
92.8559
109.842
9.01943
17.1657
12.4841
16.629
14.6021
16.8352
16.005
17.0682
16.9398
17.2387
17.5346
17.2842
17.8116
17.3106
17.8506
17.3326
17.6848
17.4922
17.3649
17.5763
17.1793
17.573
17.0251
17.5403
16.8937
17.5259
16.8048
17.5473
16.7254
17.586
16.665
17.598
16.667
17.5013
16.7817
17.2665
17.0038
16.9473
17.0931
16.7896
17.0488
16.6
16.9648
16.3807
16.8923
16.1427
16.8176
15.924
16.7174
15.7789
16.5164
15.8106
16.2542
15.9828
15.9689
16.0264
15.9004
16.0478
15.8499
16.0615
15.7641
16.0292
15.5976
15.8764
15.2766
15.4861
14.691
14.7212
13.7072
13.4167
12.1274
11.3389
9.62671
8.09961
5.74693
3.15534
-0.166603
-4.235
-8.953
-14.8788
-21.3594
-29.3397
-37.6766
-46.8669
-55.0574
-62.5247
-66.6507
-67.6886
-63.7346
-57.176
-47.9162
-37.1698
-26.7533
-16.7879
-9.12324
-2.11899
1.40891
5.20116
5.70958
7.26118
6.51273
6.94742
5.38658
5.0277
3.12175
1.89789
-0.286361
-1.98112
-4.63016
-6.89532
-9.76957
-12.592
-15.4312
-18.3527
-20.9055
-23.4077
-25.0416
-26.628
-26.8807
-27.3205
-26.2206
-25.8816
-24.1017
-23.5716
-22.2538
-21.8706
-21.295
-20.7832
-20.7682
-20.1229
-20.3968
-19.7577
-20.1734
-19.48
-19.9361
-19.0375
-19.5076
-18.541
-19.036
-18.3737
-18.4962
-18.3636
-18.1093
-18.2717
-17.794
-18.1533
-17.5418
-18.0296
-17.3292
-17.8821
-17.146
-17.7242
-16.9775
-17.539
-16.8246
-17.2909
-16.7321
-16.9251
-16.4823
-16.5914
-16.1129
-16.1579
-15.6012
-15.5873
-14.9138
-14.7907
-13.9894
-13.7001
-12.7432
-12.2221
-11.0242
-10.2517
-8.6891
-7.6754
-5.58112
-4.31129
-1.47518
-0.00530581
3.93184
5.49159
10.8899
12.4321
19.7311
21.0913
30.975
31.5193
43.9985
45.0489
59.2785
60.7604
75.9389
77.0739
92.9461
11.411
19.2113
14.0151
18.0166
15.5967
17.677
16.6016
17.543
17.2529
17.4843
17.6485
17.4234
17.8275
17.3527
17.8216
17.3272
17.6487
17.4607
17.3071
17.5364
17.0994
17.5489
16.9363
17.507
16.8149
17.4866
16.7357
17.4821
16.6617
17.51
16.6009
17.5397
16.6231
17.4534
16.7452
17.225
16.9749
16.9038
17.0809
16.7356
17.0415
16.5589
16.9635
16.335
16.8692
16.0899
16.7519
15.8427
16.6104
15.6551
16.3704
15.6362
16.0688
15.7835
15.7674
15.8453
15.6932
15.8924
15.6806
15.9729
15.6864
16.0591
15.6704
16.0781
15.5759
15.9329
15.3127
15.5006
14.7444
14.6351
13.6812
13.1133
11.8359
10.5831
8.75331
6.47342
3.67155
-0.139504
-4.53495
-10.5108
-17.2105
-25.7841
-35.0089
-46.1571
-57.1321
-67.927
-75.6351
-79.9028
-78.3115
-71.6067
-61.1866
-47.9221
-35.1429
-22.4765
-12.1653
-3.07007
2.53957
6.42333
8.20709
9.10936
9.02537
9.25214
8.2305
7.60772
6.10886
4.80777
2.63376
0.640911
-1.89397
-4.61371
-7.50459
-10.7962
-13.9152
-17.3013
-20.3036
-23.314
-25.5809
-27.5608
-28.5077
-29.071
-28.513
-27.719
-26.227
-24.764
-23.6903
-22.5637
-21.9353
-20.8171
-20.5897
-19.4785
-19.6173
-18.7619
-19.3922
-18.6506
-19.2065
-18.4351
-18.8428
-18.124
-18.6429
-18.0739
-18.2125
-18.1205
-17.829
-18.065
-17.5699
-17.9798
-17.3351
-17.8908
-17.1212
-17.7646
-16.9707
-17.6327
-16.8086
-17.4798
-16.6942
-17.2398
-16.6299
-16.8863
-16.4995
-16.5617
-16.2012
-16.1574
-15.7934
-15.63
-15.1911
-14.9403
-14.3663
-14.0165
-13.2769
-12.7752
-11.7747
-11.084
-9.72857
-8.85448
-6.97726
-5.94175
-3.23856
-2.21899
1.58306
2.65368
7.78402
8.80328
15.4964
16.4301
25.0757
26.0825
36.4393
37.6077
49.4853
50.7366
63.948
64.9803
79.0667
11.1493
19.5275
13.8907
18.1835
15.5684
17.7986
16.5671
17.6731
17.2223
17.6173
17.6515
17.5364
17.8753
17.4459
17.8939
17.3908
17.7284
17.5253
17.372
17.6093
17.149
17.6264
16.9751
17.5793
16.831
17.5766
16.7358
17.599
16.6532
17.639
16.6208
17.6383
16.6676
17.5509
16.8141
17.3281
17.0731
17.0073
17.2081
16.8393
17.1916
16.6671
17.1228
16.4521
17.0396
16.2096
16.954
15.9613
16.8226
15.8128
16.5753
15.8318
16.2849
16.0048
15.9859
16.1073
15.9134
16.159
15.9072
16.2584
15.9279
16.3773
15.9604
16.4481
15.9534
16.366
15.7957
16.047
15.3929
15.3746
14.5966
14.1734
13.1465
12.129
10.6438
8.74562
6.40894
3.13209
-0.724825
-6.13476
-12.5313
-21.1296
-31.2526
-43.3839
-56.8357
-70.9122
-83.7374
-92.5384
-93.6665
-86.736
-74.4801
-58.1695
-42.2995
-26.9075
-14.7789
-2.77601
3.79845
9.49763
10.0426
11.9412
10.467
10.924
9.27193
8.83356
6.99472
5.72564
3.83655
1.84023
-0.472298
-3.01098
-5.91087
-9.24794
-12.5844
-16.3784
-19.7922
-23.4695
-26.258
-28.9781
-30.0195
-31.2261
-29.8741
-29.2587
-26.4729
-24.9786
-22.8426
-22.2103
-21.7538
-21.0073
-21.1279
-20.1816
-20.4885
-19.5782
-20.3605
-19.6137
-20.2766
-19.1887
-19.6042
-18.4003
-18.9498
-18.3898
-18.5461
-18.4286
-18.1217
-18.3211
-17.7768
-18.2167
-17.5604
-18.1153
-17.3698
-17.9987
-17.2062
-17.9014
-17.0704
-17.7811
-17.0071
-17.5853
-17.0644
-17.2786
-16.9808
-17.0728
-16.7929
-16.8358
-16.5546
-16.5104
-16.1669
-16.0464
-15.6222
-15.4191
-14.8706
-14.5938
-13.7706
-13.455
-12.2529
-11.8875
-10.213
-9.83046
-7.44284
-7.01866
-3.83074
-3.37233
0.994001
1.42102
7.27882
7.74869
15.2085
15.9251
25.0853
26.2165
36.8222
38.3635
50.2495
51.5849
65.0655
13.4085
21.4484
15.4391
19.451
16.6107
18.5935
17.2018
18.1294
17.57
17.8439
17.8145
17.6326
17.9345
17.4622
17.9382
17.3672
17.7341
17.489
17.3399
17.5758
17.0725
17.602
16.8742
17.5644
16.7365
17.5417
16.6403
17.5522
16.5566
17.5954
16.5246
17.613
16.586
17.5318
16.7525
17.312
17.0374
16.9885
17.2089
16.7926
17.2032
16.6386
17.1488
16.4206
17.0645
16.153
16.9636
15.8667
16.7739
15.6878
16.4742
15.6591
16.131
15.8155
15.7871
15.9368
15.6932
16.0131
15.7166
16.1453
15.8003
16.3523
15.9481
16.5526
16.123
16.6759
16.2451
16.6063
16.1606
16.2706
15.7614
15.5051
14.836
14.0512
13.032
11.4705
9.73306
6.94905
3.82399
-0.958407
-6.60306
-14.6878
-24.6347
-38.2273
-54.1461
-72.9034
-91.8723
-108.001
-114.872
-111.657
-99.8813
-80.0793
-59.9364
-38.6711
-23.1421
-7.04876
3.43797
11.2497
13.1151
14.0682
13.7711
13.1629
12.6104
11.6143
10.5346
8.95428
7.01545
4.82865
2.46979
-0.568416
-3.36901
-7.12949
-10.8685
-15.0541
-19.0537
-23.4413
-27.0718
-30.5286
-32.6801
-34.3407
-34.058
-33.0248
-30.505
-27.3385
-25.1447
-23.077
-22.2527
-20.7808
-20.4993
-19.0221
-19.0552
-18.0107
-19.0066
-18.4777
-19.3396
-18.8224
-19.0413
-18.2182
-18.5826
-18.1166
-18.2898
-18.1907
-17.8843
-18.1495
-17.617
-18.0495
-17.4074
-17.9964
-17.1997
-17.9443
-17.0529
-17.8547
-16.9492
-17.78
-16.9108
-17.6315
-16.9611
-17.3291
-17.0499
-17.117
-16.9408
-16.9291
-16.8035
-16.6964
-16.5105
-16.343
-16.1046
-15.8655
-15.5897
-15.273
-14.7434
-14.3992
-13.5037
-13.1728
-11.8033
-11.5423
-9.46275
-9.26163
-6.38902
-6.26375
-2.27262
-2.27663
2.78406
2.89025
9.36592
9.5144
17.6523
17.8097
27.4266
27.7482
38.9006
39.1457
51.9178
13.1917
21.8925
15.4593
19.9065
16.7799
18.9113
17.4712
18.3853
17.8399
18.0507
18.0628
17.785
18.1576
17.5758
18.1416
17.4503
17.871
17.5815
17.4197
17.6783
17.1138
17.6999
16.8928
17.6659
16.7327
17.6497
16.6215
17.6731
16.5269
17.7172
16.517
17.7093
16.5997
17.6218
16.7965
17.3948
17.122
17.0624
17.3383
16.8533
17.3601
16.6935
17.3305
16.4782
17.2673
16.2193
17.1682
15.9772
16.9668
15.8422
16.663
15.8402
16.3109
16.0129
15.9415
16.1608
15.8339
16.1959
15.8267
16.3297
15.8879
16.5275
16.0388
16.7492
16.2652
16.8729
16.4369
16.8716
16.5086
16.6686
16.3227
16.1668
15.7365
15.1419
14.453
13.2343
11.9552
9.72439
7.2208
3.21512
-1.6774
-8.85805
-18.179
-30.8519
-48.2606
-68.9941
-94.438
-118.68
-133.9
-134.01
-123.095
-99.8993
-74.9313
-50.2569
-30.2326
-11.9993
3.08155
13.5662
16.6096
17.3319
14.9988
14.5802
12.9588
12.262
10.7
9.43769
8.10062
5.97826
4.19531
1.50627
-1.22359
-4.67626
-8.42756
-12.9451
-17.0689
-22.1209
-26.445
-30.9142
-33.6207
-36.6202
-36.1632
-35.7647
-31.5838
-27.5393
-23.24
-22.1605
-22.2837
-21.337
-21.8518
-20.5618
-20.4393
-18.7841
-20.0008
-19.6785
-20.9211
-19.4148
-19.9343
-18.0301
-18.6912
-18.2802
-18.7425
-18.5813
-18.1572
-18.3405
-17.734
-18.2415
-17.552
-18.2176
-17.3543
-18.1282
-17.1839
-18.0313
-17.1073
-17.9646
-17.1047
-17.8862
-17.2255
-17.5467
-17.3369
-17.3975
-17.3195
-17.2967
-17.3423
-17.2305
-17.1874
-17.0292
-16.9319
-16.7212
-16.6773
-16.4047
-16.1849
-15.936
-15.3267
-15.1788
-14.1562
-14.178
-12.5197
-12.7011
-10.4015
-10.7058
-7.44085
-7.80948
-3.84308
-3.90324
1.17639
1.32932
8.04444
8.65821
16.3693
17.3987
26.7285
27.4954
39.3726
15.3014
23.7707
16.8581
20.9981
17.7324
19.5271
18.0678
18.7082
18.196
18.1632
18.2819
17.7956
18.2949
17.5556
18.2403
17.4153
17.9098
17.5637
17.3974
17.6766
17.0478
17.6946
16.8024
17.6556
16.6302
17.6333
16.4952
17.67
16.3941
17.7139
16.3869
17.7153
16.4826
17.6327
16.7142
17.3987
17.0916
17.0468
17.3619
16.8099
17.4387
16.6514
17.4306
16.4289
17.3645
16.153
17.224
15.8889
16.9818
15.7123
16.6258
15.6758
16.2042
15.8519
15.7549
16.027
15.6189
16.0924
15.6298
16.2164
15.758
16.4278
15.9505
16.7375
16.2675
17.0462
16.6609
17.1983
16.9402
17.1982
17.0368
16.9651
16.7998
16.3464
16.0125
15.0454
14.2614
12.4999
10.7219
7.53569
3.69621
-2.20336
-10.2062
-21.4376
-37.7481
-60.0427
-88.12
-119.725
-143.826
-153.955
-150.849
-129.225
-99.9359
-67.9188
-46.5659
-23.0539
-8.04749
14.1789
15.9171
20.8908
18.6149
17.2301
16.7105
15.2745
15.0132
12.3251
11.0438
8.7352
6.7989
4.12644
1.59143
-2.09588
-6.04694
-10.8173
-15.6972
-21.4246
-26.9237
-32.4804
-36.523
-40.7724
-42.1077
-42.4454
-39.3641
-32.9705
-27.1027
-22.3399
-21.5475
-20.2329
-20.1257
-18.9405
-18.687
-16.4747
-17.4936
-17.6691
-19.5771
-20.1211
-19.9032
-18.5251
-18.1732
-17.7682
-18.2528
-18.3317
-18.0877
-18.2561
-17.6366
-18.0396
-17.383
-18.0802
-17.2422
-18.0578
-17.1244
-17.94
-17.0543
-17.8868
-17.0283
-17.92
-17.1834
-17.6443
-17.3703
-17.4415
-17.4069
-17.3903
-17.5077
-17.4134
-17.4711
-17.2415
-17.3001
-17.0347
-17.2429
-16.9772
-17.0108
-16.6967
-16.4425
-16.2172
-15.5384
-15.6371
-14.2715
-14.5258
-12.7408
-13.269
-10.2392
-11.035
-7.72116
-8.35424
-3.91177
-4.8357
1.32701
0.403942
7.85286
6.79594
15.7583
14.6473
26.7369
15.1212
24.1911
17.0947
21.5253
18.14
19.9144
18.598
18.9957
18.719
18.3849
18.7283
17.9778
18.6486
17.6835
18.4935
17.5448
18.0554
17.7055
17.4539
17.8318
17.0444
17.8485
16.7701
17.816
16.5696
17.8018
16.4238
17.8284
16.3191
17.8521
16.3262
17.8206
16.4566
17.7006
16.7362
17.429
17.1852
17.0369
17.5291
16.7858
17.6277
16.6282
17.6258
16.4291
17.5586
16.1955
17.4196
15.9859
17.1694
15.8612
16.7963
15.8464
16.3425
16.0475
15.8326
16.2325
15.647
16.2855
15.58
16.4263
15.6766
16.6105
15.9337
16.7806
16.2811
17.012
16.6644
17.2338
17.0778
17.311
17.2996
17.2343
17.2676
16.9051
16.8055
16.0502
15.557
14.1964
12.8727
10.3838
7.37085
2.6493
-3.72153
-13.2583
-26.6697
-47.7819
-73.9159
-106.952
-136.768
-154.124
-157.12
-144.729
-110.687
-79.0007
-53.7442
-31.323
-10.8394
9.68198
18.6246
16.5775
19.8729
16.5221
14.8705
14.4004
13.848
13.038
11.8746
9.93731
8.46539
6.09918
3.90113
0.768171
-3.00246
-7.89579
-12.4874
-18.5318
-24.4779
-31.2234
-35.6637
-41.8027
-44.0711
-46.5071
-42.6465
-33.9137
-23.9699
-21.9992
-21.4376
-22.2027
-23.4738
-21.4587
-21.0414
-17.5726
-17.7361
-18.8254
-21.2053
-20.3282
-21.0436
-17.6892
-18.2327
-17.8121
-18.9867
-18.7907
-18.3708
-18.3321
-17.6821
-18.1985
-17.5203
-18.2883
-17.3319
-18.1818
-17.1831
-18.0739
-17.1025
-18.0096
-17.1155
-17.9678
-17.309
-17.7881
-17.4342
-17.5177
-17.5751
-17.4641
-17.8035
-17.6288
-17.8957
-17.6132
-17.6912
-17.3908
-17.6853
-17.4829
-17.7303
-17.5455
-17.4388
-17.2748
-16.8259
-17.0515
-15.9428
-16.5283
-15.1477
-16.0204
-13.5439
-14.4557
-12.3893
-13.0188
-9.99048
-11.2627
-6.00401
-6.32673
-1.48438
-1.03646
4.34693
4.39173
13.7266
17.1452