/*--------------------------------*- C++ -*----------------------------------*\
| =========                 |                                                 |
| \\      /  F ield         | OpenFOAM: The Open Source CFD Toolbox           |
|  \\    /   O peration     | Version:  4.1                                   |
|   \\  /    A nd           | Web:      www.OpenFOAM.org                      |
|    \\/     M anipulation  |                                                 |
\*---------------------------------------------------------------------------*/
FoamFile
{
    version     2.0;
    format      ascii;
    class       volScalarField;
    location    "553";
    object      p;
}
// * * * * * * * * * * * * * * * * * * * * * * * * * * * * * * * * * * * * * //

dimensions      [0 2 -2 0 0 0 0];

internalField   nonuniform List<scalar> 
204246
(
134.165
1.2909
46.4742
29.3786
25.1265
32.2921
20.5227
32.2316
19.0888
31.9981
18.3512
32.5524
16.7269
32.8001
17.9292
30.1258
24.3139
18.798
31.0396
16.2765
32.2476
16.6018
30.8335
17.3163
30.648
17.0614
31.4537
15.2078
32.2729
14.8235
32.1427
15.1411
31.0383
17.5611
27.0834
23.4109
16.4424
28.8207
14.7134
27.9722
14.4621
27.2594
13.2989
26.771
10.4472
25.0185
9.77246
21.0903
8.06493
15.7268
5.41949
9.12775
4.50721
-3.80486
-1.3507
-10.502
-9.27015
-19.3295
-16.9514
-28.7923
-23.4903
-39.1866
-28.7839
-46.039
-32.602
-47.1373
-35.8657
-42.1283
-34.3833
-32.2822
-33.1668
-23.4628
-23.8001
-13.8253
-13.0853
-3.12843
-5.09533
7.23015
0.498689
15.083
5.84303
20.0676
10.7849
21.8249
15.1665
22.5064
21.8269
16.0249
26.8615
15.6129
28.481
15.467
29.9477
13.7569
31.0561
13.3905
31.117
13.3423
30.5458
14.0881
28.3194
14.8611
27.0972
15.4669
24.9183
18.8352
14.9334
23.2218
11.4822
24.033
7.90135
23.1309
6.81522
20.2665
5.02254
17.3969
2.69125
14.1147
0.0422995
10.2391
-2.3666
4.90217
-1.24754
-8.99445
-0.428646
-13.8557
-3.5258
-18.4506
-6.57049
-22.4723
-9.02003
-25.3614
-10.7618
-27.1623
-11.7297
-27.5443
-12.4172
-25.8631
-14.4859
-19.1002
-23.8071
-11.5724
-24.8711
-8.76666
-23.8826
-6.91801
-22.64
-5.45832
-21.2896
-4.15168
-19.8743
-2.97868
-18.1342
-2.23958
-15.0415
-3.31435
-7.59965
-11.6031
0.556278
-11.9281
4.18596
-9.67697
6.65844
-5.85114
9.50552
-1.13037
13.4738
4.67844
18.6413
11.7125
24.9896
20.7317
33.016
32.3108
42.5437
49.1036
51.3346
65.2097
69.7457
83.0661
92.8113
106.192
120.53
135.438
155.376
173.208
201.497
224.155
268.056
297.002
384.732
400.657
607.697
49.9961
29.8071
27.4974
32.2043
25.0707
29.4659
23.8352
28.2254
23.1641
27.6561
22.6615
27.5896
22.5109
26.5756
23.8555
24.3554
27.0024
21.4218
26.8653
21.5995
26.5213
22.1118
26.1035
21.9298
26.2355
21.5108
26.6533
21.0137
26.3995
21.0314
25.9312
21.4308
24.7635
22.7723
22.6801
25.521
19.8686
24.7185
20.036
23.8647
19.4719
23.3073
18.4959
22.5139
17.1655
20.3562
15.5456
18.209
13.5842
14.5413
11.3048
8.51374
9.09698
1.65428
0.828514
-4.86525
-7.80153
-12.9269
-16.5238
-22.1832
-25.0146
-31.4838
-32.7509
-38.1859
-38.6839
-40.9194
-41.4123
-40.8803
-40.3517
-35.3154
-35.1939
-28.653
-26.5116
-19.3341
-15.8024
-9.21958
-5.91459
0.50256
2.07279
7.77891
8.39459
12.9259
13.4922
16.0892
17.4444
17.3019
21.68
17.9291
23.2736
19.2325
24.0473
19.5629
24.9564
19.4259
25.0152
19.5264
24.8456
19.6374
24.2882
19.9833
23.4178
19.824
22.5177
20.1738
20.5652
21.9356
17.3089
20.878
15.9191
20.1386
14.3889
18.1978
13.0153
16.2296
10.9597
13.9717
8.4738
11.1183
5.92734
7.31978
3.82223
1.78337
3.16241
-3.7592
-2.87771
-8.26151
-6.2312
-12.382
-9.90898
-15.983
-13.4034
-18.9337
-16.0175
-21.0293
-17.6798
-21.7978
-18.7881
-20.7044
-20.2658
-17.2786
-21.9919
-16.1532
-20.6499
-14.7722
-19.151
-13.2792
-17.6814
-11.9111
-16.2869
-10.6644
-14.8879
-9.60554
-13.2163
-8.97312
-10.6757
-9.44684
-6.43867
-10.4132
-4.60115
-8.46455
-2.58041
-5.92451
-0.112553
-3.07863
2.92965
0.498294
6.75111
5.10355
11.5616
11.0027
17.0232
18.8056
24.0333
28.6124
32.2546
41.0279
44.7267
53.8167
60.383
69.9164
79.6026
90.0703
103.109
114.698
131.878
144.694
167.905
181.33
216.583
223.228
297.949
263.389
398.069
24.6019
35.6939
29.3917
31.6397
26.7814
29.3251
24.5522
28.2381
23.5182
27.6523
22.9778
27.2852
22.8528
26.5065
23.6695
24.8985
25.4086
22.8691
26.0961
22.1184
26.3229
22.0176
26.1817
21.8958
26.1587
21.6378
26.2656
21.2827
26.1612
21.1883
25.7956
21.4862
24.8726
22.4307
23.0681
23.8537
21.0925
24.0766
20.2192
23.8453
19.4654
23.4022
18.6723
22.4954
17.5433
20.6845
16.236
17.7211
14.4121
13.8363
11.7599
8.6601
7.58711
2.90002
1.47406
-3.93139
-6.2578
-12.0329
-14.9414
-20.8228
-24.1986
-29.776
-33.3195
-37.2195
-39.8789
-41.022
-42.535
-41.3224
-41.401
-37.2294
-36.6035
-29.8409
-27.9327
-20.2614
-17.1749
-9.97266
-6.82622
-0.715959
2.42884
6.96949
9.36244
12.5522
14.3287
16.2727
18.0689
18.1638
21.2429
19.3424
22.7233
19.8074
23.9655
19.9406
24.7745
19.8279
25.0541
19.7746
24.9881
19.7816
24.5503
19.8802
23.7888
19.8783
22.7335
20.0959
20.9624
20.7659
18.4198
20.5346
16.5197
19.8855
14.7807
18.4482
13.2144
16.4155
11.3451
13.9919
9.13729
10.8834
6.8356
6.9841
4.69165
2.20559
1.63708
-2.61489
-2.312
-7.056
-6.65918
-11.2492
-10.4706
-15.1146
-13.6664
-18.3995
-16.0505
-20.745
-17.634
-21.7318
-18.7682
-21.0607
-19.9692
-18.6883
-20.8239
-16.8816
-20.247
-15.011
-19.005
-13.3342
-17.5763
-11.8462
-16.1496
-10.5184
-14.6902
-9.41329
-12.9607
-8.71958
-10.5144
-8.82508
-7.3054
-8.92748
-4.8446
-7.82679
-2.38611
-5.7807
-0.0680337
-2.68315
2.62831
1.25559
6.19945
6.07579
10.9071
12.0717
16.9908
19.5464
24.5344
29.0825
34.1788
40.7156
45.7385
54.7593
61.3704
71.6172
81.2865
92.5521
106.1
118.627
137.211
151.087
176.746
191.427
231.129
239.054
315.213
293.942
382.723
10.6745
26.0559
21.7125
28.1167
23.8259
27.6046
24.3408
26.7323
24.2998
26.0601
24.2611
25.6109
24.4706
24.8154
25.1716
23.794
25.9817
23.3234
25.4141
23.502
24.9851
23.6695
24.7754
23.4997
24.7456
23.2652
24.7309
23.1402
24.4272
23.1832
23.9921
23.4484
23.2868
24.0382
22.4107
24.5182
21.9443
23.6782
21.9075
23.0624
21.5109
22.4931
20.7266
21.7921
19.7732
20.4797
18.6622
18.4818
16.9865
15.4048
14.4415
11.3007
10.6374
5.94683
4.41544
-0.448564
-3.26567
-8.39559
-12.1424
-17.6037
-21.7819
-27.1225
-31.6333
-35.805
-40.0622
-41.7651
-44.8591
-44.0479
-45.0298
-41.312
-40.4648
-34.716
-31.773
-25.1021
-20.8857
-14.2407
-9.89657
-4.10104
-0.229
4.06451
7.72985
10.3499
13.2679
14.5524
17.2293
17.0882
20.1484
19.3167
21.6433
20.7095
22.4904
21.1606
23.0378
21.4189
23.099
21.5823
22.9559
21.6765
22.6247
21.7213
22.1816
21.6081
21.4826
21.6225
20.288
21.7871
19.3539
20.4133
18.3405
19.2173
17.2652
17.558
15.8805
15.7909
14.0068
13.7157
11.7919
11.0115
9.27644
7.65364
6.66856
3.61548
3.45528
-0.52428
-1.3413
-4.69364
-6.23385
-8.85412
-10.7016
-12.9007
-14.6748
-16.4128
-17.8948
-18.9353
-20.0295
-20.2962
-21.1449
-20.1686
-21.6142
-19.1314
-21.0667
-18.4701
-19.648
-17.2461
-18.0461
-15.8649
-16.4822
-14.5051
-15.0507
-13.2957
-13.6753
-12.3154
-12.1701
-11.5716
-10.3469
-11.0196
-8.59809
-9.87391
-7.29529
-8.16932
-5.79992
-6.06983
-3.74964
-3.66841
-1.2149
-0.691953
2.04876
3.04699
6.18965
7.79087
11.206
14.0398
17.5334
21.815
25.4104
31.6403
35.7913
42.7427
48.8676
56.2138
64.8829
72.7185
84.3093
92.6209
107.837
116.617
137.189
144.283
177.327
172.213
229.701
216.565
287.662
11.6114
26.7004
21.5573
26.9355
24.3353
26.7772
24.772
26.4074
24.6182
25.9379
24.4741
25.4686
24.5729
24.8322
24.9144
24.1764
25.1765
23.9801
24.8868
23.8411
24.7563
23.7102
24.6872
23.5262
24.6151
23.3682
24.5107
23.2681
24.2547
23.2225
23.8912
23.3338
23.3295
23.5661
22.7108
23.6358
22.4165
23.2067
22.0082
22.953
21.5553
22.5196
20.9563
21.6727
20.1532
20.3388
18.9911
18.2867
17.2762
15.6054
14.6841
12.0263
10.9546
7.47275
5.58684
1.35163
-1.36965
-6.39802
-9.92404
-15.5695
-19.873
-25.5364
-30.346
-35.1529
-39.6519
-42.613
-45.7585
-46.07
-47.1987
-44.39
-43.211
-37.6222
-34.3515
-27.199
-22.8481
-15.5755
-11.0924
-4.74179
-0.608543
4.07483
7.66386
10.6127
13.6369
15.1338
17.656
18.0816
20.2142
20.0964
21.74
21.1548
22.577
21.6017
23.126
21.8625
23.2591
21.9493
23.1873
21.9403
22.9059
21.8473
22.4907
21.7547
21.7163
21.6458
20.727
21.1638
19.8961
20.3939
18.816
19.2358
17.6718
17.8132
16.2591
16.1116
14.4901
14.0258
12.3877
11.3779
9.95255
8.12976
7.06725
4.47909
3.56534
0.574321
-0.565912
-3.71216
-5.30092
-8.04149
-9.82961
-12.1973
-13.9791
-15.7917
-17.4598
-18.6288
-19.8347
-20.2664
-21.1554
-20.6821
-21.415
-20.1882
-20.7155
-19.1749
-19.3768
-17.6647
-17.7744
-16.0199
-16.1975
-14.4486
-14.6924
-13.0449
-13.2267
-11.9317
-11.6526
-11.0707
-10.0183
-10.009
-8.32607
-8.87322
-7.07058
-7.31515
-5.4396
-5.45202
-3.40274
-3.06115
-0.769462
-0.0921497
2.58143
3.6894
6.80346
8.58557
12.0652
14.8282
18.7184
22.7553
27.08
32.5337
37.7622
44.5084
51.3846
59.1414
68.4251
77.0681
89.518
98.8891
115.338
124.982
147.489
155.248
189.594
186.537
235.825
224.462
269.56
9.36363
21.4929
18.4621
23.5252
22.2956
24.8314
23.7939
25.2353
24.4288
25.1031
24.7171
24.8047
24.9744
24.3919
25.222
24.0683
25.2838
24.157
24.8228
24.3171
24.5051
24.3266
24.3111
24.1357
24.1491
23.9882
23.9803
23.9794
23.7203
23.9983
23.4271
24.0682
23.1246
24.1425
22.8269
24.0311
22.8965
23.4217
22.8522
23.0013
22.452
22.718
22.1212
22.0674
21.5174
21.12
20.5787
19.6976
19.1012
17.532
16.849
14.3668
13.3952
10.0234
8.33661
4.27066
1.54821
-3.19082
-7.03648
-12.3931
-17.2801
-22.9504
-28.6273
-33.9345
-39.6263
-43.4535
-47.9535
-49.2156
-51.2886
-49.2523
-48.4389
-43.4391
-39.8314
-32.9654
-27.6739
-20.4423
-14.7915
-8.37067
-3.22932
1.67642
5.99566
9.20933
12.5407
14.3334
16.9663
17.6205
19.7658
19.8967
21.2878
21.32
22.0883
21.9564
22.4138
22.2415
22.5148
22.3933
22.4236
22.4598
22.2561
22.3942
22.0674
22.2715
21.5903
22.1024
21.0455
21.6695
20.3942
20.8264
19.6707
19.6803
18.7463
18.2936
17.4554
16.7693
15.7849
14.9202
13.7954
12.5244
11.4414
9.53802
8.58928
5.99887
5.07713
2.00066
0.70179
-2.2788
-4.15435
-6.92797
-9.04753
-11.5501
-13.6844
-15.7339
-17.6542
-19.0179
-20.5877
-21.1107
-22.1771
-21.8102
-22.5063
-21.4365
-21.5832
-20.3219
-20.0593
-18.8334
-18.2384
-17.207
-16.5644
-15.686
-15.112
-14.4111
-13.8006
-13.3664
-12.5547
-12.5028
-11.2916
-11.6637
-10.117
-10.3773
-9.00452
-9.00982
-7.66991
-7.38682
-6.01059
-5.48943
-3.89292
-3.15768
-1.24087
-0.170149
2.08386
3.6895
6.2399
8.6384
11.4685
14.8899
18.1458
22.6201
26.7726
31.914
37.6225
43.2156
51.0705
57.0222
67.5076
73.7625
87.5593
93.5369
112.363
115.601
146.019
139.574
180.753
178.248
218.839
12.1456
22.7156
19.1237
23.4025
22.4259
24.4185
23.8027
24.9132
24.4554
24.9202
24.7178
24.7432
24.8717
24.4494
24.983
24.2043
24.9056
24.3284
24.5679
24.3799
24.3844
24.3314
24.2223
24.237
24.0405
24.1212
23.8549
23.9982
23.6166
23.885
23.3722
23.8304
23.0952
23.7793
22.869
23.5228
22.9327
23.217
22.7533
22.9067
22.5031
22.5014
22.1471
21.9249
21.5665
21.0754
20.6811
19.8231
19.3883
17.9806
17.4209
15.3588
14.4176
11.7007
9.99715
6.54982
3.88892
-0.467085
-4.24483
-9.5239
-14.4874
-20.3943
-26.3558
-32.3481
-38.5933
-43.6571
-48.8616
-51.5692
-54.2744
-53.4276
-52.7923
-48.1994
-44.1074
-36.7348
-30.7519
-22.8369
-16.6996
-9.58203
-4.1582
1.31772
5.76075
9.46508
12.8187
14.9492
17.421
18.4224
20.1536
20.6151
21.776
21.833
22.5982
22.5098
22.8403
22.8103
22.8486
22.8411
22.7621
22.7726
22.5837
22.624
22.3283
22.4349
21.8633
22.1507
21.3065
21.6906
20.73
20.928
20.0227
19.892
19.087
18.6794
17.8383
17.2174
16.2981
15.3995
14.4239
13.1451
12.1523
10.3784
9.37333
7.1124
5.93104
3.38426
1.79194
-0.921365
-2.89409
-5.63142
-7.8256
-10.4178
-12.6607
-14.8681
-16.9648
-18.5431
-20.255
-21.0046
-22.2151
-22.1196
-22.7929
-21.9828
-22.13
-20.8626
-20.4985
-19.1516
-18.4777
-17.2273
-16.526
-15.4797
-14.7713
-13.9998
-13.2337
-12.7564
-11.8158
-11.6759
-10.4496
-10.5867
-9.22859
-9.48499
-8.13259
-8.17559
-6.84354
-6.63078
-5.18741
-4.76661
-3.06359
-2.42836
-0.370694
0.597597
3.00236
4.5577
7.2875
9.62364
12.7623
16.0161
19.7568
23.9687
28.7279
33.7553
40.1038
45.7727
54.2257
60.4303
71.5284
78.0361
92.4876
98.6022
118.229
120.452
148.391
145.047
176.256
172.419
201.218
11.2524
20.7997
17.6896
21.8027
21.1513
23.211
22.9934
24.0771
24.0411
24.3952
24.6
24.4122
24.8876
24.3314
25.0277
24.2571
24.9323
24.5057
24.6462
24.5667
24.5235
24.5486
24.3472
24.5097
24.058
24.3761
23.7888
24.3061
23.561
24.2459
23.4234
24.1025
23.2348
24.0945
23.1347
23.8881
23.2383
23.4968
23.2548
23.271
23.0727
23.0625
22.8724
22.6916
22.5129
22.0875
21.8989
21.115
20.8777
19.5947
19.1737
17.2963
16.4593
13.9263
12.4095
9.15282
6.67201
2.57086
-1.16963
-6.21294
-11.4105
-17.3766
-23.9673
-30.5045
-37.8536
-43.9952
-50.7201
-54.8913
-59.0837
-59.4476
-59.4438
-55.4911
-51.546
-44.4461
-37.6464
-29.1487
-21.6037
-13.6995
-6.97065
-0.88884
4.38693
8.4846
12.1914
14.5874
17.1923
18.346
20.046
20.5384
21.7581
21.8098
22.471
22.4975
22.6551
22.7502
22.6145
22.8391
22.4679
22.8427
22.3392
22.7735
22.2164
22.657
21.9505
22.5002
21.5706
22.0825
21.1515
21.3551
20.6179
20.4546
19.7901
19.3818
18.6974
18.0617
17.3143
16.4148
15.5856
14.3178
13.4404
11.7003
10.7311
8.52172
7.33022
4.73018
3.15453
0.363754
-1.69714
-4.57967
-6.98588
-9.8017
-12.3524
-14.8642
-17.274
-19.2078
-21.196
-22.2768
-23.6014
-23.71
-24.279
-23.5251
-23.3744
-22.1568
-21.5383
-20.1706
-19.3695
-18.1099
-17.3046
-16.3368
-15.6016
-14.9829
-14.2505
-13.9779
-13.1048
-13.1442
-12.0536
-12.2866
-11.0729
-11.1921
-10.1783
-10.0579
-9.08003
-8.80415
-7.72281
-7.34776
-6.06417
-5.5305
-4.02198
-3.18291
-1.45131
-0.163173
1.83014
3.70085
6.04649
8.59449
11.4991
14.6963
18.5542
22.2563
27.4855
31.5706
38.6826
43.0372
52.5063
57.0164
69.4968
73.3281
91.0001
91.7099
116.294
114.387
142.835
142.75
169.769
13.604
21.9833
18.6072
22.37
21.4455
23.2191
23.0661
23.9086
24.0367
24.2226
24.5132
24.34
24.7448
24.2593
24.8728
24.196
24.719
24.4498
24.4574
24.447
24.3607
24.4666
24.2369
24.4474
24.0789
24.3846
23.8079
24.215
23.518
24.0417
23.3102
23.9586
23.0993
23.8491
23.0124
23.5646
23.1586
23.2057
23.1122
23.0756
22.9555
22.8407
22.7799
22.5179
22.4736
22.023
21.9877
21.2779
21.1984
20.1253
19.8719
18.3619
17.7067
15.6722
14.3318
11.6349
9.31832
5.70146
2.08339
-2.68503
-7.84927
-13.8024
-20.5692
-27.6303
-35.6128
-43.0619
-51.0239
-57.101
-62.7277
-64.9775
-66.1867
-63.2445
-59.0622
-51.4335
-43.3937
-33.9694
-25.6099
-16.6521
-9.28001
-2.21258
3.60839
8.48651
12.4538
15.2003
17.7167
19.2724
20.7361
21.3605
22.4388
22.5461
23.1154
23.2179
23.2988
23.3873
23.2448
23.3388
23.0265
23.2036
22.7896
23.0358
22.5285
22.8589
22.231
22.5958
21.8895
22.1426
21.5094
21.4848
20.9527
20.7036
20.1573
19.7391
19.1368
18.528
17.877
17.0145
16.3072
15.1059
14.3311
12.7442
11.8067
9.84939
8.59931
6.33684
4.61548
2.09039
-0.0992006
-2.851
-5.4066
-8.24357
-10.9832
-13.6466
-16.3043
-18.4646
-20.7276
-22.0879
-23.6962
-24.092
-24.9063
-24.3966
-24.4165
-23.1666
-22.4939
-20.9396
-19.9157
-18.4733
-17.3759
-16.2607
-15.2339
-14.5118
-13.515
-13.1864
-12.0894
-12.0994
-10.8607
-11.0707
-9.88481
-10.0834
-9.06939
-9.07999
-8.07418
-7.93672
-6.84277
-6.54976
-5.28217
-4.79817
-3.28562
-2.50826
-0.744467
0.490859
2.55043
4.34988
6.82697
9.24624
12.3604
15.4005
19.4823
23.0259
28.551
32.4421
39.8227
43.9674
53.6057
57.8009
70.3874
73.6273
90.5273
90.8823
112.548
110.201
132.972
131.836
153.251
13.4818
21.513
17.9012
21.9687
20.7688
22.7477
22.5398
23.4944
23.6447
23.9781
24.3053
24.1915
24.6911
24.2793
24.8518
24.3609
24.7264
24.5909
24.6219
24.6727
24.5274
24.7164
24.3747
24.6558
24.1538
24.5945
23.9274
24.4862
23.6742
24.3342
23.4411
24.1367
23.3292
24.0559
23.2797
23.8648
23.4533
23.559
23.4878
23.4746
23.4403
23.3258
23.3726
23.0989
23.2065
22.7734
22.8844
22.2285
22.2862
21.3225
21.1852
19.8249
19.2877
17.4438
16.2872
13.8505
11.8281
8.56639
5.26359
0.881399
-4.18561
-10.0627
-17.1342
-24.6422
-33.6228
-42.2474
-51.8923
-59.7748
-67.6407
-72.0825
-74.899
-72.7332
-68.8536
-61.2365
-52.6462
-41.8252
-31.7607
-21.4776
-12.463
-4.54597
2.22385
7.88191
12.2416
15.4125
17.9879
19.5889
20.9138
21.6746
22.4667
22.6771
23.1666
23.1381
23.1664
23.195
23.0385
23.1147
22.7861
23.0458
22.5835
23.0263
22.454
22.9723
22.3223
22.8381
22.1116
22.4869
21.87
21.8917
21.4141
21.2238
20.7425
20.3589
19.8559
19.2554
18.7306
17.8814
17.2873
16.1271
15.4329
13.9237
13.0308
11.1538
9.94527
7.69512
6.04536
3.45776
1.28642
-1.62118
-4.28085
-7.37774
-10.3801
-13.4203
-16.4558
-19.0917
-21.7446
-23.5463
-25.4139
-26.0565
-26.8744
-26.2916
-26.0812
-24.6407
-23.7334
-21.9675
-20.8091
-19.1883
-18.0618
-16.8843
-15.9361
-15.3584
-14.5015
-14.3987
-13.5044
-13.6031
-12.6155
-12.7748
-11.7317
-11.8091
-11.0126
-10.9021
-10.1053
-9.92657
-9.05083
-8.81412
-7.80785
-7.45231
-6.28507
-5.69941
-4.36568
-3.44572
-1.87175
-0.552516
1.39157
3.14262
5.6584
7.82184
11.2249
13.7215
18.3651
21.1101
27.4133
30.333
38.7289
41.6393
52.8592
55.0356
70.5516
70.3607
89.8226
90.2436
110.673
111.152
131.22
15.0289
22.9104
18.8356
22.7869
21.2599
23.1088
22.7362
23.5642
23.6747
23.9001
24.2335
24.0814
24.5568
24.1485
24.7346
24.2156
24.6803
24.3975
24.3637
24.5252
24.313
24.5756
24.2551
24.589
24.1151
24.5248
23.895
24.3681
23.6226
24.1855
23.3605
24.0417
23.1279
23.8597
23.1055
23.5716
23.2746
23.2522
23.2955
23.2084
23.2801
23.1002
23.2316
22.9615
23.1467
22.7587
22.9721
22.4252
22.6122
21.8635
21.908
20.8898
20.585
19.1909
18.2847
16.338
14.5347
11.7782
8.65351
4.72346
-0.0387102
-5.53005
-12.4507
-20.0607
-29.4238
-39.2407
-50.4278
-61.1244
-71.5506
-79.1077
-84.3821
-84.9859
-82.2338
-74.5195
-64.5592
-52.0999
-40.128
-27.7748
-17.1192
-7.44418
0.409401
7.15985
12.6356
16.0252
18.914
20.3198
22.1442
22.4222
23.4248
23.5851
23.9882
24.0516
24.0319
24.0383
23.8146
23.8333
23.4222
23.5515
23.0225
23.3632
22.7317
23.1628
22.5728
22.9589
22.3824
22.6054
22.1596
22.0572
21.7362
21.4683
21.1312
20.7194
20.3446
19.7513
19.3534
18.5543
18.0936
17.0196
16.4523
15.0886
14.298
12.6185
11.4707
9.46765
7.80547
5.4435
3.21226
0.4537
-2.34606
-5.42735
-8.65022
-11.8498
-15.1843
-18.126
-21.1815
-23.3896
-25.7069
-26.8071
-28.0548
-27.9004
-27.9704
-26.6618
-25.6381
-23.6753
-22.0968
-20.2776
-18.5575
-17.1893
-15.6406
-14.8861
-13.5905
-13.3928
-12.2119
-12.3544
-11.1251
-11.4716
-10.3289
-10.5786
-9.89629
-9.90676
-9.22559
-9.12502
-8.38577
-8.20348
-7.34405
-7.03451
-6.0081
-5.46075
-4.26152
-3.38529
-1.926
-0.684397
1.17986
2.79059
5.27262
7.22402
10.6179
12.8014
17.4712
19.8157
26.0791
28.5286
36.7886
39.0558
50.0351
51.1308
65.6026
65.4764
81.8845
81.6802
99.0029
99.0475
116.103
14.9592
23.0739
18.6221
22.8177
20.9388
23.1217
22.4982
23.4964
23.5371
23.8314
24.2062
24.0421
24.6293
24.1497
24.8086
24.3189
24.7375
24.6457
24.591
24.7317
24.4956
24.8009
24.3942
24.803
24.2593
24.7502
24.0562
24.6584
23.8105
24.4114
23.5373
24.2248
23.371
24.0721
23.3223
23.8547
23.5412
23.5709
23.6429
23.5422
23.6624
23.4658
23.6682
23.3661
23.6413
23.2352
23.5563
23.0336
23.3224
22.6471
22.7846
21.8748
21.6901
20.4822
19.7881
18.1577
16.6864
14.3453
11.6501
8.1466
3.71079
-1.46227
-8.25468
-15.9436
-25.8538
-36.527
-49.1331
-61.454
-74.6736
-86.0794
-94.536
-97.7647
-96.1085
-88.3833
-77.1116
-62.5983
-48.7256
-34.5365
-22.0458
-10.7894
-1.74533
6.47865
12.3511
17.2742
19.3548
21.2445
22.861
23.2627
23.6251
23.7825
24.1372
23.9944
23.8963
23.8079
23.4811
23.4944
23.052
23.3569
22.7231
23.2701
22.6481
23.2123
22.6528
23.129
22.6085
22.8801
22.479
22.4145
22.1119
21.9078
21.5981
21.2205
20.9105
20.3309
20.0173
19.243
18.8698
17.8597
17.3592
16.1005
15.3729
13.8173
12.7433
10.8526
9.29635
6.9996
4.84813
2.07083
-0.740236
-3.98441
-7.38614
-10.9295
-14.6686
-18.1054
-21.7007
-24.4619
-27.3022
-28.7624
-30.3063
-30.0806
-30.0692
-28.3504
-27.0562
-24.643
-22.8251
-20.6895
-18.9318
-17.4733
-16.0928
-15.5424
-14.4927
-14.6061
-13.7357
-13.9535
-12.9937
-13.1604
-12.1342
-12.1339
-11.5757
-11.4524
-10.8644
-10.7286
-10.0606
-9.87913
-9.18597
-8.9357
-8.10571
-7.74725
-6.76752
-6.19539
-4.98877
-4.1816
-2.60772
-1.55757
0.544534
1.84952
4.69272
6.17974
10.1337
11.6851
17.0952
18.6345
25.9474
27.3243
37.1634
37.8231
50.2224
51.281
65.5659
66.9645
82.1976
83.2686
99.1538
16.6139
24.4347
19.6096
23.6968
21.5098
23.6348
22.7764
23.7292
23.609
23.8677
24.1402
23.9978
24.4643
24.0821
24.6485
24.2105
24.6015
24.4472
24.3505
24.601
24.3291
24.6835
24.2575
24.7007
24.1505
24.6705
23.9299
24.5484
23.7253
24.3355
23.4671
24.1597
23.1782
23.909
23.1334
23.609
23.3789
23.3005
23.3995
23.2792
23.4878
23.2478
23.5393
23.2256
23.5795
23.2037
23.5775
23.1515
23.5145
23.009
23.2912
22.6628
22.6644
21.8258
21.3395
20.1567
18.9492
17.1852
14.8854
12.1165
8.23486
3.83198
-2.35898
-9.44895
-19.0575
-30.257
-44.2798
-59.9708
-76.8491
-92.4608
-106.168
-113.822
-116.297
-110.766
-98.673
-80.9335
-63.2825
-45.6373
-30.2784
-16.5604
-5.70007
3.8229
12.5636
17.3341
21.0057
21.9592
24.3975
24.1076
24.9549
24.8392
25.245
25.2756
25.0693
24.9585
24.5272
24.4305
23.6479
23.9923
23.0822
23.6054
22.7697
23.318
22.8042
23.2473
22.7516
23.0432
22.6769
22.6052
22.3941
22.1369
21.9683
21.5646
21.3894
20.8241
20.6315
19.9043
19.6574
18.7316
18.3602
17.2274
16.6381
15.2512
14.3019
12.6018
11.1443
9.02783
6.91728
4.25784
1.38981
-1.87567
-5.46866
-9.21698
-13.3157
-17.1507
-21.2402
-24.5537
-27.9923
-30.1262
-32.3278
-32.8211
-33.3128
-31.9744
-30.6112
-27.9551
-25.407
-22.9828
-20.2049
-18.1944
-15.8259
-14.7537
-13.0915
-13.0317
-11.9545
-12.2795
-11.1061
-11.7014
-10.4975
-10.9656
-10.4834
-10.5469
-10.1502
-10.086
-9.67018
-9.51497
-9.06346
-8.84282
-8.27312
-7.9234
-7.207
-6.66055
-5.70545
-4.95994
-3.64063
-2.70839
-0.845701
0.225558
2.95682
3.97078
7.81636
8.85411
13.9882
15.0103
21.7398
22.6706
31.2638
32.3812
42.577
43.9351
55.6214
57.0439
70.2015
71.1572
85.3339
16.6111
25.0415
19.5507
24.0518
21.5215
23.8464
22.7595
23.9268
23.6159
24.0283
24.2084
24.1087
24.5896
24.1696
24.7607
24.328
24.7779
24.6203
24.5641
24.7803
24.4318
24.8759
24.3787
24.9119
24.3129
24.897
24.1269
24.8199
23.89
24.5966
23.6529
24.3704
23.3937
24.1584
23.3178
23.8366
23.479
23.5535
23.7164
23.5014
23.7606
23.4927
23.8416
23.4811
23.8722
23.4727
23.9382
23.5183
23.9658
23.4977
23.8452
23.2885
23.3999
22.7242
22.4164
21.4907
20.5394
19.1145
17.1764
14.8362
11.4406
7.5625
1.95479
-4.63386
-13.7927
-24.7853
-39.0595
-55.8601
-75.6272
-96.1591
-114.335
-127.196
-134.284
-132.038
-119.628
-99.8699
-79.1347
-57.5755
-38.9285
-22.0502
-9.70515
1.44896
11.4704
17.8985
22.3301
24.2481
24.3006
24.6472
24.9392
25.2629
24.9007
25.0975
24.7789
24.6752
24.0118
24.106
23.295
23.691
22.8048
23.4546
22.709
23.3155
22.8501
23.4093
22.9349
23.331
22.969
22.921
22.7768
22.5084
22.3892
21.9771
21.8829
21.2973
21.2111
20.4971
20.3511
19.4943
19.2078
18.1874
17.6861
16.4439
15.6183
14.1045
12.7803
10.8815
8.9142
6.42494
3.64408
0.448037
-3.21487
-7.1048
-11.5347
-15.813
-20.5726
-24.5293
-28.7991
-31.4666
-34.3539
-35.0229
-35.7906
-34.0959
-32.3366
-29.0186
-25.8976
-23.1259
-20.4146
-18.4455
-16.2246
-15.529
-14.0847
-14.3966
-13.6995
-14.2741
-13.2719
-13.5798
-12.2009
-12.1334
-11.851
-11.7449
-11.4924
-11.2613
-10.8503
-10.569
-10.274
-10.0531
-9.60507
-9.39001
-8.79832
-8.53663
-7.68611
-7.3546
-6.14404
-5.77646
-4.0532
-3.69357
-1.24527
-0.84273
2.41804
2.8494
7.22534
7.60459
13.5414
13.9634
21.4554
22.2145
31.3436
32.4425
43.1671
44.4803
56.6756
57.7146
71.2603
18.0741
26.5164
20.6167
24.9225
22.2105
24.3578
23.1188
24.1438
23.7575
24.0635
24.2275
24.04
24.5278
24.0694
24.6662
24.1708
24.6145
24.4583
24.3901
24.6654
24.2867
24.7709
24.2216
24.8244
24.103
24.8138
23.9772
24.7309
23.788
24.5588
23.5496
24.331
23.315
24.0252
23.1581
23.6816
23.3596
23.364
23.5098
23.289
23.5964
23.2387
23.7573
23.2779
23.8558
23.4272
23.8514
23.5154
23.9792
23.6287
24.0984
23.7634
23.9985
23.6406
23.4939
22.9873
22.2639
21.3764
19.7881
18.12
15.2687
12.2432
7.48223
1.98357
-6.08617
-16.2222
-30.273
-48.3325
-70.1411
-94.1362
-118.36
-137.223
-151.163
-156.391
-148.087
-124.77
-99.6194
-74.676
-51.7269
-32.22
-16.9947
-4.67751
6.48929
16.8218
23.4196
25.5506
27.7158
25.8269
26.7374
26.1958
26.6888
26.5586
26.2848
26.2367
25.3421
25.1638
23.9705
24.3112
23.0247
23.6213
22.6639
23.3147
22.8165
23.4276
22.9769
23.3969
23.1125
23.0253
22.9851
22.6907
22.6733
22.2558
22.2527
21.7096
21.6829
21.0311
20.9511
20.1753
19.9912
19.0822
18.7138
17.642
16.9345
15.6513
14.4745
12.8237
11.0205
8.75254
6.05039
2.90983
-0.824174
-4.92853
-9.74855
-14.5088
-19.8752
-24.5486
-29.6704
-33.3133
-37.2323
-39.0028
-40.8187
-39.8099
-38.5213
-34.8142
-30.4719
-27.0904
-22.7828
-19.5343
-15.747
-13.9117
-11.4058
-11.7563
-10.7667
-12.015
-10.6251
-12.0833
-10.626
-11.1442
-10.6622
-10.9351
-10.7559
-10.8187
-10.6435
-10.4237
-10.324
-10.0772
-10.0037
-9.6863
-9.47502
-9.12556
-8.62603
-8.26037
-7.38376
-7.03612
-5.67518
-5.40408
-3.26473
-3.0907
-0.117924
-0.00451809
3.92425
3.88624
9.10847
9.06669
15.5707
15.8432
23.7393
24.1724
33.5072
34.0873
45.0112
45.534
58.2455
17.9477
27.1411
20.7292
25.4127
22.41
24.6838
23.3677
24.3981
23.9927
24.2634
24.428
24.2044
24.7272
24.1924
24.8643
24.3173
24.7907
24.6157
24.5102
24.8775
24.3537
24.9983
24.3128
25.0457
24.2645
25.0542
24.1131
25.0176
23.902
24.8435
23.7056
24.566
23.5541
24.2469
23.3596
23.8993
23.4737
23.5072
23.7163
23.3542
23.8048
23.3194
23.8854
23.394
24.0378
23.4384
24.307
23.7298
24.2769
23.9057
24.3767
24.0609
24.3348
24.0769
24.0195
23.7049
23.1588
22.5469
21.2774
19.9837
17.6233
15.0873
11.0561
6.31233
-0.574383
-9.51636
-21.952
-39.2003
-61.5897
-87.3463
-114.213
-137.589
-156.923
-168.534
-165.763
-147.96
-121.105
-89.873
-63.3367
-37.8868
-22.8627
-8.23575
4.11255
13.4629
24.8095
23.2858
28.2141
26.7884
26.5829
25.896
25.6906
26.0532
25.6577
25.7916
24.8555
24.8791
23.6964
24.0412
22.8736
23.4494
22.5679
23.3047
22.752
23.6432
23.0698
23.6761
23.4255
23.2921
23.3017
23.0119
23.0293
22.565
22.6547
22.0447
22.1684
21.5013
21.5481
20.8308
20.7227
19.9213
19.6259
18.7155
18.1091
17.0319
16.0088
14.611
13.0186
11.0219
8.55902
5.65713
2.05971
-1.91286
-6.79992
-11.7889
-17.7439
-23.0146
-29.0448
-33.2473
-38.1735
-40.5416
-43.3988
-43.0331
-41.2413
-37.0525
-30.6298
-26.8191
-23.207
-20.5832
-16.8045
-15.4583
-12.6549
-13.3288
-12.5525
-14.6524
-13.911
-13.8726
-12.1798
-11.5247
-11.715
-11.7446
-12.2465
-11.5959
-11.438
-10.9374
-10.9561
-10.8781
-10.7948
-10.5577
-10.5432
-10.2877
-10.0322
-9.77618
-9.21517
-9.0292
-8.02626
-8.00898
-6.33833
-6.56616
-4.0769
-4.42366
-1.20594
-1.71111
2.57593
2.21372
7.45793
7.67435
14.1951
14.9646
22.6295
23.562
32.8941
33.7515
45.5889
19.3211
28.5537
21.7471
26.2384
23.1009
25.115
23.7769
24.5597
24.2048
24.2712
24.51
24.1181
24.7234
24.0768
24.8205
24.1758
24.6991
24.5
24.3731
24.7865
24.1894
24.9216
24.1108
24.9584
24.0526
24.9717
23.9347
24.9407
23.7701
24.8276
23.5934
24.6176
23.4138
24.2459
23.3162
23.7729
23.4741
23.3941
23.6292
23.2306
23.6776
23.1495
23.737
23.2272
23.9142
23.3472
24.0657
23.4459
24.3214
23.8037
24.4437
24.27
24.5527
24.5395
24.531
24.5312
24.1099
23.8988
22.8758
22.089
20.1665
18.338
15.0537
11.3377
5.64333
-1.7372
-12.3413
-27.5654
-48.3462
-72.9885
-101.277
-127.821
-150.839
-167.95
-171.899
-159.838
-133.921
-108.232
-79.3929
-50.2487
-31.6909
-19.8041
-2.16664
8.58268
21.8601
26.9805
26.3142
28.4392
27.897
27.5887
27.0651
27.7903
27.2143
27.5476
26.3457
26.0484
24.3165
24.5495
22.9907
23.5742
22.2762
23.1617
22.4137
23.5367
22.9968
23.661
23.5033
23.3845
23.4285
23.1475
23.2939
22.797
23.0096
22.3808
22.5778
21.8665
22.0294
21.2866
21.3249
20.5871
20.4341
19.6554
19.1936
18.3193
17.4618
16.351
15.0301
13.3872
11.1816
8.56196
5.14911
1.24658
-3.84835
-9.20556
-15.9018
-22.0656
-29.4303
-34.9198
-41.1096
-44.7463
-49.1894
-50.1261
-50.8638
-47.0033
-38.9881
-32.6759
-26.5513
-21.857
-15.9145
-12.7288
-8.45393
-8.58299
-7.63461
-10.3416
-10.3917
-13.8336
-11.4026
-11.206
-10.0194
-10.6137
-11.0151
-11.7418
-11.5153
-10.9422
-10.9806
-10.7008
-11.1444
-10.8228
-11.0729
-10.7939
-10.8042
-10.5532
-10.2625
-10.046
-9.47401
-9.49473
-8.11055
-8.44522
-6.37042
-6.85327
-4.02181
-5.06182
-1.22765
-2.2052
2.23054
1.60193
7.39534
6.78626
13.9745
13.0854
21.9188
20.9912
32.9056
19.1485
29.07
22.0031
26.6431
23.4733
25.4299
24.2101
24.8046
24.612
24.4514
24.8558
24.2582
25.0144
24.1911
25.0565
24.299
24.8552
24.6601
24.4632
24.9827
24.2404
25.1468
24.1628
25.1998
24.1203
25.203
24.0504
25.1727
23.8924
25.0497
23.7082
24.8321
23.5531
24.4974
23.4844
23.965
23.5815
23.4109
23.7051
23.2099
23.807
23.1207
23.9369
23.1551
24.1385
23.3808
24.3186
23.6954
24.4226
23.9588
24.5173
24.3003
24.5968
24.6239
24.6134
24.7425
24.3953
24.3618
23.543
22.9909
21.4176
19.9175
17.2084
14.1269
9.47979
3.49395
-5.16813
-17.2387
-34.9377
-56.8382
-82.551
-108.487
-131.53
-149.323
-158.292
-154.868
-139.135
-112.392
-84.4307
-56.228
-33.0561
-23.1575
-6.27075
4.44489
18.2599
25.5698
25.8079
25.9753
27.3443
25.8447
25.6684
26.2149
26.4413
26.7496
25.8515
25.9409
24.356
24.4016
22.9461
23.4261
22.193
22.9751
22.3685
23.4587
23.0409
23.9071
23.725
23.7129
23.6953
23.3587
23.5284
22.9195
23.2513
22.5329
22.9623
22.1613
22.5273
21.7694
21.8853
21.1913
21.093
20.4145
20.0721
19.3392
18.6154
17.7323
16.6131
15.3082
13.4476
11.2005
8.1168
4.60607
-0.272833
-5.51834
-12.4997
-18.9894
-27.0984
-32.9071
-40.0293
-43.9284
-50.0977
-52.7988
-53.8506
-51.5724
-38.0733
-31.1922
-28.1113
-25.5928
-19.621
-16.822
-10.8912
-10.4182
-9.91654
-13.2686
-14.1149
-14.9406
-12.9008
-10.8004
-10.315
-11.4213
-12.6998
-11.9442
-11.9024
-10.9183
-11.1751
-11.174
-11.4378
-11.0777
-11.5541
-11.3663
-11.5277
-11.3462
-11.182
-11.1085
-10.6979
-10.8419
-9.92703
-10.4849
-8.80878
-9.45804
-7.12966
-8.75412
-5.69158
-6.95219
-3.81779
-4.72158
-0.126137
0.183627
4.52714
5.44395
10.5219
10.8828
20.0498
20.5768
30.1838
22.9779
27.2285
24.0639
25.617
24.6264
24.7768
24.9002
24.3273
25.0421
24.1109
25.1009
24.0426
25.0613
24.1775
24.7999
24.6018
24.3105
24.983
24.0429
25.152
23.9473
25.1937
23.8902
25.2057
23.8077
25.1944
23.6904
25.1065
23.5638
24.9045
23.4491
24.565
23.4415
24.0203
23.649
23.3831
23.8049
23.1092
23.8115
22.9534
23.9142
22.9314
24.0699
23.0237
24.2282
23.3269
24.355
23.7956
24.4375
24.3464
24.606
24.7667
24.7219
25.046
24.7123
24.9173
24.2223