/*--------------------------------*- C++ -*----------------------------------*\
| =========                 |                                                 |
| \\      /  F ield         | OpenFOAM: The Open Source CFD Toolbox           |
|  \\    /   O peration     | Version:  4.1                                   |
|   \\  /    A nd           | Web:      www.OpenFOAM.org                      |
|    \\/     M anipulation  |                                                 |
\*---------------------------------------------------------------------------*/
FoamFile
{
    version     2.0;
    format      ascii;
    class       volScalarField;
    location    "1.5";
    object      p;
}
// * * * * * * * * * * * * * * * * * * * * * * * * * * * * * * * * * * * * * //

dimensions      [0 2 -2 0 0 0 0];

internalField   nonuniform List<scalar> 
204246
(
-57.4202
-67.6979
-65.237
-62.6799
-60.6804
-58.8619
-57.4165
-56.2003
-55.3463
-54.4155
-53.8624
-53.2519
-52.7638
-52.2851
-51.955
-51.8133
-51.9506
-51.9639
-51.5439
-51.421
-51.2727
-51.1528
-51.0266
-50.929
-50.8335
-50.7754
-50.73
-50.7167
-50.6812
-50.6381
-50.5719
-50.5052
-50.3876
-50.3189
-50.3184
-50.5327
-50.7246
-50.6421
-50.6049
-50.5511
-50.516
-50.4821
-50.4718
-50.4374
-50.4349
-50.4503
-50.4915
-50.4758
-50.4327
-50.2832
-50.2866
-50.1126
-50.4429
-50.6192
-50.5418
-50.5349
-50.4801
-50.4516
-50.4318
-50.3982
-50.3949
-50.3922
-50.3998
-50.4426
-50.4296
-50.3832
-50.2295
-50.2334
-50.0613
-50.3945
-50.605
-50.5494
-50.4981
-50.4359
-50.4196
-50.377
-50.338
-50.3462
-50.3542
-50.3427
-50.4221
-50.2556
-50.3514
-50.2663
-50.1551
-50.0609
-50.404
-50.571
-50.4838
-50.4628
-50.4321
-50.385
-50.3514
-50.352
-50.3412
-50.321
-50.3173
-50.4251
-50.2584
-50.3765
-50.3457
-50.2766
-50.1675
-50.1004
-50.0606
-50.4795
-50.5806
-50.3687
-50.4072
-50.3938
-50.3896
-50.342
-50.2748
-50.2781
-50.3329
-50.325
-50.3252
-50.3035
-50.2429
-50.1251
-50.0775
-49.9747
-50.3481
-50.4562
-50.2293
-50.341
-50.2749
-50.226
-50.1315
-50.0506
-50.0117
-49.9798
-49.8397
-49.9215
-49.6906
-49.7542
-49.5083
-49.3596
-49.2274
-49.2294
-49.1907
-48.9137
-48.6592
-48.2958
-47.8634
-47.3735
-46.8046
-46.1307
-45.4182
-44.6616
-43.9916
-43.5356
-43.6852
-44.9496
-48.0927
-53.9551
-62.9771
-72.1633
-81.8855
-90.2932
-93.7321
-97.4325
-99.1441
-99.9801
-100.034
-99.2866
-98.1769
-97.0361
-94.7856
-92.5109
-89.4869
-86.4981
-82.7468
-78.6376
-74.2388
-68.9617
-62.3342
-54.6835
-46.6534
-37.2526
-26.4163
-13.9393
0.251729
16.5579
34.9643
55.6372
78.5269
104.3
133.784
172.707
231.758
324.927
449.874
-75.2785
-69.4983
-66.4776
-63.9369
-61.739
-59.9097
-58.3258
-57.1209
-56.1592
-55.2377
-54.4633
-53.7819
-53.2218
-52.7601
-52.3812
-52.138
-52.0468
-51.9404
-51.7959
-51.6685
-51.5425
-51.4113
-51.2822
-51.1665
-51.0853
-51.0366
-51.0044
-50.9672
-50.9216
-50.8875
-50.8347
-50.7778
-50.6775
-50.6194
-50.6183
-50.7149
-50.798
-50.8116
-50.8033
-50.7889
-50.7872
-50.7728
-50.761
-50.7193
-50.7018
-50.7028
-50.6965
-50.6924
-50.6847
-50.622
-50.5896
-50.5658
-50.5985
-50.6676
-50.715
-50.7169
-50.6972
-50.7199
-50.7066
-50.6995
-50.6674
-50.6449
-50.6513
-50.6526
-50.641
-50.6297
-50.5746
-50.5268
-50.5021
-50.5456
-50.6314
-50.6866
-50.6993
-50.6952
-50.712
-50.6752
-50.6728
-50.6359
-50.6077
-50.5955
-50.6234
-50.6086
-50.5495
-50.5162
-50.4908
-50.5051
-50.537
-50.5717
-50.6303
-50.7059
-50.7059
-50.7099
-50.6808
-50.6598
-50.6091
-50.5626
-50.5307
-50.556
-50.5645
-50.6352
-50.6331
-50.5527
-50.5059
-50.4762
-50.4607
-50.5396
-50.6409
-50.6705
-50.6889
-50.6719
-50.6637
-50.6174
-50.5626
-50.5316
-50.5311
-50.5528
-50.5807
-50.5829
-50.5297
-50.4853
-50.4522
-50.4291
-50.4795
-50.5352
-50.5367
-50.5414
-50.5278
-50.5025
-50.4478
-50.3871
-50.3495
-50.2947
-50.2583
-50.1951
-50.1171
-50.0267
-49.9101
-49.831
-49.7622
-49.679
-49.5457
-49.4067
-49.2404
-49.0283
-48.7342
-48.3344
-47.8753
-47.3408
-46.7173
-45.8882
-44.8591
-43.8582
-43.1971
-43.1721
-44.6613
-49.6213
-59.9571
-71.5702
-82.0138
-90.1849
-94.8016
-97.6161
-99.9254
-101.306
-102.061
-101.524
-100.704
-100.625
-99.0587
-96.9706
-94.865
-92.5257
-89.4997
-86.4981
-82.7019
-78.0095
-72.3519
-65.7891
-58.622
-50.7058
-41.5827
-31.0865
-19.1769
-5.47865
10.0404
27.4805
46.4427
66.9475
89.0098
114.48
150.29
216.454
314.37
-79.5083
-72.1649
-67.2424
-64.0337
-61.4774
-59.5821
-58.0297
-56.8646
-55.7801
-54.9985
-54.2385
-53.6018
-53.0453
-52.6146
-52.2749
-52.027
-51.8149
-51.6666
-51.5481
-51.4269
-51.2916
-51.1499
-50.9993
-50.8378
-50.7034
-50.5867
-50.5317
-50.4941
-50.485
-50.5017
-50.4569
-50.3953
-50.3314
-50.2909
-50.2631
-50.2597
-50.2979
-50.3437
-50.3494
-50.3285
-50.2959
-50.2813
-50.2512
-50.2375
-50.2332
-50.2598
-50.2954
-50.2961
-50.2682
-50.1932
-50.164
-50.1579
-50.1748
-50.2227
-50.2736
-50.2786
-50.2605
-50.2303
-50.2147
-50.1884
-50.1913
-50.1982
-50.2296
-50.2511
-50.2514
-50.2345
-50.1628
-50.1312
-50.1224
-50.1418
-50.1851
-50.2035
-50.1954
-50.1837
-50.1624
-50.141
-50.1229
-50.1474
-50.1377
-50.1454
-50.1458
-50.1747
-50.1904
-50.1252
-50.1024
-50.0857
-50.1366
-50.162
-50.1658
-50.1458
-50.1326
-50.0942
-50.1018
-50.12
-50.1511
-50.1423
-50.1533
-50.1526
-50.1514
-50.1673
-50.1411
-50.1137
-50.0332
-50.0372
-50.056
-50.0593
-50.068
-50.0923
-50.0947
-50.1128
-50.1295
-50.1518
-50.1583
-50.1632
-50.1342
-50.0859
-50.0828
-50.0668
-50.0477
-49.9915
-49.9874
-50.0146
-50.0277
-50.0371
-50.0557
-50.0548
-50.0292
-49.9943
-49.9557
-49.9219
-49.871
-49.8256
-49.7739
-49.7564
-49.6701
-49.5672
-49.4829
-49.4186
-49.3776
-49.2861
-49.1689
-49.0544
-48.8845
-48.6831
-48.431
-48.148
-47.8057
-47.4497
-47.0753
-46.6583
-46.2378
-45.923
-45.8332
-46.2073
-47.4184
-50.5601
-57.6297
-68.1192
-78.8585
-87.1498
-92.5066
-96.2104
-98.5377
-100.118
-100.778
-100.215
-98.104
-96.3902
-95.745
-93.9134
-92.1168
-89.203
-85.9302
-82.7612
-78.8501
-74.3235
-69.0661
-62.963
-55.9581
-48.0925
-39.1271
-28.9021
-17.1998
-4.01383
10.9318
27.6134
45.9453
65.3592
85.8065
107.799
136.922
180.282
237.592
-78.472
-72.641
-68.0031
-64.6629
-62.12
-60.1316
-58.5632
-57.297
-56.2242
-55.3333
-54.5975
-53.9844
-53.445
-52.9625
-52.5975
-52.3359
-52.1605
-52.0171
-51.8773
-51.7391
-51.6164
-51.5199
-51.4313
-51.3722
-51.2781
-51.2605
-51.1856
-51.1445
-51.0993
-51.0439
-50.9954
-50.9404
-50.9023
-50.8855
-50.9064
-50.9291
-50.9387
-50.9368
-50.9432
-50.9479
-50.9677
-50.9752
-50.9764
-50.9478
-50.9129
-50.8815
-50.8389
-50.8341
-50.8276
-50.8526
-50.8481
-50.8529
-50.8557
-50.8461
-50.8299
-50.8473
-50.8734
-50.9045
-50.9071
-50.9164
-50.8884
-50.854
-50.8306
-50.8028
-50.7855
-50.7599
-50.774
-50.7701
-50.7749
-50.8002
-50.8289
-50.8452
-50.8659
-50.8759
-50.8859
-50.89
-50.9044
-50.8633
-50.8454
-50.8114
-50.7977
-50.7595
-50.7106
-50.7211
-50.725
-50.7853
-50.7747
-50.7702
-50.8129
-50.8746
-50.893
-50.916
-50.8933
-50.877
-50.8299
-50.813
-50.7565
-50.746
-50.7272
-50.7418
-50.7596
-50.7154
-50.7537
-50.7618
-50.7998
-50.813
-50.8164
-50.8217
-50.8647
-50.8596
-50.8378
-50.7917
-50.7743
-50.7525
-50.7409
-50.7482
-50.7453
-50.7566
-50.7178
-50.7304
-50.7383
-50.7496
-50.7384
-50.7353
-50.7385
-50.7375
-50.7426
-50.7119
-50.6756
-50.6327
-50.6107
-50.562
-50.552
-50.4697
-50.4035
-50.3233
-50.2395
-50.1917
-50.1098
-50.0184
-49.9157
-49.7881
-49.648
-49.4594
-49.2606
-49.0406
-48.7752
-48.4414
-48.0591
-47.6699
-47.3654
-47.2418
-47.4171
-48.1739
-49.9043
-53.3251
-59.4965
-68.3895
-78.1479
-86.9811
-93.7151
-97.7516
-100.994
-102.928
-103.835
-104.508
-104.209
-102.909
-101.18
-100.275
-99.1377
-97.4764
-95.159
-92.0762
-88.5452
-84.5941
-79.8602
-74.382
-68.006
-60.7786
-52.708
-43.5285
-33.0168
-21.1789
-8.10866
6.29027
21.9521
38.9302
57.5596
79.7386
107.929
143.256
181.92
-73.0809
-69.2705
-66.0395
-63.4386
-61.1615
-59.3559
-57.8885
-56.7049
-55.7164
-54.8712
-54.1433
-53.5413
-53.0475
-52.6642
-52.3446
-52.0599
-51.7716
-51.5608
-51.4264
-51.2937
-51.1757
-51.0481
-50.911
-50.7563
-50.6079
-50.467
-50.4
-50.3481
-50.3384
-50.3458
-50.3277
-50.2933
-50.2234
-50.1635
-50.1156
-50.0841
-50.0966
-50.1412
-50.1463
-50.1306
-50.0861
-50.0694
-50.0321
-50.0643
-50.084
-50.1043
-50.1323
-50.1202
-50.1136
-50.0682
-50.0286
-49.9965
-50.0018
-50.0465
-50.0833
-50.0773
-50.0682
-50.0322
-50.0181
-49.978
-50.0003
-50.006
-50.0468
-50.1008
-50.1019
-50.0967
-50.0418
-50.0017
-49.9656
-49.9634
-49.9952
-49.9988
-49.9917
-49.9755
-49.9444
-49.9312
-49.9182
-49.9515
-49.9307
-49.9877
-49.9785
-50.0331
-50.0555
-49.9967
-49.968
-49.8795
-49.9219
-49.9557
-49.9392
-49.9043
-49.8908
-49.8639
-49.896
-49.9099
-49.9516
-49.9563
-50.0126
-50.0143
-50.0027
-50.0056
-49.9757
-49.9857
-49.8758
-49.874
-49.8348
-49.8519
-49.8765
-49.8965
-49.8836
-49.9007
-49.9094
-49.9508
-49.9619
-50.0094
-50.0037
-49.9547
-49.9253
-49.8718
-49.8791
-49.8145
-49.8173
-49.8161
-49.8401
-49.8598
-49.877
-49.868
-49.8552
-49.8373
-49.8349
-49.8057
-49.7567
-49.7392
-49.6766
-49.7001
-49.667
-49.6142
-49.5663
-49.5346
-49.5547
-49.5256
-49.4516
-49.3941
-49.3094
-49.2085
-49.092
-49.0119
-48.9332
-48.8175
-48.6534
-48.4983
-48.3973
-48.4157
-48.7003
-49.4521
-50.978
-53.7666
-58.431
-65.1653
-73.0889
-81.046
-87.8293
-93.3095
-97.8328
-101.332
-103.257
-103.143
-102.086
-100.424
-98.9249
-96.7949
-94.4648
-92.8896
-91.581
-89.211
-86.1722
-82.7723
-78.8584
-74.3276
-68.9284
-62.6002
-55.3806
-47.0626
-37.473
-26.7313
-15.1137
-2.81503
10.266
24.2235
39.7654
58.537
82.0947
110.449
138.633
-66.9957
-65.0519
-63.3904
-61.7121
-60.053
-58.6952
-57.4972
-56.4826
-55.626
-54.8724
-54.2197
-53.665
-53.2224
-52.8523
-52.5831
-52.3431
-52.1305
-51.9586
-51.8048
-51.6856
-51.5761
-51.5586
-51.4987
-51.4439
-51.3715
-51.3652
-51.2618
-51.2514
-51.2002
-51.1594
-51.1306
-51.0951
-51.0632
-51.0563
-51.0736
-51.1072
-51.0999
-51.0741
-51.0739
-51.0891
-51.1257
-51.1335
-51.1382
-51.1133
-51.074
-51.0451
-50.9998
-50.9847
-50.9693
-51.0021
-51.0094
-51.0288
-51.0241
-50.9776
-50.9649
-50.9983
-51.0156
-51.0526
-51.0613
-51.0919
-51.0596
-51.0207
-50.9779
-50.9252
-50.9192
-50.9095
-50.9478
-50.9554
-50.9711
-50.9845
-50.9868
-50.9893
-51.014
-51.0333
-51.0584
-51.073
-51.1046
-51.0596
-51.0408
-50.9654
-50.9622
-50.887
-50.8664
-50.9071
-50.926
-51.0117
-50.9699
-50.9423
-50.9947
-51.0388
-51.0603
-51.0917
-51.0669
-51.057
-51.0076
-50.997
-50.9267
-50.9468
-50.8816
-50.872
-50.8968
-50.8678
-50.9478
-50.9743
-51.0448
-50.9614
-50.951
-50.9785
-51.0172
-51.0046
-50.9951
-50.943
-50.9342
-50.8917
-50.8934
-50.9132
-50.9134
-50.9293
-50.8748
-50.9425
-50.9563
-50.9645
-50.9425
-50.9298
-50.9243
-50.9135
-50.9037
-50.8945
-50.8724
-50.8479
-50.8014
-50.7522
-50.7464
-50.6452
-50.5993
-50.5523
-50.4877
-50.427
-50.3415
-50.2963
-50.2313
-50.1128
-50.016
-49.8959
-49.7552
-49.6136
-49.517
-49.4259
-49.3144
-49.2214
-49.2318
-49.3929
-49.8032
-50.6315
-52.1159
-54.5654
-58.3785
-63.8679
-70.7397
-78.3721
-85.927
-92.7743
-98.6242
-103.497
-106.432
-106.717
-106.267
-105.588
-104.148
-102.749
-101.397
-100.069
-98.2896
-96.2516
-93.5107
-90.1113
-86.2073
-81.8844
-76.9265
-71.122
-64.4044
-56.6733
-47.8069
-37.8609
-27.1536
-15.8428
-3.87167
8.91942
22.9922
39.5611
59.3012
82.0835
103.648
-60.6113
-60.0972
-59.5152
-58.7932
-57.8683
-56.9946
-56.1467
-55.382
-54.7009
-54.0762
-53.5322
-53.0025
-52.5857
-52.2931
-52.0694
-51.9041
-51.6742
-51.4047
-51.2064
-51.0351
-50.9677
-50.9297
-50.8399
-50.707
-50.5777
-50.4706
-50.3249
-50.2234
-50.1991
-50.2052
-50.1952
-50.18
-50.1155
-50.0568
-49.9992
-49.9352
-49.9399
-49.9912
-49.9969
-49.9725
-49.9255
-49.9056
-49.8511
-49.8828
-49.9209
-49.9583
-50.0083
-50.0104
-50.0106
-49.9595
-49.915
-49.8609
-49.8602
-49.9098
-49.9439
-49.9407
-49.9282
-49.8782
-49.8685
-49.8287
-49.8608
-49.8734
-49.9186
-49.9744
-49.9814
-49.9851
-49.9318
-49.8864
-49.818
-49.8236
-49.8687
-49.8609
-49.8369
-49.8097
-49.7713
-49.763
-49.7515
-49.8021
-49.7927
-49.858
-49.8593
-49.9239
-49.9265
-49.8583
-49.8265
-49.7255
-49.7714
-49.8134
-49.7754
-49.7282
-49.7068
-49.6954
-49.7396
-49.7458
-49.7929
-49.7953
-49.8828
-49.894
-49.8803
-49.8783
-49.834
-49.8488
-49.7232
-49.7034
-49.6688
-49.7504
-49.7697
-49.7618
-49.7309
-49.7438
-49.7421
-49.8018
-49.8262
-49.8966
-49.8762
-49.8189
-49.784
-49.7487
-49.7748
-49.613
-49.6016
-49.6185
-49.733
-49.7796
-49.748
-49.7429
-49.7354
-49.7174
-49.7253
-49.724
-49.7256
-49.707
-49.6364
-49.6587
-49.614
-49.6513
-49.6796
-49.6854
-49.7436
-49.7548
-49.7262
-49.7293
-49.7278
-49.7377
-49.7251
-49.7189
-49.7308
-49.7839
-49.8498
-49.8909
-49.9507
-50.1596
-50.6164
-51.4588
-52.8676
-55.0531
-58.2448
-62.69
-68.2957
-74.7122
-81.393
-87.8255
-93.7314
-98.9915
-102.952
-105.57
-106.448
-105.582
-104.117
-102.263
-100.313
-98.5015
-97.0882
-95.5187
-93.5942
-91.0792
-88.0942
-84.7239
-80.7607
-75.8085
-69.8884
-63.2563
-55.8176
-47.2996
-37.9435
-27.9998
-17.3111
-5.67174
7.18742
21.927
38.7992
57.5551
74.7108
-54.3976
-55.0139
-55.4678
-55.6599
-55.4749
-55.1744
-54.8214
-54.371
-53.9732
-53.5725
-53.1951
-52.8094
-52.5196
-52.3057
-52.1444
-52.0394
-51.9148
-51.7437
-51.5981
-51.5072
-51.4438
-51.44
-51.3832
-51.3997
-51.3414
-51.369
-51.2622
-51.3138
-51.2546
-51.2315
-51.2072
-51.1824
-51.1676
-51.1736
-51.1848
-51.2149
-51.2003
-51.1541
-51.1613
-51.192
-51.233
-51.254
-51.2751
-51.2335
-51.1766
-51.1339
-51.0889
-51.0937
-51.0939
-51.1308
-51.141
-51.1724
-51.1598
-51.0999
-51.0785
-51.1044
-51.1228
-51.1641
-51.1672
-51.2248
-51.1881
-51.1624
-51.0949
-51.0201
-51.0154
-51.0233
-51.0702
-51.084
-51.1281
-51.121
-51.0948
-51.1159
-51.1391
-51.1582
-51.1912
-51.2078
-51.2402
-51.1837
-51.1724
-51.0874
-51.1239
-51.0372
-51.0272
-51.0597
-51.0639
-51.1538
-51.1034
-51.0661
-51.1252
-51.1621
-51.1866
-51.2183
-51.1955
-51.1885
-51.125
-51.1149
-51.0382
-51.0923
-51.0043
-50.9875
-51.0205
-50.9892
-51.0948
-51.1194
-51.1624
-51.0555
-51.0549
-51.1114
-51.1656
-51.1421
-51.1115
-51.0342
-51.0467
-51.005
-51.0638
-51.0312
-51.0526
-51.0789
-51.0302
-51.117
-51.1039
-51.1078
-51.0466
-51.0318
-51.0404
-51.0532
-51.0768
-51.0363
-51.0203
-51.0092
-50.9507
-50.905
-50.8944
-50.7985
-50.7642
-50.6605
-50.6021
-50.6125
-50.5795
-50.549
-50.4978
-50.3998
-50.3496
-50.3174
-50.2507
-50.1524
-50.1007
-50.1581
-50.2838
-50.3867
-50.4998
-50.734
-51.2097
-52.0121
-53.2869
-55.2097
-57.9242
-61.6191
-66.3112
-71.8448
-77.9333
-84.2679
-90.6169
-96.7774
-102.207
-106.323
-108.573
-108.289
-107.522
-106.18
-104.49
-102.843
-101.272
-99.7264
-97.8708
-95.5858
-92.9024
-89.9025
-86.3587
-81.7974
-76.2571
-70.2424
-63.7745
-56.4303
-48.2667
-39.5063
-29.973
-19.4282
-7.73461
5.40225
20.098
35.9841
50.1091
-48.7265
-50.0404
-51.2029
-52.1036
-52.5455
-52.7684
-52.8835
-52.7221
-52.5841
-52.4062
-52.1757
-51.9191
-51.6819
-51.5478
-51.4452
-51.3586
-51.2424
-51.0758
-50.9669
-50.8376
-50.7448
-50.7206
-50.6771
-50.5991
-50.4793
-50.344
-50.2229
-50.1171
-50.0902
-50.0799
-50.0805
-50.0759
-50.0209
-49.9718
-49.9109
-49.8363
-49.8398
-49.8868
-49.8873
-49.8625
-49.8084
-49.7889
-49.7502
-49.803
-49.835
-49.8647
-49.9101
-49.9209
-49.9365
-49.884
-49.8354
-49.7668
-49.7651
-49.8243
-49.8648
-49.8652
-49.8451
-49.788
-49.7737
-49.7252
-49.7617
-49.793
-49.8466
-49.8878
-49.8846
-49.9088
-49.8553
-49.8004
-49.7283
-49.7329
-49.7657
-49.7626
-49.7378
-49.7043
-49.662
-49.6547
-49.6432
-49.6959
-49.6799
-49.7542
-49.7219
-49.7972
-49.824
-49.7705
-49.7401
-49.6246
-49.6729
-49.7193
-49.6697
-49.6261
-49.5955
-49.5902
-49.6443
-49.646
-49.6891
-49.6844
-49.7779
-49.7817
-49.793
-49.795
-49.7377
-49.7493
-49.6128
-49.5979
-49.5565
-49.6594
-49.6743
-49.6448
-49.6259
-49.6651
-49.6593
-49.705
-49.7193
-49.7987
-49.7656
-49.7373
-49.7044
-49.6694
-49.7093
-49.5626
-49.5563
-49.5012
-49.642
-49.6919
-49.6607
-49.6368
-49.625
-49.6241
-49.664
-49.6924
-49.7436
-49.7642
-49.7161
-49.7338
-49.6912
-49.7149
-49.7139
-49.7268
-49.8595
-49.9472
-49.9793
-50.0178
-50.0629
-50.1459
-50.2059
-50.236
-50.2817
-50.4204
-50.6044
-50.7734
-50.9391
-51.2095
-51.6892
-52.4493
-53.5938
-55.2673
-57.587
-60.6872
-64.6181
-69.3478
-74.7088
-80.4978
-86.5323
-92.5729
-98.2295
-103.006
-106.494
-108.339
-107.259
-106.946
-105.707
-104.221
-102.813
-101.472
-99.9607
-98.2418
-96.3733
-94.1665
-91.4434
-87.55
-82.511
-77.1154
-71.5766
-65.3103
-58.1654
-50.3894
-41.9083
-32.436
-21.8587
-10.0898
2.9
16.6751
28.6809
-43.5825
-45.4311
-47.0821
-48.5613
-49.6213
-50.3409
-50.9035
-51.1487
-51.3228
-51.4224
-51.4259
-51.3911
-51.3324
-51.3247
-51.3222
-51.3197
-51.3228
-51.2792
-51.2355
-51.1976
-51.1818
-51.2063
-51.1981
-51.2394
-51.2158
-51.2176
-51.2078
-51.2172
-51.2291
-51.2251
-51.2142
-51.1898
-51.2003
-51.2173
-51.247
-51.291
-51.2662
-51.2227
-51.2243
-51.2468
-51.2905
-51.3034
-51.3335
-51.2868
-51.2374
-51.1952
-51.1499
-51.148
-51.137
-51.1821
-51.214
-51.2782
-51.2586
-51.1865
-51.1436
-51.1533
-51.1812
-51.2266
-51.2271
-51.2907
-51.2504
-51.2286
-51.1654
-51.0946
-51.0756
-51.0665
-51.131
-51.1657
-51.2174
-51.2046
-51.178
-51.1985
-51.2205
-51.2421
-51.2743
-51.288
-51.3156
-51.2581
-51.2595
-51.1695
-51.2206
-51.1274
-51.105
-51.1461
-51.1461
-51.237
-51.1837
-51.1406
-51.1977
-51.2268
-51.2566
-51.2975
-51.2777
-51.2632
-51.1894
-51.1821
-51.1056
-51.1767
-51.0821
-51.0609
-51.0959
-51.0654
-51.1879
-51.1995
-51.2406
-51.1338
-51.1226
-51.1806
-51.2402
-51.2291
-51.1984
-51.094
-51.1008
-51.0824
-51.1321
-51.137
-51.1312
-51.142
-51.0903
-51.2382
-51.208
-51.2352
-51.12
-51.0863
-51.124
-51.1547
-51.2256
-51.142
-51.0718
-51.0418
-51.0041
-50.9996
-50.9958
-50.9011
-50.8588
-50.7765
-50.7319
-50.7604
-50.7272
-50.7132
-50.6955
-50.6319
-50.6188
-50.6332
-50.6395
-50.6236
-50.6276
-50.7099
-50.8765
-51.0699
-51.2812
-51.5609
-52.0137
-52.7103
-53.727
-55.1795
-57.1684
-59.8
-63.1302
-67.1804
-71.8748
-77.1044
-82.7573
-88.6732
-94.6069
-100.202
-105.036
-108.779
-111.002
-109.644
-108.53
-106.933
-105.423
-103.989
-102.448
-100.968
-99.6638
-98.1242
-96.113
-92.9291
-88.5419
-83.8609
-79.1939
-73.8326
-67.5435
-60.7612
-53.3588
-44.8231
-35.1945
-24.6354
-13.0392
-0.860786
9.59894
-38.9951
-41.2143
-43.1932
-45.0423
-46.551
-47.6938
-48.6107
-49.18
-49.6263
-49.9573
-50.1352
-50.2778
-50.3221
-50.3842
-50.4687
-50.516
-50.5692
-50.5462
-50.4923
-50.4375
-50.4151
-50.4257
-50.453
-50.4343
-50.36
-50.2406
-50.1392
-50.0467
-49.9932
-49.9742
-49.9855
-50.0045
-49.947
-49.8932
-49.8283
-49.7558
-49.7725
-49.8209
-49.8237
-49.8065
-49.7637
-49.7483
-49.6994
-49.75
-49.7817
-49.817
-49.8671
-49.8801
-49.8894
-49.8279
-49.7766
-49.7145
-49.7362
-49.7988
-49.8383
-49.8306
-49.8029
-49.7526
-49.7472
-49.6861
-49.7222
-49.7527
-49.8151
-49.8646
-49.8582
-49.8608
-49.8004
-49.7495
-49.6828
-49.6906
-49.7275
-49.7122
-49.685
-49.651
-49.6137
-49.605
-49.587
-49.639
-49.6216
-49.7017
-49.6445
-49.7342
-49.7683
-49.7225
-49.7039
-49.5815
-49.6268
-49.6694
-49.6146
-49.576
-49.5285
-49.5426
-49.6009
-49.604
-49.6411
-49.6305
-49.7222
-49.7253
-49.7648
-49.7658
-49.6964
-49.6974
-49.5486
-49.538
-49.5006
-49.6087
-49.6295
-49.5909
-49.5703
-49.6236
-49.6453
-49.6977
-49.6677
-49.7381
-49.709
-49.7101
-49.6901
-49.644
-49.6585
-49.5074
-49.515
-49.4406
-49.6087
-49.654
-49.6165
-49.5926
-49.5998
-49.6131
-49.6669
-49.7088
-49.7985
-49.8453
-49.8455
-49.8892
-49.8324
-49.8024
-49.7829
-49.7914
-49.954
-50.0792
-50.1286
-50.1863
-50.2506
-50.3478
-50.4623
-50.5938
-50.7287
-50.892
-51.0913
-51.3217
-51.5602
-51.8379
-52.2557
-52.896
-53.8088
-55.0699
-56.7625
-58.9881
-61.7899
-65.2245
-69.297
-73.9346
-79.0789
-84.6367
-90.4462
-96.2366
-101.639
-106.273
-109.597
-110.248
-109.948
-108.896
-107.669
-106.483
-105.153
-103.854
-102.704
-101.598
-100.242
-97.9455
-94.4356
-90.4721
-86.4638
-81.8742
-76.5631
-70.8125
-64.2763
-56.53
-47.8644
-38.3981
-27.9398
-17.0117
-7.6995
-34.862
-37.4075
-39.6636
-41.7705
-43.6224
-45.1206
-46.3836
-47.2839
-48.0122
-48.6294
-49.0912
-49.4523
-49.7161
-49.9255
-50.148
-50.3263
-50.4906
-50.6028
-50.6592
-50.7123
-50.7627
-50.8426
-50.9058
-50.9695
-51.0087
-51.032
-51.0589
-51.0824
-51.1359
-51.1489
-51.1549
-51.122
-51.1564
-51.2056
-51.258
-51.3036
-51.271
-51.2302
-51.2339
-51.2524
-51.2936
-51.3094
-51.3487
-51.3008
-51.2514
-51.2037
-51.1531
-51.1524
-51.1449
-51.1985
-51.242
-51.285
-51.2537
-51.2029
-51.1615
-51.1681
-51.1929
-51.2384
-51.2481
-51.3097
-51.2651
-51.239
-51.1756
-51.1155
-51.1088
-51.097
-51.1537
-51.1855
-51.2347
-51.2259
-51.1973
-51.2252
-51.2558
-51.279
-51.3063
-51.3162
-51.339
-51.2787
-51.2857
-51.1954
-51.2523
-51.1559
-51.1231
-51.1691
-51.1639
-51.2575
-51.2061
-51.1642
-51.2205
-51.2485
-51.2734
-51.313
-51.2964
-51.2779
-51.2003
-51.1918
-51.12
-51.1657
-51.0958
-51.0746
-51.1186
-51.0887
-51.2136
-51.2152
-51.2513
-51.1361
-51.1277
-51.1933
-51.2535
-51.2381
-51.2198
-51.139
-51.1298
-51.076
-51.1236
-51.134
-51.1492
-51.1756
-51.1273
-51.2574
-51.226
-51.2495
-51.1299
-51.1022
-51.1582
-51.2018
-51.2115
-51.1674
-51.0799
-51.0338
-50.9878
-50.9965
-51.0271
-51.0004
-50.9955
-50.8726
-50.8042
-50.8578
-50.849
-50.8554
-50.8563
-50.8069
-50.7942
-50.8338
-50.914
-50.9876
-51.0527
-51.1398
-51.303
-51.5204
-51.7567
-52.0125
-52.3874
-52.9609
-53.7839
-54.8998
-56.3549
-58.2394
-60.6168
-63.5384
-67.0358
-71.0791
-75.6397
-80.7068
-86.2074
-91.9617
-97.7015
-103.065
-107.487
-110.538
-111.139
-110.823
-109.898
-108.72
-107.484
-106.46
-105.529
-104.838
-104.051
-102.561
-99.8813
-96.5942
-93.3472
-89.748
-85.3487
-80.2841
-74.5223
-67.7805
-60.0795
-51.4976
-41.996
-32.0748
-23.6279
-31.1994
-33.9472
-36.4532
-38.7721
-40.8156
-42.5432
-44.0766
-45.2272
-46.1637
-46.9892
-47.6237
-48.1479
-48.5314
-48.8515
-49.1809
-49.4563
-49.6589
-49.7682
-49.8257
-49.8698
-49.9458
-50.0123
-50.1359
-50.2196
-50.1978
-50.1028
-50.0194
-49.9627
-49.9145
-49.8986
-49.889
-49.9139
-49.8817
-49.8356
-49.7867
-49.7306
-49.7509
-49.8006
-49.8044
-49.7949
-49.7608
-49.7503
-49.7058
-49.7587
-49.7944
-49.8317
-49.881
-49.8844
-49.8821
-49.8262
-49.7813
-49.7316
-49.7565
-49.8114
-49.8512
-49.8434
-49.8136
-49.765
-49.7618
-49.7094
-49.7448
-49.7677
-49.8276
-49.8767
-49.873
-49.8736
-49.8093
-49.759
-49.6962
-49.706
-49.7589
-49.7337
-49.6923
-49.6534
-49.6256
-49.6197
-49.6063
-49.6546
-49.6328
-49.7068
-49.6526
-49.7603
-49.7682
-49.7249
-49.7166
-49.596
-49.6375
-49.679
-49.6237
-49.5815
-49.5296
-49.5596
-49.6244
-49.6295
-49.6576
-49.6443
-49.7351
-49.7164
-49.8131
-49.7951
-49.716
-49.7066
-49.5577
-49.5446
-49.521
-49.6321
-49.6425
-49.5952
-49.5774
-49.6267
-49.6489
-49.7131
-49.7159
-49.7867
-49.7482
-49.7341
-49.7042
-49.6627
-49.6975
-49.5551
-49.5413
-49.4682
-49.619
-49.6693
-49.6455
-49.6272
-49.6351
-49.6556
-49.7288
-49.7936
-49.8971
-49.9386
-49.9459
-49.9842
-49.9471
-49.9533
-49.908
-49.8541
-50.0019
-50.1527
-50.2281
-50.2883
-50.3434
-50.4385
-50.5715
-50.7402
-50.9133
-51.1001
-51.3123
-51.5847
-51.8971
-52.217
-52.5774
-53.06
-53.7445
-54.7055
-55.9471
-57.5336
-59.541
-62.0326
-65.0454
-68.5521
-72.5508
-77.0704
-82.1223
-87.603
-93.3432
-99.0726
-104.311
-108.513
-110.809
-111.181
-111.168
-110.259
-109.489
-108.853
-108.285
-107.797
-107.466
-106.622
-104.783
-102.384
-100.023
-97.2137
-93.4568
-89.2188
-84.5362
-78.7115
-71.7379
-64.0152
-55.4379
-46.3179
-38.4643
-28.1603
-30.9835
-33.6077
-36.0753
-38.2804
-40.1839
-41.9182
-43.3314
-44.5131
-45.5444
-46.4142
-47.1382
-47.7317
-48.2389
-48.7314
-49.1389
-49.4605
-49.6961
-49.8828
-50.0535
-50.2043
-50.3589
-50.5027
-50.6386
-50.7192
-50.7889
-50.8473
-50.9238
-50.9728
-51.0064
-51.0342
-51.0303
-51.0507
-51.102
-51.1543
-51.2195
-51.2074
-51.1667
-51.1712
-51.1908
-51.2321
-51.2486
-51.3036
-51.2564
-51.2054
-51.156
-51.1077
-51.1145
-51.1166
-51.1617
-51.1948
-51.2353
-51.2114
-51.1673
-51.1307
-51.1367
-51.1595
-51.2071
-51.2222
-51.2699
-51.2252
-51.1943
-51.1258
-51.0751
-51.0882
-51.0861
-51.1286
-51.1438
-51.1852
-51.1811
-51.1565
-51.2045
-51.2324
-51.2505
-51.2766
-51.2869
-51.3021
-51.2441
-51.2527
-51.1656
-51.1783
-51.0797
-51.0642
-51.1175
-51.1164
-51.2134
-51.1646
-51.1236
-51.1772
-51.2024
-51.216
-51.2512
-51.2477
-51.2368
-51.1574
-51.1417
-51.0747
-51.1135
-51.08
-51.0559
-51.0868
-51.0562
-51.1778
-51.1819
-51.2008
-51.0903
-51.088
-51.151
-51.2017
-51.1757
-51.1512
-51.0879
-51.0981
-51.0547
-51.087
-51.0874
-51.1039
-51.1349
-51.0947
-51.1988
-51.1606
-51.1904
-51.0724
-51.0512
-51.1117
-51.1488
-51.1408
-51.1037
-51.0235
-50.9984
-50.954
-50.9694
-51.0031
-51.0153
-51.1132
-50.9509
-50.8552
-50.8998
-50.9121
-50.9422
-50.9565
-50.9341
-50.9357
-50.9898
-51.0831
-51.1825
-51.3006
-51.4305
-51.5973
-51.8029
-52.0494
-52.3229
-52.6529
-53.0589
-53.634
-54.4804
-55.5701
-56.899
-58.5646
-60.6673
-63.2404
-66.242
-69.6904
-73.6573
-78.1725
-83.1995
-88.6737
-94.4466
-100.193
-105.422
-109.516
-111.897
-112.455
-112.035
-111.432
-110.832
-110.534
-110.274
-110.316
-110.251
-109.398
-107.842
-106.104
-103.987
-101.185
-97.9574
-94.1187
-89.0628
-82.9621
-76.1402
-68.3951
-59.8992
-52.4235
-25.4857
-28.3462
-31.0208
-33.5847
-35.9009
-37.9087
-39.7629
-41.351
-42.6933
-43.8846
-44.8843
-45.7426
-46.4788
-47.1042
-47.6914
-48.1673
-48.5292
-48.8103
-49.0385
-49.221
-49.3959
-49.5376
-49.7024
-49.8214
-49.8662
-49.8621
-49.8491
-49.8319
-49.824
-49.8197
-49.8253
-49.8548
-49.8452
-49.8169
-49.7889
-49.7493
-49.7766
-49.8285
-49.8329
-49.8264
-49.8062
-49.812
-49.7826
-49.8311
-49.8605
-49.891
-49.9328
-49.93
-49.9265
-49.8765
-49.8375
-49.7928
-49.8186
-49.8752
-49.9171
-49.9118
-49.8749
-49.8266
-49.8258
-49.7896
-49.8305
-49.8504
-49.8948
-49.9271
-49.923
-49.9315
-49.8751
-49.8174
-49.7537
-49.7592
-49.7851
-49.7671
-49.7474
-49.7198
-49.7053
-49.7009
-49.6898
-49.733
-49.72
-49.7929
-49.7388
-49.8367
-49.8214
-49.7828
-49.7762
-49.6656
-49.7038
-49.7425
-49.6924
-49.653
-49.6104
-49.6257
-49.684
-49.7037
-49.7318
-49.713
-49.7911
-49.7541
-49.86
-49.8649
-49.7996
-49.7804
-49.6305
-49.6119
-49.5931
-49.6932
-49.7008
-49.6597
-49.6601
-49.6944
-49.6966
-49.7539
-49.7846
-49.8818
-49.8523
-49.8242
-49.7807
-49.7372
-49.7681
-49.6435
-49.6276
-49.6019
-49.6812
-49.7208
-49.7293
-49.7307
-49.7364
-49.75
-49.8302
-49.907
-50.0247
-50.0383
-50.0002
-50.0043
-49.9482
-50.0522
-50.0045
-49.9613
-50.0396
-50.166
-50.2549
-50.3356
-50.4121
-50.5062
-50.6078
-50.7423
-50.9129
-51.1248
-51.3537
-51.6059
-51.8817
-52.2014
-52.5927
-53.0591
-53.6214
-54.358
-55.2827
-56.3944
-57.7644
-59.5154
-61.6911
-64.2342
-67.1606
-70.5755
-74.5401
-79.0383
-84.0857
-89.6394
-95.5055
-101.292
-106.418
-110.186
-111.846
-112.52
-112.457
-112.181
-112.312
-112.564
-112.78
-113.239
-113.216
-112.529
-111.7
-110.588
-108.645
-106.01
-102.94
-99.0039
-93.8799
-87.8557
-80.9007
-72.9833
-65.8681
-23.328
-26.1433
-28.8229
-31.3828
-33.8092
-35.9429
-37.9108
-39.6391
-41.1546
-42.5123
-43.6985
-44.7248
-45.621
-46.4091
-47.1417
-47.7528
-48.2542
-48.6637
-49.0157
-49.3227
-49.5664
-49.791
-50.0137
-50.211
-50.3232
-50.4369
-50.5391
-50.6362
-50.7301
-50.8087
-50.8564
-50.8846
-50.9041
-50.9461
-50.9976
-51.0599
-51.0627
-51.0378
-51.0465
-51.0646
-51.1056
-51.1295
-51.1917
-51.1485
-51.1264
-51.0742
-51.0254
-51.029
-51.0307
-51.0674
-51.0927
-51.1214
-51.0992
-51.0658
-51.0387
-51.0423
-51.0699
-51.1184
-51.1419
-51.1853
-51.14
-51.1093
-51.0507
-51.0008
-51.0043
-51.0094
-51.0656
-51.096
-51.1088
-51.0874
-51.066
-51.1239
-51.1387
-51.1535
-51.1763
-51.1921
-51.2116
-51.1643
-51.1707
-51.0982
-51.0995
-51.0117
-50.9753
-51.0133
-51.0138
-51.1044
-51.0589
-51.0233
-51.0767
-51.094
-51.1066
-51.1277
-51.1199
-51.119
-51.0632
-51.0473
-50.9767
-50.9925
-50.9949
-50.9771
-50.996
-50.9652
-51.0839
-51.0874
-51.0755
-51.0025
-50.9947
-51.0384
-51.0791
-51.0682
-51.0427
-50.9754
-50.9927
-50.9787
-51.0135
-51.0157
-51.027
-51.046
-51.0129
-51.106
-51.0847
-51.0698
-50.9585
-50.9334
-50.9883
-51.0293
-50.9995
-50.9569
-50.9056
-50.9251
-50.9076
-50.936
-50.96
-50.9519
-50.9947
-50.9029
-50.9052
-50.936
-50.9348
-50.9502
-50.9608
-50.9754
-51.013
-51.1017
-51.2085
-51.2962
-51.4134
-51.5596
-51.7503
-51.9682
-52.1994
-52.4428
-52.7462
-53.1064
-53.5537
-54.1499
-54.9249
-55.8783
-57.0314
-58.4972
-60.3361
-62.4979
-64.9745
-67.8705
-71.2657
-75.1673
-79.6287
-84.6826
-90.259
-96.1267
-101.88
-106.965
-110.812
-112.882
-113.472
-113.558
-113.792
-114.116
-114.656
-115.4
-116.2
-116.731
-117
-116.748
-115.364
-113.342
-111.236
-108.447
-104.34
-99.2316
-93.0933
-85.8323
-79.0844
-21.6096
-24.3764
-26.9885
-29.4849
-31.8947
-34.0396
-36.0289
-37.8389
-39.4427
-40.9209
-42.2217
-43.3524
-44.3666
-45.2537
-46.0492
-46.7333
-47.2658
-47.7406
-48.1522
-48.4787
-48.7705
-49.0033
-49.1975
-49.3712
-49.5193
-49.6018
-49.6666
-49.6955
-49.7144
-49.744
-49.7788
-49.8207
-49.8316
-49.8182
-49.8122
-49.8175
-49.8508
-49.8989
-49.9125
-49.9102
-49.8921
-49.896
-49.8958
-49.9365
-49.9691
-50.004
-50.0396
-50.0273
-50.0153
-49.9685
-49.9388
-49.9127
-49.9306
-49.9775
-50.0131
-50.0126
-49.9826
-49.933
-49.9256
-49.9222
-49.9866
-50.0096
-50.0258
-50.0434
-50.0278
-50.0216
-49.9659
-49.9193
-49.8872
-49.9024
-49.9121
-49.8884
-49.8683
-49.8516
-49.8395
-49.8329
-49.8204
-49.8646
-49.8728
-49.9359
-49.8977
-49.968
-49.9489
-49.9004
-49.8862
-49.7878
-49.8136
-49.8515
-49.8209
-49.7872
-49.7644
-49.7675
-49.7999
-49.8182
-49.8504
-49.8484
-49.9164
-49.8995
-49.9829
-49.9878
-49.9366
-49.9083
-49.7753
-49.7535
-49.7193
-49.8025
-49.8157
-49.7839
-49.7808
-49.7961
-49.8064
-49.8598
-49.8872
-49.9849
-49.9775
-49.9667
-49.9252
-49.8716
-49.8779
-49.7741
-49.7727
-49.7808
-49.8333
-49.8498
-49.8523
-49.8625
-49.8856
-49.8805
-49.9383
-50.0162
-50.1397
-50.1473
-50.1173
-50.1319
-50.1007
-50.175
-50.1244
-50.0771
-50.0902
-50.212
-50.3074
-50.3829
-50.465
-50.5396
-50.5938
-50.6895
-50.8375
-51.0269
-51.2378
-51.4913
-51.768
-52.0524
-52.379
-52.7823
-53.2687
-53.8854
-54.6463
-55.5092
-56.496
-57.7055
-59.2227
-61.039
-63.1245
-65.5647
-68.4497
-71.7808
-75.632
-80.0863
-85.171
-90.7955
-96.7073
-102.487
-107.519
-111.013
-112.999
-114.209
-114.593
-115.033
-116.379
-117.735
-119.009
-120.402
-121.513
-121.942
-121.396
-120.21
-118.902
-117.185
-114.342
-110.241
-105.059
-98.8056
-92.3104
-20.6301
-23.3253
-25.8706
-28.2493
-30.5495