/*--------------------------------*- C++ -*----------------------------------*\
| =========                 |                                                 |
| \\      /  F ield         | OpenFOAM: The Open Source CFD Toolbox           |
|  \\    /   O peration     | Version:  4.1                                   |
|   \\  /    A nd           | Web:      www.OpenFOAM.org                      |
|    \\/     M anipulation  |                                                 |
\*---------------------------------------------------------------------------*/
FoamFile
{
    version     2.0;
    format      ascii;
    class       volScalarField;
    location    "5";
    object      p;
}
// * * * * * * * * * * * * * * * * * * * * * * * * * * * * * * * * * * * * * //

dimensions      [0 2 -2 0 0 0 0];

internalField   nonuniform List<scalar> 
6750
(
-575.729
-363.921
-554.402
-531.436
-506.426
-474.082
-427.917
-379.697
-335.28
-284.341
-249.342
-239.067
-272.582
-251.914
-320.415
-574.616
-366.625
-554.609
-531.649
-506.426
-473.975
-427.562
-379.377
-335.89
-285.82
-250.188
-239.499
-272.451
-244.98
-320.367
-574.154
-368.113
-554.602
-531.74
-506.17
-473.646
-427.188
-379.116
-336.197
-287.271
-250.929
-241.679
-270.669
-240.836
-321.968
-573.374
-370.408
-554.678
-531.869
-506.087
-473.481
-426.941
-378.984
-336.891
-289.319
-252.634
-244.011
-267.931
-238.122
-320.213
-572.818
-372.076
-554.659
-531.881
-505.784
-473.162
-426.609
-378.832
-337.257
-291.011
-254.681
-245.999
-264.624
-236.116
-318.912
-572.142
-373.708
-554.664
-531.879
-505.62
-472.972
-426.466
-378.797
-337.688
-292.714
-257.116
-247.451
-261.885
-235.546
-317.481
-571.571
-374.973
-554.547
-531.644
-505.489
-472.94
-426.364
-378.862
-337.819
-293.856
-259.452
-248.245
-258.809
-234.793
-317.071
-571.324
-375.659
-554.402
-531.513
-505.542
-473.035
-426.471
-378.951
-337.924
-294.505
-260.879
-248.517
-257.995
-234.233
-317.205
-571.575
-374.925
-554.547
-531.642
-505.489
-472.94
-426.367
-378.866
-337.834
-293.913
-259.54
-248.269
-258.797
-234.873
-316.995
-572.141
-373.633
-554.662
-531.872
-505.614
-472.968
-426.469
-378.813
-337.729
-292.812
-257.278
-247.518
-261.891
-235.681
-317.389
-572.813
-371.977
-554.656
-531.87
-505.774
-473.155
-426.612
-378.854
-337.316
-291.149
-254.896
-246.167
-264.644
-236.295
-318.817
-573.364
-370.294
-554.673
-531.854
-506.071
-473.471
-426.945
-379.015
-336.966
-289.489
-252.872
-244.247
-267.968
-238.345
-320.128
-574.14
-367.988
-554.595
-531.723
-506.15
-473.632
-427.189
-379.15
-336.277
-287.461
-251.19
-241.967
-270.704
-241.072
-321.922
-574.601
-366.492
-554.601
-531.631
-506.401
-473.959
-427.565
-379.417
-335.978
-286.028
-250.464
-239.82
-272.495
-245.205
-320.331
-575.712
-363.782
-554.393
-531.415
-506.395
-474.059
-427.915
-379.732
-335.356
-284.559
-249.627
-239.412
-272.604
-252.063
-320.574
-799.971
-257.958
-455.24
-497.661
-456.567
-418.927
-372.532
-328.342
-298.003
-286.516
-305.765
-293.084
-307.256
-257.736
-475.218
-799.337
-258.885
-456.733
-498.401
-457.172
-419.247
-372.386
-328.03
-298.499
-287.239
-307.163
-294.75
-313.72
-260.322
-456.969
-799.172
-259.316
-457.289
-498.516
-457.13
-419.1
-372.2
-328.021
-298.707
-288.233
-309.141
-296.642
-315.086
-260.723
-448.408
-798.717
-260.141
-458.334
-498.98
-457.508
-419.314
-372.202
-327.952
-299.052
-289.473
-312.595
-299.131
-314.942
-261.646
-441.201
-798.399
-260.743
-458.913
-499.032
-457.445
-419.168
-372.015
-327.96
-299.268
-290.509
-315.742
-301.573
-314.271
-261.429
-437.283
-797.9
-261.41
-459.5
-499.164
-457.479
-419.134
-371.951
-327.998
-299.582
-291.53
-318.344
-303.526
-313.363
-261.603
-435.008
-797.323
-262.184
-459.574
-498.903
-457.425
-419.191
-371.766
-328.084
-299.713
-292.178
-320.386
-305.143
-312.761
-261.882
-433.768
-797.008
-262.672
-459.645
-498.813
-457.515
-419.332
-371.753
-328.062
-299.807
-292.625
-321.743
-306.793
-312.711
-262.169
-433.536
-797.306
-262.167
-459.555
-498.89
-457.41
-419.173
-371.75
-328.076
-299.712
-292.235
-320.463
-305.211
-312.785
-261.916
-433.754
-797.865
-261.379
-459.466
-499.138
-457.447
-419.097
-371.916
-327.979
-299.586
-291.632
-318.51
-303.658
-313.407
-261.657
-435.027
-798.351
-260.697
-458.864
-498.993
-457.396
-419.114
-371.965
-327.928
-299.272
-290.646
-315.999
-301.78
-314.331
-261.492
-437.324
-798.658
-260.084
-458.272
-498.928
-457.443
-419.246
-372.138
-327.911
-299.059
-289.648
-312.914
-299.386
-314.995
-261.717
-441.29
-799.104
-259.248
-457.216
-498.452
-457.049
-419.014
-372.117
-327.965
-298.701
-288.431
-309.509
-296.938
-315.125
-260.779
-448.556
-799.264
-258.809
-456.652
-498.329
-457.081
-419.15
-372.294
-327.97
-298.486
-287.456
-307.565
-295.069
-313.744
-260.367
-457.165
-799.893
-257.874
-455.148
-497.578
-456.458
-418.811
-372.419
-328.267
-297.965
-286.739
-306.168
-293.411
-307.259
-257.679
-475.52
-824.45
-235.189
-251.003
-372.08
-337.31
-299.872
-267.418
-241.134
-238.509
-287.261
-357.15
-353.377
-295.302
-151.892
-789.132
-824.525
-234.27
-251.533
-372.779
-337.992
-300.495
-267.777
-241.42
-238.56
-287.355
-358.051
-359.57
-301.341
-170.414
-779.011
-824.585
-233.799
-251.804
-372.966
-338.14
-300.684
-267.973
-241.811
-237.994
-286.994
-357.724
-361.486
-303.378
-179.446
-775.328
-824.659
-233.099
-252.191
-373.444
-338.619
-301.184
-268.315
-242.03
-237.518
-286.533
-357.621
-362.804
-308.315
-186.268
-767.195
-824.737
-232.576
-252.518
-373.72
-338.848
-301.453
-268.453
-242.296
-236.922
-285.705
-357.005
-362.785
-311.261
-190.074
-761.55
-824.808
-232.007
-252.893
-374.026
-339.12
-301.761
-268.649
-242.659
-236.579
-285.036
-356.657
-362.154
-312.723
-191.212
-756.023
-824.891
-231.612
-253.325
-374.364
-339.364
-301.926
-268.667
-243.167
-236.276
-284.112
-356.387
-361.085
-313.209
-192.379
-752.707
-824.907
-231.508
-253.533
-374.559
-339.527
-301.998
-268.566
-243.264
-236.208
-283.659
-356.111
-360.283
-313.371
-193.088
-751.825
-824.846
-231.647
-253.3
-374.339
-339.335
-301.897
-268.638
-243.149
-236.251
-284.113
-356.403
-361.053
-313.144
-192.332
-752.35
-824.754
-232.029
-252.855
-373.983
-339.071
-301.706
-268.59
-242.596
-236.516
-285.031
-356.648
-362.103
-312.637
-191.106
-755.628
-824.667
-232.588
-252.469
-373.658
-338.776
-301.37
-268.361
-242.199
-236.822
-285.693
-356.989
-362.729
-311.168
-189.895
-761.082
-824.579
-233.101
-252.133
-373.366
-338.528
-301.077
-268.195
-241.897
-237.393
-286.531
-357.601
-362.751
-308.224
-186.041
-766.706
-824.495
-233.789
-251.735
-372.871
-338.026
-300.55
-267.82
-241.642
-237.843
-286.999
-357.709
-361.439
-303.274
-179.154
-774.798
-824.427
-234.252
-251.459
-372.672
-337.865
-300.345
-267.607
-241.232
-238.396
-287.37
-358.05
-359.536
-301.24
-170.082
-778.44
-824.345
-235.16
-250.92
-371.959
-337.164
-299.699
-267.221
-240.923
-238.32
-287.268
-357.148
-353.32
-295.19
-151.471
-788.522
-824.48
-286.072
-188.353
-308.086
-267.031
-222.405
-185.791
-152.958
-152.796
-209.682
-288.025
-326.964
-267.377
-21.3373
-934.186
-824.431
-285.793
-188.365
-308.379
-267.46
-223.018
-186.375
-153.538
-152.601
-209.587
-289.983
-331.165
-275.665
-22.0371
-932.021
-824.43
-285.7
-188.494
-308.593
-267.717
-223.373
-186.851
-153.816
-151.671
-208.529
-288.292
-330.583
-278.676
-23.5493
-932.492
-824.4
-285.488
-188.549
-308.856
-268.085
-223.896
-187.334
-154.001
-150.736
-207.655
-287.153
-331.98
-283.362
-25.3574
-930.519
-824.383
-285.382
-188.671
-309.109
-268.377
-224.342
-187.723
-154.352
-149.749
-206.532
-285.44
-332.315
-285.542
-28.5074
-929.041
-824.353
-285.236
-188.727
-309.312
-268.638
-224.767
-188.14
-154.984
-148.842
-205.691
-284.252
-332.681
-286.441
-30.7033
-926.392
-824.338
-285.15
-188.795
-309.473
-268.832
-225.109
-188.445
-156.005
-147.941
-204.933
-282.742
-331.881
-286.372
-33.0228
-924.899
-824.316
-285.107
-188.806
-309.509
-268.874
-225.17
-188.37
-156.406
-147.643
-204.688
-281.64
-330.868
-285.903
-34.1531
-923.97
-824.33
-285.128
-188.782
-309.448
-268.809
-225.078
-188.417
-155.99
-147.875
-204.865
-282.67
-331.851
-286.195
-33.5951
-923.756
-824.336
-285.195
-188.699
-309.265
-268.59
-224.703
-188.074
-154.89
-148.734
-205.579
-284.119
-332.607
-286.122
-31.232
-925.086
-824.353
-285.324
-188.629
-309.04
-268.301
-224.24
-187.61
-154.197
-149.606
-206.372
-285.249
-332.214
-285.142
-28.9097
-927.418
-824.357
-285.416
-188.495
-308.768
-267.983
-223.758
-187.177
-153.786
-150.559
-207.475
-286.921
-331.853
-282.903
-25.6879
-928.823
-824.373
-285.614
-188.427
-308.483
-267.588
-223.2
-186.65
-153.546
-151.465
-208.332
-288.028
-330.43
-278.154
-23.8062
-930.661
-824.363
-285.701
-188.292
-308.253
-267.312
-222.821
-186.144
-153.232
-152.372
-209.388
-289.708
-330.99
-275.103
-22.2847
-930.138
-824.399
-285.97
-188.269
-307.944
-266.86
-222.181
-185.53
-152.618
-152.541
-209.478
-287.743
-326.745
-266.762
-21.5982
-932.24
-844.401
-290.208
-163.379
-272.929
-227.707
-181.137
-143.023
-104.635
-97.0433
-135.813
-194.848
-268.62
-204.189
-88.724
-1063.83
-844.385
-290.161
-163.398
-273.18
-228.07
-181.626
-143.594
-104.908
-96.3243
-134.332
-195.114
-269.461
-204.898
-81.622
-1062.33
-844.407
-290.166
-163.465
-273.387
-228.339
-181.969
-144.175
-104.813
-95.6547
-132.705
-193.909
-268.741
-205.456
-79.1225
-1061.72
-844.389
-290.145
-163.511
-273.633
-228.685
-182.426
-144.712
-104.73
-94.8389
-131.215
-193.125
-268.692
-205.712
-75.2192
-1060.29
-844.402
-290.165
-163.586
-273.872
-228.993
-182.848
-145.222
-104.843
-94.1395
-129.701
-191.889
-268.16
-206.018
-74.2491
-1059.5
-844.385
-290.153
-163.626
-274.066
-229.258
-183.248
-145.815
-105.302
-93.5553
-128.186
-190.765
-267.829
-205.915
-73.5223
-1057.72
-844.4
-290.164
-163.664
-274.23
-229.468
-183.563
-146.335
-106.251
-92.9818
-126.75
-189.562
-267.141
-205.741
-73.9736
-1056.83
-844.379
-290.149
-163.669
-274.272
-229.513
-183.621
-146.38
-106.775
-92.8225
-126.303
-188.866
-266.666
-205.463
-74.9483
-1054.89
-844.387
-290.14
-163.654
-274.207
-229.445
-183.531
-146.312
-106.227
-92.9499
-126.677
-189.482
-267.105
-205.622
-75.7034
-1054.66
-844.366
-290.104
-163.601
-274.021
-229.206
-183.178
-145.749
-105.185
-93.5018
-128.089
-190.651
-267.715
-205.495
-75.0265
-1055.67
-844.365
-290.097
-163.548
-273.804
-228.909
-182.738
-145.104
-104.666
-94.0522
-129.579
-191.737
-268.03
-205.585
-75.5712
-1056.91
-844.337
-290.063
-163.46
-273.543
-228.572
-182.277
-144.544
-104.495
-94.7213
-131.078
-192.939
-268.482
-205.146
-76.3982
-1057.68
-844.337
-290.069
-163.401
-273.272
-228.2
-181.784
-143.961
-104.531
-95.5079
-132.555
-193.702
-268.5
-204.808
-80.1202
-1058.86
-844.3
-290.059
-163.327
-273.049
-227.913
-181.415
-143.347
-104.596
-96.1544
-134.173
-194.887
-269.182
-204.198
-82.5596
-1059.38
-844.3
-290.093
-163.297
-272.78
-227.531
-180.902
-142.749
-104.292
-96.8482
-135.64
-194.61
-268.307
-203.421
-89.5315
-1060.74
-880.493
-286.754
-155.17
-260.276
-214.796
-172.168
-135.738
-99.4437
-88.9669
-114.42
-166.034
-268.223
-222.675
-145.684
-1249.32
-880.504
-286.74
-155.223
-260.523
-215.185
-172.697
-136.431
-99.6616
-88.3771
-112.23
-164.714
-267.736
-221.674
-142.739
-1247
-880.545
-286.757
-155.291
-260.725
-215.478
-173.075
-137.13
-99.4707
-87.9401
-110.831
-163.83
-267.322
-221.427
-142.424
-1246.32
-880.55
-286.757
-155.35
-260.969
-215.86
-173.57
-137.8
-99.334
-87.2864
-109.282
-162.702
-266.837
-220.502
-140.301
-1244.28
-880.582
-286.799
-155.419
-261.191
-216.195
-174.012
-138.44
-99.372
-86.8652
-107.989
-161.649
-266.32
-220.208
-140.074
-1243.7
-880.561
-286.808
-155.469
-261.367
-216.489
-174.437
-139.203
-99.733
-86.7059
-106.466
-160.454
-266.031
-219.989
-139.692
-1240.93
-880.582
-286.833
-155.51
-261.5
-216.71
-174.761
-139.876
-100.473
-86.5397
-104.98
-159.292
-265.416
-219.42
-140.685
-1240.36
-880.556
-286.813
-155.515
-261.53
-216.754
-174.827
-140.004
-100.946
-86.5754
-104.53
-158.651
-265.299
-219.628
-142.363
-1236.58
-880.557
-286.812
-155.5
-261.484
-216.678
-174.729
-139.859
-100.448
-86.5319
-104.915
-159.241
-265.454
-219.62
-143.171
-1236.58
-880.524
-286.766
-155.444
-261.328
-216.424
-174.365
-139.138
-99.6152
-86.6651
-106.392
-160.384
-265.906
-219.406
-141.585
-1237.99
-880.514
-286.739
-155.383
-261.128
-216.096
-173.898
-138.321
-99.2002
-86.7851
-107.903
-161.572
-266.268
-219.711
-141.702
-1239.85
-880.472
-286.679
-155.297
-260.881
-215.728
-173.415
-137.628
-99.1113
-87.1697
-109.185
-162.576
-266.62
-219.67
-141.719
-1240.61
-880.455
-286.649
-155.222
-260.613
-215.318
-172.882
-136.907
-99.2083
-87.7913
-110.728
-163.695
-267.089
-220.476
-143.589
-1242.22
-880.407
-286.614
-155.152
-260.394
-215.007
-172.477
-136.172
-99.3718
-88.2025
-112.119
-164.546
-267.428
-220.617
-143.852
-1242.8
-880.381
-286.606
-155.096
-260.13
-214.6
-171.925
-135.452
-99.1238
-88.7647
-114.293
-165.843
-267.859
-221.512
-146.617
-1244.9
-925.4
-285.54
-153.649
-260.358
-213.81
-178.097
-150.11
-120.03
-112.698
-140.889
-190.152
-292.861
-272.906
-144.351
-1470.9
-925.444
-285.563
-153.719
-260.61
-214.234
-178.72
-150.975
-120.635
-112.414
-138.564
-188.847
-292.614
-272.508
-144.493
-1466.63
-925.503
-285.608
-153.786
-260.806
-214.534
-179.107
-151.686
-120.566
-112.164
-137.329
-188.283
-292.272
-271.333
-145.67
-1466.05
-925.525
-285.651
-153.86
-261.056
-214.942
-179.66
-152.473
-120.716
-111.711
-135.733
-187.231
-292.022
-270.367
-145.244
-1462.86
-925.572
-285.735
-153.933
-261.275
-215.29
-180.108
-153.12
-120.93
-111.43
-134.628
-186.327
-291.206
-269.184
-146.328
-1463.89
-925.568
-285.766
-153.994
-261.451
-215.602
-180.565
-153.904
-121.553
-111.55
-133.295
-185.259
-291.362
-269.87
-146.911
-1458.56
-925.613
-285.809
-154.04
-261.58
-215.831
-180.898
-154.515
-122.498
-111.335
-131.864
-184.039
-290.276
-268.474
-149.42
-1459.36
-925.585
-285.784
-154.043
-261.604
-215.877
-180.982
-154.648
-123.104
-111.375
-131.391
-183.414
-290.828
-270.809
-152.208
-1450.03
-925.597
-285.77
-154.022
-261.556
-215.788
-180.86
-154.487
-122.482
-111.327
-131.805
-183.974
-290.419
-269.24
-152.928
-1452.3
-925.553
-285.69
-153.958
-261.396
-215.518
-180.481
-153.82
-121.432
-111.48
-133.181
-185.074
-291.076
-268.78
-149.336
-1454.36
-925.528
-285.633
-153.887
-261.192
-215.169
-179.979
-152.981
-120.746
-111.307
-134.495
-186.137
-291.147
-268.455
-148.359
-1457.57
-925.46
-285.538
-153.794
-260.944
-214.783
-179.481
-152.271
-120.464
-111.526
-135.548
-186.902
-291.587
-268.865
-147.011
-1457.27
-925.408
-285.474
-153.702
-260.669
-214.342
-178.886
-151.43
-120.265
-111.933
-137.119
-187.933
-291.869
-269.649
-146.964
-1459.45
-925.328
-285.42
-153.63
-260.453
-214.019
-178.469
-150.682
-120.298
-112.146
-138.323
-188.419
-292.069
-270.625
-145.809
-1459.77
-925.26
-285.373
-153.549
-260.183
-213.573
-177.82
-149.785
-119.655
-112.39
-140.616
-189.684
-292.266
-270.884
-145.293
-1463.43
-981.535
-289.759
-158.996
-272.24
-224.643
-196.303
-178.064
-157.282
-158.192
-186.096
-236.117
-316.712
-334.211
-111.523
-1819.56
-981.586
-289.802
-159.066
-272.502
-225.086
-197.044
-179.098
-158.412
-158.497
-184.489
-235.794
-318.338
-337.83
-114.525
-1800.36
-981.653
-289.863
-159.127
-272.698
-225.385
-197.439
-179.796
-158.424
-158.352
-183.473
-235.539
-318.214
-335.109
-118.251
-1798.48
-981.678
-289.921
-159.198
-272.951
-225.801
-198.062
-180.712
-158.939
-158.347
-182.282
-235.242
-319.289
-335.261
-118.007
-1789.51
-981.734
-290.023
-159.266
-273.168
-226.144
-198.511
-181.339
-159.238
-158.214
-181.442
-234.617
-318.55
-334.878
-122.549
-1787.06
-981.729
-290.056
-159.321
-273.338
-226.449
-198.997
-182.139
-160.136
-158.713
-180.577
-234.133
-319.962
-337.966
-126.481
-1770.33
-981.78
-290.111
-159.364
-273.462
-226.664
-199.318
-182.619
-161.196
-158.446
-179.479
-232.871
-318.529
-334.845
-132.095
-1770.47
-981.747
-290.079
-159.36
-273.478
-226.699
-199.41
-182.759
-161.873
-158.683
-179.314
-232.524
-319.861
-340.338
-136.771
-1752.27
-981.766
-290.063
-159.34
-273.43
-226.609
-199.269
-182.574
-161.162
-158.421
-179.43
-232.841
-318.769
-336.448
-136.987
-1759.36
-981.709
-289.968
-159.28
-273.27
-226.346
-198.893
-182.021
-159.982
-158.576
-180.387
-233.79
-319.61
-336.064
-129.751
-1764.98
-981.681
-289.901
-159.213
-273.068
-225.995
-198.353
-181.155
-159.003
-158.001
-181.213
-234.269
-318.554
-334.155
-125.691
-1777.41
-981.602
-289.788
-159.124
-272.82
-225.61
-197.845
-180.451
-158.609
-158.031
-181.945
-234.634
-318.697
-333.25
-120.618
-1781.76
-981.543
-289.707
-159.032
-272.538
-225.156
-197.173
-179.472
-158.029
-157.963
-183.069
-234.841
-317.607
-332.573
-120.002
-1790.11
-981.453
-289.641
-158.965
-272.322
-224.831
-196.743
-178.729
-157.968
-158.044
-184.014
-234.947
-317.521
-334.889
-116.294
-1791.81
-981.376
-289.572
-158.879
-272.039
-224.36
-195.97
-177.654
-156.787
-157.678
-185.549
-235.165
-315.749
-330.983
-113.047
-1810.29
-1051.51
-299.996
-170.095
-294.477
-246.797
-225.395
-217.258
-203.227
-215.746
-240.505
-302.384
-351.208
-438.934
-73.1535
-2197.05
-1051.57
-300.047
-170.167
-294.748
-247.241
-226.242
-218.385
-204.918
-216.614
-239.409
-302.561
-351.617
-438
-71.4241
-2185.75
-1051.64
-300.116
-170.227
-294.948
-247.535
-226.659
-219.05
-205.136
-216.374
-238.392
-302.071
-350.855
-431.102
-73.6916
-2193.22
-1051.66
-300.175
-170.295
-295.204
-247.946
-227.355
-220.074
-206.112
-216.783
-237.555
-302.44
-351.664
-433.762
-73.5589
-2179.9
-1051.73
-300.288
-170.361
-295.423
-248.278
-227.806
-220.654
-206.526
-216.579
-236.75
-301.699
-349.567
-432.759
-81.7041
-2184.3
-1051.72
-300.316
-170.412
-295.584
-248.565
-228.314
-221.473
-207.666
-217.502
-236.464
-301.571
-352.148
-440.165
-86.5801
-2152.69
-1051.78
-300.375
-170.45
-295.704
-248.758
-228.603
-221.811
-208.575
-217.425
-235.278
-299.057
-348.05
-425.894
-92.984
-2174.41
-1051.73
-300.34
-170.442
-295.712
-248.776
-228.69
-221.992
-209.244
-218.256
-235.456
-299.737
-350.093
-447.926
-103.412
-2121.61
-1051.74
-300.332
-170.421
-295.663
-248.683
-228.532
-221.732
-208.5
-217.361
-235.235
-299.093
-348.404
-428.656
-99.0424
-2157.36
-1051.68
-300.222
-170.356
-295.494
-248.427
-228.17
-221.287
-207.434
-217.199
-236.101
-300.705
-351.277
-435.525
-90.2964
-2147.7
-1051.65
-300.148
-170.288
-295.29
-248.081
-227.594
-220.38
-206.191
-216.154
-236.323
-300.939
-349.477
-431.92
-86.5126
-2166.61
-1051.56
-300.017
-170.196
-295.035
-247.696
-227.066
-219.696
-205.639
-216.185
-236.917
-301.186
-350.513
-430.459
-78.5381
-2165.56
-1051.5
-299.924
-170.101
-294.743
-247.237
-226.309
-218.589
-204.572
-215.67
-237.658
-300.712
-349.923
-427.515
-76.9697
-2175.58
-1051.4
-299.845
-170.032
-294.519
-246.912
-225.849
-217.867
-204.285
-215.81
-238.564
-300.948
-350.386
-433.459
-75.1482
-2167.75
-1051.32
-299.763
-169.94
-294.222
-246.433
-224.962
-216.686
-202.529
-214.859
-239.576
-300.654
-350.01
-434.359
-75.9862
-2175.95
-1134.5
-317.586
-185.775
-325.252
-278.697
-263.459
-266.254
-255.568
-282.63
-294.852
-377.32
-367.956
-533.662
50.2072
-2933.68
-1134.55
-317.632
-185.844
-325.523
-279.131
-264.374
-267.461
-257.811
-284.571
-295.837
-382.217
-373.932
-568.944
16.6746
-2829.64
-1134.63
-317.705
-185.906
-325.73
-279.423
-264.832
-268.126
-258.332
-284.472
-295.374
-382.489
-374.673
-551.207
13.8052
-2851.59
-1134.66
-317.755
-185.969
-325.981
-279.825
-265.594
-269.295
-259.895
-285.843
-296.078
-386.824
-378.415
-572.403
3.15833
-2808.42
-1134.73
-317.874
-186.036
-326.203
-280.15
-266.059
-269.857
-260.454
-285.804
-295.674
-387.433
-377.624
-587.375
-36.9367
-2757.62
-1134.71
-317.89
-186.079
-326.353
-280.419
-266.582
-270.741
-261.797
-287.486
-296.459
-388.542
-382.894
-590.84
-52.7668
-2694.54
-1134.78
-317.952
-186.114
-326.473
-280.595
-266.832
-270.973
-262.444
-287.642
-295.153
-384.425
-379.303
-560.096
-57.1237
-2736.85
-1134.72
-317.914
-186.105
-326.47
-280.594
-266.907
-271.225
-263.126
-289.249
-295.997
-388.561
-379.349
-582.471
-58.5969
-2690.33
-1134.73
-317.92
-186.09
-326.425
-280.5
-266.734
-270.851
-262.317
-287.526
-295.094
-384.623
-379.483
-563.372
-64.9673
-2714.85
-1134.66
-317.807
-186.019
-326.249
-280.246
-266.393
-270.471
-261.467
-286.985
-295.95
-387.221
-382.388
-582.686
-55.8096
-2692.85
-1134.63
-317.74
-185.955
-326.048
-279.905
-265.786
-269.47
-259.992
-285.132
-295.027
-386.222
-377.271
-585.747
-44.4919
-2736.03
-1134.54
-317.602
-185.863
-325.786
-279.519
-265.23
-268.773
-259.263
-284.929
-295.128
-385.232
-376.68
-569.922
-6.01535
-2787.14
-1134.48
-317.51
-185.77
-325.493
-279.059
-264.392
-267.495
-257.578
-283.382
-294.25
-380.459
-372.826
-545.474
8.64493
-2833.94
-1134.38
-317.425
-185.702
-325.261
-278.729
-263.882
-266.757
-256.964
-283.332
-294.55
-379.803
-371.848
-562.098
12.7337
-2812.51
-1134.31
-317.344
-185.611
-324.961
-278.253
-262.919
-265.477
-254.635
-281.245
-293.372
-374.411
-365.319
-524.79
47.6531
-2915.43
-1228.24
-344.384
-206.151
-365.086
-321.876
-312.341
-328.927
-318.671
-368.623
-362.171
-497.865
-417.73
-763.88
30.8617
-3556.72
-1228.28
-344.408
-206.212
-365.333
-322.276
-313.224
-330.192
-321.155
-371.944
-363.999
-507.314
-418.469
-771.583
46.9802
-3503.67
-1228.35
-344.468
-206.271
-365.533
-322.554
-313.692
-330.834
-321.754
-371.909
-363.176
-507.4
-416.709
-767.173
44.5283
-3555.77
-1228.37
-344.493
-206.316
-365.756
-322.918
-314.446
-332.1
-323.685
-374.328
-364.16
-516.801
-416.275
-847.714
10.9898
-3405.17
-1228.43
-344.599
-206.374
-365.967
-323.217
-314.882
-332.576
-324.129
-373.992
-362.727
-514.82
-411.796
-821.611
-5.08571
-3418.46
-1228.41
-344.593
-206.395
-366.087
-323.439
-315.364
-333.462
-325.483
-375.944
-363.576
-515.469
-417.016
-808.471
12.7093
-3421
-1228.47
-344.648
-206.42
-366.197
-323.584
-315.546
-333.527
-325.712
-375.423
-361.149
-504.829
-405.232
-725.686
14.7764
-3571.92
-1228.41
-344.589
-206.394
-366.171
-323.549
-315.582
-333.822
-326.377
-377.804
-362.205
-518.619
-394.468
-898.482
-75.6747
-3290.34
-1228.42
-344.588
-206.377
-366.127
-323.453
-315.405
-333.33
-325.502
-375.19
-361.059
-505.697
-406.464
-732.288
8.03733
-3537.32
-1228.33
-344.468
-206.297
-365.942
-323.2
-315.098
-333.045
-324.98
-375.022
-362.64
-512.352
-414.216
-791.951
9.38104
-3429.35
-1228.3
-344.403
-206.233
-365.748
-322.873
-314.5
-331.988
-323.441
-372.804
-361.594
-511.79
-409.936
-810.671
-16.8058
-3394.34
-1228.21
-344.259
-206.138
-365.485
-322.497
-313.95
-331.327
-322.775
-372.768
-362.603
-513.308
-412.98
-839.268
-7.26387
-3363.54
-1228.15
-344.169
-206.048
-365.202
-322.05
-313.092
-329.91
-320.686
-370.137
-361.482
-504.115
-414.07
-763.269
27.1578
-3493.16
-1228.05
-344.08
-205.979
-364.968
-321.721
-312.557
-329.166
-319.978
-369.977
-362.154
-503.45
-415.797
-763.563
30.6976
-3446.02
-1227.98
-344.002
-205.891
-364.681
-321.266
-311.608
-327.802
-317.397
-366.485
-360.215
-493.841
-415.9
-757.045
15.1251
-3484.41
-1330.29
-382.599
-230.179
-412.095
-373.701
-367.744
-400.204
-385.007
-463.412
-421.543
-623.547
-421.037
-876.451
287.24
-4718.91
-1330.33
-382.62
-230.235
-412.313
-374.061
-368.554
-401.603
-387.648
-469.023
-424.703
-647.544
-425.727
-949.327
268.719
-4706.53
-1330.4
-382.68
-230.294
-412.507
-374.321
-369.032
-402.234
-388.302
-469.204
-424.222
-651.363
-423.785
-984.186
157.561
-4787.08
-1330.43
-382.692
-230.329
-412.703
-374.64
-369.754
-403.628
-390.618
-473.525
-426.322
-680.512
-421.897
-1263.33
26.3165
-4295.82
-1330.5
-382.798
-230.388
-412.91
-374.91
-370.17
-403.994
-391.013
-472.613
-424.679
-673.566
-421.216
-1208.22
15.4894
-4358.63
-1330.48
-382.791
-230.394
-413.003
-375.08
-370.602
-404.87
-392.406
-474.851
-425.724
-672.044
-433.919
-1091.94
85.3183
-4583.52
-1330.54
-382.866
-230.425
-413.114
-375.197
-370.731
-404.732
-392.321
-473.028
-423.26
-649.5
-424.066
-918.827
98.3224
-4796.8
-1330.48
-382.82
-230.394
-413.07
-375.13
-370.719
-405.067
-392.915
-476.525
-423.642
-680.047
-396.441
-1206.93
-160.796
-4294.97
-1330.49
-382.834
-230.389
-413.039
-375.041
-370.547
-404.444
-391.978
-472.558
-422.655
-649.853
-424.404
-913.688
98.7951
-4776.01
-1330.42
-382.726
-230.316
-412.855
-374.795
-370.258
-404.278
-391.657
-473.418
-423.882
-666.784
-425.556
-1072.83
84.1387
-4600.31
-1330.4
-382.686
-230.27
-412.68
-374.494
-369.68
-403.166
-390.007
-470.735
-422.483
-666.216
-417.088
-1136.73
20.7978
-4435.21
-1330.32
-382.56
-230.185
-412.427
-374.139
-369.137
-402.575
-389.34
-471.288
-423.487
-676.1
-411.698
-1254.19
6.317
-4278
-1330.28
-382.492
-230.113
-412.173
-373.726
-368.292
-400.986
-386.833
-466.631
-421.361
-645.837
-417.993
-961.261
143.817
-4755.49
-1330.19
-382.411
-230.051
-411.947
-373.409
-367.736
-400.225
-386.061
-466.216
-421.721
-642.148
-419.295
-941.013
245.667
-4667.68
-1330.14
-382.352
-229.982
-411.692
-372.991
-366.849
-398.699
-383.312
-460.283
-418.481
-616.393
-414.831
-854.483
275.655
-4666.04
-1433.02
-435.193
-261.11
-469.485
-442.24
-439.277
-494.963
-470.82
-594.755
-501.949
-833.049
-460.089
-1208.14
256.404
-7035.84
-1433
-435.199
-261.119
-469.631
-442.476
-439.871
-496.388
-473.176
-603.969
-506.405
-895.714
-464.286
-1661.92
5.98048
-6190.03
-1433.02
-435.252
-261.141
-469.788
-442.639
-440.254
-496.684
-473.477
-602.229
-504.916
-881.039
-473.484
-1446.7
121.07
-6222.18
-1433.01
-435.233
-261.126
-469.912
-442.801
-440.773
-497.835
-475.471
-607.117
-505.613
-916.885
-462.69
-1750
-38.7932
-5599.79
-1433.04
-435.292
-261.143
-470.078
-442.938
-441.049
-497.632
-475.289
-602.781
-502.015
-885.349
-458.807
-1600.51
-6.32165
-5921.78
-1433.01
-435.228
-261.088
-470.106
-442.959
-441.302
-498.175
-476.282
-604.343
-501.832
-881.812
-468.806
-1443.12
142.64
-6159.29
-1433.04
-435.246
-261.085
-470.191
-442.983
-441.322
-497.549
-475.621
-599.097
-497.411
-832.134
-446.867
-1164.94
193.624
-6421.02
-1432.97
-435.148
-261.013
-470.106
-442.85
-441.225
-497.871
-476.102
-603.932
-498.087
-879.569
-422.366
-1529.94
-315.35
-5601.03
-1432.97
-435.119
-260.991
-470.074
-442.766
-441.081
-497.158
-475.222
-598.536
-497.194
-833.666
-447.993
-1144.65
206.715
-6437.75
-1432.89
-434.977
-260.903
-469.884
-442.558
-440.854
-497.374
-475.388
-602.487
-499.9
-873.956
-460.886
-1407.54
161.623
-6176.26
-1432.85
-434.91
-260.86
-469.733
-442.339
-440.394
-496.494
-474.093
-600.377
-499.989
-875.886
-455.787
-1508.26
6.68322
-6034.43
-1432.76
-434.775
-260.778
-469.497
-442.078
-439.966
-496.412
-473.971
-604.279
-503.035
-911.284
-455.513
-1743.27
-57.2253
-5556.84
-1432.7
-434.705
-260.721
-469.286
-441.783
-439.294
-495.017
-471.761
-599.132
-502.459
-877.313
-468.145
-1471.92
84.709
-6018.91
-1432.61
-434.625
-260.666
-469.081
-441.541
-438.813
-494.551
-471.332
-600.573
-503.938
-891.469
-461.219
-1683.18
-49.7246
-6023.17
-1432.55
-434.567
-260.613
-468.872
-441.22
-438.117
-492.956
-468.858
-590.984
-499.694
-827.091
-457.844
-1212.31
196.165
-6837.48
-1534.49
-503.541
-296.179
-533.08
-517.528
-512.662
-591.669
-553.865
-719.394
-578.723
-1054.5
-519.226
-2108.45
93.9905
-6894.67
-1534.51
-503.564
-296.175
-533.209
-517.629
-513.122
-592.934
-555.986
-728.755
-582.079
-1095.65
-500.494
-2195.75
-43.0981
-6448.32
-1534.59
-503.633
-296.184
-533.36
-517.68
-513.478
-592.782
-556.139
-724.388
-579.198
-1061.07
-496.663
-2004.65
224.736
-7035.45
-1534.63
-503.628
-296.15
-533.459
-517.674
-513.864
-593.532
-557.931
-728.403
-577.869
-1084.66
-485.094
-2137.5
28.1616
-7619.67
-1534.71
-503.715
-296.164
-533.62
-517.669
-514.081
-592.699
-557.38
-720.857
-573.146
-1033.1
-488.753
-1757.23
134.927
-8715.61
-1534.72
-503.707
-296.104
-533.631
-517.544
-514.2
-592.776
-557.873
-720.906
-568.518
-1023.25
-443.414
-1661.15
420.427
-8718.41
-1534.77
-503.8
-296.115
-533.726
-517.489
-514.162
-591.721
-556.861
-714.382
-565.978
-989.628
-460.222
-1473.74
299.691
-9036.66
-1534.75
-503.781
-296.056
-533.641
-517.304
-513.98
-591.838
-556.982
-718.062
-563.542
-1023.95
-418.256
-1847.4
-421.593
-7812.95
-1534.77
-503.842
-296.074
-533.639
-517.248
-513.856
-591.115
-556.153
-712.926
-564.762
-987.186
-454.937
-1491.47
324.22
-9039.09
-1534.73
-503.798
-296.029
-533.47
-517.1
-513.636
-591.573
-556.369
-717.266
-564.225
-1004.8
-425.261
-1618.51
419.078
-8848.18
-1534.74
-503.82
-296.047
-533.363
-517.001
-513.252
-591.009
-555.361
-716.529
-568.38
-1017.95
-476.002
-1683.36
232.19
-8827.27
-1534.69
-503.766
-296.016
-533.151
-516.858
-512.847
-591.441
-555.462
-723.292
-572.515
-1072.3
-474.163
-2138.2
36.7438
-7796.2
-1534.68
-503.766
-296.02
-532.989
-516.717
-512.287
-590.389
-553.355
-719.125
-573.599
-1051.94
-485.325
-1997.39
198.401
-7086.78
-1534.65
-503.723
-295.999
-532.805
-516.58
-511.822
-590.316
-553.01
-722.953
-576.383
-1083.88
-491.731
-2170.64
-70.216
-6388.16
-1534.63
-503.719
-296.008
-532.651
-516.402
-511.259
-588.877
-550.736
-713.504
-573.268
-1045.29
-512.197
-2091.55
34.4419
-6700.24
-1601.75
-608.751
-350.968
-603.586
-631.272
-621.474
-746.345
-683.281
-932.009
-704.816
-1419.88
-592.519
-3083.79
256.718
-8949
-1601.7
-608.617
-350.769
-603.637
-630.909
-621.499
-745.79
-682.736
-932.083
-696.472
-1391.77
-559.856
-2791.05
-202.722
-8537.77
-1601.66
-608.596
-350.677
-603.757
-630.55
-621.642
-743.997
-681.826
-921.695
-690.303
-1345.4
-577.402
-2690.9
-121.621
-9501.89
-1601.58
-608.447
-350.46
-603.787
-630.023
-621.624
-742.662
-681.354
-917.385
-680.59
-1340.11
-584.478
-2850.88
-748.57
-11075.3
-1601.52
-608.38
-350.335
-603.911
-629.57
-621.659
-740.181
-679.956
-903.772
-675.298
-1267.02
-576.263
-2114.4
308.255
-12487.7
-1601.42
-608.213
-350.133
-603.871
-629.046
-621.529
-738.807
-679.168
-899.002
-663.795
-1242.4
-495.636
-1996.3
745.972
-12347.2
-1601.35
-608.124
-350.053
-603.946
-628.773
-621.445
-737.347
-678.408
-894.647
-667.708
-1258.28
-488.57
-2424
431.961
-11732.4
-1601.24
-607.942
-349.915
-603.83
-628.438
-621.171
-736.855
-678.04
-894.5
-661.673
-1249.58
-464.327
-2494.5
227.715
-10268.9
-1601.15
-607.839
-349.901
-603.819
-628.43
-621.102
-736.619
-677.81
-893.411
-668.303
-1258.54
-506.324
-2469.56
453.805
-11529.9
-1601.02
-607.653
-349.839
-603.638
-628.411
-620.901