/*--------------------------------*- C++ -*----------------------------------*\
| =========                 |                                                 |
| \\      /  F ield         | OpenFOAM: The Open Source CFD Toolbox           |
|  \\    /   O peration     | Version:  4.1                                   |
|   \\  /    A nd           | Web:      www.OpenFOAM.org                      |
|    \\/     M anipulation  |                                                 |
\*---------------------------------------------------------------------------*/
FoamFile
{
    version     2.0;
    format      ascii;
    class       surfaceScalarField;
    location    "5";
    object      phi;
}
// * * * * * * * * * * * * * * * * * * * * * * * * * * * * * * * * * * * * * //

dimensions      [0 3 -1 0 0 0 0];

internalField   nonuniform List<scalar> 
19125
(
574.736
-9.85632
1163.67
541.813
27.8946
1023.42
429.182
20.0099
266.723
303.116
24.1668
-129.564
232.841
40.0797
-472.563
197.697
39.3543
-783.148
181.298
28.7954
-1059.13
166.593
9.24673
-1300.98
169.174
47.3951
-1499.37
171.694
25.1369
-1376.62
120.843
64.6624
-617.048
113.707
29.8436
548.891
185.371
-5.75331
711.76
-2.6798
-168.942
514.528
-19.9511
2215.1
567.812
-9.4312
1182.28
537.971
30.1241
1025.83
427.177
19.6866
264.474
305.902
23.4674
-131.472
239.96
43.1661
-474.861
209.532
40.2671
-786.042
193.938
27.7547
-1062.63
170.776
24.6182
-1299.56
169.236
67.1644
-1508.75
176.487
26.6853
-1397.43
120.708
86.7336
-649.913
86.1229
109.3
579.182
179.665
-34.2088
827.429
36.6573
-201.42
438.353
-3.7688
2258
566.661
-9.1104
1188.45
536.925
30.9365
1025.35
423.79
20.3287
262.878
298.669
23.3252
-135.263
234.832
39.8024
-478.402
206.66
35.8836
-787.867
190.268
25.5754
-1063.57
180.409
27.4104
-1289.12
195.113
72.7017
-1490.45
196.032
34.7045
-1399.14
136.714
108
-665.547
92.4197
186.452
491.575
165.73
-45.2505
805.415
22.5637
-167.947
435.98
-3.0652
2237.73
564.196
-8.42793
1199.18
535.044
28.438
1025.2
418.935
21.2933
260.082
291.098
23.5428
-138.235
229.179
32.1453
-481.65
202.667
27.585
-790.302
187.953
19.8103
-1065.28
188.328
19.7591
-1285.3
215.008
71.3275
-1477.94
214.319
47.4702
-1405.3
160.295
117.427
-687.014
115.369
235.995
375.591
161.006
-33.4599
741.42
10.9369
-125.417
466.799
-8.7421
2246.65
562.807
-7.82754
1206.14
534.351
23.9131
1025.57
415.19
23.2084
258.181
285.738
21.7309
-142.101
228.488
16.0328
-485.287
203.626
15.3813
-791.254
189.531
11.2625
-1065.1
191.333
8.21133
-1283.66
224.598
63.6312
-1472.62
230.715
54.1796
-1413.5
187.429
105.312
-716.817
138.642
247.142
280.023
168.642
-18.9282
690.192
16.283
-90.6257
481.604
-5.8389
2245.82
559.947
-6.07724
1215.28
532.821
16.1616
1027.29
415.745
20.8885
257.341
287.545
14.7403
-144.994
233.224
-6.18157
-487.359
209.265
0.810352
-790.838
194.957
1.66595
-1063.86
196.569
-4.96799
-1281.67
236.003
48.5554
-1466.01
249.289
55.4899
-1423.38
208.001
82.9696
-751.038
153.388
218.577
224.829
171.068
-11.11
666.813
15.5109
-73.136
505.557
1.63094
2246.56
556.566
-2.30261
1224.61
528.836
5.79714
1027.86
422.162
7.84899
254.322
304.177
5.25091
-142.372
242.598
-7.22049
-482.656
215.478
-3.6723
-791.98
196.738
-1.69841
-1067.98
184.658
-6.11879
-1291.59
234.843
18.5598
-1477.97
277.87
26.5208
-1445.91
249.684
35.8399
-804.698
191.724
99.6804
157.268
173.329
-0.480776
633.392
5.97423
-32.746
524.707
2.63227
2231.49
555.174
2.36815
1228.8
527.601
-6.45683
1027.19
423.991
-8.25307
251.264
312.743
-5.57305
-140.983
247.228
6.78299
-480.062
216.613
2.95147
-793.703
195.156
0.893043
-1073.34
170.904
5.24864
-1303.31
227.135
-19.9839
-1493.9
293.838
-27.5468
-1463.6
280.111
-34.7016
-837.743
221.405
-90.6229
86.329
177.989
2.69122
594.081
-1.81158
36.0938
532.516
-3.17605
2208.48
556.699
6.08098
1224.24
528.871
-16.6096
1027.85
422.105
-21.1355
254.393
304.097
-14.9666
-142.334
242.606
5.6939
-482.725
215.454
-1.50741
-792.086
196.74
-2.4996
-1068.15
184.6
4.12006
-1291.88
234.913
-50.0849
-1477.61
278.233
-56.5864
-1445.81
249.701
-81.56
-804.93
191.969
-212.58
157.117
173.841
12.5973
633.115
6.29003
75.8295
523.923
-1.8176
2231.92
560.043
7.80789
1214.91
532.883
-24.2261
1027.3
415.812
-23.3549
257.418
287.606
-21.8456
-144.99
233.28
-16.4785
-487.45
209.285
-16.0381
-790.961
194.969
-12.0678
-1064.01
196.621
-9.08966
-1281.89
236.206
-65.2483
-1465.91
249.574
-55.258
-1423.51
208.057
-104.088
-751.201
153.791
-243.739
224.597
171.594
19.7432
666.178
15.6038
92.7731
505.002
5.83692
2246.88
562.888
8.40678
1205.73
534.446
-28.6514
1025.59
415.344
-21.3651
258.27
285.917
-23.5694
-142.112
228.649
-32.5453
-485.379
203.783
-28.1892
-791.385
189.684
-20.5502
-1065.29
191.575
-20.6494
-1283.9
225.12
-73.1012
-1472.64
231.396
-48.6681
-1413.86
188.047
-116.808
-717.405
139.327
-234.503
278.609
169.24
33.9655
688.847
16.2613
127.165
481.146
8.8532
2246.26
564.27
9.09365
1198.75
535.157
-31.0732
1025.23
419.157
-20.3629
260.165
291.41
-23.2828
-138.246
229.483
-40.0945
-481.738
202.996
-36.4067
-790.455
188.321
-26.2426
-1065.5
188.774
-28.2404
-1285.66
215.68
-74.5293
-1478.26
215.08
-36.0313
-1405.82
160.77
-107.862
-687.491
115.631
-185.741
374.072
161.454
45.5594
739.968
10.8547
169.028
466.45
3.28666
2247.15
566.734
9.42122
1188
537.068
-30.205
1025.37
424.07
-19.6968
262.949
299.077
-23.3892
-135.302
235.271
-43.374
-478.523
207.156
-40.7091
-788.056
190.824
-28.3342
-1063.85
180.996
-25.3104
-1289.64
195.844
-68.9205
-1491.12
196.848
-28.2113
-1399.81
137.153
-87.0949
-665.891
92.3965
-108.797
490.19
166.054
34.4072
804.265
22.5245
201.452
435.782
4.23675
2238.23
567.885
9.85337
1181.81
538.139
-27.9394
1025.85
427.483
-19.9873
264.535
306.345
-24.0725
-131.541
240.48
-40.248
-475.005
210.147
-39.7288
-786.25
194.64
-29.2775
-1062.92
171.63
-9.87933
-1300.16
170.285
-49.0439
-1509.41
177.45
-26.6565
-1398.04
121.125
-65.3081
-650.118
85.9458
-29.3507
578.077
179.938
5.77161
826.474
36.7548
167.491
438.243
20.8518
2258.41
574.82
1163.2
542.01
1023.42
429.565
266.766
303.666
-129.671
233.452
-472.735
198.39
-783.383
182.076
-1059.44
167.447
-1301.7
170.147
-1499.96
172.535
-1377.03
121.145
-617.051
113.387
548.041
185.01
710.726
-3.49853
516.372
2214.33
1610.27
-14.0981
468.751
1757.83
9.85118
871.398
1598.8
31.8518
416.119
1396.74
42.1572
62.604
1186.62
46.3863
-271.871
994.936
45.8591
-598.92
820.724
40.9536
-887.558
663.511
31.455
-1153.77
561.088
25.3195
-1410.94
466.852
-49.7707
-1270.59
336.793
61.7882
-499.166
343.339
83.1251
481.508
282.35
164.367
719.024
-392.737
-3.8646
1188.45
-204.259
2268.83
1607.12
-13.9839
480.676
1750.31
12.2049
880.29
1592.29
34.1641
420.176
1394.18
45.0724
63.7233
1189.79
48.6201
-272.708
1002.65
47.5661
-600.613
829.115
40.5333
-888.669
664.658
45.8968
-1149.55
556.893
36.7895
-1412.46
466.162
-70.0907
-1286.38
341.42
60.205
-523.589
322.626
189.087
492.012
393.799
171.572
749.051
-208.726
-38.6469
1075.66
-160.984
2390.06
1607.39
-13.9862
484.724
1749.71
13.2767
881.961
1591.12
34.8696
420.757
1392.64
44.2473
64.0467
1188.2
46.6334
-271.979
1001.97
45.0184
-599.085
827.606
37.808
-886.485
678.645
45.689
-1139.95
583.217
40.6107
-1398.84
472.861
-68.471
-1290.41
349.129
59.6666
-541.277
326.207
276.486
427.098
424.619
170.346
708.228
-162.017
-37.8598
1021.83
-105.028
2406.96
1607.13
-13.8306
492.039
1747.92
11.8268
885.866
1588.11
32.6202
422.134
1388.78
41.0001
64.3411
1184.34
41.5379
-272.109
999.076
38.7433
-598.767
825.392
31.7135
-885.505
683.879
37.2621
-1135.37
595.366
44.8886
-1393.7
474.806
-54.3574
-1298.85
352.645
52.7973
-557.985
342.474
305.668
356.578
416.97
176.63
660.639
-174.299
-19.2887
1039.5
-72.7875
2425.16
1607.18
-14.0796
496.94
1747.06
9.08995
888.426
1586.73
27.7631
423.373
1387.55
32.8226
65.252
1183.6
30.9809
-270.779
999.38
28.3985
-596.691
826.718
21.6853
-882.411
685.85
24.8407
-1130.38
598.918
48.4622
-1389.27
473.459
-35.8568
-1306.55
349.061
35.5154
-575.138
345.364
276.874
312.513
412.875
159.067
640.242
-175.527
-9.42885
1060.14
-40.8566
2424.64
1605.46
-12.59
503.417
1743.41
5.5986
892.825
1584.45
18.2769
425.79
1388.39
16.8845
66.9973
1187.09
13.7436
-268.821
1003.71
14.9823
-594.044
831.263
9.5921
-879.318
691.726
8.00371
-1125.3
610.61
45.5306
-1381.97
480.84
-10.7344
-1318.74
338.774
21.7393
-595.197
331.995
208.079
300.4
390.862
118.992
648.018
-193.296
-13.595
1093.88
-18.0162
2417.87
1601.36
-5.37186
510.028
1735.15
1.91612
897.753
1573.76
6.11408
427.873
1378.46
3.58645
66.2218
1180.75
1.72516
-272.921
999.512
3.22911
-598.993
824.248
1.04351
-884.164
674.01
-1.52392
-1131.82
609.262
19.4511
-1387.14
492.259
0.968988
-1340.61
324.835
9.16662
-624.702
308.218
91.1998
290.762
373.076
49.6252
637.898
-198.683
-7.66467
1090.53
-3.70729
2408.96
1599.17
5.31193
513.039
1731.21
-2.53141
899.593
1567.37
-7.0595
428.273
1369.8
-4.63837
64.8155
1171.87
-2.86224
-277.546
991.399
-4.52751
-605.476
813.44
-2.55649
-891.78
651.466
0.073483
-1142.93
597.172
-22.0463
-1398.11
494.178
-3.85122
-1355.79
317.208
-10.6131
-640.994
293.488
-85.7554
287.002
362.158
-44.8207
619.854
-200.147
13.0837
1074.07
3.23564
2395.33
1601.42
12.4736
509.781
1735.24
-6.10619
897.6
1573.82
-19.0055
427.761
1378.44
-17.7269
66.1279
1180.59
-14.707
-273.028
999.21
-16.1146
-599.119
823.872
-11.0286
-884.342
673.721
-9.65703
-1132
609.459
-48.5741
-1386.82
492.498
8.12352
-1340.83
324.253
-22.4958
-624.804
307.612
-203.569
291.569
372.728
-115.464
638.641
-199.363
17.7336
1091.36
18.1102
2408.15
1605.43
13.9604
503.19
1743.42
-9.49641
892.699
1584.47
-28.3248
425.685
1388.36
-33.4904
66.8812
1186.96
-31.8096
-268.943
1003.48
-29.422
-594.183
830.945
-23.0317
-879.472
691.458
-26.5784
-1125.48
610.452
-51.5638
-1381.91
480.337
33.6007
-1318.87
337.523
-35.9242
-594.96
330.996
-273.359
300.912
390.02
-156.78
648.469
-194.389
12.4198
1094.72
41.2813
2416.75
1607.11
13.7328
496.695
1747.05
-12.138
888.293
1586.78
-33.0455
423.263
1387.59
-41.5334
65.1179
1183.57
-42.2423
-270.924
999.276
-39.6533
-596.863
826.528
-32.9545
-882.615
685.704
-38.9909
-1130.67
598.82
-47.9179
-1389.41
472.932
52.3424
-1306.71
347.797
-53.1965
-574.999
344.438
-303.568
312.176
411.854
-175.564
640.215
-176.872
21.279
1061.01
73.5666
2423.32
1607.04
13.9107
491.791
1747.89
-13.5024
885.736
1588.17
-35.1784
422.023
1388.85
-44.6477
64.1871
1184.36
-47.2061
-272.29
999.047
-45.8049
-598.995
825.299
-38.9341
-885.782
683.75
-47.2694
-1135.84
595.135
-43.3976
-1394.17
474.026
66.6338
-1299.01
351.258
-60.2576
-557.667
341.554
-275.472
355.678
415.687
-170.074
660.344
-175.96
38.911
1040.46
106.033
2423.68
1607.28
13.9317
484.464
1749.7
-12.3594
881.816
1591.22
-34.3779
420.628
1392.76
-45.358
63.8605
1188.3
-49.071
-272.199
1002.03
-48.218
-599.368
827.595
-41.5036
-886.844
678.446
-47.1393
-1140.62
582.749
-39.1847
-1399.64
471.885
68.2057
-1290.52
347.68
-61.2573
-540.684
325.129
-188.745
426.013
422.952
-171.637
708.005
-163.906
38.6657
1022.88
162.276
2405.21
1607
14.0657
480.402
1750.3
-9.94772
880.129
1592.41
-31.9911
420.038
1394.35
-42.3559
63.5238
1189.95
-46.733
-272.943
1002.79
-46.3792
-600.925
829.171
-41.7272
-889.074
664.602
-32.378
-1150.34
556.648
-27.3056
-1413.33
465.303
47.943
-1286.43
339.915
-63.1004
-522.884
321.271
-83.0876
491.065
391.788
-164.638
748.958
-210.801
2.7306
1076.77
205.824
2388.07
1610.16
468.473
1757.85
871.222
1598.97
415.956
1396.95
62.3698
1186.8
-272.146
995.072
-599.278
820.749
-887.99
663.426
-1154.63
560.837
-1411.79
465.897
-1270.51
335.102
-498.53
341.452
480.917
279.397
718.984
-395.501
1189.71
2265.73
1612.5
-0.702321
39.0029
2017.07
-9.00528
469.534
2065.92
1.53331
365.347
1942.98
12.7783
181.314
1703.2
21.711
-37.3761
1391.28
27.9622
-293.104
1058.78
28.7033
-560.186
743.121
37.3269
-853.445
461.868
-9.21787
-1133.43
158.747
-66.2455
-943.682
-131.455
136.373
-230.692
-351.83
293.765
603.3
-800.729
240.191
1089.98
-1330.54
46.0262
1664.61
-238.184
1588.27
1617.35
-0.799096
41.313
2020.12
-7.98491
476.502
2067.36
2.57406
371.891
1943.75
13.81
186.297
1704.82
22.3382
-34.4025
1394.36
29.2685
-291.46
1062.36
30.0122
-557.977
745.084
53.6919
-848.641
464.845
-8.34538
-1133.09
175.563
-101.054
-962.29
-74.4568
129.25
-266.449
-252.657
379.054
584.92
-630.43
294.051
1072.96
-1218.84
27.8537
1682.24
-219.228
1732.22
1618.86
-0.773604
42.1331
2022.09
-7.68725
478.428
2068.82
3.32082
373.281
1944.88
14.2634
187.537
1706.19
22.0719
-33.0236
1396.89
28.834
-289.349
1066.18
28.5379
-554.31
767.46
52.2326
-839.77
487.34
-3.23379
-1123.83
169.302
-106.939
-966.484
-71.9603
113.017
-283.782
-221.755
410.993
544.954
-558.806
304.757
1034.57
-1170.77
-0.687945
1662.33
-176.416
1774.31
1621.72
-0.822971
43.6838
2025.19
-7.53182
482.232
2071.33
2.91777
376.402
1946.68
13.2991
189.955
1707.52
20.4066
-31.2881
1398.38
26.8203
-287.617
1067.9
25.2278
-551.713
772.864
46.8328
-834.93
489.787
7.67698
-1121.54
156.732
-100.643
-972.092
-86.9894
93.5073
-294.757
-212.581
378.63
514.529
-529.53
268.775
1013.57
-1149.81
-14.7591
1673.85
-136.48
1814.19
1623.64
-0.954746
44.7151
2027.45
-7.73213
484.808
2073.06
2.02677
378.655
1947.98
11.3396
192.292
1708.69
17.7933
-28.8778
1400.49
23.0556
-284.723
1071.45
19.242
-547.383
776.526
40.4562
-829.079
489.868
22.9874
-1117.92
145.226
-86.0889
-976.46
-100.791
66.2368
-301.852
-210.027
297.471
502.907
-520.828
203.601
1016.21
-1141.71
-19.9166
1686.18
-94.2286
1822.39
1626.04
-1.03154
46.1132
2029.21
-6.59667
488.522
2074.02
0.87145
382.131
1948.87
7.81135
195.675
1710.22
13.3226
-25.6969
1403.59
16.976
-281.336
1075.91
10.9452
-543.348
786.441
26.7698
-822.141
505.003
34.8687
-1112.41
145.441
-57.6619
-987.603
-107.191
31.776
-308.106
-207.819
191.273
507.222
-528.22
138.443
1033.57
-1144.61
-11.9291
1702.28
-57.6537
1821.57
1628.26
-0.699272
47.5985
2029.35
-2.66873
492.729
2071.42
0.0492147
386.631
1943.18
2.51804
199.752
1701.78
4.75521
-22.9517
1394.24
5.8751
-280.352
1062.96
2.14111
-544.09
773.503
7.45834
-823.051
516.726
18.0177
-1113.51
148.017
-20.4467
-1009.12
-126.723
4.89327
-323.081
-212.506
66.471
501.345
-515.04
54.5938
1024.28
-1131.62
-2.50346
1697.69
-19.2072
1829.12
1629.04
0.172786
48.3408
2029.14
2.36436
494.463
2069.6
-0.67947
388.532
1939.08
-3.45303
201.312
1694.79
-5.98452
-22.5248
1384.34
-7.35425
-281.793
1046.8
-3.90862
-548.193
750.531
-9.15278
-830.056
511.537
-21.3925
-1119.71
142.003
16.496
-1023.2
-154.016
-7.28334
-332.801
-229.19
-64.0948
492.737
-508.543
-52.1406
1005.94
-1124.75
3.87415
1683.89
17.1235
1829.2
1627.97
0.809547
47.6125
2029.12
6.22699
492.585
2071.18
-1.44279
386.46
1942.92
-8.59957
199.538
1701.4
-14.3378
-23.1563
1393.73
-18.2502
-280.551
1062.33
-12.5663
-544.285
773.259
-28.9747
-823.113
517.137
-38.8531
-1113.24
147.766
54.4809
-1009.44
-127.931
-34.0404
-322.352
-214.018
-188.992
502.551
-516.886
-136.124
1025.49
-1132.84
13.148
1698.04
57.0371
1825.85
1625.86
0.800959
46.1442
2029.02
7.3766
488.386
2073.82
-2.53624
381.977
1948.65
-12.0259
195.47
1709.93
-18.6788
-25.8808
1403.22
-24.2067
-281.512
1075.45
-20.7871
-543.484
786.101
-42.8508
-822.26
504.501
-26.8917
-1112.28
144.02
83.568
-987.478
-109.52
-68.255
-307.208
-210.305
-295.232
507.935
-530.71
-201.597
1034.35
-1146.27
20.8606
1702.56
94.1933
1818.23
1623.44
0.6928
44.7455
2027.24
7.2107
484.658
2072.84
-3.35544
378.479
1947.77
-13.8876
192.053
1708.44
-21.1767
-29.1036
1400.18
-27.8654
-284.943
1071.04
-26.7014
-547.566
776.105
-49.2539
-829.33
489.01
-11.2681
-1117.94
143.286
98.6305
-976.051
-103.813
-95.3666
-300.793
-213.255
-376.954
503.337
-524.089
-267.367
1016.82
-1143.82
15.4395
1686.17
136.847
1818.46
1621.51
0.661875
43.7123
2024.96
7.41592
482.081
2071.09
-3.68321
376.218
1946.45
-14.7542
189.694
1707.27
-22.731
-31.551
1398.07
-29.7607
-287.898
1067.47
-29.8968
-551.982
772.204
-54.4426
-835.376
488.412
0.120641
-1121.76
154.257
105.238
-971.456
-90.4941
-114.743
-293.531
-216.246
-410.178
514.656
-533.244
-304.027
1014
-1152.17
1.05548
1673.77
176.895
1810.11
1618.63
0.712998
42.1554
2021.83
7.7711
478.258
2068.57
-2.85992
373.063
1944.66
-14.2047
187.227
1705.96
-22.8828
-33.3457
1396.58
-30.0458
-289.702
1065.71
-31.1868
-554.677
766.506
-55.4373
-840.423
485.438
5.77515
-1124.22
166.401
99.348
-965.588
-75.8726
-130.823
-282.328
-225.952
-379.013
544.926
-563.056
-293.782
1034.86
-1173.33
-27.7685
1661.98
219.771
1769.8
1617.1
0.641514
41.3228
2019.83
8.85043
476.314
2067.1
-1.74562
371.655
1943.54
-13.0803
185.963
1704.61
-22.1371
-34.758
1394.08
-28.5721
-291.86
1061.87
-29.6311
-558.417
744.108
-38.5797
-849.439
462.901
7.17997
-1133.53
172.504
64.5596
-961.241
-78.6029
-137.66
-264.939
-257.192
-294.219
584.86
-634.936
-240.24
1073.16
-1221.37
-46.2329
1681.67
238.779
1727.49
1612.25
39.0009
2016.78
469.326
2065.67
365.08
1942.76
180.937
1702.96
-37.7762
1390.94
-293.546
1058.19
-560.653
742.149
-854.286
459.915
-1133.81
155.487
-942.513
-135.729
-229.292
-356.651
603.252
-805.416
1089.87
-1332.82
1663.31
1582.91
1374.53
0.687713
42.7136
1624.66
-5.54994
220.906
1746.77
-7.36558
243.994
1728.97
-3.49891
198.243
1578.05
3.03486
110.898
1306.66
12.5318
-26.929
945.68
21.5294
-206.107
525.698
48.45
-450.804
36.5594
-47.6576
-636.046
-549.862
-19.2484
-338.249
-1116.41
186.269
295.701
-1521.86
209.498
950.383
-1818.62
109.043
1338.95
-1663.14
-62.2208
1507.02
-113.968
816.368
1376.2
0.995193
42.1924
1629.44
-5.35694
223.064
1752.88
-6.82907
247.907
1735.5
-2.58905
202.771
1584.41
4.47016
115.256
1313.72
14.9778
-23.2144
953.815
25.3931
-201.941
537.144
62.5507
-446.071
51.7823
-57.223
-638.165
-520.534
-53.2385
-355.984
-1068.76
191.075
276.971
-1465.79
247.164
944.281
-1775.44
133.819
1357.84
-1672.22
-56.7668
1573.56
-113.5
892.427
1377.1
0.847843
42.0165
1631.62
-5.3235
223.875
1755.49
-6.37385
248.951
1738.3
-1.8591
203.994
1587.91
4.9449
116.893
1318.78
15.7753
-21.0207
963.204
24.6608
-197.998
564.25
60.0789
-438.345
67.1479
-50.2241
-633.73
-530.184
-63.8276
-358.563
-1064.93
170.825
271.211
-1443.95
241.271
929.869
-1750.27
127.099
1347.61
-1670.82
-57.4583
1583.58
-104.35
919.599
1378.18
0.799038
41.6618
1634.78
-4.98007
225.292
1759.78
-6.15637
251.18
1743.31
-1.97763
206.539
1593.46
4.01919
119.493
1325.01
14.9505
-18.3418
970.226
22.0419
-194.314
570.601
58.4793
-433.706
67.1691
-36.1539
-632.175
-535.056
-70.3887
-363.306
-1061.87
138.688
264.196
-1431.39
204.748
920.57
-1734.48
97.3596
1346.39
-1668.44
-53.1001
1603.45
-90.9678
949.863
1379.02
0.645227
41.4345
1637.23
-4.70253
226.326
1762.92
-5.94374
252.743
1747.01
-2.37949
208.605
1597.71
2.46747
121.978
1330.92
12.4674
-15.4502
978.839
16.4418
-189.705
577.901
58.6607
-428.324
68.995
-15.4676
-629.699
-538.165
-73.1249
-366.565
-1060.07
96.8569
261.888
-1426.25
154.085
919.743
-1728.88
66.4615
1349.74
-1663.98
-41.5569
1609.74
-72.7489
958.799
1380.11
0.512509
41.101
1640.08
-3.65423
227.507
1766.41
-4.91017
254.761
1751.04
-2.59541
211.265
1602.31
0.503671
124.99
1337.42
8.23489
-12.2106
987.986
7.87089
-185.343
597.248
48.3542
-421.097
90.8181
7.40445
-628.855
-532.613
-59.8366
-377.461
-1057.25
51.0982
262.285
-1423.34
102.326
925.071
-1728.15
47.5163
1357.33
-1658.98
-23.5525
1615.1
-50.1626
962.011
1381.47
0.114775
40.8062
1643.4
-1.5193
228.666
1770.01
-2.08711
257.195
1753.78
-1.42386
214.808
1603.02
-0.56561
128.873
1337.5
2.11239
-8.70951
983.329
0.264866
-182.31
607.756
17.8709
-416.996
126.154
8.67327
-633.181
-516.164
-24.3274
-402.313
-1051.88
11.9015
251.833
-1406.78
36.9847
921.586
-1710.94
19.8084
1356.15
-1653.16
-6.39621
1622.75
-21.1875
972.652
1381.95
-0.182543
40.6675
1644.73
1.13085
229.034
1771.51
1.51297
258.143
1754.58
0.522819
216.294
1601.74
-0.600457
130.354
1333.59
-3.60605
-7.92133
970.796
-2.13223
-183.006
597.84
-19.8936
-419.336
137.916
-12.6691
-638.446
-509.448
19.7872
-419.95
-1054.42
-15.0812
239.156
-1399.15
-38.1095
912.556
-1700.7
-21.0191
1348.31
-1650.96
5.04493
1622.71
12.0999
974.65
1381.43
-0.595056
40.824
1643.28
3.25273
228.613
1769.84
4.31954
257.086
1753.53
1.74746
214.626
1602.68
-1.58709
128.677
1337.06
-9.66408
-8.87018
982.777
-9.70526
-182.43
608.114
-51.4726
-416.873
127.012
-11.7092
-633.1
-516.616
56.801
-402.828
-1053.19
-53.1153
252.257
-1408.02
-103.035
922.302
-1711.55
-48.5841
1356.59
-1652.02
21.8323
1621.72
46.3548
967.309
1380.07
-0.770194
41.1242
1639.98
4.29315
227.441
1766.26
5.3666
254.642
1750.82
1.59091
211.071
1602.04
-3.4925
124.806
1337.08
-13.8738
-12.3504
987.611
-18.3331
-185.387
597.021
-62.1234
-421.023
90.1663
11.5222
-628.655
-534.243
70.9021
-377.173
-1059.1
-98.2361
262.77
-1425.02
-154.42
925.234
-1729.1
-67.3437
1357.19
-1658.83
39.9572
1614.16
70.6745
957.818
1378.95
-0.932314
41.4443
1637.07
4.59357
226.233
1762.71
5.62144
252.581
1746.73
1.25605
208.366
1597.39
-4.97639
121.727
1330.54
-16.3041
-15.6617
978.382
-23.9236
-189.822
577.195
-61.8734
-428.395
67.5785
32.5989
-629.4
-540.491
68.6321
-365.712
-1062.54
-139.644
262.665
-1428.63
-204.881
919.883
-1730.4
-97.979
1349.22
-1664.12
51.9838
1607.86
89.987
953.87
1378.09
-0.990544
41.6772
1634.59
4.95862
225.205
1759.54
5.88991
251.002
1743
1.21304
206.269
1593.09
-5.80656
119.184
1324.53
-17.0004
-18.6415
969.563
-26.3973
-194.554
569.371
-63.0857
-433.982
64.906
47.1375
-631.845
-538.106
62.2786
-362.102
-1064.83
-171.501
265.042
-1434.16
-241.392
920.492
-1736.23
-127.556
1345.65
-1668.75
56.7306
1601.54
103.608
945.187
1376.97
-1.14075
42.0378
1631.39
5.03304
223.767
1755.19
6.42059
248.728
1737.92
2.05625
203.647
1587.45
-5.19288
116.505
1318.17
-16.0116
-21.4097
962.319
-26.8805
-198.35
562.524
-64.9167
-438.803
64.1126
54.6458
-633.325
-533.945
51.7464
-357.006
-1068.44
-191.541
272.202
-1447.15
-247.396
929.64
-1752.23
-134.118
1346.5
-1671.05
56.3969
1581.14
112.957
914.575
1376.03
-0.809857
42.2127
1629.16
5.28534
222.934
1752.52
7.04117
247.667
1735.06
3.08881
202.392
1583.88
-3.60398
114.825
1313.01
-13.3323
-23.6693
952.766
-22.6642
-202.395
535.181
-50.1166
-446.659
48.4213
45.5719
-637.698
-524.672
17.8649
-354.273
-1072.56
-186.553
277.955
-1469.14
-209.851
943.899
-1777.39
-109.263
1356.55
-1672.36
62.1128
1570.92
113.543
887.326
1374.33
42.722
1624.33
220.739
1746.36
243.716
1728.46
197.826
1577.45
110.408
1305.85
-27.4242
944.504
-206.582
523.717
-451.381
33.108
-635.475
-554.116
-336.49
-1120.14
296.512
-1525.05
949.713
-1820.25
1337.17
-1662.93
1503.83
811.081
1317.15
0.179528
119.999
1345.17
-0.595406
192.943
1374.15
-2.57021
215.037
1349.5
-1.59841
221.741
1241.42
1.80269
216.25
1019.85
9.33956
189.515
678.342
22.3316
126.154
208.671
48.3987
3.07706
-386.992
-86.5802
-20.9868
-1033.47
-42.9384
330.334
-1551.42
63.5442
802.219
-1825.05
41.1385
1210.24
-1826.97
-33.971
1338.18
-1470.25
-97.2128
1172.39
-20.7126
582.324
1316.76
0.382781
119.986
1346.17
-0.272006
193.328
1377.29
-2.05761
216.27
1355.2
-0.646481
223.91
1249.16
3.82582
219.278
1029.91
12.4979
192.873
690.69
29.127
130.483
225.462
59.41
8.14396
-378.075
-96.1811
-25.0279
-1034.54
-64.463
322.003
-1557.82
61.8027
801.99
-1842.16
48.2161
1221.54
-1857.87
-26.779
1366.36
-1502.59
-90.1873
1211.25
-23.1701
591.917
1316.99
0.184466
119.994
1347.29
-0.267888
193.574
1379.22
-1.74676
216.706
1357.93
0.0602162
224.579
1253.58
4.64321
220.426
1036.59
13.9141
194.547
705.182
28.6528
133.885
253.449
58.0345
14.7617
-364.817
-86.9122
-24.7349
-1038.63
-71.2241
322.012
-1558.42
49.3239
803.475
-1842.97
42.6806
1219.95
-1866.28
-24.4105
1368.55
-1514.91
-80.6484
1222.67
-27.5448
597.121
1316.69
0.208753
119.973
1347.93
-0.132807
193.915
1381.37
-1.55726
217.547
1361.95
0.0947492
225.931
1259.69
4.04748
222.341
1044.6
13.6766
196.992
715.301
26.121
137.511
259.866
60.226
19.5341
-364.64
-71.1231
-23.4618
-1038.86
-78.7796
318.468
-1558.86
32.7856
800.734
-1846.34
31.8573
1218.87
-1873.54
-24.6035
1373.79
-1523.16
-64.7517
1237.17
-28.6444
603.766
1316.72
0.0737493
119.968
1348.86
-0.196498
194.244
1383.38
-1.52944
218.195
1365.31
-0.225592
226.995
1264.7
2.69025
223.948
1052.32
11.5441
199.063
727.181
20.4046
141.144
268.55
66.4184
24.1113
-362.108
-48.4322
-21.7351
-1038.42
-85.3372
316.303
-1558.41
15.4175
799.247
-1847.26
23.3507
1217.1
-1875.93
-20.1025
1373.91
-1524.7
-47.8296
1241.59
-30.9984
607.852
1316.49
0.137319
119.906
1349.47
-0.102604
194.43
1385.21
-1.28703
218.772
1368.74
-0.570682
228.081
1269.88
0.875422
225.661
1060.48
7.47164
201.261
740.902
10.0593
144.58
294.767
61.2699
30.1822
-338.412
-19.0746
-25.0382
-1034.74
-73.279
306.806
-1560.03
3.68881
799.304
-1849.18
18.7217
1218.85
-1876.66
-10.8997
1375.61
-1521.55
-30.1371
1242.3
-26.6837
606.623
1316.58
-0.0699958
119.891
1350.76
-0.22718
194.601
1387.96
-0.678069
219.389
1373.23
-0.56903
229.534
1275.17
-0.390983
228.196
1067.75
1.77916
204.401
747.002
0.575561
147.92
331.011
25.1987
35.0611
-283.052
-1.03352
-37.1625
-1012.76
-29.8934
284.002
-1551.58
-1.13302
795.482
-1841.6
8.44334
1221.88
-1876.06
-2.18837
1381.89
-1525.06
-10.1736
1251.79
-21.0953
609.999
1316.33
-0.036128
119.871
1350.87
-0.295022
194.559
1388.8
0.0667927
219.466
1374.87
-0.346567
230.002
1276.42
-0.824526
229.227
1068.11
-3.46933
205.642
739.837
-2.61739
148.454
338.72
-27.905
34.8788
-252.23
-2.5178
-46.0192
-994.222
26.0764
266.067
-1543.08
-1.60146
788.482
-1834.37
-9.90709
1222.19
-1874.04
1.26836
1384.53
-1522.85
8.70359
1252.65
-0.0852862
603.841
1316.56
-0.216148
119.872
1350.71
-0.405418
194.572
1387.91
0.626502
219.323
1373.12
-0.375647
229.442
1275.05
-2.1446
228.068
1067.6
-9.22037
204.32
746.926
-12.2486
147.875
332.43
-65.56
35.2725
-281.003
15.3127
-37.5042
-1012.02
71.1978
283.063
-1551.08
-5.60049
795.312
-1840.22
-20.7933
1222.33
-1872.79
8.09466
1382.33
-1518.75
26.4274
1249.95
20.512
603.507
1316.51
-0.23716
119.887
1349.47
-0.307392
194.385
1385.22
0.843848
218.671
1368.72
-0.753411
227.946
1269.89
-4.01581
225.506
1060.48
-13.3416
201.174
740.991
-22.7433
144.595
294.889
-70.8534
30.3668
-338.575
45.0103
-24.8969
-1035.29
84.034
306.699
-1560.3
-16.9401
799.125
-1848.9
-25.3054
1218.34
-1875.58
17.155
1374.81
-1520.11
44.0798
1241.04
27.7332
602.969
1316.67
-0.375648
119.918
1348.78
-0.335867
194.145
1383.3
0.878754
218.029
1365.19
-1.07332
226.795
1264.53
-5.34494
223.712
1052.05
-15.4146
198.886
726.88
-28.4729
141.071
267.831
-64.3715
24.1631
-363.272
68.0395
-21.3345
-1039.44
77.6863
316.798
-1559.01
-34.1076
799.402
-1847.45
-33.5952
1216.62
-1875.45
22.0497
1372.32
-1523.82
61.7697
1238.53
27.1108
602.946
1316.62
-0.355982
119.935
1347.83
-0.174213
193.833
1381.22
1.10832
217.383
1361.68
-0.974941
225.712
1259.27
-5.79863
222.041
1043.96
-15.4516
196.708
714.457
-30.8109
137.292
258.333
-61.6275
19.3997
-366.715
84.1851
-22.94
-1040.49
70.2142
319.147
-1559.89
-50.3474
800.681
-1846.85
-44.0307
1217.88
-1873.32
22.4049
1371.76
-1522.79
78.3096
1234.48
25.9106
599.713
1316.88
-0.545679
119.973
1347.14
-0.124324
193.459
1378.99
1.49562
216.487
1357.53
-0.140093
224.27
1253.01
-4.79604
220.024
1035.77
-13.7841
194.161
703.996
-30.9434
133.553
251.286
-62.2182
14.4932
-367.607
93.8249
-24.0769
-1040.76
63.4528
322.904
-1559.81
-62.5309
803.434
-1843.66
-49.2265
1218.68
-1865.93
25.2977
1365.87
-1514.14
88.4042
1219.25
21.8915
592.654
1316.61
-0.314616
119.979
1345.96
0.26909
193.185
1376.98
2.10914
216.031
1354.69
0.978308
223.565
1248.45
-2.56299
218.823
1028.91
-10.3254
192.415
689.195
-23.675
130.043
222.957
-50.4215
7.77503
-381.208
84.5769
-24.2924
-1036.97
42.0086
322.924
-1559.38
-63.9933
801.831
-1842.88
-41.8661
1220.04
-1857.44
32.9201
1363.48
-1501.79
95.8844
1207.79
19.6539
587.4
1316.95
119.995
1344.88
192.741
1373.75
214.736
1348.9
221.347
1240.6
215.741
1018.71
189.024
676.726
125.698
206.138
2.73705
-390.21
-20.1859
-1036.03
331.223
-1552.99
801.883
-1825.63
1208.39
-1826.26
1334.82
-1469.17
1168.44
577.622
1345.99
0.117007
160.83
1294.74
0.0446891
244.016
1234.35
0.0115988
274.908
1139.87
2.32624
314.337
1003.76
5.9969
348.457
792.149
13.7509
394.828
467.729
31.7721
437.958
18.3747
49.8381
436.152
-500.612
-114.141
519.028
-1008.29
-97.8493
865.731
-1383.48
-26.0568
1184.64
-1514.39
-42.4878
1347.3
-1463.41
-69.2859
1297.06
-1304.63
-64.1936
1027.09
-12.0899
736.459
1345.76
0.330782
160.928
1294.47
0.447149
244.213
1235.03
0.544316
275.174
1142.89
3.47666
314.893
1009.82
8.71983
349.63
802.098
17.6469
396.699
482.182
41.151
441.019
37.5265
60.7046
441.933
-494.228
-121.89
514.475
-1018.98
-113.364
862.269
-1406.64
-29.8134
1193.4
-1545.83
-44.9665
1363.21
-1492.68
-69.0838
1313.01
-1316.31
-60.5717
1031.25
-10.3935
721.463
1345.98
0.22498
160.972
1295.01
0.610193
244.375
1236.13
0.778652
275.354
1145.08
3.92176
315.177
1014.43
9.61102
350.189
809.798
19.2054
397.621
501.782
40.3265
442.725
70.2028
60.5917
446.452
-479.196
-109.615
512.388
-1019.95
-113.428
862.83
-1408.65
-33.8541
1196.22
-1554.2
-42.757
1363.3
-1506.4
-62.8526
1314.51
-1326.17
-56.7408
1038.6
-15.2402
718.885
1345.92
0.191053
161.003
1295.15
0.744293
244.543
1236.98
0.901364
275.596
1147.48
3.78257
315.571
1019.52
8.94418
350.961
817.65
18.9054
399.164
513.295
37.0226
445.168
77.5976
64.2263
451.595
-479.336
-89.7078
513.563
-1020.09
-115.034
860.824
-1412.62
-37.592
1197.01
-1564.64
-37.3411
1365.47
-1517.97
-52.6371
1316.91
-1330.98
-47.0369
1040.47
-16.6627
712.651
1346.14
-0.122582
161.015
1296
0.405731
244.724
1238.53
0.693492
275.866
1150.2
3.1283
315.976
1024.28
7.19809
351.621
825.973
16.1694
400.101
527.082
30.2718
446.784
87.662
72.5791
455.175
-476.367
-62.0965
514.68
-1017.58
-116.913
859.396
-1411.82
-40.5472
1196.44
-1568.61
-27.4525
1364
-1526.06
-38.4762
1317.2
-1338.81
-37.0749
1044.37
-26.9144
711.498
1345.83
-0.0318099
161.032
1295.72
0.189605
244.754
1238.88
0.379894
275.924
1151.85
2.11317
316.122
1028.2
4.45914
352.051
833.873
10.7799
400.975
543.721
16.7823
448.22
118.76
68.032
459.687
-449.519
-27.6292
508.77
-1010.31
-98.9781
849.661
-1411.56
-37.6326
1197.64
-1569.77
-17.4942
1367.1
-1526.19
-24.9997
1318.55
-1336.12
-23.5915
1038.74
-25.7833
700.79
1345.98
-0.19794
161.074
1296.17
-0.254197
244.844
1240.03
-0.133068
276.041
1154.89
0.454679
316.33
1033.86
0.930496
352.759
843.776
2.89356
402.368
555.993
2.79191
449.69
166.877
28.9069
463.299
-384.228
-2.98627