/*--------------------------------*- C++ -*----------------------------------*\
| =========                 |                                                 |
| \\      /  F ield         | OpenFOAM: The Open Source CFD Toolbox           |
|  \\    /   O peration     | Version:  4.1                                   |
|   \\  /    A nd           | Web:      www.OpenFOAM.org                      |
|    \\/     M anipulation  |                                                 |
\*---------------------------------------------------------------------------*/
FoamFile
{
    version     2.0;
    format      ascii;
    class       volVectorField;
    location    "5";
    object      U;
}
// * * * * * * * * * * * * * * * * * * * * * * * * * * * * * * * * * * * * * //

dimensions      [0 1 -1 0 0 0 0];

internalField   nonuniform List<vector> 
6750
(
(14.5113 -0.0424845 15.134)
(2.30129 0.11263 10.9941)
(7.24169 0.0932342 1.02612)
(4.01337 0.116134 -3.22598)
(2.78584 0.187568 -6.44577)
(2.43451 0.189757 -9.50025)
(2.10177 0.156697 -12.3882)
(2.01211 -0.00545721 -14.9295)
(1.69662 0.147917 -16.74)
(2.20872 0.0863317 -15.3137)
(1.77257 0.244109 -6.81696)
(0.981058 -0.0110216 6.73886)
(1.14059 0.0290123 8.8234)
(3.98556 -0.534153 2.66065)
(-5.83927 -0.137859 23.3309)
(14.3755 -0.0609558 15.3677)
(2.22659 0.181475 10.9591)
(7.2081 0.125225 0.96011)
(4.02827 0.147799 -3.25572)
(2.83713 0.259264 -6.47007)
(2.54189 0.251566 -9.53351)
(2.26483 0.170848 -12.435)
(2.13591 0.113133 -14.9417)
(1.66302 0.378237 -16.9161)
(2.23674 0.183972 -15.616)
(1.85638 0.469605 -7.26594)
(0.87536 0.358676 7.27757)
(0.651935 -0.104084 10.1817)
(4.38755 -1.20056 3.07323)
(-5.39872 -0.0833134 23.5002)
(14.342 -0.0491315 15.4433)
(2.20998 0.167573 10.9358)
(7.2056 0.100904 0.923898)
(3.95223 0.120503 -3.33542)
(2.75793 0.233757 -6.55721)
(2.50329 0.206455 -9.58778)
(2.23958 0.142834 -12.4669)
(2.07963 0.16408 -14.8146)
(1.93643 0.382572 -16.6868)
(2.53422 0.121211 -15.6356)
(2.01171 0.521452 -7.50741)
(1.06639 0.856762 6.17696)
(0.613496 -0.276945 9.91571)
(4.09286 -1.08722 3.80652)
(-5.43017 0.0262896 23.2082)
(14.2738 -0.0510849 15.5753)
(2.18457 0.173201 10.8989)
(7.19165 0.124822 0.858623)
(3.86083 0.138168 -3.39286)
(2.683 0.207524 -6.62075)
(2.44987 0.193154 -9.64067)
(2.20488 0.142632 -12.5073)
(2.0645 0.142893 -14.7743)
(2.12848 0.429681 -16.4904)
(2.77974 0.261406 -15.6729)
(2.18089 0.68492 -7.83564)
(1.43328 1.2355 4.60456)
(0.765369 -0.230019 9.1625)
(3.81777 -0.811436 4.19792)
(-5.39368 -0.0497803 23.3788)
(14.2327 -0.0451011 15.6597)
(2.16878 0.149677 10.885)
(7.19711 0.116709 0.810843)
(3.76955 0.129276 -3.47657)
(2.65987 0.160349 -6.70773)
(2.45507 0.120926 -9.67851)
(2.22304 0.0830781 -12.5301)
(2.08254 0.0804725 -14.7843)
(2.17951 0.375642 -16.4289)
(2.93667 0.275421 -15.7597)
(2.38607 0.637023 -8.30631)
(1.85651 1.41512 3.13279)
(0.870088 -0.137825 8.465)
(3.88106 -0.589602 4.26597)
(-5.33877 -0.0503596 23.4134)
(14.1709 -0.0419947 15.7705)
(2.13747 0.117673 10.8795)
(7.2026 0.142105 0.776657)
(3.77282 0.110084 -3.54979)
(2.69974 0.0182982 -6.76761)
(2.52063 0.0524507 -9.69187)
(2.28484 0.0419537 -12.5306)
(2.14416 0.0116289 -14.7821)
(2.23697 0.337185 -16.3692)
(3.12987 0.329452 -15.8534)
(2.59747 0.542051 -8.7962)
(2.14314 1.35814 2.10512)
(0.91167 -0.0830575 8.0055)
(3.86098 -0.45228 4.31075)
(-5.31257 -0.0118955 23.4911)
(14.0951 -0.0254533 15.8848)
(2.11623 0.0629611 10.8465)
(7.12127 0.0946439 0.729063)
(4.01521 0.0633327 -3.43545)
(2.82927 -0.0851924 -6.55858)
(2.60113 -0.043629 -9.62608)
(2.34648 -0.0213637 -12.5564)
(2.12073 -0.0681466 -14.9114)
(1.99651 0.211107 -16.5519)
(3.34092 0.295219 -16.1148)
(3.00485 0.380102 -9.55187)
(2.78439 1.09797 0.578006)
(1.06114 -0.0173013 7.28241)
(3.71426 -0.366449 4.6534)
(-5.3552 0.0290025 23.3442)
(14.0599 0.000253905 15.9371)
(2.11136 -0.0020833 10.818)
(7.07918 -0.00139626 0.684067)
(4.11983 -0.00109391 -3.36104)
(2.91465 -0.00117024 -6.40514)
(2.62129 -0.00208731 -9.55882)
(2.3518 -0.00224268 -12.5802)
(2.08008 -0.00252877 -15.0394)
(1.72971 -0.00371687 -16.7603)
(3.43305 -0.00264359 -16.3308)
(3.25611 0.00264132 -10.036)
(3.23637 0.0296187 -1.01203)
(1.26744 0.00735037 6.49903)
(3.60733 0.0100137 4.92308)
(-5.42463 -0.00196138 23.0754)
(14.0973 0.0256465 15.8807)
(2.11767 -0.0661032 10.8479)
(7.1214 -0.0964152 0.730988)
(4.01311 -0.0648401 -3.43429)
(2.82946 0.0825058 -6.55928)
(2.60119 0.0396345 -9.62745)
(2.34584 0.0167603 -12.5584)
(2.12148 0.0634723 -14.9153)
(1.99453 -0.219616 -16.5476)
(3.34428 -0.301587 -16.1112)
(3.00921 -0.372801 -9.55516)
(2.78526 -1.05489 0.555192)
(1.06196 0.0277154 7.27429)
(3.72239 0.383767 4.63462)
(-5.35342 -0.0310134 23.3507)
(14.1727 0.0418855 15.7662)
(2.13873 -0.119665 10.8809)
(7.20314 -0.143105 0.77898)
(3.77335 -0.111006 -3.54873)
(2.70051 -0.020938 -6.76842)
(2.52116 -0.0562478 -9.69315)
(2.28469 -0.0466984 -12.5321)
(2.14459 -0.016593 -14.7846)
(2.2378 -0.346029 -16.3673)
(3.13347 -0.335314 -15.8537)
(2.59937 -0.533615 -8.80245)
(2.14638 -1.33324 2.0839)
(0.915187 0.0890409 7.99239)
(3.86615 0.465513 4.29291)
(-5.31235 0.0116651 23.4968)
(14.2344 0.0449855 15.6549)
(2.17003 -0.151167 10.8866)
(7.19817 -0.117331 0.813543)
(3.77163 -0.129691 -3.47566)
(2.66176 -0.162809 -6.70844)
(2.45684 -0.124513 -9.67945)
(2.22471 -0.0874018 -12.5315)
(2.08432 -0.0853396 -14.7862)
(2.1833 -0.384963 -16.4277)
(2.94438 -0.281778 -15.7633)
(2.39283 -0.631746 -8.32045)
(1.86546 -1.40325 3.09982)
(0.876584 0.14108 8.4458)
(3.88435 0.600674 4.24861)
(-5.33887 0.0505732 23.4211)
(14.2754 0.0509709 15.5703)
(2.18592 -0.174148 10.9007)
(7.19281 -0.125002 0.861354)
(3.86446 -0.13799 -3.39158)
(2.68639 -0.209518 -6.62079)
(2.45334 -0.196375 -9.64133)
(2.20875 -0.146656 -12.5087)
(2.06886 -0.148131 -14.7769)
(2.13433 -0.440384 -16.4922)
(2.78857 -0.268558 -15.6793)
(2.18867 -0.682924 -7.84965)
(1.43664 -1.23025 4.57793)
(0.76935 0.232325 9.1463)
(3.82017 0.819529 4.17965)
(-5.39431 0.0508607 23.388)
(14.3435 0.0490556 15.438)
(2.21145 -0.168155 10.9377)
(7.20719 -0.101098 0.926563)
(3.95677 -0.120227 -3.33446)
(2.76262 -0.23503 -6.55747)
(2.50849 -0.209061 -9.58853)
(2.24548 -0.146266 -12.4686)
(2.08616 -0.168095 -14.8188)
(1.94335 -0.392336 -16.6921)
(2.5432 -0.128918 -15.6445)
(2.02069 -0.522029 -7.52113)
(1.06715 -0.85401 6.15476)
(0.614437 0.27833 9.90557)
(4.09597 1.09141 3.78747)
(-5.43133 -0.025032 23.2183)
(14.3771 0.0609225 15.3622)
(2.22816 -0.181815 10.9609)
(7.21012 -0.125131 0.962682)
(4.03306 -0.147197 -3.25531)
(2.84246 -0.260382 -6.47068)
(2.54825 -0.254033 -9.5343)
(2.27228 -0.174026 -12.4365)
(2.14418 -0.117023 -14.9463)
(1.67428 -0.388405 -16.9203)
(2.24843 -0.193484 -15.6239)
(1.86612 -0.473056 -7.27767)
(0.874601 -0.355645 7.25897)
(0.651161 0.104658 10.1741)
(4.39261 1.19619 3.05243)
(-5.40015 0.087938 23.5099)
(14.5128 0.0424839 15.1284)
(2.30306 -0.112773 10.9958)
(7.24389 -0.0930869 1.02859)
(4.0197 -0.115637 -3.22587)
(2.79206 -0.188186 -6.44636)
(2.44192 -0.191348 -9.5009)
(2.10984 -0.15882 -12.3897)
(2.02138 0.00236746 -14.936)
(1.70699 -0.156067 -16.7429)
(2.21924 -0.0939825 -15.3182)
(1.78089 -0.248017 -6.82419)
(0.978633 0.0133402 6.72143)
(1.13872 -0.0289918 8.81157)
(3.97493 0.524585 2.6747)
(-5.84447 0.142264 23.3284)
(26.6339 -0.0628289 9.93596)
(18.3473 0.0350129 12.5128)
(18.8037 0.134791 5.40499)
(17.3294 0.18757 0.352606)
(14.4601 0.212642 -4.03132)
(12.1973 0.218385 -7.9893)
(10.233 0.214536 -11.3159)
(8.27414 0.11857 -14.2205)
(6.66939 0.0669022 -16.919)
(6.00355 -0.208545 -15.678)
(4.19315 0.296172 -7.52799)
(3.78701 0.149314 5.38785)
(3.40014 0.690333 6.81436)
(4.75528 -0.00113682 8.24289)
(-17.803 -0.963603 26.6632)
(26.6099 -0.0886768 10.1303)
(18.2504 0.0687014 12.609)
(18.7225 0.207415 5.42251)
(17.2707 0.275238 0.335482)
(14.4648 0.299143 -4.05906)
(12.2635 0.291607 -8.02142)
(10.3429 0.246731 -11.3477)
(8.35543 0.239445 -14.1782)
(6.60862 0.213116 -16.9556)
(5.97198 -0.353938 -15.84)
(4.20479 0.390361 -7.8175)
(3.9003 0.766801 5.57057)
(2.77037 1.03974 8.02496)
(8.00035 -0.0890431 6.01586)
(-16.8532 -1.20302 27.5539)
(26.6028 -0.0733976 10.1953)
(18.2441 0.0731463 12.6243)
(18.7157 0.186437 5.4229)
(17.2543 0.240088 0.330594)
(14.4448 0.256473 -4.05312)
(12.2474 0.249678 -8.00803)
(10.3439 0.210819 -11.3368)
(8.31956 0.274286 -14.0707)
(6.96055 0.203482 -16.7748)
(6.20987 -0.434626 -15.8594)
(4.11606 0.299218 -7.93128)
(4.15638 1.36621 4.68035)
(2.60019 0.929021 7.76992)
(8.86611 -0.311091 5.2155)
(-16.6777 -0.650547 27.4481)
(26.5842 -0.0811916 10.3099)
(18.2244 0.0731784 12.6623)
(18.6944 0.199466 5.42344)
(17.2127 0.251257 0.316372)
(14.3983 0.261194 -4.0647)
(12.207 0.251325 -8.01105)
(10.3201 0.211745 -11.3356)
(8.29483 0.240568 -14.0246)
(7.10272 0.251793 -16.6896)
(6.34378 -0.338693 -15.96)
(4.00598 0.35075 -8.10396)
(4.35608 1.73716 3.58699)
(2.77811 0.998595 7.066)
(8.42922 -0.132767 5.52264)
(-16.4111 -0.524149 27.502)
(26.5744 -0.0763449 10.3858)
(18.2139 0.0613768 12.6882)
(18.6849 0.170633 5.42772)
(17.1953 0.214046 0.311786)
(14.3879 0.210441 -4.0574)
(12.2009 0.188027 -7.99357)
(10.3343 0.147166 -11.3089)
(8.31025 0.178169 -13.9781)
(7.13342 0.25453 -16.6332)
(6.39626 -0.27152 -16.0598)
(3.90355 0.240682 -8.31895)
(4.39214 1.69717 2.81597)
(2.81499 0.992379 6.58364)
(8.25946 -0.0647576 5.79159)
(-16.2385 -0.30299 27.4618)
(26.5598 -0.081345 10.485)
(18.1655 0.041144 12.7349)
(18.6478 0.13819 5.43913)
(17.1836 0.151125 0.314073)
(14.4191 0.136451 -4.04482)
(12.2477 0.131207 -7.96945)
(10.3852 0.0949748 -11.2798)
(8.36169 0.101288 -13.9349)
(7.21438 0.28887 -16.544)
(6.58002 -0.134296 -16.1886)
(3.87129 0.158313 -8.60404)
(4.21027 1.42054 2.48045)
(2.69543 0.80433 6.48928)
(7.82251 -0.0440262 6.29657)
(-16.1502 -0.160406 27.3991)
(26.5341 -0.0581382 10.5851)
(18.0881 0.0198807 12.7827)
(18.5344 0.0704297 5.42534)
(17.0573 0.0433486 0.256554)
(14.3256 0.0200029 -4.15077)
(12.1971 0.0373032 -8.06357)
(10.3448 0.0149398 -11.347)
(8.24199 -0.012412 -14.0293)
(6.9379 0.224206 -16.6308)
(6.82638 0.0146303 -16.4358)
(3.87564 0.0848601 -9.04242)
(3.92624 0.929809 2.17886)
(2.40093 0.538211 6.39613)
(7.71602 -0.109315 6.38315)
(-16.1682 -0.0432988 27.2083)
(26.5173 -7.45703e-05 10.6296)
(18.0549 -0.00184603 12.7977)
(18.4769 -0.00293873 5.40978)
(16.9721 -0.00324133 0.212462)
(14.2181 -0.00346109 -4.24765)
(12.1047 -0.00391928 -8.17271)
(10.2565 -0.00438871 -11.4449)
(8.08748 -0.00381489 -14.1653)
(6.58606 -0.00639608 -16.7819)
(6.90632 -0.00824962 -16.6199)
(3.83825 -0.00513214 -9.29744)
(3.81367 0.0166799 2.10553)
(2.14511 0.0153414 6.24071)
(7.75103 0.0168192 6.27995)
(-16.2675 -0.00199429 26.9624)
(26.5341 0.0576135 10.5809)
(18.0898 -0.0230905 12.781)
(18.5355 -0.0751542 5.42483)
(17.0574 -0.0487002 0.256526)
(14.3249 -0.0258913 -4.15108)
(12.1944 -0.0440541 -8.06429)
(10.3407 -0.0231939 -11.3487)
(8.23764 0.00369125 -14.0319)
(6.93585 -0.240575 -16.6271)
(6.83262 -0.0306608 -16.4374)
(3.87503 -0.0907173 -9.04461)
(3.91505 -0.901992 2.18619)
(2.39596 -0.51486 6.39578)
(7.70786 0.136471 6.38712)
(-16.1687 0.0422318 27.2104)
(26.5595 0.0805916 10.4808)
(18.1659 -0.0436682 12.7335)
(18.6481 -0.141687 5.43844)
(17.1837 -0.155227 0.313422)
(14.4182 -0.141372 -4.04572)
(12.2456 -0.13719 -7.97079)
(10.3822 -0.102843 -11.2816)
(8.35754 -0.111138 -13.9371)
(7.21267 -0.306806 -16.5434)
(6.57805 0.120962 -16.1916)
(3.86128 -0.161139 -8.60276)
(4.19356 -1.39749 2.48793)
(2.68817 -0.788177 6.48587)
(7.80684 0.0636076 6.30402)
(-16.1542 0.162114 27.399)
(26.5738 0.0757498 10.3813)
(18.2137 -0.0633976 12.6868)
(18.6851 -0.173427 5.42704)
(17.196 -0.21745 0.31104)
(14.3881 -0.214812 -4.05853)
(12.2001 -0.193531 -7.99536)
(10.3328 -0.154433 -11.3114)
(8.30746 -0.187826 -13.9814)
(7.13312 -0.271455 -16.6348)
(6.39421 0.259538 -16.0647)
(3.89258 -0.24289 -8.31997)
(4.3761 -1.68127 2.8115)
(2.8096 -0.983028 6.57028)
(8.23864 0.0789958 5.80015)
(-16.244 0.306215 27.462)
(26.5834 0.0806939 10.3053)
(18.2239 -0.0746708 12.6608)
(18.6946 -0.201471 5.42271)
(17.2136 -0.253851 0.315358)
(14.3989 -0.264778 -4.06636)
(12.2069 -0.256122 -8.01356)
(10.3196 -0.218497 -11.3389)
(8.29328 -0.250436 -14.0299)
(7.10163 -0.269056 -16.6951)
(6.3394 0.327882 -15.9662)
(3.99142 -0.352849 -8.10335)
(4.3407 -1.72909 3.57583)
(2.77331 -0.995672 7.04777)
(8.40213 0.140479 5.53415)
(-16.4181 0.529722 27.5019)
(26.6017 0.0730475 10.1906)
(18.2436 -0.0741774 12.6227)
(18.7161 -0.187877 5.42206)
(17.2558 -0.241962 0.329333)
(14.4462 -0.259268 -4.05519)
(12.2483 -0.253622 -8.01119)
(10.3444 -0.216619 -11.341)
(8.31877 -0.282064 -14.0781)
(6.95721 -0.21742 -16.7847)
(6.20224 0.424847 -15.8663)
(4.10012 -0.303822 -7.92843)
(4.14076 -1.36306 4.66833)
(2.59295 -0.928832 7.7528)
(8.83394 0.315487 5.23065)
(-16.6865 0.656208 27.4466)
(26.6087 0.0884337 10.1253)
(18.2498 -0.069423 12.6073)
(18.7232 -0.20842 5.42165)
(17.2728 -0.276631 0.334139)
(14.4669 -0.30151 -4.0613)
(12.2652 -0.295125 -8.02497)
(10.3445 -0.251999 -11.3525)
(8.35517 -0.245792 -14.1869)
(6.60818 -0.226291 -16.9662)
(5.96638 0.342419 -15.8468)
(4.1894 -0.397877 -7.81389)
(3.88274 -0.766113 5.56153)
(2.75941 -1.04078 8.01016)
(7.96432 0.0837242 6.03457)
(-16.863 1.21221 27.5505)
(26.6326 0.0627295 9.93096)
(18.3468 -0.0353337 12.511)
(18.8047 -0.135266 5.40388)
(17.3319 -0.188292 0.350856)
(14.4624 -0.21399 -4.03405)
(12.1991 -0.220503 -7.99342)
(10.2343 -0.217732 -11.3209)
(8.27313 -0.122445 -14.2299)
(6.66908 -0.0758007 -16.9291)
(5.99735 0.199562 -15.6834)
(4.17651 -0.30299 -7.52383)
(3.76574 -0.14942 5.38299)
(3.38096 -0.691809 6.80171)
(4.70613 -0.00411805 8.27267)
(-17.8164 0.971234 26.6455)
(25.2568 -0.00379342 1.15755)
(21.6716 -0.0403829 7.0758)
(22.3884 0.000743497 4.70474)
(23.3132 0.052448 1.64091)
(20.8843 0.0970207 -1.63334)
(17.4659 0.127125 -5.10238)
(13.8428 0.13506 -8.39541)
(10.0402 0.125761 -11.618)
(6.77938 -0.0725593 -14.8503)
(3.51869 -0.238051 -13.2667)
(-0.697089 0.660533 -4.75224)
(-1.89485 1.16609 4.91472)
(-6.02381 0.956234 9.55773)
(-9.63906 0.0546733 19.0408)
(-27.1106 -1.12204 23.6451)
(25.2926 -0.00481992 1.22416)
(21.7096 -0.0535235 7.18548)
(22.4162 0.0122079 4.78985)
(23.3213 0.0836716 1.69174)
(20.8948 0.138859 -1.61733)
(17.4919 0.180274 -5.10429)
(13.8877 0.184091 -8.38735)
(10.0748 0.292606 -11.5684)
(6.79054 -0.0358532 -14.8467)
(3.57357 -0.511837 -13.4462)
(-0.419438 0.835458 -5.13908)
(-0.929978 2.01567 4.82187)
(-4.65716 1.66935 9.05468)
(-7.16596 0.311484 18.6606)
(-26.8615 -1.48453 25.4304)
(25.2999 -0.00395316 1.24797)
(21.7272 -0.0399026 7.21044)
(22.4383 0.0187499 4.80497)
(23.3351 0.0765994 1.70272)
(20.9054 0.118295 -1.60711)
(17.5112 0.154019 -5.08413)
(13.9256 0.155667 -8.34964)
(10.1176 0.309551 -11.4621)
(7.2588 -0.0529832 -14.7171)
(3.60547 -0.621592 -13.5042)
(-0.566626 0.648299 -5.39217)
(-0.766903 2.29641 4.22874)
(-4.08895 1.69671 8.40333)
(-6.08913 0.0451216 18.1894)
(-26.8947 -1.02657 25.8664)
(25.3154 -0.00482096 1.29293)
(21.7569 -0.0443569 7.26531)
(22.4742 0.0176519 4.84161)
(23.3592 0.080738 1.72488)
(20.9215 0.125988 -1.59674)
(17.5245 0.166696 -5.07345)
(13.9467 0.162909 -8.329)
(10.1332 0.27953 -11.4064)
(7.36899 0.0151688 -14.6839)
(3.54923 -0.583979 -13.5848)
(-0.784572 0.60929 -5.54097)
(-0.900438 2.31785 3.72038)
(-3.76521 1.68956 8.00711)
(-5.7566 -0.0550973 18.2214)
(-26.6972 -0.928138 26.2208)
(25.3251 -0.00451454 1.32378)
(21.7786 -0.0415356 7.30098)
(22.5005 0.0157398 4.86873)
(23.3758 0.0702001 1.74937)
(20.9349 0.105512 -1.57364)
(17.5373 0.136849 -5.04455)
(13.9832 0.122656 -8.28615)
(10.1728 0.247629 -11.3413)
(7.41645 0.073777 -14.6369)
(3.50498 -0.543846 -13.6502)
(-1.00559 0.459933 -5.67056)
(-1.00182 1.95304 3.48085)
(-3.61207 1.33833 8.01152)
(-5.7348 -0.108607 18.3879)
(-26.5052 -0.617147 26.2509)
(25.3428 -0.00608625 1.36498)
(21.7973 -0.0442487 7.35736)
(22.5168 0.00705926 4.91522)
(23.3837 0.057244 1.78776)
(20.9465 0.0940717 -1.54061)
(17.5589 0.121256 -5.00863)
(14.0323 0.0920931 -8.245)
(10.22 0.207749 -11.2701)
(7.59429 0.183443 -14.5585)
(3.67079 -0.428524 -13.7861)
(-1.18813 0.282512 -5.81841)
(-0.971904 1.39759 3.51349)
(-3.5854 0.957416 8.27412)
(-5.95062 -0.0989073 18.6295)
(-26.3281 -0.433713 26.1721)
(25.3662 -0.00615891 1.40845)
(21.8077 -0.0293262 7.42516)
(22.5056 0.00126157 4.97757)
(23.337 0.0294767 1.83049)
(20.8668 0.055399 -1.52366)
(17.4485 0.0700182 -5.02254)
(13.9349 0.0313576 -8.28571)
(10.0201 0.0893638 -11.3227)
(7.50768 0.210221 -14.5866)
(4.02585 -0.214287 -14.0209)
(-1.49821 0.0743386 -6.0121)
(-1.14211 0.768727 3.53602)
(-3.49813 0.606488 8.16044)
(-5.70415 -0.0372895 18.4661)
(-26.3283 -0.213334 26.1655)
(25.3758 -0.00178192 1.42949)
(21.8108 -0.000907091 7.45422)
(22.4963 -0.00182411 5.00425)
(23.3057 -0.00281072 1.84525)
(20.8076 -0.00375165 -1.52853)
(17.3513 -0.00447902 -5.05676)
(13.8115 -0.005237 -8.35812)
(9.77789 -0.00410979 -11.4367)
(7.23449 -0.00824627 -14.6826)
(4.18481 -0.0121028 -14.1737)
(-1.78681 -0.00773567 -6.08275)
(-1.49901 0.00715804 3.53105)
(-3.51228 0.0072864 7.93043)
(-5.50483 0.00390053 18.2046)
(-26.4275 -0.00720415 26.1003)
(25.3642 0.00410107 1.40739)
(21.8052 0.0274719 7.42316)
(22.5029 -0.00464308 4.97535)
(23.3344 -0.0343121 1.82819)
(20.8635 -0.0616595 -1.52594)
(17.4434 -0.0776697 -5.02489)
(13.9286 -0.0407613 -8.28817)
(10.0119 -0.100387 -11.324)
(7.5103 -0.231799 -14.5832)
(4.03284 0.193969 -14.0246)
(-1.50893 -0.0865391 -6.00792)
(-1.16036 -0.756016 3.54957)
(-3.51375 -0.592958 8.17961)
(-5.73447 0.0448787 18.4808)
(-26.323 0.205729 26.1447)
(25.3414 0.00530259 1.36427)
(21.7955 0.0422 7.3557)
(22.5144 -0.0101332 4.91334)
(23.3814 -0.0613329 1.78563)
(20.9438 -0.0993005 -1.54266)
(17.5552 -0.127968 -5.01066)
(14.0277 -0.100931 -8.24682)
(10.2142 -0.221262 -11.272)
(7.59242 -0.206571 -14.5576)
(3.66146 0.413096 -13.7865)
(-1.209 -0.294654 -5.80914)
(-1.0046 -1.3846 3.52157)
(-3.6088 -0.945112 8.28942)
(-5.98741 0.105095 18.6423)
(-26.3248 0.432831 26.1471)
(25.3235 0.00367312 1.32302)
(21.7765 0.0395837 7.29919)
(22.4979 -0.018409 4.8667)
(23.3734 -0.0737919 1.74696)
(20.9324 -0.110183 -1.57599)
(17.5342 -0.143033 -5.04689)
(13.9794 -0.131143 -8.28838)
(10.1675 -0.261117 -11.3445)
(7.41235 -0.094489 -14.6381)
(3.48958 0.531084 -13.6491)
(-1.03217 -0.47086 -5.66025)
(-1.04406 -1.94096 3.48235)
(-3.64285 -1.32814 8.02573)
(-5.78149 0.113324 18.401)
(-26.5017 0.61801 26.2213)
(25.3136 0.00416007 1.29219)
(21.7546 0.0426899 7.26356)
(22.4714 -0.0199174 4.83958)
(23.3567 -0.0837878 1.72233)
(20.919 -0.130019 -1.59936)
(17.5215 -0.172312 -5.07633)
(13.9427 -0.17104 -8.33206)
(10.1276 -0.293253 -11.4118)
(7.36004 -0.0349376 -14.6885)
(3.52658 0.573906 -13.5824)
(-0.81592 -0.619087 -5.5279)
(-0.94845 -2.31109 3.71623)
(-3.80031 -1.68408 8.01945)
(-5.80876 0.0577286 18.2346)
(-26.6937 0.931107 26.1884)
(25.2979 0.00339297 1.24715)
(21.7245 0.0385519 7.20847)
(22.4351 -0.0205251 4.80263)
(23.3325 -0.079018 1.69971)
(20.9031 -0.121601 -1.61024)
(17.5085 -0.158723 -5.08761)
(13.9214 -0.162689 -8.35363)
(10.1111 -0.320568 -11.4698)
(7.24451 0.0378124 -14.7249)
(3.57576 0.612583 -13.5)
(-0.600719 -0.658022 -5.37523)
(-0.82076 -2.29401 4.22191)
(-4.1304 -1.69379 8.41573)
(-6.14671 -0.0433695 18.2015)
(-26.8907 1.02907 25.8294)
(25.2906 0.00439131 1.22319)
(21.7066 0.0524287 7.1833)
(22.4131 -0.013695 4.78734)
(23.3189 -0.085751 1.68852)
(20.8927 -0.141766 -1.62067)
(17.4895 -0.18443 -5.10809)
(13.8838 -0.190433 -8.39193)
(10.0678 -0.301369 -11.5777)
(6.77643 0.0219515 -14.8556)
(3.5425 0.501477 -13.4409)
(-0.455869 -0.843846 -5.12057)
(-0.98628 -2.01798 4.81564)
(-4.70401 -1.66935 9.06731)
(-7.22387 -0.312636 18.6706)
(-26.8569 1.48821 25.3903)
(25.2546 0.00359263 1.15645)
(21.6683 0.0398127 7.07331)
(22.3851 -0.00157553 4.70185)
(23.3106 -0.0536445 1.63728)
(20.8819 -0.0987364 -1.63708)
(17.463 -0.129622 -5.10657)
(13.8379 -0.138902 -8.4002)
(10.0317 -0.130885 -11.6279)
(6.76668 0.0638144 -14.8591)
(3.48582 0.229678 -13.2598)
(-0.735961 -0.666352 -4.73533)
(-1.95187 -1.16861 4.91206)
(-6.07659 -0.95681 9.56921)
(-9.69382 -0.0552579 19.0418)
(-27.1055 1.12517 23.5944)
(24.761 0.00320681 -0.0862809)
(18.0287 -0.0247435 3.12447)
(17.6742 -0.0370832 3.24979)
(20.3515 -0.022594 2.34639)
(19.0892 0.00553638 0.746787)
(16.4679 0.0462733 -1.47916)
(12.9153 0.0873796 -4.11762)
(8.49526 0.18033 -7.39616)
(3.49357 -0.223783 -10.3941)
(-2.85072 -0.00236145 -7.59194)
(-9.86667 0.840871 0.501711)
(-15.3268 0.873383 9.04308)
(-19.0583 0.381337 14.9347)
(-19.146 -0.35878 18.8743)
(-27.8498 -0.528522 12.4058)
(24.7503 0.0054309 -0.0973245)
(18.0663 -0.0343863 3.16524)
(17.7458 -0.0450652 3.31319)
(20.4238 -0.0193268 2.40939)
(19.162 0.0239195 0.797797)
(16.5371 0.0874094 -1.44083)
(13.0059 0.148669 -4.07621)
(8.58517 0.356563 -7.33817)
(3.66286 -0.31872 -10.3957)
(-2.66956 -0.227631 -7.85555)
(-9.41764 1.19443 0.183011)
(-14.6935 1.43214 8.8378)
(-18.4533 0.783838 15.0251)
(-18.7542 -0.343043 19.7658)
(-28.1295 -0.728864 13.8323)
(24.7476 0.00506474 -0.10132)
(18.0841 -0.0280482 3.17954)
(17.7762 -0.0330342 3.32952)
(20.4538 -0.008959 2.42643)
(19.1942 0.0284949 0.818269)
(16.5831 0.0846424 -1.41392)
(13.0722 0.138036 -4.0322)
(8.72528 0.349232 -7.2461)
(4.14038 -0.317648 -10.3175)
(-2.81205 -0.356564 -7.90176)
(-9.47321 0.999888 0.0454164)
(-14.5557 1.38946 8.55989)
(-18.1217 0.753274 14.8033)
(-18.4886 -0.298159 19.8521)
(-28.3087 -0.57391 14.3331)
(24.7419 0.00486408 -0.108642)
(18.1074 -0.0302601 3.20476)
(17.824 -0.0377347 3.36373)
(20.5064 -0.0123649 2.46003)
(19.253 0.02567 0.847642)
(16.6481 0.0907882 -1.3855)
(13.147 0.138515 -3.99438)
(8.80596 0.329139 -7.19271)
(4.21505 -0.248077 -10.2962)
(-2.89974 -0.368094 -7.95498)
(-9.47873 0.909791 -0.0711925)
(-14.4965 1.3064 8.39791)
(-17.9163 0.656348 14.7404)
(-18.3228 -0.34503 20.1099)
(-28.3454 -0.585218 14.8496)
(24.7377 0.0038762 -0.113958)
(18.1263 -0.0268102 3.22273)
(17.8604 -0.0324046 3.38802)
(20.5445 -0.0101852 2.48889)
(19.2978 0.0198268 0.878956)
(16.6981 0.077868 -1.3497)
(13.2313 0.110494 -3.94034)
(8.90968 0.329844 -7.12745)
(4.29268 -0.157524 -10.2582)
(-2.95169 -0.417563 -7.99366)
(-9.48269 0.662675 -0.10946)
(-14.469 1.00394 8.40368)
(-17.8289 0.444258 14.8147)
(-18.2876 -0.262162 20.2262)
(-28.2724 -0.446429 14.9869)
(24.7327 0.00365859 -0.120791)
(18.1491 -0.0253964 3.24512)
(17.9011 -0.0339613 3.42107)
(20.5853 -0.0165581 2.52751)
(19.3458 0.00758257 0.917857)
(16.7521 0.0618124 -1.30955)
(13.3248 0.0731669 -3.89043)
(9.01262 0.33114 -7.0441)
(4.6402 -0.0174466 -10.2097)
(-2.81995 -0.408527 -8.11744)
(-9.48054 0.416968 -0.102716)
(-14.4205 0.722038 8.50805)
(-17.8022 0.304821 14.9574)
(-18.3056 -0.201438 20.3345)
(-28.1555 -0.360212 15.032)
(24.728 0.00189353 -0.127521)
(18.1775 -0.0158454 3.2679)
(17.9476 -0.0217328 3.46276)
(20.6232 -0.0132389 2.57856)
(19.3686 -0.0026264 0.962925)
(16.7443 0.0291667 -1.27531)
(13.3386 0.0128254 -3.86642)
(8.88027 0.203592 -7.01234)
(5.02389 0.107101 -10.2042)
(-2.41939 -0.259606 -8.37868)
(-9.50373 0.165858 -0.265954)
(-14.2875 0.435514 8.43632)
(-17.5562 0.232594 14.8768)
(-18.1553 -0.0691486 20.3933)
(-28.2045 -0.206869 15.2002)
(24.726 -0.000195551 -0.130313)
(18.1885 -0.00109455 3.2762)
(17.9669 -0.00160859 3.48036)
(20.6392 -0.00260621 2.60029)
(19.3709 -0.00342434 0.977853)
(16.7129 -0.00434673 -1.27404)
(13.2856 -0.00546205 -3.88594)
(8.64504 -0.00437438 -7.05494)
(5.04178 -0.00998419 -10.2464)
(-2.17967 -0.0149112 -8.5483)
(-9.58494 -0.0109215 -0.442433)
(-14.2711 -0.00398061 8.28713)
(-17.4 -0.00374557 14.7051)
(-18.0701 -0.00489721 20.3492)
(-28.2793 -0.0305976 15.2666)
(24.7284 -0.00226846 -0.126578)
(18.1765 0.0136821 3.26699)
(17.9456 0.0184895 3.46115)
(20.6209 0.00834286 2.57609)
(19.3655 -0.00363644 0.960576)
(16.7397 -0.0372728 -1.27747)
(13.3331 -0.0229824 -3.86848)
(8.87282 -0.218165 -7.01279)
(5.03893 -0.131824 -10.2018)
(-2.41384 0.238663 -8.38115)
(-9.51896 -0.179672 -0.256948)
(-14.3028 -0.440326 8.44876)
(-17.566 -0.238556 14.8855)
(-18.1654 0.0612484 20.3852)
(-28.1808 0.170976 15.1479)
(24.7328 -0.00424109 -0.119772)
(18.1482 0.0230603 3.24412)
(17.8994 0.030582 3.41951)
(20.5833 0.0119039 2.5251)
(19.3431 -0.0135183 0.915709)
(16.7487 -0.0697892 -1.31152)
(13.3205 -0.0836047 -3.8918)
(9.00841 -0.350884 -7.04524)
(4.63969 -0.00637564 -10.2071)
(-2.83413 0.395039 -8.11265)
(-9.50228 -0.42586 -0.0946052)
(-14.4422 -0.724975 8.51395)
(-17.8148 -0.31074 14.9603)
(-18.3216 0.192151 20.3261)
(-28.1363 0.347603 14.9833)
(24.7377 -0.00463701 -0.112962)
(18.1247 0.0245519 3.22159)
(17.858 0.0293 3.38613)
(20.5418 0.00598954 2.48598)
(19.2946 -0.0253611 0.876168)
(16.6943 -0.0856414 -1.35232)
(13.2264 -0.121224 -3.94233)
(8.90448 -0.349186 -7.13007)
(4.28319 0.136945 -10.2566)
(-2.97515 0.406432 -7.98354)
(-9.51057 -0.669132 -0.0984541)
(-14.4987 -1.00491 8.4094)
(-17.8488 -0.448448 14.8153)
(-18.3095 0.25402 20.2106)
(-28.2499 0.437747 14.9301)
(24.7418 -0.00561684 -0.10769)
(18.1055 0.0281418 3.20357)
(17.8212 0.0348059 3.36165)
(20.5033 0.00842152 2.45676)
(19.2493 -0.0309156 0.844311)
(16.6437 -0.0982386 -1.38889)
(13.1403 -0.148951 -3.99739)
(8.79813 -0.347875 -7.19742)
(4.19606 0.228661 -10.2957)
(-2.93283 0.3592 -7.94073)
(-9.51282 -0.914105 -0.0586177)
(-14.5314 -1.30694 8.40206)
(-17.9396 -0.659239 14.7393)
(-18.347 0.3404 20.0929)
(-28.322 0.581413 14.7922)
(24.7472 -0.00587867 -0.100433)
(18.0817 0.0261316 3.17817)
(17.7729 0.0305792 3.32702)
(20.45 0.00571097 2.42252)
(19.1897 -0.0328573 0.814151)
(16.5776 -0.0908669 -1.41829)
(13.0636 -0.146982 -4.03646)
(8.71452 -0.364191 -7.25298)
(4.11286 0.302412 -10.3174)
(-2.85403 0.348211 -7.88308)
(-9.5141 -1.00308 0.0601029)
(-14.5966 -1.39026 8.56286)
(-18.1488 -0.755402 14.7992)
(-18.5136 0.294874 19.8295)
(-28.2824 0.570103 14.2707)
(24.7497 -0.00626423 -0.0965376)
(18.0634 0.0325673 3.16372)
(17.7419 0.0428584 3.31048)
(20.4194 0.0165302 2.40516)
(19.1567 -0.0277734 0.793183)
(16.5309 -0.0929135 -1.44593)
(12.9962 -0.156578 -4.08149)
(8.57222 -0.368348 -7.34657)
(3.63206 0.304801 -10.3955)
(-2.71577 0.218903 -7.83447)
(-9.46258 -1.1965 0.197967)
(-14.7368 -1.43405 8.83931)
(-18.4815 -0.785188 15.0191)
(-18.7781 0.342003 19.7406)
(-28.102 0.726171 13.7682)
(24.7602 -0.00361978 -0.0856119)
(18.0251 0.0237067 3.12271)
(17.6696 0.0357406 3.24667)
(20.3463 0.0209067 2.34158)
(19.083 -0.00786178 0.74162)
(16.4605 -0.0495253 -1.48472)
(12.904 -0.0919547 -4.12319)
(8.48078 -0.186982 -7.40474)
(3.46379 0.214648 -10.3927)
(-2.90023 -0.00431341 -7.56949)
(-9.91099 -0.842141 0.515008)
(-15.3685 -0.8751 9.04173)
(-19.0843 -0.382179 14.9226)
(-19.1646 0.358458 18.841)
(-27.8206 0.526779 12.3375)
(25.8004 0.000545171 1.03063)
(16.0997 -0.00342849 1.98428)
(13.3094 -0.0141603 2.1858)
(15.9774 -0.0133364 2.11189)
(15.0273 -0.00194345 1.74903)
(12.9584 0.028881 0.893905)
(9.94146 0.0807968 -0.465051)
(5.59495 0.188155 -2.54604)
(-0.73914 -0.391625 -3.62607)
(-8.2956 -0.135367 0.289035)
(-15.038 0.295196 6.49432)
(-20.2463 0.158112 12.5661)
(-20.5948 -0.20309 15.4454)
(-18.0037 -0.453759 14.6198)
(-27.5534 -0.0839785 6.18311)
(25.7963 0.00197482 1.02927)
(16.0961 -0.00242495 1.99199)
(13.3351 -0.0145111 2.2093)
(16.0269 -0.00714205 2.14979)
(15.1042 0.0181274 1.79545)
(13.0551 0.0695101 0.939386)
(10.0694 0.163478 -0.412614)
(5.74286 0.345739 -2.49159)
(-0.515143 -0.56752 -3.67432)
(-8.29649 -0.332408 0.159738)
(-15.0775 0.405514 6.42657)
(-20.3491 0.292288 12.6485)
(-20.8902 -0.18354 15.8142)
(-18.428 -0.58796 15.2372)
(-27.6018 -0.133606 6.47614)
(25.7944 0.00163985 1.02892)
(16.102 -0.00128249 1.99629)
(13.3541 -0.00920932 2.21652)
(16.0524 0.000566137 2.16037)
(15.1391 0.0264387 1.81205)
(13.1198 0.0737957 0.962136)
(10.1486 0.163561 -0.369237)
(5.98722 0.329731 -2.41729)
(-0.127834 -0.518501 -3.65646)
(-8.37237 -0.389531 0.149795)
(-15.1002 0.303225 6.42442)
(-20.3385 0.260902 12.5967)
(-20.9292 -0.118485 15.818)
(-18.5675 -0.451963 15.3811)
(-27.6527 -0.138025 6.60097)
(25.7914 0.00109611 1.02784)
(16.0993 -0.00116312 2.00291)
(13.3711 -0.0100318 2.23172)
(16.0864 -0.000296491 2.18347)
(15.1941 0.0247419 1.84087)
(13.2018 0.0811736 0.994229)
(10.2428 0.159096 -0.324605)
(6.12129 0.326731 -2.36764)
(-0.106309 -0.454389 -3.63925)
(-8.39057 -0.414428 0.0995313)
(-15.0943 0.244652 6.37726)
(-20.3571 0.213362 12.5587)
(-20.9934 -0.155095 15.8716)
(-18.6524 -0.436635 15.5891)
(-27.6709 -0.16266 6.77354)
(25.7892 0.000700457 1.02747)
(16.1022 -0.000936216 2.00863)
(13.3897 -0.00801084 2.24252)
(16.1159 0.00103876 2.20115)
(15.2397 0.0207651 1.86556)
(13.2687 0.0728137 1.02395)
(10.3473 0.136093 -0.27557)
(6.27961 0.353547 -2.31537)
(-0.0495481 -0.345871 -3.61487)
(-8.39673 -0.471577 0.0682276)
(-15.0827 0.128041 6.35934)
(-20.3618 0.148233 12.5432)
(-21.0137 -0.123801 15.8797)
(-18.6727 -0.303202 15.6324)
(-27.6607 -0.169855 6.84439)
(25.7864 0.000711331 1.02621)
(16.1001 -0.000800443 2.01298)
(13.4047 -0.00893371 2.25412)
(16.1442 -0.00347844 2.222)
(15.2868 0.00936535 1.89424)
(13.3378 0.0563895 1.05702)
(10.4594 0.0914308 -0.227938)
(6.46505 0.396359 -2.24175)
(0.385146 -0.200857 -3.63006)
(-8.30535 -0.487802 -0.0398579)
(-15.1002 0.043367 6.3618)
(-20.3832 0.111522 12.5677)
(-21.0352 -0.101141 15.9107)
(-18.6549 -0.230853 15.659)
(-27.6112 -0.167282 6.87106)
(25.7834 0.000188743 1.02564)
(16.1042 -0.000745637 2.01641)
(13.4298 -0.00579483 2.26642)
(16.1845 -0.00369628 2.24991)
(15.3456 -0.00051213 1.93583)
(13.3981 0.0259013 1.10167)
(10.5634 0.0165807 -0.184329)
(6.48188 0.278807 -2.18161)
(1.22269 -0.00572024 -3.71554)
(-7.90307 -0.324312 -0.305345)
(-15.0253 0.00209089 6.28841)
(-20.2714 0.101704 12.5659)
(-20.9751 -0.0217965 15.9654)
(-18.6995 -0.111045 15.7806)
(-27.6253 -0.145025 6.94476)
(25.782 -0.00034888 1.02515)
(16.1014 -0.00154724 2.01636)
(13.4355 -0.00171438 2.2697)
(16.1991 -0.00257734 2.26103)
(15.3677 -0.00343148 1.9536)
(13.4044 -0.00476884 1.11784)
(10.5683 -0.00580356 -0.180795)
(6.30831 -0.00567743 -2.18743)
(1.58656 -0.00854105 -3.78408)
(-7.57578 -0.0130148 -0.509762)
(-14.944 -0.00882568 6.17648)
(-20.1664 -0.00329625 12.5125)
(-20.9142 -0.000539678 15.9621)