/*--------------------------------*- C++ -*----------------------------------*\
| =========                 |                                                 |
| \\      /  F ield         | OpenFOAM: The Open Source CFD Toolbox           |
|  \\    /   O peration     | Version:  4.1                                   |
|   \\  /    A nd           | Web:      www.OpenFOAM.org                      |
|    \\/     M anipulation  |                                                 |
\*---------------------------------------------------------------------------*/
FoamFile
{
    version     2.0;
    format      ascii;
    class       volScalarField;
    location    "14.5";
    object      epsilon;
}
// * * * * * * * * * * * * * * * * * * * * * * * * * * * * * * * * * * * * * //

dimensions      [0 2 -3 0 0 0 0];

internalField   nonuniform List<scalar> 
204246
(
2.86749
3.07221
3.08371
3.09831
3.11152
3.1246
3.13543
3.14819
3.15798
3.17112
3.1803
3.19336
3.20114
3.21671
3.22573
3.2397
3.24934
3.25217
3.27856
3.28112
3.29866
3.30703
3.31916
3.33008
3.34191
3.35245
3.36439
3.37395
3.38879
3.39963
3.41416
3.42585
3.44081
3.45316
3.46679
3.4816
3.48497
3.51517
3.51937
3.53893
3.552
3.56618
3.58115
3.59565
3.60975
3.62749
3.64295
3.66043
3.67686
3.69292
3.71085
3.72687
3.74446
3.74991
3.7856
3.79154
3.81626
3.83086
3.8501
3.8678
3.88508
3.90275
3.92354
3.94273
3.96326
3.98355
4.00257
4.02463
4.04362
4.0655
4.07313
4.11212
4.12205
4.15212
4.16767
4.19375
4.21335
4.2369
4.25723
4.28339
4.30742
4.33214
4.3579
4.38114
4.40942
4.43273
4.4611
4.47212
4.51981
4.53284
4.57147
4.59038
4.62541
4.64579
4.68346
4.71088
4.74197
4.77433
4.80542
4.8387
4.86827
4.90575
4.93545
4.97324
5.00394
5.04125
5.06254
5.12277
5.14017
5.19416
5.21395
5.27092
5.29791
5.34702
5.38569
5.42827
5.46927
5.51252
5.55656
5.59991
5.64811
5.69107
5.74201
5.76941
5.84982
5.87133
5.94606
5.97331
6.04603
6.07924
6.14989
6.18686
6.25724
6.29747
6.36843
6.41159
6.48259
6.52869
6.60081
6.64968
6.70333
6.78952
6.82988
6.91438
6.9572
7.04248
7.08617
7.17341
7.21764
7.30688
7.35127
7.44253
7.48659
7.58013
7.62394
7.7201
7.76364
7.83815
7.9255
7.9784
8.06663
8.11777
8.20879
8.25762
8.35164
8.39767
8.49587
8.53819
8.64105
8.68041
8.7898
8.82533
8.94323
8.97603
9.10694
9.13402
9.25343
9.34433
9.42656
9.54428
9.62196
9.76847
9.85061
10.0299
10.128
10.3455
10.4738
10.7352
10.9082
11.1895
11.3698
11.5238
11.5438
0.434315
0.685896
0.695685
0.696863
0.706883
0.70218
0.711602
0.708207
0.717592
0.713966
0.723679
0.720239
0.72972
0.724611
0.734658
0.728721
0.739681
0.73466
0.733809
0.744151
0.738665
0.748664
0.742732
0.752511
0.749076
0.759285
0.756052
0.766213
0.761307
0.772368
0.766764
0.777791
0.772011
0.783391
0.777836
0.790848
0.789489
0.789129
0.801799
0.79693
0.809185
0.806422
0.819182
0.816502
0.829231
0.824683
0.838432
0.83318
0.847195
0.841985
0.855775
0.853055
0.868877
0.867744
0.869105
0.88404
0.879358
0.894464
0.892067
0.90772
0.905415
0.921033
0.916737
0.933453
0.92844
0.945506
0.940599
0.957551
0.955383
0.974599
0.974147
0.978748
0.995443
0.994128
1.01315
1.01156
1.03113
1.02947
1.05005
1.04712
1.06846
1.06424
1.08625
1.08224
1.10434
1.10331
1.12872
1.13017
1.13968
1.16056
1.16097
1.18608
1.18589
1.21268
1.21122
1.23918
1.23649
1.26475
1.2616
1.29183
1.28983
1.32058
1.32218
1.35356
1.35533
1.38981
1.39156
1.41715
1.44286
1.44689
1.48273
1.4842
1.52264
1.52254
1.56291
1.56306
1.60624
1.60962
1.65387
1.65832
1.70303
1.70691
1.75788
1.76579
1.79916
1.83848
1.84546
1.89903
1.90729
1.96162
1.96948
2.02813
2.03782
2.09885
2.10962
2.17378
2.18554
2.2529
2.26606
2.33989
2.35701
2.4074
2.46775
2.4836
2.56184
2.57945
2.66068
2.67912
2.76385
2.78346
2.872
2.89308
2.98322
3.00434
3.09842
3.12098
3.22371
3.25095
3.3181
3.40201
3.4261
3.52645
3.5501
3.65106
3.67466
3.77438
3.79716
3.89498
3.91615
4.01096
4.03089
4.12241
4.1407
4.23134
4.25413
4.33959
4.36047
4.39641
4.46281
4.46662
4.53135
4.5281
4.57748
4.56747
4.60235
4.58673
4.6226
4.61086
4.74882
4.87391
5.34879
5.62967
5.7729
0.587258
0.600682
0.606723
0.609878
0.614639
0.616924
0.621178
0.623396
0.627626
0.630047
0.634216
0.636905
0.640955
0.643818
0.648002
0.651219
0.65548
0.658917
0.662242
0.666429
0.66944
0.673707
0.676943
0.681185
0.684735
0.688903
0.692674
0.696752
0.70064
0.704532
0.708639
0.712569
0.717026
0.721155
0.725989
0.730154
0.735051
0.738731
0.743856
0.747832
0.752898
0.757378
0.762461
0.767301
0.772418
0.777512
0.782566
0.788089
0.793146
0.799066
0.804468
0.810877
0.816584
0.823168
0.828264
0.835231
0.840618
0.847495
0.853537
0.86034
0.866908
0.873668
0.880637
0.887298
0.894818
0.901444
0.909439
0.916434
0.925006
0.932382
0.941164
0.947905
0.957025
0.964062
0.97306
0.980828
0.989792
0.998316
1.00727
1.01621
1.02499
1.03452
1.04335
1.05352
1.06279
1.07366
1.08343
1.09457
1.10358
1.11509
1.12441
1.13601
1.14626
1.15793
1.16867
1.18019
1.19151
1.20317
1.21517
1.22737
1.2399
1.25217
1.26515
1.27816
1.29182
1.30551
1.31916
1.33212
1.34657
1.35921
1.37448
1.38706
1.40303
1.41563
1.43234
1.44487
1.46253
1.47519
1.49352
1.50605
1.52517
1.53784
1.55859
1.5706
1.58883
1.60438
1.61923
1.63801
1.65081
1.67122
1.6824
1.70476
1.7143
1.73736
1.74637
1.76938
1.7779
1.80086
1.80906
1.83219
1.83988
1.8566
1.87067
1.87851
1.89608
1.90023
1.91695
1.91945
1.93381
1.93446
1.94643
1.94534
1.95247
1.94848
1.95268
1.94551
1.94895
1.93487
1.92788
1.92345
1.90122
1.89921
1.86853
1.86406
1.82767
1.82111
1.78006
1.77234
1.72797
1.71942
1.6721
1.66317
1.61332
1.60398
1.55526
1.54653
1.49433
1.47112
1.4525
1.41182
1.40632
1.36191
1.3577
1.31638
1.31421
1.27981
1.28148
1.26355
1.27359
1.26263
1.27065
1.15874
1.11702
0.734418
0.72018
0.732554
0.738682
0.743022
0.749297
0.751425
0.757085
0.75894
0.764442
0.766258
0.77182
0.773684
0.77963
0.78132
0.787606
0.78938
0.79626
0.799527
0.803073
0.808702
0.810548
0.817094
0.8192
0.82553
0.827768
0.834098
0.836354
0.842827
0.844798
0.851431
0.853454
0.860365
0.862543
0.869551
0.871924
0.878949
0.882538
0.88656
0.892493
0.894999
0.901606
0.904118
0.910905
0.913503
0.920622
0.923068
0.930451
0.932991
0.940702
0.943591
0.951238
0.954314
0.962309
0.966633
0.97192
0.978505
0.982398
0.990039
0.993378
1.00146
1.00491
1.01328
1.01664
1.02523
1.02869
1.03755
1.04131
1.05014
1.05408
1.06297
1.06798
1.07464
1.08097
1.08661
1.09391
1.09898
1.10699
1.11167
1.12028
1.12444
1.13331
1.13743
1.14646
1.15078
1.15977
1.16428
1.17301
1.17831
1.18532
1.19148
1.19782
1.20455
1.21044
1.21756
1.22298
1.23029
1.23542
1.24286
1.24797
1.25524
1.26028
1.26729
1.27266
1.27931
1.28496
1.29085
1.2962
1.30184
1.30657
1.31236
1.3161
1.32232
1.32482
1.33117
1.33282
1.33869
1.34025
1.34525
1.34621
1.35057
1.35079
1.35467
1.35419
1.35423
1.35529
1.35313
1.35421
1.35003
1.35059
1.34424
1.34424
1.3354
1.33456
1.32328
1.32152
1.30751
1.30458
1.28821
1.28436
1.26351
1.25365
1.23922
1.22013
1.20992
1.18361
1.17484
1.14402
1.13393
1.10028
1.089
1.05258
1.04009
1.00115
0.987601
0.947131
0.933176
0.88918
0.868298
0.837145
0.805601
0.783933
0.744628
0.729947
0.688528
0.674376
0.634887
0.621714
0.585906
0.573985
0.541834
0.531449
0.503073
0.494255
0.469462
0.462102
0.440489
0.430963
0.417783
0.406143
0.398477
0.38472
0.380949
0.367255
0.364193
0.355459
0.355314
0.355194
0.368952
0.381084
0.403827
0.41142
0.417088
0.895559
0.86401
0.872419
0.877419
0.881798
0.88733
0.8893
0.89397
0.895449
0.899533
0.900807
0.904781
0.90605
0.910258
0.911409
0.915891
0.917147
0.921918
0.924166
0.926909
0.930748
0.932222
0.936796
0.938358
0.942873
0.944571
0.949116
0.950872
0.95545
0.957047
0.961703
0.963339
0.968103
0.969842
0.974602
0.976447
0.981046
0.983382
0.986474
0.989809
0.992059
0.995814
0.997688
1.00164
1.00338
1.00743
1.0091
1.01316
1.01485
1.01898
1.0208
1.02488
1.02677
1.03077
1.03304
1.03603
1.03896
1.04143
1.04465
1.04684
1.05023
1.05227
1.05579
1.05764
1.06113
1.06296
1.06643
1.0683
1.07168
1.07356
1.07672
1.0787
1.08119
1.08326
1.08544
1.08752
1.08947
1.09145
1.09326
1.09496
1.09674
1.09795
1.09974
1.10041
1.10226
1.10261
1.10425
1.10431
1.10443
1.10522
1.10468
1.10519
1.10416
1.10452
1.10243
1.10286
1.09989
1.10014
1.09628
1.09635
1.0913
1.09074
1.08526
1.08423
1.07794
1.07659
1.06798
1.06427
1.05923
1.05146
1.04819
1.03744
1.03484
1.02209
1.01891
1.00462
1.00037
0.985449
0.980375
0.964109
0.958414
0.940736
0.934645
0.914408
0.904684
0.889879
0.87396
0.862573
0.841575
0.832936
0.808813
0.800167
0.774725
0.765634
0.739319
0.729927
0.702867
0.693149
0.665799
0.65595
0.627413
0.613871
0.59298
0.573802
0.558267
0.53469
0.524043
0.498512
0.489274
0.464299
0.455521
0.431902
0.423682
0.401641
0.394102
0.373998
0.367284
0.348495
0.339982
0.327998
0.317399
0.310149
0.298428
0.294453
0.283767
0.280661
0.27207
0.269771
0.263023
0.261399
0.256404
0.255466
0.252108
0.251841
0.249963
0.250303
0.249644
0.249938
0.251822
0.252118
0.25513
0.255855
0.258866
0.259555
0.261912
0.262342
0.265631
0.266964
0.274142
0.278952
0.287906
0.291518
0.294103
1.00499
0.98197
0.985811
0.988928
0.99126
0.994559
0.995472
0.997548
0.997853
0.999044
0.998995
0.999791
0.999627
1.00037
1.0001
1.00085
1.0006
1.00137
1.00161
1.00152
1.00204
1.00185
1.00242
1.00232
1.00289
1.00286
1.00345
1.00347
1.00406
1.00405
1.00461
1.00461
1.00519
1.00525
1.00575
1.00582
1.00618
1.00625
1.00629
1.00635
1.00622
1.00617
1.00589
1.00567
1.00534
1.00503
1.0046
1.00413
1.00361
1.00301
1.00247
1.00176
1.00124
1.00015
0.999193
0.998531
0.996823
0.996354
0.994276
0.993761
0.991357
0.990763
0.987904
0.98743
0.98409
0.983517
0.97976
0.978931
0.975094
0.974097
0.969303
0.966777
0.964091
0.959601
0.957837
0.952139
0.950368
0.944021
0.942037
0.934893
0.93312
0.925128
0.923112
0.914394
0.911826
0.902999
0.900068
0.88991
0.884633
0.877814
0.869457
0.864093
0.853431
0.849006
0.836509
0.832585
0.818827
0.814538
0.799989
0.795374
0.779925
0.774561
0.758897
0.75302
0.736744
0.73057
0.712486
0.70409
0.690206
0.677735
0.666489
0.650197
0.642275
0.62309
0.616338
0.596021
0.588661
0.568825
0.561166
0.54137
0.533717
0.51408
0.506516
0.48609
0.476545
0.461541
0.448314
0.437385
0.421079
0.413725
0.396181
0.389792
0.372707
0.36665
0.350505
0.344857
0.329688
0.3244
0.310365
0.305509
0.292048
0.285868
0.276984
0.269026
0.263161
0.25394
0.250472
0.241282
0.238227
0.229997
0.227313
0.220056
0.217728
0.211413
0.209436
0.203998
0.20234
0.197534
0.195429
0.192798
0.190267
0.188932
0.186413
0.185722
0.183771
0.183378
0.182113
0.182025
0.181529
0.18177
0.181739
0.182848
0.183123
0.184989
0.18566
0.188254
0.189336
0.192481
0.194484
0.197995
0.200921
0.204814
0.208676
0.213027
0.21786
0.22269
0.228428
0.233601
0.240018
0.245163
0.250374
0.252683
0.253989
1.08496
1.06689
1.06627
1.06625
1.06608
1.06622
1.06491
1.06431
1.06174
1.06055
1.05711
1.05543
1.05151
1.04961
1.04533
1.04336
1.03883
1.03663
1.03237
1.02917
1.02547
1.0215
1.01815
1.01386
1.01059
1.00615
1.00284
0.998345
0.994844
0.990292
0.986567
0.98213
0.978171
0.974051
0.969773
0.965923
0.961361
0.956917
0.953354
0.948118
0.944851
0.939317
0.93616
0.930229
0.927178
0.920588
0.918041
0.910922
0.908323
0.900855
0.898012
0.890514
0.887509
0.879444
0.874789
0.869284
0.862186
0.857766
0.849551
0.84556
0.836407
0.832694
0.822776
0.819288
0.808781
0.805161
0.794198
0.790189
0.779252
0.774984
0.76326
0.757116
0.748247
0.739609
0.732188
0.721629
0.715242
0.703089
0.697471
0.683944
0.679099
0.664664
0.659638
0.644661
0.639126
0.624276
0.618439
0.602693
0.594673
0.582708
0.571638
0.561868
0.548467
0.540423
0.524791
0.518906
0.502115
0.496177
0.479353
0.473414
0.456574
0.450316
0.434196
0.427872
0.412157
0.405988
0.389853
0.382452
0.37029
0.360677
0.351251
0.339413
0.333279
0.320044
0.315345
0.302161
0.297456
0.285481
0.280971
0.269865
0.265699
0.255436
0.251618
0.241641
0.237225
0.230337
0.224727
0.220032
0.213367
0.210702
0.203896
0.201618
0.195442
0.19343
0.187936
0.186189
0.181323
0.1798
0.175546
0.17424
0.17037
0.168647
0.166464
0.164208
0.163079
0.160711
0.16001
0.157897
0.157353
0.155624
0.155224
0.153861
0.153599
0.152587
0.152461
0.151792
0.151807
0.151487
0.151426
0.151737
0.151707
0.152414
0.152564
0.153622
0.153968
0.155368
0.155914
0.157748
0.158537
0.160824
0.161869
0.164645
0.165977
0.169235
0.170864
0.174574
0.176518
0.180493
0.183088
0.187169
0.190441
0.194638
0.19847
0.202861
0.207269
0.211981
0.216952
0.221964
0.227237
0.23185
0.235843
0.237778
0.238745
1.1315
1.11808
1.116
1.11157
1.10935
1.10577
1.10242
1.09838
1.09375
1.08922
1.08344
1.07837
1.07184
1.06639
1.05933
1.05359
1.0461
1.03996
1.03239
1.02541
1.0177
1.00997
1.002
0.993651
0.985249
0.976384
0.967386
0.958083
0.948448
0.938916
0.928778
0.919147
0.908636
0.899177
0.888399
0.879173
0.868246
0.858424
0.848965
0.838298
0.829555
0.818627
0.810349
0.799142
0.791281
0.779563
0.772477
0.7601
0.753581
0.740609
0.734302
0.721285
0.714985
0.701589
0.69357
0.683258
0.672574
0.663876
0.651894
0.644096
0.631048
0.623955
0.609727
0.603842
0.588866
0.583078
0.567859
0.561798
0.546919
0.540743
0.525378
0.517559
0.505563
0.495384
0.485448
0.473513
0.465184
0.451874
0.444927
0.430514
0.424942
0.410122
0.40465
0.390013
0.384392
0.37054
0.364962
0.351125
0.344223
0.33381
0.325216
0.317004
0.307088
0.300787
0.289716
0.285471
0.274131
0.270132
0.259414
0.255669
0.245573
0.241893
0.232801
0.229315
0.220965
0.217772
0.209684
0.206066
0.200305
0.195967
0.191742
0.186583
0.184109
0.178595
0.176747
0.17154
0.169778
0.165272
0.163656
0.159664
0.158238
0.154693
0.153441
0.150104
0.148664
0.146511
0.144781
0.143343
0.141312
0.140601
0.13857
0.137959
0.136186
0.135674
0.134152
0.133738
0.132442
0.132109
0.131026
0.130771
0.129825
0.129425
0.129108
0.128593
0.128516
0.128091
0.128083
0.127808
0.127864
0.127759
0.127924
0.127888
0.128244
0.128293
0.128856
0.129015
0.129786
0.130062
0.130936
0.131571
0.132437
0.133425
0.134395
0.135792
0.136969
0.138741
0.140123
0.142286
0.143957
0.146557
0.148604
0.151702
0.154181
0.15778
0.160732
0.164823
0.168262
0.17274
0.176611
0.181272
0.1854
0.190224
0.194648
0.199589
0.204297
0.209328
0.214254
0.219248
0.224053
0.228357
0.231741
0.233576
0.234392
1.15265
1.13944
1.13628
1.12833
1.12461
1.11811
1.11317
1.10656
1.1003
1.09332
1.08587
1.07842
1.07004
1.06208
1.05307
1.04462
1.03506
1.02599
1.01595
1.00636
0.995847
0.985374
0.974433
0.962904
0.951227
0.938626
0.925925
0.912217
0.898395
0.883656
0.868804
0.853217
0.837455
0.821365
0.804934
0.788731
0.771881
0.755296
0.739411
0.722466
0.707245
0.690459
0.675968
0.65939
0.645759
0.629234
0.61685
0.600239
0.588933
0.572228
0.56169
0.54532
0.535351
0.519016
0.508156
0.494982
0.482115
0.470971
0.457262
0.447511
0.433214
0.424641
0.409697
0.402724
0.387505
0.381215
0.366317
0.360124
0.346117
0.340139
0.326446
0.319618
0.308927
0.300891
0.292205
0.283278
0.276367
0.26679
0.261426
0.251427
0.247465
0.237632
0.233974
0.224771
0.22124
0.21298
0.209677
0.201862
0.198041
0.192369
0.187967
0.183648
0.178789
0.175668
0.170424
0.168429
0.163254
0.16146
0.156759
0.155148
0.150889
0.149369
0.145663
0.144272
0.140973
0.139736
0.136629
0.135259
0.133103
0.131515
0.129963
0.128118
0.127238
0.125293
0.124661
0.122857
0.12227
0.120744
0.12022
0.1189
0.118455
0.117317
0.116945
0.115899
0.11546
0.114871
0.11433
0.114008
0.113433
0.113309
0.112806
0.112727
0.112357
0.112329
0.112073
0.112092
0.111977
0.112054
0.112006
0.112197
0.112199
0.112448
0.112695
0.112879
0.113342
0.113523
0.114143
0.114381
0.115139
0.115452
0.11635
0.116742
0.117786
0.118272
0.11946
0.120074
0.121415
0.122191
0.123618
0.12466
0.12613
0.127448
0.129044
0.130622
0.132361
0.134244
0.136184
0.138446
0.140669
0.143317
0.145871
0.148937
0.151925
0.155499
0.158987
0.163097
0.167124
0.171747
0.176211
0.181268
0.18613
0.191478
0.196581
0.202089
0.207238
0.212696
0.217595
0.222699
0.226912
0.231094
0.233724
0.235572
0.236254
1.14748
1.1341
1.13025
1.12018
1.11559
1.10735
1.10153
1.09346
1.08643
1.07807
1.0699
1.06116
1.05208
1.04298
1.03324
1.02393
1.01364
1.00408
0.993467
0.983659
0.972796
0.961959
0.950914
0.938963
0.92716
0.913951
0.90093
0.88619
0.871673
0.855063
0.838999
0.820519
0.802767
0.782632
0.763382
0.742056
0.721582
0.69952
0.678413
0.656388
0.634867
0.613208
0.591952
0.570927
0.550507
0.530331
0.511209
0.492065
0.47438
0.456291
0.44001
0.423091
0.40816
0.392152
0.377974
0.364283
0.350395
0.338313
0.325092
0.314362
0.301816
0.292346
0.28033
0.272293
0.260723
0.253953
0.242876
0.237136
0.226831
0.221938
0.212306
0.20748
0.199833
0.194791
0.188569
0.183429
0.178471
0.173315
0.169453
0.164236
0.161482
0.156357
0.154222
0.149509
0.147579
0.14347
0.141741
0.138005
0.136181
0.133411
0.131481
0.129312
0.127302
0.125661
0.12353
0.122462
0.120311
0.119495
0.11751
0.116792
0.115008
0.114341
0.112798
0.112197
0.110831
0.110302
0.109026
0.108454
0.107563
0.106935
0.106261
0.105567
0.105152
0.104405
0.104153
0.10345
0.103224
0.102648
0.10246
0.101983
0.101839
0.101455
0.101351
0.101021
0.100893
0.100795
0.100666
0.10066
0.100582
0.100634
0.1006
0.100721
0.100718
0.100937
0.100982
0.101294
0.10139
0.101791
0.101937
0.102428
0.102624
0.103149
0.103529
0.104036
0.10458
0.1051
0.105786
0.106351
0.107169
0.107806
0.108753
0.109486
0.110564
0.111417
0.112638
0.113631
0.115004
0.116164
0.117697
0.119135
0.120842
0.12259
0.12451
0.126556
0.128779
0.131166
0.133746
0.136482
0.139425
0.142531
0.145887
0.149435
0.153263
0.157308
0.161676
0.166252
0.171209
0.17634
0.181707
0.187363
0.193083
0.199157
0.20509
0.211397
0.217297
0.223505
0.228958
0.234569
0.239024
0.243371
0.246058
0.247946
0.248619
1.11668
1.10721
1.10292
1.09146
1.08637
1.07723
1.07117
1.06277
1.05569
1.04742
1.03945
1.03106
1.02238
1.01384
1.00471
0.996226
0.98681
0.978418
0.969004
0.960897
0.951677
0.943005
0.93416
0.924684
0.915561
0.905124
0.895198
0.88346
0.872219
0.858492
0.845599
0.829533
0.814738
0.796222
0.779462
0.758793
0.739985
0.718164
0.696877
0.675057
0.6518
0.629815
0.605602
0.583722
0.559394
0.538187
0.51434
0.494285
0.471462
0.452859
0.431514
0.414517
0.394866
0.379375
0.361477
0.347473
0.331789
0.318596
0.305085
0.292735
0.281052
0.269569
0.259408
0.248745
0.239908
0.230028
0.222292
0.213212
0.206433
0.198153
0.192128
0.184578
0.179334
0.172596
0.167803
0.161972
0.157553
0.152559
0.148519
0.14423
0.140575
0.136924
0.133621
0.130531
0.127604
0.124988
0.122412
0.120167
0.117842
0.116061
0.113976
0.112476
0.110662
0.109376
0.107794
0.106682
0.105318
0.104352
0.103177
0.102341
0.101322
0.100616
0.0997323
0.0991363
0.0983622
0.0978646
0.097167
0.0967269
0.0962085
0.0957863
0.0953732
0.0949868
0.0946836
0.0943303
0.0941262
0.0938073
0.0936843
0.0934332
0.0933475
0.0931772
0.0931321
0.0930408
0.093036
0.0930052
0.0930177
0.0931233
0.093159
0.0933402
0.0934156
0.0936764
0.0937969
0.0941349
0.094309
0.0947237
0.09496
0.0954492
0.0957462
0.0963154
0.0966805
0.0973325
0.0977793
0.0984894
0.0990734
0.0998165
0.100529
0.101341
0.102171
0.103068
0.104019
0.105017
0.106094
0.107209
0.10842
0.109672
0.111026
0.112438
0.113953
0.115565
0.117257
0.119047
0.120929
0.122915
0.125025
0.127245
0.129674
0.132209
0.135027
0.137999
0.141258
0.14474
0.148505
0.152528
0.156864
0.16146
0.166417
0.171597
0.177226
0.183028
0.1891
0.195504
0.201963
0.208837
0.215523
0.222632
0.229238
0.236162
0.242155
0.248259
0.252944
0.257517
0.260156
0.262111
0.262755
1.09003
1.07579
1.07029
1.05758
1.05175
1.04202
1.03569
1.02737
1.02049
1.01282
1.00549
0.998082
0.990433
0.983224
0.975454
0.968601
0.960896
0.954497
0.947283
0.941589
0.93517
0.929524
0.924034
0.918215
0.913043
0.906797
0.901296
0.894278
0.888144
0.879659
0.872356
0.861796
0.852778
0.839721
0.828698
0.813259
0.79988
0.783194
0.766354
0.749471
0.729813
0.712244
0.690682
0.672582
0.649764
0.631898
0.608054
0.591157
0.567077
0.551541
0.528189
0.513702
0.491678
0.478471
0.45967
0.444691
0.430169
0.414488
0.402873
0.387263
0.377884
0.362544
0.355275
0.340186
0.333836
0.319482
0.313604
0.3001
0.294293
0.281487
0.275919
0.26495
0.257342
0.24846
0.23957
0.232419
0.222605
0.216887
0.206611
0.202177
0.19185
0.187753
0.178093
0.174291
0.165517
0.161861
0.154019
0.150706
0.144151
0.14048
0.135258
0.131576
0.127558
0.123864
0.12098
0.117212
0.115343
0.111803
0.110397
0.107357
0.10618
0.103691
0.102669
0.10065
0.0998059
0.0981482
0.0974617
0.0961595
0.095503
0.0945124
0.0939786
0.0932138
0.0927728
0.0922018
0.0918278
0.0914316
0.0911183
0.0908674
0.0906261
0.0904929
0.0903387
0.0902766
0.0902246
0.0902166
0.0902161
0.0903192
0.090377
0.0905513
0.0906977
0.090923
0.0911608
0.0914364
0.0917561
0.0920877
0.0924821
0.0928911
0.0933611
0.0938474
0.0943995
0.0949553
0.0956005
0.0962336
0.0969818
0.0976997
0.0985466
0.099371
0.100311
0.10126
0.1023
0.103389
0.10454
0.105784
0.107064
0.108482
0.109908
0.111522
0.113116
0.114961
0.116769
0.118853
0.120928
0.123305
0.12572
0.128409
0.131212
0.134203
0.13745
0.140791
0.144551
0.148365
0.152724
0.157118
0.162176
0.167226
0.173049
0.178786
0.185432
0.191926
0.199101
0.206348
0.213984
0.221828
0.229726
0.237889
0.245667
0.253634
0.260631
0.267593
0.272918
0.277997
0.280887
0.282998
0.283663
1.09222
1.06837
1.06041
1.04508
1.03747
1.02617
1.01848
1.0096
1.00212
0.994691
0.987495
0.980933
0.973995
0.968072
0.961407
0.956254
0.949991
0.945688
0.940341
0.936786
0.932858
0.929736
0.927181
0.924391
0.922831
0.920331
0.919094
0.916425
0.914911
0.911249
0.908897
0.903701
0.899935
0.892647
0.887013
0.877545
0.869635
0.858838
0.847531
0.836094
0.821985
0.809475
0.793403
0.779886
0.762413
0.748465
0.729746
0.71608
0.696805
0.683881
0.66494
0.652615
0.63464
0.623229
0.60779
0.594917
0.582932
0.569693
0.560081
0.547093
0.539373
0.52681
0.52087
0.508474
0.503548
0.49159
0.487035
0.475535
0.470817
0.459457
0.454734
0.444847
0.437033
0.428927
0.418924
0.411953
0.400108
0.393876
0.38052
0.375
0.360276
0.354612
0.339241
0.333339
0.317782
0.311302
0.295777
0.289212
0.275631
0.265928
0.255161
0.243515
0.235116
0.222222
0.216224
0.202892
0.197755
0.185308
0.18064
0.169436
0.16528
0.155498
0.15163
0.143267
0.139945
0.132816
0.130109
0.124424
0.121338
0.117199
0.114349
0.111458
0.10852
0.106847
0.104011
0.103014
0.100662
0.0998305
0.0980604
0.0974389
0.0961144
0.0956681
0.0947119
0.094431
0.0938515
0.0935362
0.0932916
0.0931062
0.0930925
0.0930202
0.0931199
0.0931358
0.0934435
0.0935415
0.093997
0.0941885
0.0947787
0.0950555
0.0957757
0.0961347
0.0969933
0.097493
0.0983896
0.0990675
0.10001
0.100878
0.101873
0.102937
0.104
0.105267
0.106418
0.107895
0.109155
0.110859
0.112248
0.114191
0.115735
0.117952
0.119753
0.12211
0.124272
0.12684
0.129406
0.132243
0.135277
0.13848
0.142032
0.145686
0.149821
0.154013
0.158825
0.163669
0.169283
0.174888
0.181408
0.187843
0.195364
0.202737
0.210938
0.219252
0.228055
0.237123
0.246297
0.255785
0.264898
0.274195
0.282452
0.290548
0.296796
0.302555
0.305817
0.308126
0.308823
1.15515
1.11217
1.1001
1.08141
1.06993
1.05644
1.04536
1.03503
1.02508
1.01703
1.00831
1.00191
0.994241
0.989107
0.982161
0.978248
0.972064
0.969321
0.964846
0.962142
0.959947
0.957929
0.957387
0.956389
0.956448
0.956135
0.956678
0.956546
0.957085
0.956456
0.956513
0.95468
0.953874
0.950203
0.947923
0.942253
0.937891
0.931044
0.923422
0.915828
0.905663
0.896764
0.884827
0.874708
0.861484
0.85062
0.836197
0.825146
0.810055
0.79925
0.784282
0.773762
0.759532
0.749719
0.737608
0.726835
0.717526
0.706929
0.699546
0.689726
0.68406
0.675163
0.671265
0.663259
0.660405
0.653343
0.651113
0.644952
0.64286
0.637196
0.635297
0.630932
0.626942
0.623782
0.61835
0.615783
0.609116
0.606649
0.599036
0.596432
0.587406
0.584451
0.574149
0.570636
0.559187
0.554616
0.541905
0.536614
0.524887
0.51476
0.504613
0.49123
0.481934
0.466007
0.457763
0.43901
0.431494
0.411358
0.403505
0.382752
0.374696
0.353995
0.345359
0.325097
0.316607
0.297059
0.289219
0.271654
0.261086
0.247431
0.235022
0.225213
0.210875
0.204843
0.190662
0.185491
0.173122
0.168335
0.157862
0.153811
0.144981
0.141625
0.134334
0.131731
0.126194
0.12315
0.119409
0.116719
0.114347
0.111651
0.110612
0.108249
0.107641
0.105972
0.10554
0.104513
0.104313
0.103783
0.10381
0.103621
0.10388
0.103994
0.104423
0.104876
0.105406
0.106191
0.106793
0.107889
0.108587
0.109955
0.110789
0.11241
0.113402
0.115281
0.116454
0.118605
0.119985
0.122438
0.124147
0.126733
0.12889
0.131668
0.134317
0.137338
0.140558
0.143918
0.147763
0.15158
0.156119
0.160529
0.165858
0.170998
0.177266
0.183279
0.190642
0.197648
0.206263
0.214443
0.223974
0.233365
0.243742
0.254129
0.265085
0.276093
0.287137
0.298104
0.308272
0.318004
0.325734
0.332751
0.336572
0.339342
0.340125
1.28841
1.22748
1.21067
1.18656
1.17012
1.15267
1.13691
1.12354
1.10944
1.09927
1.0872
1.07964
1.0695
1.06406
1.05523
1.05155
1.04433
1.04163
1.03687
1.03356
1.03156
1.02876
1.02823
1.0264
1.02625
1.02524
1.0254
1.02485
1.02518
1.02416
1.02427
1.02223
1.0217
1.01818
1.01652
1.01144
1.00795
1.00207
0.995505
0.989181
0.98046
0.972912
0.962735
0.954062
0.942816
0.93342
0.921196
0.911429
0.898642
0.88878
0.876027
0.866204
0.854011
0.844697
0.834201
0.824419
0.816152
0.806929
0.800266
0.792213
0.787146
0.7804
0.777066
0.771738
0.769865
0.766036
0.765111
0.762756
0.762397
0.761125
0.761279
0.761276
0.761048
0.761593
0.761314
0.761983
0.761625
0.762142
0.761573
0.762119
0.760901
0.76136
0.759479
0.759729
0.757154
0.756821
0.753256
0.752474
0.749359
0.745651
0.743219
0.737484
0.735127
0.727798
0.7254
0.716225
0.713384
0.70261
0.699097
0.686663
0.682415
0.668461
0.66287
0.647319
0.64067
0.62327
0.616067
0.599034
0.585719
0.571399
0.553499
0.54129
0.518707
0.508669
0.483375
0.473517
0.447521
0.436704
0.410798
0.399972
0.374435
0.363882
0.339341
0.329612
0.307608
0.294577
0.277661
0.262463
0.250535
0.233156
0.226115
0.20926
0.203346
0.189099
0.183787
0.172169
0.167874
0.158493
0.155313
0.147703
0.145425
0.140272
0.137408
0.134515
0.132165
0.130788
0.128913
0.128554
0.127407
0.127448
0.127097
0.127584
0.127573
0.128845
0.129182
0.13101
0.131683
0.134068
0.135264
0.137723
0.139674
0.142252
0.144942
0.147713
0.151167
0.154241
0.158486
0.162001
0.167095
0.171217
0.177242
0.182149
0.189266
0.195148
0.203555
0.2106
0.22053
0.229065
0.24014
0.250327
0.262521
0.274174
0.287191
0.299939
0.313192
0.326389
0.338776
0.351064
0.360546
0.369846
0.374379
0.377962
0.378934
1.4551
1.39202
1.37349
1.3445
1.32526
1.30398
1.28518
1.26866
1.25133
1.23825
1.22298
1.21288
1.19994
1.19252
1.18119
1.17607
1.16667
1.16299
1.15644
1.15159
1.14823
1.14305
1.14133
1.13663
1.13501
1.13081
1.12931
1.12521
1.12375
1.119
1.11714
1.11154
1.10887
1.10222
1.09847
1.09081
1.08546
1.07758
1.06938
1.06162
1.05172
1.04316
1.03223
1.02288
1.01127
1.00146
0.989228
0.979199
0.966667
0.956547
0.944103
0.933945
0.921977
0.912165
0.901554
0.891511
0.882696
0.873289
0.865889
0.857729
0.851828
0.845149
0.840913
0.835637
0.833076
0.829692
0.828562
0.827318
0.8273
0.827176
0.82813
0.829436
0.830941
0.8335
0.83551
0.838776
0.841079
0.844841
0.847294
0.851515
0.853823
0.858488
0.860604
0.865427
0.867414
0.871941
0.873794
0.878216
0.880627
0.883355
0.88646
0.888123
0.891391
0.892406
0.8955
0.895948
0.898661
0.898704
0.900971
0.900675
0.902275
0.901717
0.9024
0.901213
0.901617
0.899429
0.89974
0.897717
0.894856
0.893731
0.888685
0.887726
0.88046
0.879057
0.869666
0.867421
0.85597
0.852018
0.838003
0.832669
0.815597
0.808417
0.788055
0.779929
0.759479
0.742363
0.724951
0.700985
0.685758
0.654861
0.641956
0.60718
0.593814
0.557904
0.543082
0.507421
0.492699
0.457945
0.444257
0.409711
0.396848
0.366958
0.34996
0.327651
0.308161
0.292819
0.271924
0.262912
0.243565
0.236719
0.220925
0.215678
0.20343
0.199636
0.190593
0.188085
0.181868
0.180486
0.177498
0.175555
0.175417
0.174816
0.175511
0.175867
0.178423
0.179227
0.183243
0.184818
0.190082
0.19256
0.19904
0.202613
0.21041
0.215058
0.22433
0.230241
0.241281
0.249131
0.261241
0.271571
0.284902
0.297669
0.312039
0.326969
0.341879
0.358278
0.372704
0.389059
0.400603
0.413424
0.419436
0.424162
0.425451
1.57076
1.5232
1.50848
1.48088
1.46401
1.44367
1.42693
1.41134
1.39567
1.38305
1.36867
1.35837
1.34566
1.33756
1.32597
1.31988
1.30965
1.30522
1.29767
1.29175
1.28714
1.28036
1.27703
1.26988
1.26629
1.25889
1.25469
1.24676
1.2419
1.23279
1.2271
1.21694
1.21024
1.19905
1.19121
1.17919
1.16991
1.15809
1.14627
1.13503
1.12198
1.1105
1.09693
1.08512
1.07134
1.05946
1.04551
1.03378
1.01991
1.00835
0.994826
0.983383
0.970415
0.959299
0.947515
0.936335
0.926068
0.915458
0.906415
0.8969
0.889172
0.881032
0.874818
0.868132
0.863574
0.858524
0.8556
0.852401
0.851012
0.850109
0.849987
0.850221
0.85119
0.853144
0.855312
0.858379
0.861451
0.865431
0.869163
0.873841
0.878018
0.883419
0.887924
0.893897
0.898646
0.904901
0.909889
0.916349
0.921835
0.927929
0.933956
0.939832
0.946334
0.952035
0.958974
0.964458
0.971794
0.97717
0.984809
0.990138
0.997993
1.00343
1.01124
1.01684
1.02467
1.03026
1.03846
1.04467
1.05156
1.05896
1.06503
1.07332
1.07845
1.08742
1.09183
1.10116
1.10524
1.11421
1.11799
1.12659
1.1299
1.13788
1.14061
1.14871
1.15229
1.15581
1.16063
1.16138
1.16537
1.16422
1.16625
1.1623
1.16317
1.15479
1.15291
1.13886
1.13378
1.11356
1.10582
1.0777
1.0676
1.03884
1.01305
0.987672
0.950262
0.926638
0.878907
0.857544
0.804358
0.782851
0.728388
0.70704
0.653
0.631804
0.579243
0.558846
0.509839
0.491141
0.451166
0.427673
0.400174
0.375383
0.358428
0.334845
0.326243
0.307189
0.301618
0.288759
0.285878
0.278848
0.278279
0.276269
0.277867
0.278511
0.284239
0.285862
0.294476
0.298683
0.307594
0.315902
0.325737
0.338102
0.349464
0.365515
0.379094
0.39843
0.413355
0.434638
0.448925
0.466918
0.475411
0.481981
0.483771
1.52251
1.51903
1.51014
1.49407
1.48619
1.47448
1.46699
1.459
1.4524
1.44666
1.44062
1.43606
1.43038
1.42675
1.42107
1.41806
1.41247
1.40993
1.40527
1.40146
1.39819
1.39319
1.39016
1.38391
1.37973
1.37213
1.36644
1.3572
1.34994
1.33861
1.32973
1.31657
1.30621
1.29151
1.27972
1.26388
1.25054
1.23471
1.2191
1.20387
1.18722
1.17212
1.15527
1.14023
1.12351
1.10879
1.09227
1.07805
1.06197
1.04828
1.03283
1.01954
1.00485
0.992028
0.978553
0.96585
0.953814
0.94163
0.930721
0.919429
0.909628
0.899468
0.890936
0.882036
0.874953
0.867514
0.861956
0.856132
0.852081
0.848026
0.845445
0.843248
0.842465
0.842239
0.842458
0.843421
0.845182
0.847564
0.850395
0.853612
0.85739
0.861498
0.866105
0.870965
0.876168
0.8817
0.887432
0.893468
0.899469
0.906268
0.912716
0.919869
0.926833
0.934261
0.941718