/*--------------------------------*- C++ -*----------------------------------*\
| =========                 |                                                 |
| \\      /  F ield         | OpenFOAM: The Open Source CFD Toolbox           |
|  \\    /   O peration     | Version:  4.1                                   |
|   \\  /    A nd           | Web:      www.OpenFOAM.org                      |
|    \\/     M anipulation  |                                                 |
\*---------------------------------------------------------------------------*/
FoamFile
{
    version     2.0;
    format      ascii;
    class       volScalarField;
    location    "14.5";
    object      k;
}
// * * * * * * * * * * * * * * * * * * * * * * * * * * * * * * * * * * * * * //

dimensions      [0 2 -2 0 0 0 0];

internalField   nonuniform List<scalar> 
204246
(
2.12904
2.2242
2.23476
2.23677
2.24817
2.25016
2.25892
2.26145
2.26972
2.2724
2.28039
2.283
2.29108
2.29333
2.30278
2.30423
2.31399
2.31533
2.3226
2.32904
2.33207
2.34128
2.34251
2.35136
2.3532
2.36188
2.36374
2.37275
2.37436
2.38478
2.3862
2.39703
2.3986
2.40976
2.41148
2.42218
2.42454
2.43305
2.44047
2.44483
2.45473
2.45736
2.46814
2.47089
2.48209
2.48462
2.49728
2.49964
2.51276
2.51525
2.52739
2.53065
2.54262
2.54593
2.5563
2.56473
2.57095
2.58158
2.58612
2.59815
2.60176
2.61464
2.61802
2.63246
2.63566
2.6506
2.65395
2.66791
2.67206
2.68594
2.69018
2.70215
2.71079
2.71965
2.73075
2.73779
2.75066
2.75654
2.77064
2.77573
2.79238
2.79675
2.81415
2.81875
2.83535
2.84083
2.85746
2.86311
2.87792
2.88801
2.89981
2.91241
2.92257
2.93676
2.94599
2.96413
2.97047
2.99069
2.99691
3.01751
3.024
3.04431
3.05176
3.07217
3.07992
3.10114
3.10884
3.12849
3.14054
3.15749
3.17157
3.18745
3.20553
3.2187
3.24008
3.25123
3.27384
3.28478
3.30858
3.31941
3.34483
3.35534
3.3818
3.39244
3.41744
3.43238
3.45483
3.47201
3.49344
3.51294
3.53333
3.55428
3.57433
3.59652
3.61643
3.63984
3.65964
3.68402
3.704
3.7294
3.74943
3.77427
3.79647
3.8204
3.84338
3.86744
3.89086
3.91523
3.93884
3.96364
3.98731
4.01255
4.03609
4.06185
4.08531
4.11156
4.13506
4.16147
4.18431
4.21097
4.23384
4.25987
4.28344
4.30865
4.33299
4.35723
4.38258
4.4057
4.43252
4.45449
4.48324
4.50393
4.53526
4.55506
4.59044
4.60835
4.64828
4.66987
4.70623
4.73625
4.77104
4.81013
4.84633
4.89559
4.93689
4.99773
5.04864
5.1223
5.18729
5.266
5.33262
5.37037
5.38686
1.40215
1.38796
1.39127
1.39337
1.39723
1.39757
1.4026
1.40326
1.40837
1.40904
1.41451
1.41536
1.42056
1.42092
1.42618
1.42637
1.43209
1.43295
1.43481
1.43883
1.43914
1.44373
1.4438
1.44918
1.44997
1.45523
1.45614
1.46109
1.46148
1.46646
1.46676
1.47185
1.47211
1.47742
1.47783
1.48463
1.48665
1.48885
1.49403
1.49499
1.50182
1.50346
1.51063
1.51249
1.51968
1.52107
1.52863
1.53005
1.53804
1.53962
1.54862
1.55106
1.56087
1.56426
1.56917
1.57707
1.57941
1.58955
1.59265
1.6031
1.60641
1.61684
1.61966
1.63048
1.63335
1.64455
1.64761
1.65983
1.66381
1.67687
1.68185
1.68972
1.70099
1.70568
1.71897
1.72381
1.7378
1.74285
1.75734
1.7623
1.77688
1.78175
1.79707
1.80224
1.81877
1.82499
1.84274
1.85015
1.86256
1.87693
1.88599
1.90357
1.91105
1.93044
1.93795
1.95764
1.9652
1.98565
1.99338
2.01526
2.02379
2.04667
2.0563
2.08012
2.0903
2.11555
2.12638
2.14817
2.16677
2.18444
2.20781
2.22189
2.24886
2.26095
2.29033
2.30299
2.3348
2.34845
2.38145
2.39615
2.43025
2.44554
2.48242
2.49943
2.53137
2.55732
2.58544
2.6163
2.64348
2.67725
2.70407
2.74185
2.76874
2.80934
2.83707
2.88008
2.90928
2.95454
2.9859
3.03377
3.06867
3.11107
3.15555
3.19661
3.24376
3.28745
3.33631
3.38289
3.43343
3.4832
3.53554
3.5887
3.6414
3.69859
3.75249
3.81445
3.87191
3.9381
3.98996
4.06484
4.1207
4.19062
4.25733
4.32185
4.39808
4.45735
4.54093
4.59632
4.68387
4.73786
4.82524
4.88061
4.96056
5.01905
5.10204
5.15891
5.24021
5.27926
5.37257
5.40809
5.49703
5.52906
5.61343
5.64211
5.72342
5.74927
5.83733
5.86829
6.03431
6.17869
6.59218
6.84781
6.9561
2.04038
1.94803
1.96842
1.97936
1.97951
1.98962
1.98906
1.99721
1.99686
2.00531
2.005
2.01369
2.01342
2.02354
2.0224
2.03288
2.03178
2.04366
2.04847
2.04757
2.05714
2.05579
2.0654
2.06464
2.07305
2.07257
2.0808
2.08025
2.08943
2.08789
2.097
2.09553
2.10506
2.10374
2.11311
2.11227
2.12168
2.12641
2.12506
2.13409
2.13328
2.14163
2.14131
2.15017
2.15001
2.16051
2.1596
2.17056
2.16983
2.18147
2.18166
2.19294
2.19378
2.20678
2.21315
2.21362
2.2262
2.22685
2.2389
2.24022
2.25251
2.25406
2.26756
2.26811
2.2825
2.28326
2.29832
2.30021
2.3144
2.31689
2.33255
2.34024
2.34452
2.35728
2.35972
2.374
2.37679
2.39158
2.39461
2.41025
2.41227
2.42865
2.4309
2.44811
2.45152
2.46801
2.47208
2.48989
2.49867
2.5057
2.52017
2.52426
2.54089
2.54537
2.5628
2.56642
2.58454
2.58849
2.6073
2.61174
2.63087
2.63605
2.65439
2.66028
2.67922
2.68552
2.70597
2.71495
2.72701
2.74222
2.74918
2.76798
2.77397
2.79351
2.79981
2.81967
2.82667
2.84589
2.85313
2.87254
2.87994
2.90005
2.90806
2.92841
2.93803
2.95217
2.96599
2.97626
2.9931
3.00085
3.0186
3.02662
3.04385
3.05188
3.06826
3.07624
3.09174
3.09975
3.11478
3.12306
3.1368
3.14344
3.15418
3.15992
3.16875
3.17316
3.18052
3.18172
3.1871
3.18581
3.1881
3.1841
3.18456
3.17331
3.17318
3.15589
3.15447
3.12771
3.11464
3.09874
3.06558
3.0564
3.01041
2.99799
2.94405
2.92868
2.86815
2.85066
2.7851
2.7658
2.69578
2.67528
2.60161
2.5805
2.50706
2.48694
2.4085
2.37213
2.33636
2.27413
2.25881
2.18906
2.17505
2.1081
2.09639
2.03759
2.03105
1.99135
1.99565
1.96989
1.97514
1.84232
1.79303
2.73636
2.59239
2.60622
2.61918
2.62082
2.63027
2.63
2.63584
2.6351
2.64016
2.63931
2.64436
2.6436
2.64989
2.64855
2.65524
2.65404
2.66133
2.6644
2.66375
2.6701
2.66886
2.67516
2.67447
2.68005
2.67964
2.68513
2.68469
2.69063
2.68935
2.69504
2.69378
2.69975
2.69867
2.70459
2.70392
2.70924
2.71201
2.71091
2.71588
2.71505
2.71947
2.71896
2.7236
2.7232
2.7287
2.72775
2.73342
2.73258
2.73863
2.73845
2.74432
2.74453
2.75093
2.75416
2.7541
2.76034
2.76038
2.76632
2.76676
2.7727
2.77328
2.77968
2.77968
2.78642
2.78652
2.79355
2.79432
2.80082
2.80193
2.80844
2.81172
2.81331
2.81828
2.81904
2.8244
2.82528
2.83062
2.83159
2.83698
2.83751
2.84275
2.84323
2.84838
2.84922
2.85383
2.85487
2.85913
2.86122
2.86199
2.86485
2.86528
2.86802
2.86843
2.87089
2.87101
2.87302
2.87304
2.87468
2.87472
2.87575
2.8757
2.87614
2.87603
2.87627
2.8759
2.87564
2.8747
2.87284
2.87169
2.86926
2.86764
2.8646
2.8623
2.85862
2.85573
2.85123
2.84796
2.84241
2.83836
2.83205
2.82659
2.82031
2.81187
2.80326
2.79526
2.7829
2.77566
2.75871
2.75245
2.73137
2.72453
2.69998
2.69199
2.66369
2.65442
2.62183
2.61091
2.57459
2.56239
2.51835
2.49682
2.4653
2.42697
2.40413
2.35359
2.33426
2.27664
2.2554
2.19381
2.17083
2.10547
2.08073
2.01187
1.98554
1.91462
1.88757
1.81142
1.77462
1.71629
1.6639
1.61914
1.55417
1.52187
1.45051
1.42314
1.3525
1.32668
1.26144
1.23766
1.17835
1.15713
1.10407
1.08553
1.03853
1.02252
0.98055
0.961528
0.933952
0.91113
0.893084
0.866846
0.85545
0.82863
0.820183
0.80158
0.798744
0.794718
0.80915
0.826181
0.856159
0.865814
0.873055
3.21119
3.12265
3.12342
3.1331
3.13289
3.13708
3.13493
3.13602
3.13125
3.13146
3.12571
3.12562
3.11999
3.12034
3.11453
3.11518
3.1097
3.11034
3.10804
3.10372
3.10421
3.09894
3.09938
3.09477
3.09473
3.09032
3.09025
3.08591
3.08606
3.08115
3.08135
3.0765
3.07668
3.07207
3.0722
3.06764
3.06705
3.06411
3.05962
3.05901
3.05358
3.05233
3.04705
3.04571
3.04051
3.03934
3.03379
3.03265
3.02708
3.02587
3.02066
3.01908
3.014
3.01225
3.00814
3.00375
3.00137
2.99587
2.99367
2.98796
2.98561
2.97989
2.97752
2.97147
2.96895
2.96268
2.95994
2.95369
2.95066
2.94434
2.94076
2.93498
2.92927
2.92404
2.91734
2.91224
2.90495
2.89975
2.89208
2.88666
2.87847
2.8726
2.86394
2.85771
2.84887
2.84224
2.83326
2.82535
2.81584
2.80707
2.79694
2.78776
2.77643
2.76727
2.75398
2.7456
2.7297
2.7222
2.70384
2.69709
2.67659
2.66888
2.64759
2.63919
2.61653
2.60764
2.58113
2.5685
2.54794
2.52783
2.51088
2.48348
2.47128
2.43816
2.42647
2.38993
2.37643
2.3388
2.32396
2.28396
2.2681
2.2257
2.20923
2.16162
2.13837
2.10283
2.0666
2.03888
1.9926
1.9707
1.91806
1.89734
1.84203
1.82055
1.76391
1.74192
1.68423
1.6617
1.60368
1.58093
1.52083
1.49183
1.44514
1.40598
1.36891
1.32198
1.29352
1.24091
1.21947
1.16581
1.14524
1.09411
1.07464
1.02646
1.00832
0.963781
0.947278
0.905269
0.885773
0.856357
0.833135
0.81274
0.786627
0.774565
0.749013
0.740037
0.718014
0.710742
0.692477
0.686654
0.671981
0.667592
0.656259
0.653239
0.644966
0.643222
0.637372
0.63518
0.634799
0.633222
0.634087
0.63334
0.634367
0.633523
0.634189
0.633011
0.63455
0.635034
0.644374
0.650163
0.66295
0.667677
0.671468
3.63394
3.53749
3.53042
3.53024
3.52261
3.52152
3.51024
3.50642
3.49251
3.48719
3.47204
3.46603
3.45067
3.44479
3.42915
3.42344
3.40783
3.40196
3.3887
3.37838
3.3687
3.35534
3.34787
3.33349
3.32653
3.31213
3.30521
3.29105
3.2843
3.26984
3.26326
3.24876
3.24214
3.22797
3.22132
3.20729
3.2
3.18717
3.17749
3.16627
3.15487
3.14436
3.13217
3.12193
3.10928
3.09916
3.08601
3.07588
3.06248
3.05223
3.03899
3.02842
3.01543
3.00418
2.99146
2.97938
2.96654
2.95411
2.94079
2.92838
2.91429
2.90209
2.88688
2.87532
2.85868
2.84773
2.82966
2.81909
2.80034
2.7899
2.76978
2.75614
2.73986
2.72271
2.70811
2.68814
2.67474
2.65231
2.63984
2.61424
2.60415
2.57614
2.56566
2.53621
2.5247
2.49513
2.483
2.45122
2.43332
2.40974
2.38494
2.36507
2.33534
2.31781
2.28288
2.26924
2.23076
2.2165
2.17654
2.16173
2.12004
2.1038
2.06197
2.0448
2.00195
1.98426
1.93786
1.91578
1.87855
1.84784
1.81633
1.77793
1.75318
1.70735
1.68811
1.63824
1.6185
1.56931
1.549
1.49992
1.47966
1.43093
1.41088
1.36057
1.33663
1.29758
1.2658
1.23538
1.19725
1.17425
1.13182
1.11447
1.07138
1.05478
1.01379
0.998129
0.959301
0.944502
0.908197
0.894416
0.859472
0.843089
0.817949
0.797902
0.779346
0.756498
0.743788
0.719773
0.710413
0.687503
0.679055
0.658446
0.650891
0.632512
0.62583
0.609541
0.603663
0.588884
0.58214
0.572285
0.564649
0.557817
0.549572
0.545559
0.537688
0.534891
0.528306
0.526187
0.521288
0.519879
0.516605
0.515896
0.514206
0.514196
0.51381
0.514863
0.515279
0.517555
0.519675
0.522652
0.526416
0.530146
0.535385
0.539834
0.546552
0.551966
0.560158
0.566356
0.575861
0.582389
0.589822
0.592803
0.594723
3.92289
3.84465
3.83157
3.81774
3.80384
3.79172
3.77384
3.76026
3.73933
3.72441
3.70149
3.68557
3.66172
3.64556
3.62084
3.60477
3.57954
3.56295
3.53922
3.51884
3.49742
3.47435
3.45414
3.42991
3.4098
3.38512
3.36483
3.34005
3.31962
3.29454
3.27427
3.24924
3.2293
3.20483
3.18475
3.16117
3.14058
3.11702
3.09739
3.07376
3.05417
3.03084
3.01136
2.98788
2.96867
2.94433
2.92618
2.90056
2.88331
2.85641
2.83944
2.81231
2.79528
2.7671
2.74598
2.72425
2.69777
2.67848
2.65
2.63157
2.60146
2.58358
2.55135
2.53535
2.50064
2.48604
2.44977
2.43455
2.39846
2.3828
2.34554
2.32463
2.29522
2.26821
2.24266
2.21135
2.18838
2.15372
2.13259
2.09435
2.07648
2.03487
2.01831
1.97495
1.95735
1.91443
1.89624
1.85159
1.82829
1.79279
1.76216
1.73206
1.69607
1.66999
1.62876
1.60814
1.56266
1.54465
1.49791
1.47992
1.43319
1.41452
1.36946
1.35068
1.30657
1.28818
1.2431
1.22193
1.1863
1.15964
1.13066
1.09877
1.07747
1.04082
1.0261
0.988174
0.973495
0.938508
0.924377
0.891575
0.878348
0.847696
0.835397
0.805575
0.791972
0.769786
0.753331
0.736665
0.717769
0.706171
0.685866
0.677798
0.657993
0.650668
0.632717
0.626145
0.609905
0.603977
0.589404
0.584102
0.570606
0.564375
0.555189
0.547706
0.541257
0.532949
0.528856
0.520403
0.51729
0.509582
0.50686
0.500115
0.49776
0.491918
0.489914
0.484944
0.483304
0.479069
0.477175
0.474841
0.472618
0.471642
0.469633
0.469174
0.467864
0.467735
0.467251
0.467513
0.46761
0.468958
0.469375
0.4717
0.472602
0.475798
0.477159
0.481148
0.482933
0.487373
0.490107
0.494688
0.49828
0.503119
0.507626
0.512961
0.518485
0.524272
0.530846
0.53718
0.544533
0.550532
0.556033
0.558533
0.559911
4.12689
4.06046
4.04303
4.01524
3.99648
3.97237
3.9492
3.92504
3.89833
3.87353
3.84409
3.81837
3.7874
3.76114
3.72903
3.70242
3.66945
3.64196
3.60947
3.57893
3.54705
3.51389
3.48201
3.44676
3.41383
3.37687
3.34242
3.30402
3.2679
3.22849
3.19103
3.15132
3.11284
3.07381
3.03494
2.99689
2.95796
2.91929
2.88386
2.84446
2.81072
2.77191
2.73944
2.70104
2.6698
2.63112
2.6019
2.56253
2.53483
2.49471
2.46775
2.42799
2.40133
2.36098
2.33059
2.29776
2.26164
2.23248
2.19402
2.16675
2.12647
2.10062
2.05816
2.03507
1.99015
1.96934
1.92256
1.90239
1.85609
1.83574
1.78877
1.76372
1.72596
1.69463
1.66242
1.62668
1.59857
1.55956
1.5348
1.49254
1.47249
1.42781
1.40976
1.36478
1.34638
1.30341
1.28516
1.24221
1.22059
1.18677
1.16035
1.13254
1.10258
1.07982
1.04652
1.02985
0.994563
0.98068
0.946104
0.93295
0.90011
0.887198
0.857126
0.844813
0.816842
0.805399
0.778247
0.765757
0.745132
0.730625
0.714433
0.697745
0.686525
0.667942
0.660605
0.642001
0.634968
0.618455
0.611916
0.596968
0.591039
0.57747
0.572101
0.559227
0.553413
0.543985
0.537389
0.530094
0.522674
0.517573
0.509447
0.506138
0.498088
0.495087
0.487806
0.485108
0.478509
0.476062
0.470094
0.467885
0.462313
0.459724
0.455929
0.452822
0.45007
0.446639
0.444827
0.44129
0.439966
0.436704
0.435559
0.432721
0.431751
0.429356
0.428573
0.426675
0.426115
0.424641
0.424012
0.423571
0.423027
0.423043
0.42291
0.423599
0.423892
0.42541
0.425997
0.428351
0.429371
0.43261
0.434187
0.438351
0.440571
0.445677
0.448563
0.454611
0.45813
0.464809
0.469154
0.475995
0.481042
0.487898
0.493584
0.500311
0.506441
0.51306
0.519438
0.52585
0.532029
0.537457
0.541772
0.544016
0.545115
4.2566
4.19719
4.17695
4.13888
4.11624
4.08369
4.05613
4.02466
3.99341
3.96177
3.92772
3.89545
3.85963
3.82686
3.78982
3.75682
3.71872
3.68501
3.64699
3.61052
3.57266
3.53303
3.49438
3.45152
3.41043
3.36429
3.31994
3.27019
3.22234
3.16878
3.11773
3.06099
3.00714
2.94837
2.89264
2.83332
2.77626
2.71698
2.66108
2.60256
2.548
2.49109
2.43867
2.38351
2.33381
2.28002
2.23395
2.18115
2.1383
2.08631
2.04591
1.99551
1.95707
1.90726
1.86716
1.82553
1.78123
1.74451
1.69902
1.6655
1.6194
1.58855
1.54153
1.51452
1.46644
1.44283
1.39424
1.37265
1.32582
1.3049
1.25896
1.23576
1.19868
1.17145
1.14055
1.11059
1.08492
1.05315
1.03189
0.998396
0.982465
0.948401
0.934597
0.901861
0.888484
0.858608
0.845982
0.817501
0.803432
0.781558
0.765633
0.748078
0.730795
0.717005
0.698306
0.688736
0.669425
0.661816
0.643462
0.636488
0.619612
0.612989
0.59794
0.59179
0.578117
0.572515
0.559544
0.553602
0.543722
0.537114
0.52925
0.521878
0.516209
0.50803
0.504275
0.495926
0.492628
0.485074
0.482008
0.475148
0.472356
0.466105
0.463562
0.457625
0.454905
0.450425
0.447373
0.443773
0.440418
0.437802
0.434138
0.432356
0.428655
0.427209
0.423774
0.422483
0.419393
0.418244
0.415496
0.414489
0.411999
0.410847
0.409235
0.407848
0.406837
0.405374
0.404835
0.40351
0.403109
0.402104
0.401845
0.401169
0.401057
0.40072
0.400761
0.400719
0.401102
0.401283
0.401856
0.402583
0.403168
0.404432
0.4052
0.406949
0.407913
0.410229
0.411481
0.414517
0.416206
0.41999
0.422214
0.426845
0.429756
0.43528
0.439005
0.445335
0.44993
0.456796
0.462229
0.469334
0.475336
0.482465
0.488795
0.496049
0.502582
0.509726
0.516163
0.522809
0.528593
0.533856
0.53762
0.539749
0.540682
4.32616
4.26266
4.24052
4.19699
4.17238
4.13581
4.10618
4.0718
4.03871
4.00463
3.96896
3.9347
3.89736
3.86304
3.8246
3.79062
3.75155
3.71768
3.67953
3.64391
3.60683
3.56799
3.53097
3.48883
3.44944
3.40343
3.36001
3.30909
3.26081
3.20343
3.14977
3.08584
3.02617
2.95632
2.89108
2.81678
2.74687
2.67013
2.59651
2.52025
2.44417
2.36906
2.29324
2.22026
2.14681
2.07686
2.00724
1.94108
1.87589
1.81372
1.75306
1.69506
1.63886
1.58418
1.53109
1.48281
1.43205
1.3881
1.34041
1.30016
1.25534
1.21863
1.17619
1.1435
1.10312
1.07415
1.03577
1.01003
0.974287
0.951348
0.91775
0.895781
0.86808
0.845994
0.822681
0.800841
0.781446
0.7601
0.744112
0.723106
0.710587
0.689821
0.680295
0.660617
0.652026
0.634477
0.626678
0.610531
0.60256
0.589833
0.581487
0.571013
0.562417
0.553896
0.544948
0.538488
0.529122
0.524405
0.515069
0.511171
0.502395
0.498721
0.490829
0.487419
0.480191
0.477058
0.470185
0.466952
0.461443
0.457993
0.453309
0.449615
0.445872
0.441877
0.438955
0.43471
0.432435
0.42822
0.426347
0.422339
0.420613
0.41691
0.415319
0.41178
0.410121
0.407341
0.40558
0.403221
0.401379
0.399503
0.397526
0.396096
0.394017
0.392988
0.390963
0.390146
0.388319
0.38761
0.38602
0.385415
0.384015
0.38336
0.382522
0.381774
0.381343
0.380639
0.380424
0.379923
0.379824
0.379602
0.379631
0.379625
0.379958
0.380122
0.380771
0.381141
0.382109
0.382718
0.383957
0.385146
0.386624
0.388426
0.390208
0.392555
0.394817
0.397751
0.40057
0.404055
0.407391
0.411406
0.415306
0.419936
0.424483
0.429833
0.435102
0.441216
0.447227
0.454066
0.460641
0.468074
0.475131
0.482998
0.49033
0.498269
0.505527
0.513121
0.519809
0.526482
0.531972
0.536961
0.540314
0.542383
0.543207
4.32784
4.26852
4.2455
4.19978
4.17504
4.13768
4.10839
4.07455
4.04246
4.00967
3.97575
3.94327
3.90835
3.87637
3.84099
3.81009
3.77488
3.74522
3.71198
3.68235
3.65166
3.62045
3.59163
3.55837
3.52844
3.49211
3.4591
3.41828
3.38106
3.3332
3.29064
3.23442
3.18506
3.11974
3.06321
2.98998
2.92547
2.84945
2.7729
2.69759
2.61297
2.53618
2.44761
2.37031
2.28081
2.20542
2.11654
2.04497
1.95906
1.8922
1.81135
1.7491
1.67442
1.61665
1.54911
1.49453
1.43564
1.38326
1.33204
1.2826
1.23768
1.19137
1.15166
1.10831
1.0732
1.03254
1.00135
0.963544
0.93567
0.900808
0.875607
0.843608
0.820864
0.792259
0.770925
0.745992
0.725919
0.704376
0.685709
0.667079
0.649849
0.633866
0.618046
0.604349
0.590091
0.578321
0.565564
0.555311
0.543738
0.535224
0.524813
0.517377
0.508208
0.501585
0.493489
0.487504
0.480415
0.474971
0.468732
0.463767
0.45822
0.453744
0.44877
0.44471
0.440198
0.436509
0.432314
0.42886
0.425315
0.421972
0.418806
0.415626
0.412832
0.409799
0.407341
0.404426
0.402264
0.399498
0.397605
0.394965
0.393337
0.390817
0.389434
0.386982
0.385768
0.383711
0.382498
0.380722
0.379557
0.378066
0.376957
0.375734
0.374701
0.373732
0.372799
0.372065
0.371226
0.370727
0.370009
0.369723
0.369192
0.36895
0.368791
0.368647
0.368663
0.368685
0.368958
0.369121
0.369643
0.369976
0.370741
0.371273
0.372285
0.37304
0.374309
0.375325
0.376872
0.378202
0.380005
0.381678
0.383705
0.385721
0.388028
0.390445
0.393195
0.396155
0.399457
0.403166
0.407085
0.411626
0.416242
0.421611
0.426988
0.433188
0.439372
0.446368
0.453384
0.461117
0.468718
0.477055
0.485127
0.493862
0.502187
0.511004
0.51919
0.527566
0.534967
0.542144
0.547945
0.553088
0.556439
0.558522
0.559301
4.29832
4.24128
4.21729
4.17007
4.14544
4.10851
4.08085
4.04922
4.02023
3.9909
3.96126
3.93308
3.90335
3.87645
3.8471
3.82198
3.79363
3.77074
3.74556
3.72434
3.70331
3.68258
3.66507
3.6445
3.62801
3.60635
3.58837
3.56379
3.54282
3.51272
3.48715
3.44968
3.41744
3.37095
3.33081
3.2756
3.22638
3.16648
3.10408
3.04234
2.97002
2.90424
2.82519
2.75624
2.67266
2.60337
2.51607
2.44905
2.36083
2.29769
2.21202
2.15216
2.07111
2.01578
1.94615
1.88476
1.82993
1.76717
1.72175
1.66062
1.62237
1.56342
1.53201
1.47331
1.44752
1.39063
1.36658
1.31269
1.28888
1.23744
1.21452
1.17043
1.13877
1.10307
1.06615
1.0368
0.99638
0.971963
0.929694
0.910165
0.86721
0.849487
0.808576
0.791928
0.75428
0.738148
0.704022
0.689212
0.660128
0.643889
0.62032
0.603629
0.585173
0.568304
0.554571
0.537393
0.527866
0.511306
0.504326
0.489595
0.483594
0.471164
0.465834
0.45537
0.450797
0.441853
0.437945
0.430481
0.426681
0.420484
0.417194
0.411919
0.408949
0.404504
0.401736
0.398033
0.395413
0.39233
0.389904
0.387302
0.38507
0.382861
0.380808
0.378924
0.377004
0.375457
0.373714
0.37238
0.370891
0.369703
0.368467
0.367407
0.366391
0.365464
0.36464
0.363897
0.363254
0.362691
0.36223
0.361822
0.361547
0.361329
0.36125
0.361211
0.361292
0.36148
0.361751
0.362158
0.362621
0.363268
0.363937
0.364846
0.365741
0.366936
0.368082
0.369589
0.371013
0.372872
0.374624
0.376898
0.379042
0.381802
0.384435
0.387682
0.390854
0.394533
0.398308
0.402467
0.406949
0.411765
0.417056
0.422669
0.428878
0.435351
0.442525
0.449847
0.457999
0.466152
0.474927
0.483804
0.493061
0.502425
0.511892
0.521384
0.530602
0.539616
0.547831
0.555456
0.561694
0.566982
0.570452
0.572534
0.573279
4.29333
4.2252
4.19814
4.1492
4.12226
4.08604
4.0586
4.02942
4.00322
3.97813
3.9533
3.93065
3.90694
3.88623
3.86382
3.84612
3.8257
3.81118
3.79475
3.78219
3.77123
3.76053
3.75387
3.74485
3.74087
3.73291
3.729
3.71962
3.71397
3.70061
3.69155
3.6725
3.65777
3.63094
3.60874
3.57358
3.5424
3.50204
3.4578
3.41403
3.35981
3.3105
3.24905
3.19479
3.12784
3.07095
2.99902
2.94201
2.86779
2.81236
2.73917
2.68514
2.61524
2.56426
2.50342
2.4474
2.39839
2.34226
2.30082
2.2471
2.21181
2.16099
2.13174
2.08173
2.05814
2.00923
1.98899
1.94165
1.92115
1.87484
1.85454
1.81429
1.78272
1.74911
1.71043
1.68071
1.6364
1.60895
1.55995
1.53514
1.48001
1.45726
1.39902
1.37545
1.31646
1.2909
1.23179
1.20583
1.15372
1.11596
1.07367
1.02909
0.995001
0.946178
0.920207
0.868694
0.84761
0.798261
0.778846
0.733753
0.716184
0.676181
0.659697
0.624877
0.610454
0.580278
0.568195
0.543431
0.530105
0.511368
0.498713
0.485007
0.471967
0.463048
0.449926
0.44463
0.432957
0.428347
0.41893
0.415155
0.407461
0.404372
0.398084
0.395619
0.390724
0.388158
0.384482
0.382335
0.379518
0.377496
0.375537
0.373543
0.37233
0.370487
0.369706
0.368223
0.367633
0.366549
0.366149
0.365413
0.365178
0.364878
0.364701
0.364701
0.364699
0.365058
0.365183
0.365885
0.366179
0.367215
0.367685
0.369076
0.369731
0.371498
0.372362
0.374518
0.375611
0.378188
0.379683
0.382426
0.384487
0.387504
0.390196
0.393563
0.396974
0.400823
0.40499
0.409427
0.414379
0.419527
0.425365
0.43136
0.438225
0.445175
0.45316
0.461096
0.470254
0.479201
0.489116
0.49897
0.509482
0.519953
0.530755
0.54142
0.552008
0.562164
0.571658
0.580206
0.587363
0.593154
0.596956
0.599184
0.599937
4.36049
4.26948
4.23711
4.18494
4.15373
4.11631
4.08684
4.05833
4.03259
4.01044
3.98858
3.97106
3.95244
3.93865
3.92251
3.91241
3.89903
3.89264
3.88412
3.87824
3.87576
3.8739
3.87474
3.87453
3.87859
3.88044
3.88673
3.88857
3.89282
3.89219
3.89312
3.88826
3.88541
3.87359
3.86458
3.84503
3.82776
3.80291
3.77346
3.74428
3.7057
3.6701
3.62449
3.58308
3.53178
3.48641
3.42971
3.38234
3.32239
3.27459
3.21426
3.1663
3.10773
3.06155
3.00987
2.95976
2.91706
2.86803
2.83099
2.78536
2.75365
2.71183
2.68589
2.64618
2.62608
2.5885
2.57291
2.53861
2.52421
2.49218
2.47876
2.45263
2.43072
2.40984
2.38289
2.36457
2.33375
2.31633
2.28205
2.26555
2.22576
2.20997
2.16605
2.14888
2.10238
2.08178
2.03278
2.00924
1.9647
1.92595
1.88698
1.83873
1.80206
1.74699
1.71289
1.64965
1.61861
1.54925
1.52019
1.44786
1.41821
1.34595
1.3145
1.24339
1.21232
1.1432
1.11403
1.05186
1.01303
0.964462
0.919151
0.883089
0.831541
0.807296
0.755887
0.73578
0.689688
0.670951
0.631177
0.614983
0.580845
0.5671
0.538334
0.527231
0.504451
0.492147
0.475657
0.464437
0.452894
0.441655
0.434822
0.424028
0.420099
0.411053
0.407778
0.400906
0.398419
0.393184
0.391432
0.387376
0.386159
0.383516
0.382027
0.380701
0.379483
0.379021
0.378182
0.378083
0.377806
0.377963
0.378026
0.378826
0.379076
0.380412
0.38094
0.382777
0.383584
0.385936
0.387231
0.389765
0.391738
0.39452
0.397209
0.400295
0.403801
0.407326
0.411696
0.415825
0.421109
0.425998
0.432298
0.438076
0.445551
0.452363
0.461161
0.469094
0.479336
0.488499
0.499727
0.510039
0.522081
0.53321
0.545696
0.557187
0.569541
0.580703
0.591873
0.601534
0.60986
0.616659
0.620687
0.623312
0.624102
4.50137
4.39397
4.35701
4.29947
4.26395
4.22375
4.19133
4.16215
4.13516
4.11451
4.09374
4.07997
4.06464
4.05605
4.04443
4.03977
4.03259
4.03099
4.03033
4.02966
4.0324
4.03402
4.04129
4.04501
4.05449
4.05994
4.07123
4.07723
4.08814
4.0918
4.09867
4.09909
4.10036
4.09614
4.09301
4.0819
4.07167
4.05545
4.03451
4.01384
3.98512
3.95806
3.92301
3.89019
3.84973
3.81264
3.76707
3.72697
3.67791
3.63594
3.58555
3.54228
3.49233
3.44966
3.40431
3.35895
3.31983
3.27609
3.24108
3.20109
3.17065
3.13491
3.10986
3.07733
3.05794
3.02874
3.01438
2.98904
2.9779
2.95679
2.94821
2.93277
2.91988
2.909
2.89366
2.88506
2.86778
2.86017
2.84114
2.83418
2.81258
2.80523
2.7814
2.77306
2.74738
2.73679
2.70916
2.69646
2.672
2.64825
2.62699
2.59692
2.57616
2.54152
2.52125
2.48049
2.4608
2.41477
2.39463
2.34392
2.32258
2.2689
2.24348
2.18736
2.15858
2.09923
2.06898
2.01189
1.96486
1.91529
1.85688
1.81284
1.7431
1.70442
1.62602
1.59154
1.50942
1.47337
1.39108
1.355
1.27366
1.23831
1.16001
1.12729
1.05768
1.01434
0.96037
0.910358
0.870871
0.814857
0.789093
0.734423
0.713497
0.665878
0.646954
0.607277
0.591543
0.558786
0.546498
0.519243
0.50973
0.489741
0.478965
0.465769
0.4564
0.447915
0.439283
0.43497
0.427499
0.425134
0.419632
0.418173
0.41459
0.413837
0.411876
0.41173
0.411122
0.411511
0.412164
0.412882
0.414776
0.415772
0.41882
0.4201
0.424233
0.426055
0.431221
0.433628
0.43989
0.443089
0.450479
0.454688
0.463363
0.468777
0.478926
0.485716
0.49754
0.506008
0.51894
0.529172
0.543049
0.554733
0.569105
0.581795
0.595942
0.609001
0.621713
0.633854
0.643098
0.652253
0.656573
0.659982
0.660932
4.66129
4.55066
4.51378
4.45349
4.41766
4.3764
4.34395
4.31499
4.28832
4.2685
4.24905
4.23758
4.22514
4.21975
4.21321
4.21205
4.21059
4.2125
4.21547
4.21888
4.22653
4.23106
4.24152
4.2473
4.25853
4.26482
4.27614
4.28211
4.29202
4.29515
4.30058
4.30052
4.301
4.29649
4.29259
4.28208
4.272
4.25706
4.23808
4.21927
4.19397
4.1697
4.13921
4.10996
4.07494
4.04182
4.00256
3.96649
3.9241
3.88578
3.84166
3.80157
3.75705
3.71667
3.67476
3.63259
3.59463
3.55387
3.51892
3.48143
3.45024
3.41679
3.39031
3.36069
3.33926
3.31375
3.29725
3.27619
3.26386
3.24759
3.23962
3.22942
3.22127
3.21555
3.20781
3.20455
3.19729
3.1949
3.18793
3.18614
3.17871
3.17722
3.16929
3.16767
3.15897
3.1563
3.14631
3.14289
3.13445
3.12507
3.11799
3.10531
3.09843
3.08315
3.07636
3.05759
3.05083
3.0293
3.02169
2.99764
2.98903
2.96316
2.95198
2.9245
2.91143
2.88183
2.8683
2.84073
2.816
2.79307
2.76142
2.74057
2.70178
2.68223
2.63737
2.61759
2.56859
2.54458
2.49188
2.46368
2.40607
2.37361
2.31007
2.27482
2.21203
2.15633
2.10087
2.03075
1.98022
1.89542
1.85
1.75384
1.71296
1.61223
1.56827
1.46821
1.42451
1.32744
1.28692
1.19216
1.15443
1.07227
1.02368
0.961292
0.906316
0.861583
0.803779
0.774652
0.72039
0.699025
0.653179
0.636138
0.599467
0.58626
0.55777
0.547885
0.526486
0.519431
0.505686
0.497844
0.490477
0.484593
0.481519
0.477266
0.476559
0.474682
0.475091
0.474977
0.477837
0.478719
0.483789
0.48587
0.492982
0.496136
0.505262
0.509768
0.521012
0.527834
0.540063
0.549811
0.563068
0.575535
0.589465
0.604255
0.618188
0.634519
0.647454
0.663621
0.673476
0.6856
0.691113
0.695276
0.696471
4.66902
4.59842
4.57078
4.518
4.4896
4.45576
4.4312
4.40943
4.39047
4.37656
4.3641
4.35839
4.3553
4.35508
4.355
4.35899
4.36283
4.3714
4.37913
4.38813
4.39987
4.40901
4.42219
4.4308
4.44287
4.44994
4.45995
4.4648
4.47007
4.47029
4.47058
4.46669
4.46282
4.45329
4.44428
4.42926
4.41446
4.39538
4.37356
4.35125
4.32441
4.29803
4.2673
4.23715
4.20308
4.16998
4.13295
4.09759
4.05834
4.02119
3.98049
3.94186
3.90054
3.86124
3.82107
3.781
3.74306
3.70395
3.6681
3.63137
3.59836
3.56487
3.5356
3.50574
3.48081
3.45513
3.43471
3.41356
3.3974
3.38099
3.36952
3.3589
3.35076
3.34497
3.33958
3.33712
3.33438
3.33356
3.33261
3.33281
3.33246
3.33389
3.334
3.33659
3.33716
3.33985
3.34045
3.34317
3.3444
3.34534
3.34666
3.3466
3.34775
3.34731
3.34812
3.34671
3.34738
3.34503
3.34548
3.34214
3.34236
3.33812
3.33754
3.33229
3.33126
3.32519
3.32422
3.3187
3.31342
3.31011
3.30201
3.30004
3.28945
3.28731
3.27492
3.27226
3.25834
3.25401
3.23817
3.23282
3.21432
3.2077
3.18642
3.1795
3.15958
3.14082
3.12519
3.09852
3.08434
3.04886
3.03505
2.99122
2.97554
2.92523
2.90208
2.84539
2.8138
2.74858
2.70968
2.63054
2.58646
2.50789
2.43425
2.36295
2.26882
2.2008
2.08887
2.02452
1.90073
1.84107
1.7115
1.65608
1.52921
1.4766
1.35622
1.30632
1.19469
1.14896
1.05632
1.0031
0.936315
0.880737
0.836234
0.782745
0.757161
0.711415
0.694561
0.660097
0.648678
0.625266
0.618299
0.604106
0.60071
0.593911
0.59326
0.590807
0.591807
0.593912
0.596802
0.603542
0.608619
0.620027
0.627184
0.642774
0.65256
0.671143
0.683226
0.702872
0.714922
0.730658
0.738094
0.743397
0.744946
4.33138
4.37802
4.36803
4.33646
4.3251
4.30732
4.30125
4.2954
4.29493
4.29479
4.29888
4.30608
4.31706
4.32946
4.3437
4.35916
4.3757
4.39387
4.41243
4.43119
4.45074
4.46882
4.48759
4.50326
4.51888
4.53033
4.54147
4.5481
4.55086
4.55015
4.54735
4.54002
4.53124
4.51732
4.50248
4.48252
4.46172
4.43727
4.41113
4.38324
4.35291
4.3221
4.28882
4.25544
4.21987
4.18459
4.14734
4.1107
4.07226
4.03464
3.99547
3.95713
3.91757
3.87866
3.83972
3.80116
3.76326
3.72556
3.68911
3.65294
3.61847
3.58453
3.55275
3.52172
3.49327
3.46575
3.44105
3.41748
3.39674
3.3774
3.36091
3.34661
3.33496
3.32535
3.31796
3.31249
3.30862
3.30623
3.30566
3.30522
3.30594
3.30719
3.30957
3.31256
3.31618
3.32051
3.32493
3.32981
3.33493
3.34063
3.34625
3.35222
3.35827
3.36434
3.3708
3.37679
3.38368
3.38953
3.39685
3.40257
3.41024
3.41595
3.42368
3.42936
3.43716
3.44275
3.45088
3.45731
3.46481
3.47248
3.47949
3.48859
3.49479
3.50508
3.5107
3.52183
3.52744
3.53874
3.54469
3.55621
3.56212
3.57369
3.57922
3.59151
3.59816
3.60654
3.61557
3.62138
3.6319
3.635
3.64527
3.6472
3.65636
3.6575
3.664
3.66393
3.66767
3.66575
3.66809
3.66185
3.66357
3.65869
3.64803
3.64528
3.62613
3.62192
3.59169
3.58352
3.54049
3.52527
3.46573
3.43907
3.36062
3.3164
3.21799
3.15946
3.03975
2.96733
2.84571
2.72445
2.61257
2.46007
2.35012
2.18183
2.07908
1.90361
1.81778
1.63953
1.56152
1.39537
1.32464
1.18364
1.12499
1.01654
0.972731
0.89925
0.870463
0.820894
0.793782
0.766582
0.743901
0.73369
0.719675
0.716301
0.713751
0.719746
0.72676
0.74174
0.75554
0.773535
0.785704
0.792357
0.794523
3.52794
3.72708
3.75504
3.75649
3.77986
3.78585
3.81442
3.82811
3.86053
3.88053
3.91607
3.94208
3.98137
4.01099
4.05298
4.08324
4.12514
4.15561
4.19209
4.22885
4.25984
4.29577
4.32316
4.35424
4.37749
4.40106
4.41765
4.43311
4.44149
4.4455
4.44398
4.43983
4.43014
4.41754
4.40032
4.38012
4.35617
4.32899
4.30214
4.26974
4.23876
4.20391
4.17014
4.13342
4.09782
4.05961
4.02354
3.98454
3.94818
3.90894
3.87227
3.8335
3.7967
3.75788
3.72007
3.6846
3.64644
3.61207
3.57534
3.54191
3.50665
3.47457
3.44089
3.41112
3.37962
3.35248
3.32377
3.2994
3.27424
3.25298
3.23115
3.21214
3.19698
3.18143
3.1709
3.15945
3.1529
3.14501