/*--------------------------------*- C++ -*----------------------------------*\
| =========                 |                                                 |
| \\      /  F ield         | OpenFOAM: The Open Source CFD Toolbox           |
|  \\    /   O peration     | Version:  4.1                                   |
|   \\  /    A nd           | Web:      www.OpenFOAM.org                      |
|    \\/     M anipulation  |                                                 |
\*---------------------------------------------------------------------------*/
FoamFile
{
    version     2.0;
    format      ascii;
    class       volScalarField;
    location    "14.5";
    object      p;
}
// * * * * * * * * * * * * * * * * * * * * * * * * * * * * * * * * * * * * * //

dimensions      [0 2 -2 0 0 0 0];

internalField   nonuniform List<scalar> 
204246
(
12.1898
-6.76471
-7.48893
-7.16349
-7.66003
-7.75102
-8.30669
-8.51606
-8.78669
-9.02436
-9.28759
-9.47795
-9.64428
-9.66718
-9.68195
-9.58914
-10.7042
-11.1246
-10.8121
-11.2212
-11.1292
-11.1825
-11.1997
-11.2623
-11.2947
-11.3851
-11.4541
-11.5624
-11.5717
-11.5844
-11.4553
-11.3471
-11.2008
-11.2642
-11.5061
-12.1234
-12.4233
-11.9451
-12.3621
-12.255
-12.2433
-12.2342
-12.3041
-12.3568
-12.4559
-12.4797
-12.5668
-12.5777
-12.6357
-12.5878
-12.5455
-12.4551
-13.3839
-13.7785
-13.3622
-13.8429
-13.7839
-13.8228
-13.8612
-13.9764
-14.0665
-14.1986
-14.2477
-14.3591
-14.3883
-14.4632
-14.4226
-14.3802
-14.2761
-15.2084
-15.6934
-15.3998
-15.7174
-15.6473
-15.6742
-15.664
-15.6754
-15.589
-16.1738
-16.0743
-16.1158
-16.1074
-16.1637
-16.1021
-16.0362
-15.8975
-16.8599
-17.3445
-17.0269
-17.3421
-17.2258
-17.1731
-17.0562
-17.6815
-17.6475
-17.7419
-17.7322
-17.7
-17.4204
-18.0737
-18.0094
-17.9899
-17.9089
-17.8739
-17.8071
-18.8857
-19.2628
-19.0457
-19.2381
-18.9766
-19.5908
-19.5371
-19.6553
-19.707
-19.7553
-19.5908
-20.135
-19.7938
-20.3633
-20.2265
-20.1583
-20.0057
-21.1609
-21.6408
-21.4163
-21.7967
-21.4497
-22.1209
-22.1787
-22.2413
-22.089
-22.7424
-22.4918
-23.1364
-22.8517
-23.479
-23.0937
-23.5765
-23.2857
-24.551
-25.1456
-25.0327
-25.5282
-25.2249
-25.8822
-25.6203
-26.3416
-26.0419
-26.7305
-26.4371
-27.1722
-27.2343
-27.3382
-27.2414
-27.1045
-26.7616
-27.9839
-28.2704
-27.6541
-27.7903
-27.1552
-26.6022
-25.8556
-25.0597
-23.9577
-22.6976
-21.0306
-19.1247
-16.7569
-14.1273
-11.0799
-7.84016
-3.22443
1.4169
6.80836
12.6837
19.5053
27.4243
36.0186
45.821
56.8103
69.4542
83.8104
100.353
119.048
140.162
163.573
189.851
219.942
259.428
319.415
415.043
543.656
4.1919
0.339776
-3.06849
-5.20621
-6.54638
-7.32839
-7.85713
-8.24944
-8.58463
-8.88209
-9.14517
-9.35942
-9.51634
-9.61181
-9.70841
-9.88125
-10.2279
-10.5517
-10.7513
-10.92
-11.032
-11.109
-11.1674
-11.2191
-11.2735
-11.3419
-11.4256
-11.5132
-11.5689
-11.5731
-11.4971
-11.3951
-11.339
-11.3841
-11.5422
-11.7723
-11.9453
-12.0264
-12.1121
-12.155
-12.1783
-12.2071
-12.2525
-12.3136
-12.3839
-12.4541
-12.52
-12.5654
-12.5844
-12.574
-12.5936
-12.7055
-12.9659
-13.2142
-13.3698
-13.5191
-13.6299
-13.7176
-13.8016
-13.895
-13.9986
-14.1078
-14.212
-14.3068
-14.3751
-14.4108
-14.4089
-14.4314
-14.5506
-14.8293
-15.1163
-15.3044
-15.4483
-15.5345
-15.5825
-15.6135
-15.6562
-15.7441
-15.8956
-16.009
-16.0809
-16.1228
-16.1285
-16.1033
-16.1065
-16.216
-16.4918
-16.7711
-16.9372
-17.0476
-17.099
-17.1379
-17.2222
-17.383
-17.5232
-17.6127
-17.6578
-17.673
-17.7149
-17.8533
-17.9416
-17.9499
-17.9352
-17.9614
-18.1071
-18.421
-18.7083
-18.8729
-19.0015
-19.1207
-19.2861
-19.428
-19.5346
-19.6233
-19.6876
-19.7734
-19.9135
-20.0167
-20.1377
-20.1749
-20.206
-20.3613
-20.7084
-21.0566
-21.2861
-21.4741
-21.6282
-21.8301
-22.0136
-22.1325
-22.2718
-22.4598
-22.6517
-22.8684
-23.0703
-23.2511
-23.3655
-23.4758
-23.6985
-24.1259
-24.5763
-24.9226
-25.2219
-25.4644
-25.6828
-25.9372
-26.1617
-26.4222
-26.6275
-26.911
-27.1704
-27.5007
-27.6555
-27.84
-27.7648
-27.9608
-28.1648
-28.3712
-28.4462
-28.4092
-28.3245
-27.9104
-27.587
-26.9375
-26.2461
-25.2454
-24.0215
-22.4803
-20.654
-18.5292
-16.0188
-13.128
-9.6293
-5.67028
-1.07578
4.04364
10.028
16.8608
24.4364
32.9627
42.395
53.0683
65.0464
78.7822
94.3243
111.943
131.252
152.022
173.876
198.905
234.811
300.256
397.029
-4.10661
-3.27874
-3.98694
-5.0437
-6.08647
-6.91387
-7.55878
-8.0397
-8.43763
-8.76535
-9.05147
-9.28366
-9.47044
-9.6241
-9.78523
-9.9882
-10.1986
-10.4091
-10.6142
-10.786
-10.9265
-11.0347
-11.1173
-11.1804
-11.2395
-11.3032
-11.3792
-11.461
-11.5326
-11.5546
-11.5323
-11.4797
-11.4659
-11.5027
-11.6002
-11.7108
-11.8172
-11.9248
-12.0109
-12.0716
-12.1173
-12.1622
-12.2089
-12.2672
-12.3331
-12.4108
-12.4805
-12.5433
-12.5781
-12.6178
-12.6797
-12.8032
-12.9442
-13.0946
-13.2569
-13.3994
-13.5219
-13.6285
-13.7298
-13.8282
-13.933
-14.0413
-14.1574
-14.2599
-14.3505
-14.4045
-14.4545
-14.5221
-14.6541
-14.8106
-14.9786
-15.1525
-15.3013
-15.4187
-15.4968
-15.5623
-15.6283
-15.7225
-15.8202
-15.9312
-16.0267
-16.1033
-16.1321
-16.1567
-16.2053
-16.3304
-16.4783
-16.6342
-16.7882
-16.906
-16.9992
-17.0808
-17.1835
-17.2886
-17.4068
-17.5005
-17.5766
-17.628
-17.7285
-17.8104
-17.9001
-17.9401
-17.9826
-18.06
-18.211
-18.3715
-18.5339
-18.6972
-18.8518
-19.0062
-19.1418
-19.2824
-19.3983
-19.5175
-19.5939
-19.7088
-19.8244
-19.9574
-20.0642
-20.1524
-20.2471
-20.4238
-20.6177
-20.8274
-21.0467
-21.2536
-21.4518
-21.6302
-21.8038
-21.9538
-22.1146
-22.2717
-22.4508
-22.6481
-22.8536
-23.0356
-23.204
-23.3797
-23.6172
-23.9128
-24.2311
-24.535
-24.8213
-25.0531
-25.3002
-25.5315
-25.7782
-26.0044
-26.2462
-26.4745
-26.7323
-26.9364
-27.1389
-27.2314
-27.3665
-27.4966
-27.7245
-27.849
-27.8406
-27.7529
-27.5242
-27.2081
-26.75
-26.17
-25.3982
-24.4026
-23.1488
-21.5798
-19.7636
-17.5782
-15.0905
-12.1454
-8.83412
-4.98814
-0.596334
4.49047
10.3065
16.8434
24.2688
32.5916
41.9277
52.322
64.0095
77.1807
92.1919
109.133
127.939
147.975
168.926
191.376
220.06
263.219
320.424
-7.35721
-5.4455
-5.2416
-5.59561
-6.18296
-6.80329
-7.38599
-7.87453
-8.29083
-8.64029
-8.93763
-9.18973
-9.39906
-9.58916
-9.77304
-9.96852
-10.1562
-10.3417
-10.5246
-10.6942
-10.8462
-10.9662
-11.0704
-11.1426
-11.2125
-11.2717
-11.3416
-11.4101
-11.4835
-11.5111
-11.5256
-11.505
-11.5213
-11.5493
-11.6213
-11.6823
-11.7608
-11.8478
-11.9286
-12.0006
-12.0499
-12.1031
-12.1511
-12.2099
-12.2709
-12.3481
-12.4131
-12.4828
-12.5279
-12.5921
-12.6684
-12.7795
-12.8952
-13.0237
-13.1623
-13.2999
-13.4329
-13.5406
-13.654
-13.7545
-13.8651
-13.9687
-14.0873
-14.1869
-14.2898
-14.3492
-14.4409
-14.5265
-14.6512
-14.776
-14.9148
-15.0593
-15.197
-15.3241
-15.4158
-15.5078
-15.5847
-15.679
-15.7563
-15.8726
-15.9459
-16.0525
-16.0854
-16.1578
-16.2154
-16.342
-16.4508
-16.5779
-16.706
-16.8166
-16.9358
-17.014
-17.134
-17.2161
-17.3418
-17.4092
-17.5187
-17.566
-17.685
-17.7474
-17.8616
-17.9048
-17.9878
-18.0702
-18.2241
-18.3365
-18.4867
-18.6317
-18.7637
-18.9307
-19.0439
-19.2037
-19.302
-19.4547
-19.5261
-19.6689
-19.7634
-19.9086
-20.0049
-20.1333
-20.2409
-20.4387
-20.5834
-20.7693
-20.966
-21.1404
-21.365
-21.5308
-21.7394
-21.88
-22.0821
-22.2221
-22.4342
-22.5949
-22.823
-22.9824
-23.197
-23.3672
-23.6547
-23.8833
-24.1607
-24.4563
-24.7296
-25.0483
-25.2779
-25.578
-25.7952
-26.093
-26.3067
-26.6405
-26.8604
-27.1818
-27.3609
-27.6164
-27.7662
-28.0405
-28.1889
-28.3777
-28.5288
-28.5806
-28.5605
-28.4221
-28.2237
-27.9027
-27.4764
-26.9069
-26.0953
-25.0492
-23.6239
-21.8718
-19.7182
-17.192
-14.2304
-10.8304
-6.90505
-2.41411
2.7847
8.70244
15.3879
22.9341
31.3685
40.806
51.3154
63.0722
76.164
90.6982
106.648
124.049
143.091
164.896
192.182
226.943
265.346
-8.57228
-6.71081
-6.30516
-6.32453
-6.59269
-6.98217
-7.41428
-7.83791
-8.22294
-8.56891
-8.86355
-9.12709
-9.35014
-9.56292
-9.7546
-9.95224
-10.1234
-10.3001
-10.4725
-10.6366
-10.7928
-10.9155
-11.0336
-11.1142
-11.1966
-11.2583
-11.332
-11.3857
-11.4666
-11.4837
-11.5312
-11.5185
-11.555
-11.5697
-11.6445
-11.6759
-11.7416
-11.8098
-11.8692
-11.9579
-11.9987
-12.0683
-12.1076
-12.1778
-12.2251
-12.3141
-12.3634
-12.4538
-12.4926
-12.5807
-12.6486
-12.7639
-12.8528
-12.9761
-13.1016
-13.2204
-13.371
-13.4695
-13.5995
-13.6934
-13.8178
-13.9111
-14.0469
-14.1312
-14.2579
-14.3168
-14.4305
-14.513
-14.6437
-14.7426
-14.8757
-15.0084
-15.1247
-15.2626
-15.3492
-15.4641
-15.5384
-15.6478
-15.7209
-15.8412
-15.9081
-16.0207
-16.0608
-16.1525
-16.2107
-16.3293
-16.4216
-16.5399
-16.6586
-16.7535
-16.8804
-16.9593
-17.0826
-17.1633
-17.2931
-17.3559
-17.4771
-17.5281
-17.65
-17.7064
-17.8253
-17.8776
-17.9789
-18.0532
-18.1916
-18.2972
-18.44
-18.5737
-18.6952
-18.853
-18.9697
-19.1308
-19.2242
-19.3839
-19.4617
-19.6126
-19.7087
-19.8545
-19.954
-20.0938
-20.2025
-20.3817
-20.5255
-20.7038
-20.8774
-21.0504
-21.2601
-21.4156
-21.6272
-21.7749
-21.982
-22.1295
-22.3438
-22.504
-22.7304
-22.8908
-23.1056
-23.2939
-23.5584
-23.7749
-24.0425
-24.306
-24.5779
-24.865
-25.1077
-25.3831
-25.6308
-25.8931
-26.1482
-26.4143
-26.6758
-26.9149
-27.1443
-27.3256
-27.5279
-27.7101
-27.9244
-28.0994
-28.1943
-28.22
-28.149
-27.9747
-27.6718
-27.2129
-26.6321
-25.8864
-25.0493
-24.0079
-22.7868
-21.2721
-19.4592
-17.2698
-14.6892
-11.6517
-8.1304
-4.05514
0.635104
5.95759
12.0299
18.9284
26.7433
35.5392
45.3605
56.1943
67.9817
80.6086
94.0484
108.403
124.28
143.038
166.408
194.432
222.399
-9.15909
-7.41794
-7.05475
-6.96946
-7.05675
-7.28491
-7.57538
-7.91101
-8.23261
-8.55033
-8.82896
-9.09214
-9.31964
-9.54351
-9.73869
-9.93933
-10.1021
-10.2727
-10.4386
-10.5998
-10.7571
-10.8782
-11.0064
-11.0916
-11.1858
-11.2484
-11.3276
-11.3724
-11.4535
-11.4765
-11.5333
-11.5338
-11.5743
-11.586
-11.6491
-11.6746
-11.7316
-11.7911
-11.83
-11.9159
-11.9554
-12.0298
-12.0672
-12.1425
-12.1853
-12.2767
-12.3221
-12.4184
-12.4591
-12.5582
-12.6216
-12.737
-12.8159
-12.9377
-13.059
-13.1549
-13.308
-13.4063
-13.5435
-13.6382
-13.7682
-13.8627
-13.9999
-14.0875
-14.2192
-14.2884
-14.41
-14.4925
-14.6216
-14.7162
-14.8414
-14.9694
-15.0732
-15.2082
-15.2989
-15.4195
-15.4965
-15.609
-15.6867
-15.8072
-15.8739
-15.9896
-16.039
-16.1402
-16.2007
-16.3142
-16.3995
-16.5125
-16.6186
-16.7099
-16.8303
-16.9132
-17.0309
-17.1158
-17.2409
-17.3079
-17.4297
-17.4909
-17.6117
-17.6717
-17.7898
-17.8558
-17.9569
-18.0444
-18.1601
-18.2711
-18.4022
-18.5244
-18.6469
-18.7781
-18.9066
-19.0565
-19.1565
-19.3116
-19.4015
-19.5426
-19.66
-19.7925
-19.9093
-20.041
-20.1652
-20.3181
-20.4683
-20.6374
-20.8005
-20.9704
-21.1559
-21.314
-21.5163
-21.6717
-21.873
-22.0297
-22.2387
-22.4042
-22.624
-22.7912
-23.0153
-23.2006
-23.4576
-23.6637
-23.9229
-24.1815
-24.4453
-24.7403
-24.9885
-25.289
-25.5339
-25.8394
-26.0876
-26.409
-26.6648
-26.994
-27.2268
-27.5658
-27.792
-28.1258
-28.274
-28.5148
-28.8379
-28.975
-29.1434
-29.1923
-29.2286
-29.2576
-29.1148
-28.8145
-28.248
-27.4534
-26.3815
-25.0402
-23.3844
-21.4058
-19.0553
-16.3134
-13.1264
-9.46318
-5.23187
-0.415729
5.0713
11.3427
18.4816
26.5788
35.6451
45.6599
56.5033
68.0495
80.2449
93.1533
107.258
123.745
143.412
166.114
187.647
-9.45011
-7.87228
-7.56247
-7.46312
-7.47343
-7.60488
-7.79299
-8.04781
-8.30273
-8.57987
-8.831
-9.08304
-9.30538
-9.53254
-9.72754
-9.93278
-10.09
-10.2579
-10.4184
-10.5787
-10.7389
-10.8539
-10.9897
-11.0768
-11.1793
-11.243
-11.3243
-11.3718
-11.4478
-11.4775
-11.5396
-11.548
-11.5963
-11.6013
-11.6585
-11.6779
-11.7295
-11.7835
-11.8117
-11.8895
-11.9244
-11.998
-12.034
-12.1104
-12.1525
-12.2456
-12.2876
-12.3864
-12.4287
-12.5321
-12.5938
-12.7081
-12.787
-12.9038
-13.0195
-13.1116
-13.2563
-13.3548
-13.4918
-13.5891
-13.7214
-13.8187
-13.9581
-14.0465
-14.1814
-14.2589
-14.3857
-14.4695
-14.5974
-14.6935
-14.8157
-14.9321
-15.036
-15.1653
-15.2592
-15.3802
-15.4624
-15.5696
-15.6607
-15.776
-15.8446
-15.9619
-16.0189
-16.1167
-16.1946
-16.2953
-16.3866
-16.4907
-16.5892
-16.6855
-16.7892
-16.8819
-16.9873
-17.0824
-17.1991
-17.2711
-17.393
-17.4608
-17.5825
-17.6483
-17.7575
-17.8414
-17.9405
-18.0309
-18.142
-18.2475
-18.3714
-18.4914
-18.6085
-18.7323
-18.8549
-19.0058
-19.1082
-19.2608
-19.3579
-19.5103
-19.6135
-19.7497
-19.8669
-20.0042
-20.1273
-20.2911
-20.4154
-20.5759
-20.7352
-20.8999
-21.0854
-21.2377
-21.4306
-21.5885
-21.7822
-21.9443
-22.1419
-22.3136
-22.5132
-22.6942
-22.8989
-23.0989
-23.3222
-23.5434
-23.7875
-24.0308
-24.2831
-24.5432
-24.7969
-25.0607
-25.323
-25.5866
-25.8584
-26.1252
-26.4029
-26.6641
-26.9334
-27.1701
-27.4179
-27.6203
-27.8839
-28.1189
-28.2951
-28.4165
-28.4558
-28.4088
-28.2613
-28.0223
-27.7612
-27.4195
-27.0557
-26.5504
-25.8805
-24.9647
-23.7727
-22.2518
-20.3758
-18.105
-15.4143
-12.2678
-8.6126
-4.44073
0.342909
5.82693
12.0981
19.2264
27.2263
36.0752
45.6963
56.0026
66.941
78.5887
91.3303
105.95
122.779
141.555
158.787
-9.60921
-8.17283
-7.91594
-7.82249
-7.80832
-7.88722
-8.01307
-8.20696
-8.40623
-8.64413
-8.86235
-9.09808
-9.3067
-9.53193
-9.72102
-9.93145
-10.0838
-10.2511
-10.409
-10.5664
-10.7306
-10.8419
-10.9787
-11.0707
-11.1767
-11.2444
-11.3273
-11.3772
-11.4539
-11.4836
-11.5512
-11.5615
-11.616
-11.6185
-11.6741
-11.6882
-11.7355
-11.7828
-11.8056
-11.8758
-11.9066
-11.9751
-12.011
-12.0833
-12.1267
-12.2164
-12.2596
-12.3556
-12.4022
-12.5037
-12.5669
-12.6779
-12.7593
-12.8721
-12.9814
-13.0744
-13.2132
-13.3113
-13.4457
-13.5453
-13.6773
-13.7778
-13.9175
-14.0088
-14.1444
-14.2283
-14.3574
-14.4446
-14.5668
-14.6734
-14.7895
-14.9
-15.0084
-15.1252
-15.228
-15.3397
-15.4328
-15.5357
-15.6313
-15.7442
-15.8156
-15.9309
-15.9941
-16.0929
-16.1758
-16.2739
-16.3653
-16.4644
-16.5595
-16.6543
-16.7531
-16.8445
-16.9465
-17.0418
-17.1541
-17.2278
-17.3454
-17.4182
-17.5349
-17.6049
-17.7175
-17.7968
-17.8991
-17.9934
-18.1043
-18.201
-18.3228
-18.437
-18.5522
-18.6757
-18.7866
-18.9305
-19.0351
-19.1799
-19.2828
-19.4252
-19.5356
-19.6751
-19.7921
-19.9338
-20.0552
-20.2059
-20.3341
-20.4933
-20.6491
-20.8082
-20.9853
-21.1404
-21.3273
-21.4867
-21.6818
-21.8438
-22.0457
-22.2163
-22.4273
-22.6029
-22.8251
-23.0187
-23.2532
-23.4522
-23.6848
-23.9363
-24.1946
-24.4701
-24.7298
-25.0154
-25.2828
-25.5798
-25.8572
-26.1668
-26.4552
-26.7768
-27.0752
-27.4058
-27.7047
-28.0283
-28.2969
-28.6007
-28.9191
-29.2231
-29.5173
-29.7647
-29.974
-30.11
-30.1117
-29.982
-29.668
-29.1966
-28.5357
-27.6839
-26.5945
-25.2444
-23.5801
-21.5733
-19.1796
-16.3738
-13.0948
-9.33266
-5.00796
-0.0503397
5.58996
11.9546
19.0531
26.8805
35.3903
44.5359
54.3109
64.8116
76.3489
89.3795
104.029
119.957
134.211
-9.66595
-8.35371
-8.1507
-8.07473
-8.05902
-8.11368
-8.20719
-8.35813
-8.51911
-8.72386
-8.91174
-9.12928
-9.31921
-9.53808
-9.71793
-9.92859
-10.0801
-10.2474
-10.4055
-10.5577
-10.7218
-10.8355
-10.9731
-11.0692
-11.179
-11.2505
-11.3368
-11.389
-11.4693
-11.4986
-11.5694
-11.5823
-11.6409
-11.6429
-11.6985
-11.7085
-11.7526
-11.7955
-11.8124
-11.877
-11.9034
-11.9668
-12.0009
-12.0684
-12.1112
-12.1949
-12.2397
-12.3316
-12.3814
-12.4797
-12.5447
-12.6512
-12.7324
-12.842
-12.9493
-13.0414
-13.1757
-13.2734
-13.4051
-13.5061
-13.6369
-13.7395
-13.8782
-13.9728
-14.1084
-14.1974
-14.3272
-14.4172
-14.5423
-14.6441
-14.759
-14.8694
-14.9778
-15.0928
-15.1945
-15.3049
-15.4001
-15.5037
-15.6006
-15.7129
-15.787
-15.8993
-15.9666
-16.0717
-16.1469
-16.2519
-16.3353
-16.4323
-16.5252
-16.6183
-16.7229
-16.8047
-16.9124
-16.9984
-17.1118
-17.1883
-17.3011
-17.378
-17.4901
-17.5654
-17.6762
-17.7564
-17.8633
-17.9512
-18.0642
-18.1551
-18.2726
-18.3872
-18.4952
-18.6202
-18.7292
-18.8636
-18.9718
-19.1087
-19.217
-19.3536
-19.468
-19.6011
-19.7211
-19.8582
-19.9829
-20.1227
-20.2514
-20.4062
-20.5596
-20.7135
-20.8782
-21.0292
-21.2015
-21.358
-21.5297
-21.7024
-21.886
-22.0645
-22.2531
-22.4379
-22.6359
-22.8326
-23.0404
-23.2588
-23.4909
-23.7226
-23.9646
-24.2086
-24.463
-24.718
-24.9845
-25.2511
-25.5288
-25.8048
-26.0913
-26.3722
-26.6634
-26.946
-27.2444
-27.5373
-27.8513
-28.1317
-28.3606
-28.5636
-28.7264
-28.8907
-29.0059
-29.08
-29.1353
-29.1327
-29.1369
-29.0431
-28.8246
-28.4178
-27.7946
-26.9102
-25.7295
-24.2119
-22.3216
-20.0221
-17.254
-14.0014
-10.2082
-5.82452
-0.822455
4.82024
11.0993
18.0064
25.518
33.6252
42.3475
51.8037
62.2298
73.8941
86.8309
100.648
112.793
-9.61654
-8.44025
-8.28873
-8.23744
-8.23196
-8.28178
-8.36033
-8.48445
-8.62291
-8.79812
-8.96651
-9.16242
-9.33863
-9.54394
-9.71521
-9.91936
-10.0705
-10.2415
-10.3991
-10.5489
-10.7085
-10.8244
-10.9642
-11.0647
-11.1784
-11.2556
-11.345
-11.4031
-11.4871
-11.5171
-11.5924
-11.6073
-11.6707
-11.6748
-11.732
-11.7417
-11.7836
-11.8214
-11.8378
-11.8955
-11.92
-11.9772
-12.0103
-12.0723
-12.1128
-12.1886
-12.2334
-12.3196
-12.3715
-12.466
-12.5328
-12.6341
-12.7116
-12.8169
-12.9226
-13.0138
-13.1437
-13.2421
-13.3691
-13.4721
-13.5991
-13.703
-13.839
-13.9368
-14.0716
-14.1641
-14.2953
-14.388
-14.5108
-14.6079
-14.7221
-14.8368
-14.9401
-15.0583
-15.1559
-15.2685
-15.3609
-15.4676
-15.5607
-15.6744
-15.751
-15.8613
-15.9319
-16.0366
-16.1116
-16.2155
-16.2943
-16.3913
-16.4863
-16.5742
-16.6787
-16.7607
-16.865
-16.9497
-17.0583
-17.1392
-17.2477
-17.3283
-17.4362
-17.5163
-17.6241
-17.7071
-17.8145
-17.9026
-18.0135
-18.1023
-18.2172
-18.3293
-18.4367
-18.5623
-18.6686
-18.8
-18.9062
-19.0409
-19.1485
-19.2886
-19.4019
-19.539
-19.6563
-19.7985
-19.9209
-20.0663
-20.1862
-20.3359
-20.4885
-20.6407
-20.8042
-20.9585
-21.146
-21.2965
-21.496
-21.65
-21.8414
-22.0088
-22.2065
-22.3878
-22.5973
-22.7922
-23.0076
-23.2041
-23.4258
-23.6657
-23.9136
-24.1738
-24.4315
-24.7076
-24.976
-25.2671
-25.5503
-25.8574
-26.1554
-26.4773
-26.789
-27.1252
-27.4491
-27.7949
-28.1208
-28.4737
-28.8401
-29.2013
-29.5603
-29.8903
-30.1872
-30.4117
-30.5563
-30.6115
-30.5613
-30.4204
-30.181
-29.8373
-29.3605
-28.7095
-27.8403
-26.7048
-25.2513
-23.4234
-21.1569
-18.4277
-15.1874
-11.3969
-7.04064
-2.1073
3.39296
9.45093
16.0552
23.2192
30.9865
39.4811
48.8857
59.3681
70.9266
83.1328
93.7359
-9.47018
-8.44886
-8.34542
-8.32325
-8.33435
-8.39053
-8.46496
-8.57767
-8.70216
-8.85738
-9.01231
-9.18933
-9.35576
-9.54381
-9.70957
-9.89996
-10.0539
-10.2267
-10.3833
-10.5311
-10.682
-10.8037
-10.9429
-11.0499
-11.1654
-11.2508
-11.3429
-11.409
-11.4898
-11.5299
-11.6033
-11.6282
-11.6944
-11.7032
-11.7597
-11.7774
-11.8184
-11.8529
-11.8733
-11.9247
-11.9514
-12.0036
-12.0364
-12.0933
-12.1304
-12.2025
-12.2428
-12.3267
-12.3746
-12.4672
-12.5331
-12.6302
-12.7016
-12.8002
-12.9001
-12.9968
-13.1195
-13.219
-13.3362
-13.4441
-13.5638
-13.6701
-13.8019
-13.901
-14.0327
-14.1284
-14.2569
-14.3582
-14.4723
-14.5734
-14.6839
-14.7951
-14.9051
-15.0172
-15.1186
-15.2266
-15.3236
-15.4271
-15.5199
-15.6306
-15.7113
-15.8185
-15.8944
-15.9971
-16.0759
-16.1746
-16.2518
-16.3457
-16.44
-16.5304
-16.6319
-16.7149
-16.8156
-16.9001
-17.0053
-17.0874
-17.1934
-17.2755
-17.3809
-17.4607
-17.5666
-17.6536
-17.7584
-17.8486
-17.9536
-18.0416
-18.1531
-18.2616
-18.3723
-18.4908
-18.5953
-18.7216
-18.8277
-18.9561
-19.064
-19.1954
-19.3126
-19.4432
-19.5634
-19.6982
-19.8223
-19.9572
-20.0787
-20.2252
-20.3757
-20.5314
-20.6842
-20.8289
-20.9825
-21.1355
-21.297
-21.4649
-21.6421
-21.8252
-22.0086
-22.1961
-22.3866
-22.5823
-22.7817
-22.9906
-23.2097
-23.4324
-23.6645
-23.9003
-24.1476
-24.3985
-24.6615
-24.9285
-25.2078
-25.4907
-25.7855
-26.0828
-26.3919
-26.7033
-27.0285
-27.3586
-27.7054
-28.0518
-28.3865
-28.7173
-29.0344
-29.35
-29.6551
-29.989
-30.3178
-30.6218
-30.8778
-31.0383
-31.0841
-31.0003
-30.7743
-30.3936
-29.828
-29.0403
-27.9806
-26.5936
-24.8104
-22.5989
-19.9109
-16.7146
-13
-8.76242
-4.0125
1.24251
6.99971
13.2834
20.1584
27.7525
36.2179
45.6718
56.0945
67.0404
76.4776
-9.25328
-8.38626
-8.33089
-8.34242
-8.37521
-8.44357
-8.52122
-8.63216
-8.74922
-8.89408
-9.03847
-9.20341
-9.36048
-9.53589
-9.69523
-9.87384
-10.0279
-10.1973
-10.3529
-10.4986
-10.645
-10.769
-10.9069
-11.0184
-11.1355
-11.2274
-11.3232
-11.3954
-11.4761
-11.5265
-11.5975
-11.6336
-11.6944
-11.718
-11.7699
-11.7983
-11.8401
-11.8738
-11.9002
-11.9465
-11.9772
-12.0259
-12.0611
-12.114
-12.1535
-12.2183
-12.2619
-12.3366
-12.3877
-12.4716
-12.5405
-12.6278
-12.702
-12.7917
-12.8854
-12.9854
-13.0968
-13.1969
-13.3099
-13.416
-13.5332
-13.6423
-13.7645
-13.8722
-13.9934
-14.0991
-14.2185
-14.3257
-14.4392
-14.5407
-14.6498
-14.7592
-14.87
-14.9803
-15.0841
-15.1912
-15.2892
-15.3927
-15.4874
-15.5894
-15.6794
-15.7776
-15.8632
-15.9585
-16.0438
-16.135
-16.2172
-16.3066
-16.3981
-16.4909
-16.5856
-16.6757
-16.7712
-16.8605
-16.9586
-17.0465
-17.1458
-17.2336
-17.3323
-17.4149
-17.5242
-17.611
-17.7116
-17.8065
-17.9083
-17.9957
-18.1021
-18.2108
-18.3212
-18.4345
-18.542
-18.6754
-18.7772
-18.9136
-19.0148
-19.1488
-19.2615
-19.3916
-19.5119
-19.6476
-19.7733
-19.9088
-20.0285
-20.1709
-20.3171
-20.467
-20.6233
-20.7762
-20.9484
-21.0981
-21.2848
-21.4325
-21.6179
-21.7806
-21.9628
-22.1438
-22.341
-22.5321
-22.7378
-22.9313
-23.1444
-23.3715
-23.6072
-23.854
-24.102
-24.3651
-24.6264
-24.9064
-25.1854
-25.484
-25.7814
-26.0984
-26.4142
-26.7503
-27.0866
-27.4438
-27.7999
-28.1781
-28.5647
-28.9491
-29.3307
-29.6996
-30.0588
-30.3963
-30.7255
-31.0388
-31.3363
-31.6034
-31.8177
-31.9484
-31.9729
-31.8694
-31.6125
-31.1678
-30.4901
-29.5261
-28.2109
-26.5046
-24.3603
-21.7483
-18.6617
-15.0991
-11.0719
-6.58502
-1.63661
3.80592
9.81854
16.5448
24.1304
32.6714
42.1358
52.0731
60.6133
-8.98632
-8.26293
-8.25595
-8.30287
-8.36031
-8.44549
-8.53209
-8.6468
-8.76253
-8.90306
-9.04106
-9.19866
-9.3487
-9.5155
-9.66791
-9.83837
-9.98885
-10.1539
-10.3072
-10.4512
-10.5961
-10.72
-10.8566
-10.97
-11.0891
-11.1856
-11.2852
-11.3619
-11.4458
-11.5031
-11.5759
-11.6193
-11.6803
-11.7125
-11.7654
-11.7995
-11.8435
-11.8797
-11.9112
-11.9556
-11.9893
-12.0366
-12.0738
-12.1243
-12.1661
-12.226
-12.272
-12.3404
-12.3936
-12.4711
-12.5387
-12.6219
-12.6954
-12.782
-12.8716
-12.9675
-13.0737
-13.1718
-13.2823
-13.3854
-13.5007
-13.6085
-13.7287
-13.8357
-13.9564
-14.0622
-14.1818
-14.2888
-14.4045
-14.5066
-14.6162
-14.7252
-14.8349
-14.946
-15.0502
-15.1585
-15.2567
-15.3614
-15.4567
-15.5594
-15.6492
-15.7482
-15.8338
-15.9294
-16.0142
-16.1051
-16.1868
-16.2755
-16.364
-16.4553
-16.5468
-16.6375
-16.7309
-16.819
-16.9128
-17.0006
-17.0956
-17.1831
-17.276
-17.3627
-17.4598
-17.552
-17.6503
-17.7453
-17.8428
-17.9356
-18.0373
-18.1412
-18.2505
-18.3604
-18.4712
-18.5842
-18.6949
-18.8117
-18.9259
-19.0481
-19.1662
-19.2902
-19.4141
-19.5435
-19.6709
-19.7979
-19.9174
-20.0561
-20.1956
-20.343
-20.4916
-20.6428
-20.7921
-20.9403
-21.1018
-21.2583
-21.4333
-21.6063
-21.7835
-21.9644
-22.1499
-22.3389
-22.5311
-22.73
-22.9402
-23.1555
-23.3801
-23.6102
-23.8499
-24.0964
-24.3528
-24.6176
-24.8933
-25.1784
-25.4748
-25.7809
-26.0982
-26.4253
-26.765
-27.1177
-27.4879
-27.877
-28.2777
-28.6941
-29.1211
-29.5569
-29.9937
-30.4281
-30.8543
-31.2721
-31.6767
-32.0607
-32.4138
-32.7202
-32.9612
-33.1126
-33.1497
-33.0385
-32.7359
-32.1885
-31.3341
-30.1253
-28.5158
-26.475
-23.997
-21.0827
-17.7468
-13.9965
-9.8287
-5.20686
-0.0450646
5.81588
12.5441
20.2412
28.8691
37.9834
45.8367
-8.67934
-8.0916
-8.13185
-8.21369
-8.29707
-8.40108
-8.50126
-8.62336
-8.7428
-8.88295
-9.01865
-9.17187
-9.31729
-9.47835
-9.62599
-9.78987
-9.93629
-10.0969
-10.2472
-10.3897
-10.5341
-10.6589
-10.7942
-10.9087
-11.0289
-11.1288
-11.2317
-11.3132
-11.4008
-11.4634
-11.5391
-11.5882
-11.6516
-11.6904
-11.7459
-11.7841
-11.831
-11.8712
-11.9068
-11.9525
-11.988
-12.0363
-12.0746
-12.1257
-12.168
-12.2259
-12.2729
-12.3377
-12.3914
-12.4646
-12.5295
-12.61
-12.6825
-12.7683
-12.8549
-12.9458
-13.0473
-13.1438
-13.2521
-13.3528
-13.4659
-13.5713
-13.6898
-13.795
-13.9151
-14.0196
-14.1392
-14.2458
-14.3631
-14.4662
-14.5773
-14.6867
-14.7959
-14.9082
-15.0123
-15.1225
-15.2213
-15.328
-15.424
-15.5293
-15.6191
-15.7211
-15.8066
-15.905
-15.9901
-16.0837
-16.1651
-16.2545
-16.3436
-16.4336
-16.5264
-16.6152
-16.7103
-16.7972
-16.8939
-16.9792
-17.0766
-17.1615
-17.2576
-17.3415
-17.4376
-17.5257
-17.6244
-17.7167
-17.8154
-17.9053
-18.0045
-18.1058
-18.2108
-18.32
-18.4321
-18.5486
-18.6561
-18.7748
-18.8834
-19.0039
-19.1177
-19.2422
-19.3632
-19.494
-19.6189
-19.75
-19.872
-20.0048
-20.1427
-20.2855
-20.435
-20.5865
-20.746
-20.8969
-21.0604
-21.2127
-21.3803
-21.5425
-21.7189
-21.894
-22.0815
-22.2662
-22.4626
-22.6487
-22.851
-23.0647
-23.2872
-23.52
-23.756
-24.0046
-24.2547
-24.5204
-24.789
-25.0751
-25.3656
-25.6742
-25.9878
-26.3192
-26.6554
-27.0089
-27.3687
-27.7514
-28.1515
-28.5699
-29.0067
-29.4596
-29.9274
-30.4061
-30.8957
-31.3896
-31.8858
-32.3767
-32.8567
-33.3155
-33.741
-34.1158
-34.4183
-34.6182
-34.6748
-34.5348
-34.1369
-33.4236
-32.3445
-30.8647
-28.9758
-26.6803
-23.9987
-20.9485
-17.533
-13.7197
-9.4156
-4.43848
1.41639
8.2862
16.1423
24.5659
31.9197
-8.32602
-7.88373
-7.96962
-8.08252
-8.19317
-8.31674
-8.43359
-8.56572
-8.69256
-8.83535
-8.97219
-9.12343
-9.26656
-9.42373
-9.56852
-9.72779
-9.87101
-10.0276
-10.1751
-10.3162
-10.4603
-10.5869
-10.7212
-10.8367
-10.9575
-11.06
-11.1658
-11.2523
-11.3431
-11.4116
-11.4896
-11.5453
-11.611
-11.6559
-11.714
-11.7553
-11.8061
-11.8506
-11.8897
-11.9383
-11.976
-12.0261
-12.0661
-12.1185
-12.1619
-12.2197
-12.2668
-12.3306
-12.3833
-12.4543
-12.5165
-12.5948
-12.6657
-12.7506
-12.8356
-12.9227
-13.0213
-13.1149
-13.2209
-13.3201
-13.4308
-13.5343
-13.6502
-13.7548
-13.8728
-13.9762
-14.0941
-14.1997
-14.3169
-14.4208
-14.5334
-14.6431
-14.7516
-14.8643
-14.9686
-15.0799
-15.1792
-15.2875
-15.3836
-15.4909
-15.5802
-15.6848
-15.7695
-15.8701
-15.9556
-16.0514
-16.1336
-16.2242
-16.314
-16.4037
-16.498
-16.5849
-16.6808
-16.7673
-16.8652
-16.9496
-17.0483
-17.1326
-17.2308
-17.3141
-17.4109
-17.4973
-17.595
-17.686
-17.7852
-17.874
-17.9725
-18.0709
-18.1727
-18.279
-18.3875
-18.5017
-18.607
-18.7231
-18.8298
-18.9469
-19.0572
-19.1763
-19.293
-19.4169
-19.5376
-19.6634
-19.7854
-19.9148
-20.0447
-20.1813
-20.3222
-20.4692
-20.619
-20.7677
-20.9239
-21.0777
-21.2397
-21.4003
-21.5703
-21.743
-21.9244
-22.1069
-22.2952
-22.4823
-22.6818
-22.8877
-23.1043
-23.329
-23.5616
-23.8025
-24.0489
-24.3074
-24.5729
-24.8528
-25.1415
-25.4465
-25.7615
-26.0942
-26.437
-26.7972
-27.1672
-27.5601
-27.9698
-28.3993
-28.849
-29.3198
-29.8119
-30.323
-30.8567
-31.407
-31.9743
-32.5524
-33.139
-33.7263
-34.3081
-34.8736
-35.4078
-35.886
-36.2737
-36.5205
-36.5678
-36.3468
-35.7978
-34.8749
-33.5621
-31.8601
-29.794
-27.3962
-24.6899
-21.6601
-18.2233
-14.1762
-9.25238
-3.24611
3.84216
11.6418
18.6227
-7.92392
-7.6441
-7.77547
-7.91612
-8.05587
-8.1999
-8.33554
-8.47973
-8.61657
-8.7644
-8.90513
-9.05664
-9.19957
-9.35396
-9.49715
-9.65311
-9.79462
-9.94813
-10.0936
-10.2336
-10.377
-10.5047
-10.6391
-10.756
-10.8779
-10.9827
-11.0912
-11.1818
-11.2767
-11.3509
-11.4324
-11.4932
-11.5625
-11.612
-11.6733
-11.718
-11.7721
-11.8207
-11.8634
-11.915
-11.9558
-12.0078
-12.0501
-12.104
-12.149
-12.2075
-12.2553
-12.3188
-12.371
-12.4403
-12.5007
-12.5768
-12.646
-12.7292
-12.8132
-12.8978
-12.9942
-13.0854
-13.1892
-13.2866
-13.3956
-13.4975
-13.6114
-13.7149
-13.831
-13.9338
-14.0496
-14.1538
-14.269
-14.3733
-14.4869
-14.5966
-14.7047
-14.8173
-14.9221
-15.0335
-15.1345
-15.2435
-15.3405
-15.4487
-15.5391
-15.6443
-15.7297
-15.8309
-15.9167
-16.0139
-16.0969
-16.1892
-16.2796
-16.3689
-16.4643
-16.55
-16.6468
-16.7317
-16.832
-16.9135
-17.0159
-17.0975
-17.2
-17.2802
-17.3815
-17.4663
-17.5638
-17.6536
-17.7543
-17.8427
-17.9427
-18.042
-18.1431
-18.2507
-18.3552
-18.4718
-18.5753
-18.6947
-18.7998
-18.9207
-19.0301
-19.1514
-19.2657
-19.3911
-19.5094
-19.6372
-19.7551
-19.8851
-20.0159
-20.1493
-20.2892
-20.4304
-20.5812
-20.7229
-20.8789
-21.0244
-21.1845
-21.3378
-21.5039
-21.6683
-21.8449
-22.0192
-22.2037
-22.3812
-22.574
-22.7732
-22.9811
-23.1978
-23.4228
-23.657
-23.8936
-24.1452
-24.4004
-24.6729
-24.9514
-25.2488
-25.5552
-25.8822
-26.2192
-26.5767
-26.9445
-27.3384
-27.7519
-28.1874
-28.6466
-29.1301
-29.6399
-30.1729
-30.7378
-31.3277
-31.9473
-32.5901
-33.259
-33.9493
-34.6604
-35.3858
-36.1173
-36.8345
-37.5131
-38.1103
-38.576
-38.8328
-38.8116
-38.4483
-37.7116
-36.5938
-35.1155
-33.3169
-31.2505
-28.9395
-26.3441
-23.2757
-19.3967
-14.3692
-8.14179
-0.986212
5.63652
-7.48993
-7.36968
-7.54818
-7.72031
-7.89153
-8.05799
-8.21422
-8.37219
-8.52106
-8.67582
-8.82244
-8.97579
-9.12022
-9.27319
-9.41588
-9.56916
-9.70996
-9.8611
-10.0051
-10.1445
-10.2871
-10.4162
-10.5508
-10.6697
-10.7928
-10.9004
-11.0113
-11.1062
-11.2049
-11.2848
-11.3701
-11.4358
-11.5085
-11.5624
-11.6265
-11.6752
-11.7324
-11.7847
-11.831
-11.8854
-11.9295
-11.9835
-12.0284
-12.0838
-12.1307
-12.1901
-12.2392
-12.3027
-12.3551
-12.4227
-12.4818
-12.5555
-12.6232
-12.7043
-12.787
-12.8698
-12.9645
-13.0539
-13.1555
-13.2513
-13.3585
-13.4592
-13.5715
-13.6742
-13.7888
-13.8911
-14.005
-14.1077
-14.2208
-14.3246
-14.4376
-14.5473
-14.6551
-14.7679
-14.873
-14.9845
-15.0866
-15.1961
-15.295
-15.4025
-15.4963
-15.6003
-15.6887
-15.7882
-15.8749
-15.9714
-16.0564
-16.1501
-16.2408
-16.3302
-16.4251
-16.5123
-16.6079
-16.694
-16.7933
-16.8766
-16.9775
-17.0609
-17.1623
-17.2447
-17.3454
-17.4302
-17.5276
-17.6148
-17.715
-17.8026
-17.9044
-18.0036
-18.1025
-18.2106
-18.3099
-18.4271
-18.5259
-18.6477
-18.748
-18.8732
-18.9807
-19.1036
-19.214
-19.3406
-19.4567
-19.5852
-19.6981
-19.832
-19.964
-20.0963
-20.237
-20.3743
-20.5257
-20.6647
-20.822
-20.9647
-21.1257
-21.2762
-21.4412
-21.6011
-21.775
-21.9445
-22.1274
-22.2989
-22.489
-22.6829
-22.8829
-23.0927
-23.3082
-23.5369
-23.7646
-24.0099
-24.2562
-24.5207
-24.7882
-25.0759
-25.37
-25.687
-26.0131
-26.3625
-26.7219
-27.1103
-27.5187
-27.9514
-28.4108
-28.8987
-29.4183
-29.964
-30.5505
-31.1661
-31.8237
-32.5116
-33.2421
-34.0081
-34.8201
-35.6688
-36.5546
-37.4613
-38.375
-39.2668
-40.1012
-40.8005
-41.2965
-41.5038
-41.3653
-40.8472
-39.9518
-38.7088
-37.1942
-35.4913
-33.6386
-31.5397
-28.8529
-25.056
-19.9343
-13.6015
-7.40293
-7.03647
-7.05872
-7.28948
-7.5002
-7.70599
-7.89714
-8.07537
-8.24855
-8.4111
-8.57456
-8.72867
-8.88556
-9.03314
-9.18591
-9.32864
-9.47941
-9.61967