/*--------------------------------*- C++ -*----------------------------------*\
| =========                 |                                                 |
| \\      /  F ield         | OpenFOAM: The Open Source CFD Toolbox           |
|  \\    /   O peration     | Version:  4.1                                   |
|   \\  /    A nd           | Web:      www.OpenFOAM.org                      |
|    \\/     M anipulation  |                                                 |
\*---------------------------------------------------------------------------*/
FoamFile
{
    version     2.0;
    format      ascii;
    class       volScalarField;
    location    "7";
    object      p;
}
// * * * * * * * * * * * * * * * * * * * * * * * * * * * * * * * * * * * * * //

dimensions      [0 2 -2 0 0 0 0];

internalField   nonuniform List<scalar> 
204246
(
-11.4936
-22.629
-23.401
-23.6107
-24.0472
-24.2274
-24.3931
-24.4827
-24.6779
-24.6538
-24.7099
-24.6285
-24.7551
-24.6085
-24.5153
-24.3441
-24.6057
-24.6383
-24.3972
-24.333
-23.9621
-23.7573
-23.508
-23.1596
-22.7799
-22.3763
-21.9185
-21.4237
-20.86
-20.3132
-19.722
-19.2896
-19.0896
-19.3286
-20.1756
-22.0966
-25.9796
-33.4896
-46.8391
-58.9569
-64.1941
-67.2625
-70.4189
-72.4329
-74.1254
-74.4907
-75.8257
-76.5283
-77.2179
-77.7104
-78.1639
-78.6002
-79.3966
-79.344
-77.5412
-76.411
-74.4845
-72.32
-70.0095
-67.7557
-65.6441
-64.0368
-61.9228
-60.6577
-59.4598
-58.6444
-57.8561
-57.2163
-57.2124
-58.191
-59.0469
-58.7484
-59.1856
-59.1553
-59.9837
-60.0642
-61.0722
-61.5701
-62.0656
-62.4549
-62.8764
-63.2641
-63.6712
-64.0161
-64.2611
-64.3654
-65.7995
-66.782
-66.9345
-67.0018
-66.9124
-67.5654
-67.5305
-68.3955
-68.0081
-68.769
-68.348
-69.2784
-69.3965
-69.5453
-69.6243
-69.68
-69.6948
-69.7384
-69.8031
-71.2754
-71.872
-71.1134
-71.6765
-71.4737
-72.1807
-71.6189
-72.265
-71.9102
-72.5487
-72.1666
-72.7862
-72.3698
-73.0388
-72.7937
-72.5692
-72.3258
-73.7682
-74.4293
-73.9148
-74.6128
-73.6846
-74.4536
-74.053
-74.8897
-74.9891
-74.9941
-74.8151
-75.5573
-75.2282
-76.0766
-76.0719
-76.1082
-76.1352
-77.8044
-78.7731
-78.8079
-79.7646
-79.7965
-80.893
-81.045
-82.5212
-83.4351
-84.4255
-85.3758
-86.2908
-87.0819
-88.9112
-89.8303
-90.6947
-91.4521
-93.9044
-95.3091
-95.6502
-96.7684
-96.718
-96.6392
-96.4967
-96.2842
-94.733
-93.7508
-91.3991
-89.4013
-86.1962
-83.2056
-78.9546
-74.6565
-69.7814
-64.3696
-58.3406
-51.7355
-44.3335
-36.0639
-27.059
-16.7978
-5.27211
7.8589
22.6306
39.3662
58.0733
78.9688
102.051
127.913
157.35
196.345
255.316
348.575
473.575
-17.9418
-19.5544
-21.4024
-22.6831
-23.5297
-24.0431
-24.3365
-24.5257
-24.6559
-24.7503
-24.7628
-24.7671
-24.7525
-24.7181
-24.6518
-24.639
-24.6153
-24.5828
-24.5147
-24.4097
-24.2596
-24.0549
-23.7948
-23.526
-23.216
-22.8648
-22.4494
-21.9676
-21.4279
-20.798
-20.1285
-19.5005
-19.0022
-18.7043
-18.8247
-19.8771
-22.3743
-28.2719
-43.4612
-57.6559
-65.5943
-68.1501
-69.8387
-72.0309
-73.8217
-74.7693
-75.4478
-76.2676
-77.0599
-77.8393
-78.4338
-79.0934
-79.5207
-79.598
-79.2083
-78.3572
-76.6738
-74.5167
-72.0772
-69.5765
-67.2293
-65.0512
-63.1369
-61.4562
-60.1297
-59.0909
-58.1892
-57.4984
-57.4236
-57.7185
-58.076
-58.3428
-58.6934
-59.0357
-59.4606
-59.9282
-60.4919
-61.1193
-61.6278
-62.1847
-62.6011
-63.1095
-63.4927
-63.9428
-64.1719
-64.4964
-65.1804
-65.8967
-66.4287
-66.7165
-66.9414
-67.2206
-67.5546
-67.8883
-68.1531
-68.3666
-68.5714
-68.8761
-69.2802
-69.4418
-69.7161
-69.7719
-69.8713
-69.8639
-70.0711
-70.601
-71.1427
-71.2818
-71.4175
-71.6129
-71.7942
-71.9083
-72.0172
-72.1801
-72.3049
-72.4711
-72.5944
-72.7756
-72.9327
-73.0309
-72.8293
-72.91
-73.3223
-73.7956
-73.9757
-74.1862
-74.2389
-74.2778
-74.4403
-74.6712
-74.9534
-74.9901
-75.1829
-75.36
-75.6478
-75.9233
-76.2333
-76.2801
-76.6422
-77.2583
-77.9456
-78.5669
-79.1881
-79.8262
-80.4011
-81.1221
-81.9463
-82.9614
-83.8826
-84.9603
-85.8447
-87.0579
-88.2812
-89.6009
-90.5935
-91.9192
-93.2695
-94.6291
-95.8245
-96.8144
-97.7146
-97.9607
-98.3291
-98.2526
-97.754
-97.1661
-95.8634
-94.1997
-91.9401
-89.2142
-85.8907
-82.0814
-77.7293
-72.906
-67.539
-61.6267
-54.9996
-47.6827
-39.6279
-30.6657
-20.7334
-9.54622
3.00944
17.2061
33.0796
50.6942
69.8474
90.4898
112.567
138.076
173.918
240.097
338.087
-23.9689
-22.8589
-22.7124
-23.034
-23.5118
-23.8991
-24.1993
-24.4138
-24.5808
-24.6796
-24.7282
-24.7344
-24.7321
-24.7162
-24.7175
-24.6938
-24.6562
-24.5931
-24.5122
-24.4046
-24.2828
-24.095
-23.8807
-23.6399
-23.3659
-23.0628
-22.6992
-22.2978
-21.8303
-21.3036
-20.7666
-20.2216
-19.7499
-19.4713
-19.725
-21.6443
-27.238
-33.775
-44.3613
-57.3274
-64.5747
-67.5054
-69.3615
-71.3059
-72.882
-73.9677
-74.8296
-75.5554
-76.4354
-77.3861
-78.2675
-78.995
-79.455
-79.614
-79.3406
-78.4239
-76.9016
-75.0447
-72.8288
-70.4677
-68.0275
-65.7045
-63.5945
-61.7853
-60.3765
-59.2054
-58.2779
-57.6458
-57.4636
-57.4402
-57.6069
-57.8796
-58.2439
-58.6821
-59.1447
-59.6859
-60.2198
-60.8014
-61.3534
-61.9114
-62.4115
-62.9235
-63.3653
-63.8159
-64.1817
-64.5986
-65.0721
-65.5707
-66.0262
-66.4237
-66.7743
-67.0544
-67.374
-67.6448
-67.9729
-68.1703
-68.4518
-68.6734
-68.9962
-69.1914
-69.4599
-69.6117
-69.7868
-69.9139
-70.1306
-70.3738
-70.6949
-70.9607
-71.1628
-71.3648
-71.5007
-71.6894
-71.7837
-71.965
-72.0484
-72.2079
-72.3063
-72.4744
-72.5937
-72.7286
-72.7561
-72.883
-73.0591
-73.319
-73.5416
-73.6977
-73.8438
-73.9099
-74.0619
-74.2041
-74.3915
-74.4884
-74.6491
-74.8061
-75.0374
-75.2643
-75.4985
-75.7451
-76.103
-76.587
-77.1022
-77.65
-78.2475
-78.8279
-79.4518
-80.1332
-80.9112
-81.726
-82.6182
-83.5414
-84.559
-85.6445
-86.8143
-88.0233
-89.2986
-90.6402
-92.0329
-93.3434
-94.4219
-95.3242
-96.0033
-96.4232
-96.46
-96.0847
-95.2914
-94.1007
-92.572
-90.6527
-88.3743
-85.6714
-82.5461
-78.9377
-74.8392
-70.1883
-64.966
-59.1101
-52.5619
-45.3572
-37.3425
-28.4731
-18.6088
-7.67291
4.5759
18.2625
33.6289
50.6541
69.2909
88.8975
109.428
131.32
160.389
203.815
261.384
-26.3849
-25.1944
-24.4557
-24.1533
-24.1325
-24.2397
-24.3835
-24.527
-24.6606
-24.7491
-24.8003
-24.81
-24.8303
-24.8548
-24.8509
-24.8162
-24.7774
-24.7236
-24.665
-24.6011
-24.4843
-24.3213
-24.1467
-23.9525
-23.7256
-23.4524
-23.1372
-22.7921
-22.3845
-21.9329
-21.4712
-21.0159
-20.6307
-20.4224
-20.5231
-21.7898
-26.7951
-35.4497
-45.4204
-57.1991
-64.2857
-68.0621
-70.2544
-71.8613
-73.3275
-74.5588
-75.19
-75.6823
-76.465
-77.3857
-78.3279
-79.1797
-79.8807
-80.3671
-80.6613
-80.3762
-78.9555
-77.0306
-74.668
-72.0398
-69.361
-66.7822
-64.4241
-62.4421
-60.8646
-59.5584
-58.5512
-57.8623
-57.519
-57.5615
-57.668
-57.8953
-58.1732
-58.6152
-59.0111
-59.5226
-60.0873
-60.6268
-61.1609
-61.7166
-62.2316
-62.7578
-63.2268
-63.6956
-64.1306
-64.5826
-65.0152
-65.4555
-65.88
-66.286
-66.6769
-67.0311
-67.3927
-67.6784
-68.0034
-68.2161
-68.5288
-68.7456
-69.0486
-69.2494
-69.5533
-69.7103
-69.9408
-70.0981
-70.3504
-70.5431
-70.7964
-71.0344
-71.2739
-71.5249
-71.6598
-71.8632
-71.969
-72.1585
-72.2628
-72.4723
-72.5933
-72.7845
-72.8918
-73.0518
-73.1115
-73.282
-73.4215
-73.6256
-73.805
-73.9761
-74.1906
-74.3033
-74.5038
-74.6423
-74.8637
-74.9822
-75.2078
-75.357
-75.6354
-75.8389
-76.1604
-76.4215
-76.8028
-77.1518
-77.6049
-78.1358
-78.7024
-79.3391
-80.0271
-80.7774
-81.5491
-82.4266
-83.295
-84.2596
-85.2464
-86.3412
-87.4837
-88.7263
-90.0272
-91.4297
-92.8469
-94.2664
-95.5839
-96.7801
-97.8761
-98.8408
-99.6609
-100.227
-100.541
-100.504
-99.7172
-98.3887
-96.4204
-93.9607
-90.9841
-87.5846
-83.7195
-79.4255
-74.6182
-69.288
-63.2814
-56.6435
-49.2828
-41.1333
-32.1205
-22.1398
-11.0939
1.14758
14.6236
29.3569
45.275
62.4392
81.2254
103.356
131.521
166.862
205.599
-27.7745
-26.5908
-25.7161
-25.1448
-24.8129
-24.6879
-24.6649
-24.6966
-24.7514
-24.7996
-24.8299
-24.8476
-24.8582
-24.8734
-24.8726
-24.8577
-24.8228
-24.7728
-24.7287
-24.6749
-24.5819
-24.4478
-24.3129
-24.1651
-23.9925
-23.7844
-23.5475
-23.2713
-22.9417
-22.5893
-22.2416
-21.9113
-21.6591
-21.5751
-21.79
-22.6689
-25.7403
-33.1292
-42.1903
-52.7789
-61.5936
-66.9207
-69.6572
-71.0671
-72.258
-73.3075
-74.2122
-74.8689
-75.6376
-76.5962
-77.6811
-78.7947
-79.6814
-80.2234
-80.1671
-79.8328
-79.4003
-78.0102
-75.9432
-73.407
-70.6183
-67.8479
-65.2464
-63.018
-61.1707
-59.6537
-58.5256
-57.6265
-57.1501
-57.0946
-57.1345
-57.3043
-57.622
-57.8366
-58.3366
-58.9176
-59.5653
-60.1969
-60.7464
-61.311
-61.847
-62.3618
-62.8689
-63.3505
-63.807
-64.243
-64.6864
-65.1204
-65.5334
-65.9319
-66.3005
-66.6529
-66.9643
-67.2806
-67.582
-67.8608
-68.1281
-68.4025
-68.6687
-68.9043
-69.1109
-69.3248
-69.5219
-69.7214
-69.9176
-70.1468
-70.3953
-70.6109
-70.8266
-71.0236
-71.2117
-71.4085
-71.5548
-71.7278
-71.8438
-71.9777
-72.1012
-72.239
-72.3596
-72.4765
-72.571
-72.6859
-72.8266
-73.0209
-73.1865
-73.3305
-73.4727
-73.5848
-73.7201
-73.8429
-73.9791
-74.0942
-74.2193
-74.3658
-74.5209
-74.71
-74.8682
-75.1071
-75.3284
-75.7561
-76.1772
-76.586
-77.026
-77.5195
-78.0869
-78.7113
-79.4201
-80.1829
-81.0253
-81.9225
-82.9024
-83.9519
-85.0952
-86.3176
-87.6351
-89.043
-90.5341
-92.0416
-93.458
-94.7467
-95.815
-96.5895
-96.9693
-97.0228
-96.6666
-96.0139
-95.1766
-94.0406
-92.5408
-90.6068
-88.2377
-85.3897
-82.0812
-78.2806
-73.9966
-69.1799
-63.7915
-57.8201
-51.1576
-43.7067
-35.3747
-26.096
-15.8496
-4.67239
7.35422
20.0796
33.4824
47.6568
63.3788
82.2028
105.779
134.143
162.286
-28.8821
-27.6962
-26.7543
-26.0433
-25.5435
-25.2457
-25.083
-25.0236
-25.0013
-24.9887
-24.9845
-24.9776
-24.9886
-24.9971
-24.9952
-24.9702
-24.9419
-24.9078
-24.8738
-24.831
-24.7434
-24.6417
-24.5346
-24.4187
-24.2776
-24.111
-23.9292
-23.7245
-23.4826
-23.2312
-22.9895
-22.7849
-22.6766
-22.7454
-23.143
-24.1594
-26.5441
-31.6617
-39.4607
-48.7801
-58.0157
-64.8678
-69.4229
-72.6143
-72.9583
-73.4361
-74.4672
-75.1495
-75.8841
-76.7151
-77.7311
-78.9309
-80.1479
-81.1754
-81.7844
-81.8322
-81.1684
-80.0547
-78.0075
-75.2596
-72.1728
-69.0845
-66.2499
-63.8287
-61.8449
-60.2136
-58.9634
-58.0056
-57.4717
-57.2329
-57.3269
-57.5647
-57.7796
-58.2765
-58.5307
-58.9597
-59.5296
-60.1258
-60.7099
-61.2814
-61.833
-62.3725
-62.8889
-63.4071
-63.8859
-64.3495
-64.7695
-65.1893
-65.6099
-66.017
-66.4116
-66.7786
-67.1336
-67.4429
-67.77
-68.057
-68.3544
-68.6205
-68.9102
-69.153
-69.4057
-69.6217
-69.8615
-70.0821
-70.3102
-70.4511
-70.6399
-70.9026
-71.1568
-71.3739
-71.5332
-71.7437
-71.8717
-72.064
-72.1914
-72.4169
-72.541
-72.7393
-72.8537
-73.0429
-73.1555
-73.3338
-73.4005
-73.5407
-73.7077
-73.8743
-74.0857
-74.2151
-74.4212
-74.5493
-74.7629
-74.8849
-75.1037
-75.2337
-75.4897
-75.6974
-75.9994
-76.2726
-76.6085
-76.8916
-77.2629
-77.7192
-78.2249
-78.7762
-79.3608
-80.024
-80.6805
-81.441
-82.2117
-83.0808
-83.9881
-85.0084
-86.1012
-87.3145
-88.6227
-90.0581
-91.5663
-93.1428
-94.6994
-96.2131
-97.6644
-99.0363
-100.33
-101.489
-102.431
-102.833
-102.468
-101.44
-99.8557
-97.7683
-95.2015
-92.214
-88.8039
-85.0044
-80.7932
-76.1692
-71.0322
-65.3987
-59.1455
-52.1554
-44.3416
-35.6608
-26.1193
-15.7466
-4.66241
7.04791
19.36
32.3723
46.6041
63.2774
83.0442
105.842
127.346
-29.6824
-28.5075
-27.5464
-26.7739
-26.1723
-25.7434
-25.4553
-25.2887
-25.1905
-25.1272
-25.0906
-25.0733
-25.0578
-25.054
-25.046
-25.0348
-25.006
-24.9784
-24.9614
-24.9274
-24.8692
-24.7928
-24.723
-24.6448
-24.5422
-24.4194
-24.2933
-24.1512
-23.9896
-23.8264
-23.6839
-23.5904
-23.5905
-23.7486
-24.21
-25.2194
-27.2456
-31.0196
-36.9791
-44.7521
-53.3182
-61.0352
-66.8177
-69.5183
-71.3814
-73.0497
-73.7607
-74.1402
-74.958
-75.883
-76.9537
-78.1883
-79.5018
-80.7701
-81.8141
-82.4507
-82.1371
-81.4443
-79.6893
-77.1441
-74.0353
-70.7464
-67.6277
-64.8448
-62.4616
-60.4888
-59.0029
-57.8163
-57.0834
-56.7994
-56.8384
-56.9307
-57.0549
-57.3234
-57.858
-58.363
-58.911
-59.5477
-60.1683
-60.7289
-61.2887
-61.8492
-62.3695
-62.8832
-63.3639
-63.8266
-64.2793
-64.721
-65.129
-65.5247
-65.9042
-66.274
-66.6171
-66.9361
-67.2295
-67.5244
-67.7901
-68.0636
-68.3128
-68.5876
-68.8314
-69.0687
-69.2705
-69.496
-69.7054
-69.9581
-70.1874
-70.3793
-70.5712
-70.7669
-70.9837
-71.1846
-71.3693
-71.5297
-71.6671
-71.7701
-71.9216
-72.0381
-72.1856
-72.2905
-72.4191
-72.5216
-72.6901
-72.8492
-72.9659
-73.1009
-73.2126
-73.348
-73.4632
-73.6017
-73.7043
-73.8269
-73.9099
-74.0434
-74.1318
-74.2929
-74.3487
-74.5608
-74.6546
-74.995
-75.3432
-75.7256
-76.1477
-76.6185
-77.1494
-77.7304
-78.3855
-79.0947
-79.8738
-80.7102
-81.6215
-82.61
-83.6983
-84.89
-86.2038
-87.6397
-89.1907
-90.8099
-92.4328
-94.0359
-95.5615
-96.9421
-98.0649
-98.8337
-99.0994
-99.1594
-99.046
-98.6236
-97.8226
-96.5462
-94.7974
-92.5424
-89.8133
-86.6129
-82.9689
-78.8712
-74.2857
-69.2171
-63.5935
-57.3354
-50.3982
-42.7388
-34.3609
-25.2599
-15.4905
-5.06474
6.02407
17.8669
30.8417
45.6982
62.6139
81.3649
98.4892
-30.2887
-29.1475
-28.1823
-27.3941
-26.7519
-26.2611
-25.8923
-25.6495
-25.482
-25.391
-25.308
-25.2511
-25.2194
-25.1942
-25.1763
-25.1495
-25.129
-25.1088
-25.0884
-25.062
-25.0127
-24.9643
-24.9163
-24.8611
-24.7855
-24.7038
-24.6273
-24.5453
-24.4506
-24.3655
-24.3102
-24.3101
-24.401
-24.6373
-25.1238
-26.0397
-27.7016
-30.5601
-35.0029
-41.0673
-48.2999
-55.7379
-62.3803
-67.1858
-70.2523
-72.168
-73.3288
-74.3546
-75.2392
-76.1254
-77.1227
-78.2924
-79.6574
-81.0847
-82.3718
-83.408
-84.4597
-83.2263
-81.5893
-79.0698
-75.8785
-72.4196
-68.9929
-65.8019
-63.2759
-61.4079
-59.7778
-58.4008
-57.5206
-57.132
-57.1916
-57.433
-57.7287
-57.8803
-58.0104
-58.4513
-59.0609
-59.5849
-60.2151
-60.8133
-61.3724
-61.916
-62.4674
-63.0063
-63.522
-64.0307
-64.4786
-64.9003
-65.3195
-65.7328
-66.1305
-66.5093
-66.8757
-67.2104
-67.5473
-67.8463
-68.1607
-68.4321
-68.7217
-68.9638
-69.2278
-69.4562
-69.7009
-69.9131
-70.1472
-70.3143
-70.5213
-70.746
-70.9624
-71.1711
-71.358
-71.5765
-71.7441
-71.9575
-72.0938
-72.3283
-72.4454
-72.6255
-72.7552
-72.9399
-73.0646
-73.2547
-73.2798
-73.3922
-73.5702
-73.7532
-73.9398
-74.0655
-74.2583
-74.375
-74.6018
-74.7084
-74.9275
-75.0249
-75.2676
-75.4214
-75.7265
-75.933
-76.2563
-76.3996
-76.6597
-77.0103
-77.4149
-77.8672
-78.3441
-78.8905
-79.453
-80.0939
-80.7742
-81.5367
-82.3582
-83.2727
-84.2703
-85.3911
-86.6384
-88.04
-89.5795
-91.2643
-93.0382
-94.8821
-96.7523
-98.5872
-100.334
-101.913
-103.255
-104.189
-104.553
-104.232
-103.242
-101.72
-99.7396
-97.3437
-94.5567
-91.3874
-87.8289
-83.8816
-79.4896
-74.665
-69.3495
-63.5112
-57.1171
-50.1498
-42.6065
-34.4778
-25.7702
-16.4696
-6.51426
4.21709
16.0333
29.2851
44.0111
59.8698
73.9522
-30.5858
-29.5027
-28.573
-27.7946
-27.1527
-26.6275
-26.2148
-25.9062
-25.6809
-25.5334
-25.4325
-25.3579
-25.306
-25.2764
-25.2465
-25.2278
-25.203
-25.186
-25.1771
-25.1566
-25.1307
-25.1009
-25.0803
-25.0498
-25.0041
-24.9591
-24.9261
-24.8912
-24.856
-24.8359
-24.8534
-24.9296
-25.0951
-25.3909
-25.9025
-26.7556
-28.1553
-30.3802
-33.7225
-38.3264
-44.0555
-50.4226
-56.7186
-62.1779
-66.4644
-69.6299
-71.744
-73.1097
-74.1405
-75.2226
-76.4285
-77.6785
-79.0423
-80.4384
-81.7167
-82.5845
-82.8117
-82.8835
-81.6924
-79.6034
-76.8596
-73.7076
-70.4799
-67.4407
-64.6894
-62.2781
-60.2911
-58.7771
-57.6546
-56.9009
-56.7372
-56.902
-57.0605
-57.2378
-57.6208
-58.0352
-58.5475
-59.0618
-59.6577
-60.3089
-60.8741
-61.4155
-61.9577
-62.4645
-62.9591
-63.4511
-63.9397
-64.3942
-64.8139
-65.2216
-65.6054
-65.9807
-66.3273
-66.6579
-66.9515
-67.2486
-67.5241
-67.8113
-68.09
-68.3787
-68.6398
-68.8861
-69.0949
-69.3212
-69.5326
-69.7655
-69.9901
-70.2073
-70.4294
-70.6486
-70.8604
-71.0076
-71.197
-71.3116
-71.4943
-71.6164
-71.7942
-71.8996
-72.0672
-72.1585
-72.3143
-72.4245
-72.6107
-72.7499
-72.8315
-72.9524
-73.0036
-73.1866
-73.3095
-73.46
-73.5336
-73.6721
-73.7116
-73.8406
-73.8793
-73.9564
-74.0198
-74.1518
-74.3007
-74.5435
-74.8363
-75.1825
-75.5723
-76.0115
-76.4967
-77.0245
-77.6087
-78.2399
-78.9325
-79.6808
-80.5027
-81.3971
-82.3859
-83.4777
-84.6955
-86.0542
-87.5677
-89.2391
-91.0325
-92.9298
-94.8932
-96.873
-98.7875
-100.534
-101.946
-102.923
-103.409
-103.501
-103.293
-102.594
-101.338
-99.567
-97.3155
-94.627
-91.5124
-87.9873
-84.0211
-79.6455
-74.8125
-69.5082
-63.722
-57.4494
-50.6759
-43.3959
-35.6065
-27.2755
-18.3293
-8.59952
2.10501
13.9483
26.932
40.6786
52.614
-30.6814
-29.6836
-28.8217
-28.0875
-27.4797
-26.9655
-26.5498
-26.2225
-25.9708
-25.7888
-25.6481
-25.5448
-25.4722
-25.4201
-25.3822
-25.3447
-25.323
-25.3082
-25.2941
-25.2814
-25.2593
-25.2484
-25.2405
-25.2284
-25.2072
-25.1934
-25.1925
-25.1992
-25.2096
-25.2437
-25.3193
-25.454
-25.6702
-26.0098
-26.5336
-27.3314
-28.5503
-30.3628
-32.9644
-36.5023
-40.9779
-46.1807
-51.6876
-56.9748
-61.6516
-65.532
-68.5797
-70.8955
-72.7061
-74.2103
-75.5863
-77.0196
-78.4101
-79.8121
-81.1614
-82.1952
-82.4533
-82.4534
-81.5656
-79.7918
-77.3305
-74.4389
-71.3943
-68.4766
-65.8626
-63.5776
-61.6912
-60.2008
-58.9434
-57.9696
-57.6195
-57.6731
-57.9495
-57.7206
-57.6873
-57.9778
-58.6283
-59.3668
-59.7823
-60.3055
-60.8663
-61.4489
-62.0303
-62.5874
-63.0986
-63.6357
-64.0997
-64.5249
-64.9514
-65.3827
-65.7924
-66.1832
-66.5828
-66.943
-67.2649
-67.562
-67.8651
-68.1341
-68.4149
-68.6854
-68.9709
-69.2308
-69.4782
-69.6949
-69.9223
-70.1075
-70.3113
-70.5241
-70.7445
-70.975
-71.1929
-71.4287
-71.6068
-71.8307
-71.9628
-72.1542
-72.286
-72.473
-72.5985
-72.781
-72.906
-73.09
-73.1298
-73.248
-73.4147
-73.5704
-73.732
-73.8494
-74.0404
-74.1872
-74.4089
-74.5322
-74.6958
-74.7821
-74.9666
-75.0508
-75.2952
-75.4098
-75.6593
-75.7288
-75.8888
-76.1339
-76.4459
-76.8042
-77.2018
-77.6647
-78.1502
-78.6995
-79.2913
-79.9476
-80.6729
-81.4885
-82.3964
-83.4072
-84.5407
-85.8206
-87.2756
-88.9355
-90.7853
-92.8083
-94.9775
-97.24
-99.5252
-101.727
-103.745
-105.44
-106.665
-107.203
-106.937
-106.087
-104.738
-102.946
-100.749
-98.1897
-95.2834
-92.0293
-88.3968
-84.4259
-80.0719
-75.3021
-70.1193
-64.5131
-58.4699
-51.9745
-45.0129
-37.5596
-29.5231
-20.72
-11.0407
-0.413377
11.1615
23.2637
33.7031
-30.4833
-29.5885
-28.8141
-28.1558
-27.5829
-27.0985
-26.695
-26.3631
-26.1026
-25.9091
-25.7577
-25.6465
-25.5598
-25.4987
-25.4503
-25.4224
-25.3941
-25.3773
-25.3704
-25.36
-25.3566
-25.3573
-25.3686
-25.3759
-25.3793
-25.3908
-25.4208
-25.4586
-25.5094
-25.5867
-25.708
-25.8863
-26.1453
-26.5124
-27.0357
-27.7857
-28.8686
-30.394
-32.4931
-35.2881
-38.8231
-43.0241
-47.6599
-52.4038
-56.936
-61.0169
-64.513
-67.3985
-69.7718
-71.7608
-73.5017
-75.0939
-76.5348
-77.9484
-79.1721
-80.1057
-80.4251
-80.6413
-80.1162
-78.8543
-76.9537
-74.606
-72.0056
-69.3713
-66.8639
-64.5817
-62.6241
-60.9953
-59.5971
-58.6309
-58.0812
-57.5889
-57.0634
-57.4203
-57.5319
-57.7614
-58.1792
-58.852
-59.5975
-60.1508
-60.5339
-60.9951
-61.498
-61.9966
-62.539
-63.0917
-63.6258
-64.1168
-64.5426
-64.9501
-65.3181
-65.6915
-66.0415
-66.3971
-66.7227
-67.0263
-67.3153
-67.6098
-67.9049
-68.1973
-68.4765
-68.7312
-68.9505
-69.1821
-69.3897
-69.6049
-69.8256
-70.0435
-70.2633
-70.48
-70.6979
-70.8937
-71.0845
-71.2135
-71.3948
-71.5307
-71.6948
-71.8169
-71.977
-72.089
-72.2486
-72.3812
-72.5653
-72.7009
-72.7289
-72.8653
-72.9271
-73.09
-73.1611
-73.3472
-73.4262
-73.6195
-73.665
-73.7764
-73.7948
-73.8493
-73.8967
-73.988
-74.0831
-74.2648
-74.5099
-74.8039
-75.1341
-75.5061
-75.9142
-76.3757
-76.88
-77.4223
-78.0124
-78.6434
-79.3304
-80.0946
-80.9517
-81.9078
-82.978
-84.1876
-85.5653
-87.1544
-88.9687
-91.0196
-93.2827
-95.716
-98.2664
-100.847
-103.333
-105.574
-107.39
-108.627
-109.14
-108.924
-107.949
-106.357
-104.29
-101.847
-99.0776
-96.018
-92.663
-89.0475
-85.1187
-80.8553
-76.2439
-71.2654
-65.917
-60.1661
-53.9887
-47.3557
-40.1648
-32.2423
-23.4973
-13.9136
-3.50613
7.30608
16.5947
-30.0777
-29.3271
-28.6932
-28.1435
-27.6416
-27.2237
-26.8595
-26.5635
-26.3127
-26.1018
-25.935
-25.8038
-25.7116
-25.6383
-25.5823
-25.5322
-25.5037
-25.4877
-25.4769
-25.4735
-25.4692
-25.4812
-25.4986
-25.5163
-25.5353
-25.5683
-25.6149
-25.6771
-25.7574
-25.8693
-26.0249
-26.2388
-26.5249
-26.9095
-27.431
-28.1405
-29.1168
-30.4339
-32.1812
-34.4491
-37.2941
-40.7024
-44.5525
-48.6542
-52.7851
-56.7351
-60.3445
-63.5235
-66.277
-68.6487
-70.7215
-72.5621
-74.223
-75.7571
-77.1143
-78.2622
-79.2258
-79.0029
-78.6303
-77.7238
-76.2813
-74.4163
-72.2809
-70.0437
-67.8424
-65.7818
-63.9648
-62.3842
-61.0528
-60.0109
-59.2893
-58.8517
-58.6792
-58.2336
-58.1626
-58.2644
-58.5364
-58.909
-59.3997
-59.9346
-60.4792
-61.0688
-61.711
-62.3061
-62.7331
-63.156
-63.6165
-64.0738
-64.5506
-65.0292
-65.5063
-65.9158
-66.2697
-66.6166
-66.9533
-67.2566
-67.533
-67.7859
-68.0724
-68.3608
-68.6686
-68.9635
-69.2611
-69.4816
-69.691
-69.8689
-70.07
-70.2874
-70.5153
-70.7512
-70.99
-71.2179
-71.4197
-71.6326
-71.7843
-71.9529
-72.0981
-72.2695
-72.4045
-72.5755
-72.7035
-72.883
-72.9591
-73.0836
-73.2413
-73.3595
-73.5055
-73.6095
-73.7908
-73.9522
-74.193
-74.3315
-74.4689
-74.5643
-74.6726
-74.7227
-74.808
-74.8341
-75.0331
-75.031
-75.1031
-75.2633
-75.5053
-75.8036
-76.1368
-76.5277
-76.9513
-77.4196
-77.9363
-78.5045
-79.1106
-79.782
-80.5469
-81.4106
-82.3852
-83.492
-84.7563
-86.2291
-87.9485
-89.9532
-92.2426
-94.7899
-97.5607
-100.471
-103.397
-106.172
-108.61
-110.501
-111.655
-111.906
-111.3
-109.938
-107.981
-105.59
-102.89
-99.9665
-96.8289
-93.503
-89.9429
-86.1442
-82.0672
-77.6797
-72.9781
-67.9407
-62.5227
-56.6661
-50.298
-43.2327
-35.3573
-26.6786
-17.2449
-7.46876
0.926237
-29.4427
-28.8562
-28.3451
-27.9025
-27.4863
-27.124
-26.815
-26.5353
-26.3164
-26.1198
-25.9749
-25.8626
-25.7609
-25.6871
-25.6284
-25.593
-25.5607
-25.5412
-25.5333
-25.5263
-25.5366
-25.5555
-25.5867
-25.621
-25.6622
-25.7159
-25.7862
-25.868
-25.9706
-26.1048
-26.2838
-26.5168
-26.8217
-27.2169
-27.73
-28.4028
-29.2978
-30.4632
-31.9593
-33.8576
-36.2071
-39.0182
-42.2305
-45.7395
-49.3954
-53.0432
-56.5341
-59.7641
-62.6862
-65.2874
-67.5914
-69.6272
-71.4317
-73.0358
-74.408
-75.5277
-76.3406
-76.6846
-76.6447
-76.1033
-75.1052
-73.7106
-72.0294
-70.1851
-68.2947
-66.4556
-64.7561
-63.2371
-61.9237
-60.824
-59.9741
-59.3104
-58.7567
-58.6741
-58.5364
-58.5236
-58.6644
-58.9479
-59.3529
-59.8061
-60.2485
-60.6825
-61.1736
-61.7245
-62.3015
-62.9148
-63.4046
-63.7871
-64.1624
-64.546
-64.9334
-65.3254
-65.7201
-66.0983
-66.4719
-66.815
-67.1157
-67.4053
-67.7047
-67.9965
-68.2576
-68.5201
-68.7612
-69.0096
-69.2351
-69.4418
-69.6514
-69.8708
-70.0994
-70.3338
-70.5738
-70.803
-71.0064
-71.1492
-71.3225
-71.4669
-71.6165
-71.7438
-71.8905
-72.0229
-72.1817
-72.3494
-72.5259
-72.6717
-72.7271
-72.823
-72.8787
-72.9702
-73.0526
-73.2028
-73.3878
-73.5945
-73.7838
-73.925
-73.9009
-73.9337
-73.9487
-73.9599
-73.9897
-74.087
-74.2571
-74.4693
-74.7095
-75.0115
-75.3589
-75.7503
-76.1819
-76.6411
-77.1486
-77.699
-78.2811
-78.9059
-79.6022
-80.3959
-81.2973
-82.3253
-83.5058
-84.8893
-86.5178
-88.4574
-90.7481
-93.3715
-96.3115
-99.5196
-102.893
-106.269
-109.448
-112.16
-114.079
-114.989
-114.862
-113.797
-111.912
-109.478
-106.756
-103.878
-100.877
-97.7686
-94.5255
-91.132
-87.5442
-83.7162
-79.6187
-75.2604
-70.5788
-65.4877
-59.924
-53.7058
-46.6755
-38.8106
-30.2059
-21.2909
-13.6216
-28.6194
-28.2125
-27.8591
-27.5519
-27.2665
-27.0151
-26.8054
-26.59
-26.3968
-26.2488
-26.0974
-25.9636
-25.8739
-25.7986
-25.7432
-25.6884
-25.6542
-25.6333
-25.6229
-25.6269
-25.6339
-25.6573
-25.6902
-25.7307
-25.777
-25.8422
-25.921
-26.0151
-26.1316
-26.2839
-26.4783
-26.728
-27.0452
-27.4435
-27.9469
-28.5904
-29.4202
-30.4676
-31.7814
-33.4121
-35.4008
-37.767
-40.4842
-43.4956
-46.7085
-50.0099
-53.2769
-56.4116
-59.3481
-62.0455
-64.4899
-66.6822
-68.6392
-70.3785
-71.8792
-73.1382
-74.1184
-74.7827
-74.8285
-74.5843
-73.9572
-72.9808
-71.7224
-70.2714
-68.7191
-67.1491
-65.6335
-64.2332
-62.9903
-61.9333
-61.0657
-60.3848
-59.8679
-59.4794
-59.1926
-59.0645
-59.0727
-59.211
-59.4781
-59.8394
-60.2561
-60.7084
-61.1984
-61.7035
-62.1618
-62.6222
-63.1195
-63.6399
-64.1619
-64.7041
-65.2032
-65.6066
-65.9705
-66.3001
-66.5944
-66.8518
-67.1232
-67.4153
-67.7558
-68.1032
-68.4428
-68.7361
-69.0384
-69.279
-69.4705
-69.6374
-69.8302
-70.0128
-70.2211
-70.4615
-70.72
-70.9872
-71.2259
-71.449
-71.6111
-71.7913
-71.9252
-72.0774
-72.1973
-72.3545
-72.4822
-72.6455
-72.7895
-72.9167
-73.0573
-73.176
-73.2769
-73.3294
-73.4892
-73.6358
-73.8409
-74.0444
-74.2209
-74.365
-74.5145
-74.5065
-74.4548
-74.4063
-74.4142
-74.3725
-74.377
-74.44
-74.5977
-74.8312
-75.1363
-75.4843
-75.8589
-76.2524
-76.6757
-77.1429
-77.6387
-78.1796
-78.786
-79.4717
-80.2565
-81.1641
-82.2139
-83.4506
-84.9051
-86.6706
-88.8347
-91.4414
-94.4951
-97.966
-101.779
-105.787
-109.772
-113.415
-116.319
-118.146
-118.727
-118.068
-116.227
-113.673
-110.782
-107.787
-104.774
-101.794
-98.8299
-95.783
-92.6373
-89.3275
-85.8117
-82.0788
-78.099
-73.7792
-69.0202
-63.651
-57.4725
-50.4033
-42.5525
-34.3665
-27.3137
-27.5939
-27.3591
-27.1885
-27.0337
-26.8562
-26.7108
-26.5563
-26.3966
-26.283
-26.1581
-26.0538
-25.9543
-25.8717
-25.8044
-25.7524
-25.7135
-25.6864
-25.6672
-25.656
-25.6505
-25.6642
-25.6912
-25.7352
-25.7841
-25.847
-25.9201
-26.0106
-26.1202
-26.2605
-26.4292
-26.6372
-26.8936
-27.2123
-27.6041
-28.0918
-28.703
-29.476
-30.4348
-31.6098
-33.043
-34.767
-36.8022
-39.1385
-41.7528
-44.5841
-47.5545
-50.5687
-53.5433
-56.4067
-59.1073
-61.6109
-63.8966
-65.9581
-67.8032
-69.4073
-70.7672
-71.8521
-72.625
-72.9855
-73.0319
-72.7111
-72.0704
-71.152
-70.0258
-68.7643
-67.4382
-66.1132
-64.8474
-63.6854
-62.6508
-61.7594
-61.0165
-60.4075
-59.9441
-59.7357
-59.5306
-59.4442
-59.4714
-59.6115
-59.8431
-60.1438
-60.4959
-60.8996
-61.3515
-61.822
-62.3127
-62.8041
-63.2777
-63.718
-64.1459
-64.5786
-65.0221
-65.4559
-65.8848
-66.2686
-66.5919
-66.9075
-67.1436
-67.3921
-67.6548
-67.8987
-68.1894
-68.4955
-68.781
-69.0391
-69.2457
-69.4629
-69.693
-69.9224
-70.149
-70.4095
-70.6546
-70.8713
-71.0529
-71.2285
-71.3885
-71.5371
-71.6694
-71.8006
-71.9249
-72.0982
-72.2761
-72.4716
-72.6687
-72.8019
-72.8409
-72.8287
-72.8753
-72.9298
-73.0588
-73.2584
-73.5293
-73.8478
-74.1091
-74.2404
-74.2469
-74.1946
-74.104
-74.0418
-74.0291
-74.076
-74.1814
-74.3162
-74.5062
-74.7877
-75.1346
-75.5205
-75.9158
-76.3232
-76.7617
-77.2193
-77.7007
-78.2321
-78.8258
-79.51
-80.31
-81.24
-82.3378
-83.6283
-85.1897
-87.1392
-89.5739
-92.5559
-96.1156
-100.229
-104.772
-109.542
-114.222
-118.394
-121.516
-123.084
-122.856
-121.068
-118.375
-115.148
-111.765
-108.494
-105.54
-102.791
-100.05
-97.3006
-94.4664
-91.4947
-88.3376
-85.0134
-81.4241
-77.5012
-73.0185
-67.7543
-61.5413
-54.4218
-46.8712
-40.3287
-26.4007
-26.3698
-26.393
-26.4144
-26.3852
-26.3743
-26.3358
-26.2835
-26.2314
-26.1621
-26.085
-26.021
-25.9465
-25.8922
-25.838
-25.7998
-25.7611
-25.7357
-25.7218
-25.7296
-25.744
-25.7751
-25.8132
-25.8697
-25.9339
-26.0132
-26.1067
-26.2192
-26.3572
-26.5312
-26.7412
-26.9973
-27.3147
-27.701
-28.1717
-28.754
-29.4813
-30.3664
-31.4348
-32.7177
-34.2405
-36.0224
-38.0666
-40.3623
-42.8751
-45.5522
-48.3201
-51.1108
-53.8577
-56.5075
-59.0167
-61.3483
-63.4848
-65.4238
-67.1291
-68.5998
-69.8125
-70.7465
-71.3567
-71.6057
-71.5266
-71.1704
-70.5577
-69.7335
-68.7526
-67.6706
-66.5441
-65.4282
-64.3683
-63.3971
-62.5338
-61.7909
-61.1691
-60.6618
-60.3185
-60.0322
-59.873
-59.8168
-59.8663
-60.0052
-60.2164
-60.4864
-60.8131
-61.1921
-61.6015
-62.0358
-62.4977
-62.9833
-63.4718
-63.961
-64.4499
-64.9161
-65.3487
-65.726
-66.0668
-66.4081
-66.746
-67.0751
-67.427
-67.7943
-68.171
-68.4751
-68.7675
-69.0399
-69.2386
-69.3701
-69.5149
-69.713
-69.9316
-70.1829
-70.4663
-70.7518
-71.0286
-71.3082
-71.4992
-71.657
-71.7742
-71.8931
-71.9984
-72.125
-72.2282
-72.385
-72.5727
-72.7712
-72.9372
-73.0655
-73.133
-73.1024
-73.1846
-73.2613
-73.4059
-73.6352
-73.9316
-74.2225
-74.4125
-74.4671
-74.3663
-74.1807
-74.012
-73.8784
-73.8054
-73.8165
-73.9059
-74.0703
-74.3126
-74.6458
-75.0255
-75.4083
-75.7933
-76.193
-76.6083
-77.0277
-77.4704
-77.9542
-78.5171
-79.1918
-79.9878
-80.9287
-82.0472
-83.4033
-85.0927
-87.2351
-89.9573
-93.3855
-97.5977
-102.521
-108.03
-113.879
-119.577
-124.276
-126.965
-127.508
-126.532
-123.926
-120.117
-115.953
-112.108
-108.934
-106.247
-103.824
-101.436
-99.0719
-96.5927
-93.9776
-91.2369
-88.3075
-85.2103
-81.6841
-77.4507
-72.2244
-65.9346
-59.0046
-52.9449
-25.0123
-25.2138
-25.4385
-25.6375
-25.7643
-25.8962
-25.9618
-25.9898
-25.9919
-25.9689
-25.9575
-25.9208
-25.8846
-25.8457
-25.8147
-25.7847
-25.7672
-25.7526
-25.7416
-25.7343
-25.7383
-25.767
-25.8177
-25.876
-25.9507
-26.0369
-26.1368
-26.2498
-26.3936
-26.5729
-26.7937
-27.0583
-27.3775
-27.757
-28.212
-28.7627
-29.4404
-30.2596
-31.2404
-32.4063
-33.7751
-35.3682
-37.1857
-39.2318
-41.4865
-43.9137
-46.4588
-49.0682
-51.6871
-54.2606
-56.7405
-59.087
-61.2728
-63.2871
-65.0859
-66.6604
-68.0008
-69.0841
-69.9346
-70.4593
-70.5737
-70.4241
-70.0201
-69.4138
-68.6465
-67.7585
-66.7998
-65.8185
-64.8612
-63.9512
-63.1146
-62.3796
-61.7414
-61.1968
-60.741
-60.476
-60.2735
-60.1468
-60.1133
-60.1638
-60.2896
-60.4821
-60.7353
-61.0455
-61.3963
-61.7819
-62.1939
-62.6286
-63.0742
-63.528
-63.9799
-64.4274
-64.8698
-65.2931
-65.6987
-66.0791
-66.4331
-66.7534
-67.0452
-67.3285
-67.6177
-67.9238
-68.2403
-68.5559
-68.862
-69.1054
-69.3272
-69.5187
-69.7023
-69.918
-70.1627
-70.3979
-70.6254
-70.8336
-71.0587
-71.3101
-71.487
-71.5924
-71.6887
-71.8119
-71.9729
-72.1576
-72.3654
-72.622
-72.8292
-72.9345
-72.878
-72.8359
-72.8037
-72.8868
-73.0312
-73.2988
-73.7092
-74.15
-74.4859
-74.6392
-74.583
-74.3737
-74.1408
-73.9577
-73.8137
-73.7704
-73.8103
-73.8867
-74.0608
-74.366
-74.7473
-75.1463
-75.5074
-75.8691
-76.2524
-76.6401
-77.0313
-77.4433
-77.9033
-78.4431
-79.0767
-79.8318
-80.7647
-81.9337
-83.405
-85.2812
-87.7021
-90.8309
-94.8941
-99.9951
-106.074
-112.938
-120.18
-126.9
-131.942
-134.514
-133.943
-130.664
-125.771
-120.575
-115.789
-111.857
-108.957
-106.83
-104.903
-103.043
-101.066
-98.9665
-96.7435
-94.4433
-92.0134
-89.4751
-86.4077
-82.4248
-77.2439
-71.1104
-65.442
-23.464
-23.9366
-24.3707
-24.7664
-25.0779
-25.3575
-25.5729