/*--------------------------------*- C++ -*----------------------------------*\
| =========                 |                                                 |
| \\      /  F ield         | OpenFOAM: The Open Source CFD Toolbox           |
|  \\    /   O peration     | Version:  4.1                                   |
|   \\  /    A nd           | Web:      www.OpenFOAM.org                      |
|    \\/     M anipulation  |                                                 |
\*---------------------------------------------------------------------------*/
FoamFile
{
    version     2.0;
    format      ascii;
    class       volScalarField;
    location    "12.5";
    object      p;
}
// * * * * * * * * * * * * * * * * * * * * * * * * * * * * * * * * * * * * * //

dimensions      [0 2 -2 0 0 0 0];

internalField   nonuniform List<scalar> 
204246
(
10.0716
-17.4111
-17.4622
-16.1006
-16.9345
-16.8647
-17.6756
-17.9308
-18.2338
-18.5258
-18.8162
-19.0365
-19.1871
-19.2
-19.1447
-18.9861
-20.6111
-21.3514
-20.6981
-21.2057
-20.6291
-21.4186
-21.4684
-21.5356
-21.5664
-21.575
-21.5124
-22.2272
-21.7128
-22.374
-21.8636
-22.4741
-21.7899
-22.2467
-21.8271
-23.1374
-24.0308
-22.702
-23.6371
-23.6478
-23.53
-23.2342
-23.7421
-23.5221
-24.2027
-23.6448
-24.2431
-23.6655
-24.3712
-24.1282
-23.8777
-23.6084
-24.8649
-25.7379
-24.8203
-25.1188
-24.9255
-25.4289
-24.848
-25.3456
-25.0566
-25.6594
-25.1297
-26.05
-24.8773
-25.7595
-25.5485
-25.2904
-24.9717
-26.1595
-27.0026
-26.8745
-26.6818
-26.3751
-26.8294
-26.4296
-26.8834
-26.6205
-27.2496
-26.6494
-27.489
-26.3532
-27.2109
-27.0087
-26.9699
-26.0549
-27.3021
-28.1021
-27.9104
-27.6341
-27.2386
-27.6556
-27.3661
-27.974
-27.4369
-28.3629
-27.2138
-28.2368
-28.3082
-28.2677
-27.972
-28.4622
-28.3247
-28.4272
-27.7984
-29.3317
-29.8957
-29.3751
-29.4961
-29.3922
-30.059
-29.458
-30.0782
-29.7113
-30.3565
-30.0005
-30.6664
-30.3228
-31.1069
-31.0593
-31.0635
-31.0721
-32.6891
-33.6187
-33.6426
-34.6033
-34.7059
-35.9093
-36.235
-37.8834
-38.9075
-39.9443
-40.9176
-42.8858
-43.9161
-46.1612
-47.7058
-49.374
-51.1452
-54.5214
-57.0826
-58.8013
-61.2445
-63.0257
-64.8248
-66.5187
-68.0751
-69.2836
-70.1451
-70.5254
-70.5064
-70.0847
-69.4094
-68.5212
-67.7265
-67.0771
-66.8007
-66.2358
-64.1297
-62.9089
-60.6794
-59.3323
-56.9315
-55.3147
-52.606
-50.5344
-47.3601
-44.7906
-41.0973
-37.7364
-33.3526
-28.914
-23.9525
-18.5072
-12.4747
-5.91898
1.41704
9.60763
18.5283
28.7115
40.1689
53.2421
67.9645
84.6623
103.328
124.192
147.236
173.08
202.494
241.514
300.465
393.71
518.656
0.178842
-6.58322
-11.5274
-14.4267
-15.7661
-16.5039
-17.0975
-17.6328
-17.9905
-18.376
-18.6544
-18.9834
-19.1564
-19.3033
-19.2557
-19.3932
-19.9061
-20.4984
-20.6667
-20.7888
-20.846
-21.0427
-21.3457
-21.4245
-21.5509
-21.5477
-21.6631
-21.8277
-21.9335
-22.0579
-22.1733
-22.2378
-22.2028
-22.1468
-22.2293
-22.5975
-23.0488
-23.1001
-23.2718
-23.5132
-23.4546
-23.467
-23.5336
-23.671
-23.8198
-23.8885
-23.9582
-24.0404
-24.1778
-24.2491
-24.0383
-24.0323
-24.3643
-24.834
-24.9498
-24.9623
-25.0541
-25.1207
-25.125
-25.1569
-25.237
-25.3322
-25.4033
-25.5174
-25.5203
-25.6115
-25.6757
-25.4308
-25.4218
-25.7866
-26.2704
-26.5494
-26.5618
-26.5768
-26.623
-26.6634
-26.7168
-26.8302
-26.941
-26.9972
-27.0861
-27.0249
-27.0715
-27.1555
-26.9782
-26.8136
-27.0464
-27.462
-27.6738
-27.5805
-27.5075
-27.4951
-27.5618
-27.6495
-27.7234
-27.8283
-27.8307
-27.9747
-28.2402
-28.2234
-28.3323
-28.4017
-28.5116
-28.4454
-28.4739
-28.8515
-29.28
-29.4052
-29.42
-29.5711
-29.7106
-29.7803
-29.8471
-29.9832
-30.1018
-30.281
-30.4314
-30.6481
-30.8839
-31.1136
-31.1102
-31.404
-31.9983
-32.6574
-33.2425
-33.8268
-34.4235
-35.0628
-35.8435
-36.8237
-37.9431
-38.9767
-40.2046
-41.5561
-43.0519
-44.6466
-46.331
-48.1315
-50.219
-52.5838
-55.0293
-57.3888
-59.6713
-61.8545
-63.8831
-65.8202
-67.4986
-68.9779
-70.0723
-71.1173
-71.4466
-71.5711
-71.2525
-70.6606
-69.8755
-69.0731
-68.671
-67.8065
-66.668
-65.3362
-63.7656
-62.1689
-60.4062
-58.6123
-56.6104
-54.5036
-52.1305
-49.578
-46.7036
-43.538
-39.9661
-36.0195
-31.6338
-26.8269
-21.5179
-15.6746
-9.13237
-1.90728
6.04732
14.9124
24.7556
35.8701
48.3586
62.5105
78.3417
95.9345
115.055
135.667
157.704
183.24
219.08
285.266
383.182
-13.5433
-10.7553
-12.038
-13.6813
-15.0804
-16.1286
-16.8469
-17.4101
-17.8344
-18.2201
-18.5255
-18.8588
-19.0802
-19.319
-19.4044
-19.634
-19.8678
-20.2089
-20.4851
-20.6502
-20.838
-20.944
-21.1823
-21.2932
-21.4519
-21.506
-21.6387
-21.713
-21.8781
-21.9445
-22.1193
-22.1581
-22.2654
-22.2635
-22.4155
-22.554
-22.7639
-22.9624
-23.0976
-23.3049
-23.3491
-23.4447
-23.4868
-23.6204
-23.686
-23.8267
-23.8586
-24.0139
-24.0797
-24.1994
-24.1719
-24.2468
-24.3544
-24.566
-24.7522
-24.8213
-24.9593
-24.9925
-25.0815
-25.1004
-25.1976
-25.2279
-25.3425
-25.3517
-25.4842
-25.5306
-25.6177
-25.5568
-25.6173
-25.747
-25.9889
-26.2127
-26.3343
-26.4574
-26.4962
-26.595
-26.635
-26.7498
-26.7981
-26.9187
-26.9316
-27.0114
-27.0227
-27.0921
-26.996
-26.9853
-27.0189
-27.1924
-27.343
-27.3552
-27.3899
-27.3687
-27.4349
-27.4688
-27.5837
-27.6022
-27.7197
-27.7957
-27.9756
-28.0221
-28.1553
-28.227
-28.342
-28.378
-28.4977
-28.6516
-28.8872
-29.0661
-29.1633
-29.2948
-29.3775
-29.5148
-29.5681
-29.7138
-29.7802
-29.9267
-30.0402
-30.2297
-30.4281
-30.6531
-30.8368
-31.1486
-31.56
-32.0315
-32.5629
-33.1557
-33.7683
-34.4255
-35.1603
-36.0202
-36.9863
-38.0733
-39.2833
-40.6037
-42.0412
-43.59
-45.2752
-47.127
-49.1601
-51.3521
-53.6794
-56.0407
-58.3846
-60.6455
-62.7862
-64.7687
-66.552
-68.0376
-69.236
-70.0323
-70.5124
-70.5678
-70.3193
-69.7795
-68.994
-68.112
-66.9631
-65.7911
-64.6015
-63.2718
-61.7996
-60.1718
-58.3956
-56.4538
-54.3796
-52.0998
-49.6524
-46.9581
-44.0339
-40.8104
-37.2848
-33.3886
-29.096
-24.3341
-19.0637
-13.2091
-6.69843
0.440377
8.37665
17.159
26.9361
37.7909
49.9688
63.5881
78.9093
95.8958
114.525
134.105
154.618
176.466
205.514
248.937
306.547
-16.1192
-13.7132
-13.7553
-14.4145
-15.181
-15.95
-16.6476
-17.2436
-17.7115
-18.119
-18.449
-18.7571
-19.0018
-19.2546
-19.4222
-19.6756
-19.8718
-20.1213
-20.349
-20.5639
-20.7897
-20.9246
-21.1407
-21.2657
-21.4367
-21.5252
-21.6679
-21.7437
-21.8885
-21.9584
-22.1083
-22.1601
-22.2808
-22.3325
-22.493
-22.6101
-22.7582
-22.8987
-23.0477
-23.2464
-23.3317
-23.4621
-23.5308
-23.656
-23.7187
-23.8444
-23.8929
-24.0272
-24.0849
-24.211
-24.2475
-24.358
-24.4483
-24.583
-24.6989
-24.7999
-24.9569
-25.019
-25.1268
-25.1713
-25.2676
-25.3002
-25.3953
-25.4143
-25.5216
-25.556
-25.65
-25.6623
-25.7581
-25.8615
-26.0182
-26.1692
-26.3057
-26.4716
-26.5524
-26.6823
-26.7491
-26.8666
-26.9087
-27.013
-27.0309
-27.1223
-27.1341
-27.2013
-27.1677
-27.1915
-27.2254
-27.3242
-27.4111
-27.4466
-27.5097
-27.5272
-27.5925
-27.6129
-27.7104
-27.7438
-27.8643
-27.9349
-28.0873
-28.1571
-28.3293
-28.4194
-28.5642
-28.6334
-28.783
-28.8928
-29.0756
-29.2311
-29.3806
-29.5534
-29.6268
-29.7685
-29.827
-29.9742
-30.0558
-30.2593
-30.3897
-30.6171
-30.7874
-31.026
-31.2282
-31.5437
-31.8277
-32.2212
-32.7151
-33.2521
-33.8514
-34.5147
-35.269
-36.0523
-36.951
-37.938
-39.0656
-40.2993
-41.6736
-43.1684
-44.8227
-46.628
-48.612
-50.7504
-53.0537
-55.4519
-57.8939
-60.318
-62.6488
-64.8146
-66.7669
-68.5136
-69.9931
-71.191
-72.0414
-72.6039
-72.7306
-72.6245
-72.3871
-71.7352
-70.9748
-69.9649
-68.7594
-67.4688
-66.0715
-64.6138
-63.037
-61.4048
-59.6178
-57.7137
-55.5937
-53.2832
-50.6996
-47.8622
-44.7035
-41.2352
-37.3825
-33.1428
-28.4221
-23.198
-17.3079
-10.7836
-3.53478
4.5108
13.422
23.3156
34.2889
46.4706
59.899
74.5931
90.4855
107.629
126.407
148.519
176.664
211.991
250.754
-17.0871
-15.2211
-15.0208
-15.2364
-15.6271
-16.1163
-16.6419
-17.1506
-17.5895
-17.9731
-18.311
-18.6064
-18.8704
-19.1038
-19.3112
-19.5338
-19.7403
-19.9749
-20.1966
-20.4108
-20.6201
-20.7688
-20.9517
-21.0917
-21.2409
-21.3539
-21.4814
-21.587
-21.7239
-21.8116
-21.9442
-22.0161
-22.1315
-22.198
-22.3191
-22.4328
-22.5944
-22.7485
-22.8832
-23.0399
-23.1405
-23.2665
-23.3551
-23.4712
-23.561
-23.685
-23.7567
-23.8792
-23.9426
-24.0444
-24.0963
-24.1881
-24.2772
-24.4211
-24.5466
-24.6359
-24.7569
-24.8265
-24.9264
-24.9864
-25.0776
-25.1392
-25.2362
-25.2762
-25.3709
-25.403
-25.4724
-25.4911
-25.5616
-25.6507
-25.8024
-25.942
-26.0644
-26.2027
-26.3022
-26.4246
-26.5174
-26.6305
-26.7153
-26.8242
-26.8699
-26.9615
-26.9879
-27.0298
-27.0007
-27.011
-27.0129
-27.0807
-27.1374
-27.1393
-27.1858
-27.1956
-27.2529
-27.2962
-27.3839
-27.4343
-27.5392
-27.6196
-27.7487
-27.8332
-27.9484
-28.0446
-28.1492
-28.2395
-28.3541
-28.4895
-28.6554
-28.7867
-28.9006
-29.0134
-29.1178
-29.2464
-29.3253
-29.4423
-29.5073
-29.593
-29.6951
-29.8128
-29.9526
-30.0637
-30.261
-30.4684
-30.8413
-31.1997
-31.5463
-31.9581
-32.456
-33.035
-33.6852
-34.4309
-35.2679
-36.2143
-37.2734
-38.4582
-39.7722
-41.2198
-42.8093
-44.5496
-46.4572
-48.5386
-50.8114
-53.2259
-55.7436
-58.2913
-60.7854
-63.1292
-65.2775
-67.21
-68.9119
-70.2987
-71.2559
-71.5979
-71.4703
-70.9454
-70.1686
-69.3122
-68.2915
-67.2373
-66.1119
-64.8807
-63.5479
-62.0924
-60.5386
-58.8656
-57.0902
-55.1782
-53.1423
-50.914
-48.4883
-45.8182
-42.8882
-39.6569
-36.1036
-32.1693
-27.838
-23.0411
-17.7261
-11.854
-5.3038
2.03348
10.2528
19.4225
29.5813
40.6822
52.6555
65.3298
78.6976
92.8464
108.55
127.361
150.93
179.29
207.418
-17.5005
-16.1152
-15.8976
-15.9534
-16.1696
-16.4931
-16.8677
-17.2807
-17.652
-18.0192
-18.3379
-18.645
-18.9073
-19.1663
-19.3866
-19.6188
-19.7964
-19.9938
-20.2073
-20.4182
-20.6205
-20.7984
-20.9993
-21.155
-21.3217
-21.456
-21.5975
-21.6913
-21.8363
-21.9185
-22.0598
-22.1266
-22.2535
-22.3314
-22.4863
-22.5527
-22.6549
-22.7807
-22.9186
-23.1053
-23.2124
-23.3626
-23.4526
-23.5854
-23.6615
-23.7871
-23.8562
-23.9822
-24.0547
-24.1913
-24.2603
-24.3734
-24.4284
-24.5173
-24.6099
-24.7091
-24.8579
-24.9418
-25.0629
-25.13
-25.2339
-25.2779
-25.3699
-25.4079
-25.4982
-25.5366
-25.6335
-25.6738
-25.7582
-25.8103
-25.9082
-26.0339
-26.1583
-26.3262
-26.4407
-26.6042
-26.7017
-26.8409
-26.9057
-27.0108
-27.0584
-27.1494
-27.183
-27.2629
-27.2751
-27.3016
-27.2995
-27.3211
-27.3632
-27.3947
-27.4494
-27.4784
-27.5273
-27.5464
-27.6226
-27.667
-27.7774
-27.8475
-27.9837
-28.0779
-28.2635
-28.3785
-28.5582
-28.6529
-28.8049
-28.868
-29.0024
-29.159
-29.3136
-29.4876
-29.5626
-29.6992
-29.7659
-29.9009
-29.9852
-30.1779
-30.3066
-30.4971
-30.6708
-30.8927
-31.1102
-31.3582
-31.5884
-31.8944
-32.2781
-32.7075
-33.1869
-33.7308
-34.3288
-34.9813
-35.7223
-36.5525
-37.509
-38.5936
-39.8227
-41.1847
-42.6906
-44.3439
-46.1658
-48.1703
-50.3942
-52.7966
-55.3433
-57.9766
-60.6221
-63.2077
-65.6606
-67.9132
-69.8473
-71.4457
-72.7373
-73.7764
-74.4726
-74.8559
-74.7933
-74.0894
-73.0702
-71.8109
-70.442
-69.0653
-67.6836
-66.2528
-64.7632
-63.2206
-61.5785
-59.853
-57.9723
-55.9483
-53.7
-51.2377
-48.4908
-45.4648
-42.1085
-38.4125
-34.3261
-29.8365
-24.8514
-19.3665
-13.2564
-6.39528
1.30038
9.86651
19.3125
29.6046
40.6342
52.2971
64.575
77.5616
91.7708
108.427
128.192
150.998
172.464
-17.6316
-16.4979
-16.3527
-16.4034
-16.5462
-16.7521
-17.0196
-17.3155
-17.6173
-17.9153
-18.2036
-18.4806
-18.7416
-18.9699
-19.1891
-19.3928
-19.612
-19.8274
-20.0272
-20.2262
-20.4245
-20.5992
-20.7623
-20.9228
-21.0619
-21.1983
-21.3266
-21.4576
-21.5758
-21.6827
-21.7966
-21.8933
-22.0016
-22.0867
-22.1796
-22.3108
-22.4483
-22.5827
-22.7162
-22.8422
-22.9696
-23.0939
-23.2122
-23.3249
-23.4351
-23.5496
-23.6431
-23.7539
-23.8337
-23.9213
-24.0031
-24.0889
-24.1833
-24.3038
-24.4129
-24.5058
-24.6011
-24.6906
-24.7889
-24.8749
-24.9649
-25.0503
-25.1457
-25.2047
-25.2865
-25.3238
-25.3809
-25.4147
-25.4695
-25.541
-25.644
-25.7409
-25.8644
-25.9863
-26.1115
-26.2414
-26.3769
-26.51
-26.6372
-26.7557
-26.8442
-26.9285
-26.9722
-27.0124
-27.017
-27.0311
-27.0263
-27.0516
-27.0622
-27.0453
-27.0644
-27.0683
-27.1077
-27.151
-27.2207
-27.2767
-27.3616
-27.4464
-27.5519
-27.6504
-27.7401
-27.8656
-27.9653
-28.0971
-28.2219
-28.3716
-28.5149
-28.6219
-28.7374
-28.8301
-28.9505
-29.0605
-29.152
-29.2446
-29.3053
-29.3437
-29.4276
-29.4739
-29.5836
-29.5909
-29.7791
-29.8626
-30.1396
-30.4215
-30.7407
-31.1077
-31.5346
-32.0225
-32.5786
-33.2096
-33.9125
-34.7081
-35.6161
-36.6604
-37.8457
-39.1692
-40.6311
-42.2446
-44.029
-46.0097
-48.2118
-50.6031
-53.1668
-55.8639
-58.6343
-61.397
-64.0707
-66.5623
-68.8137
-70.7591
-72.3265
-73.3194
-73.6029
-73.1425
-72.3869
-71.699
-70.8459
-69.8065
-68.6192
-67.3409
-66.0158
-64.6549
-63.2637
-61.8131
-60.3004
-58.706
-57.0143
-55.1987
-53.2351
-51.0795
-48.7085
-46.0798
-43.1645
-39.9294
-36.3407
-32.3475
-27.9125
-23.0199
-17.5741
-11.4817
-4.68436
2.84783
11.1102
20.1084
29.8096
40.1882
51.2373
63.0445
76
90.8361
107.748
126.504
143.615
-18.1138
-16.9554
-16.8607
-16.8722
-16.9722
-17.1482
-17.3562
-17.6029
-17.8501
-18.1175
-18.3644
-18.6254
-18.8719
-19.1126
-19.3217
-19.5267
-19.7054
-19.9047
-20.1103
-20.3064
-20.5153
-20.6965
-20.8848
-21.048
-21.2147
-21.3527
-21.5019
-21.6284
-21.7559
-21.8606
-22.0047
-22.068
-22.1891
-22.2752
-22.4466
-22.4889
-22.5636
-22.6815
-22.8168
-22.9734
-23.0955
-23.2351
-23.3585
-23.4887
-23.5793
-23.7102
-23.7872
-23.9092
-23.9951
-24.1487
-24.2212
-24.3464
-24.3844
-24.4419
-24.528
-24.626
-24.7711
-24.8591
-24.9728
-25.0607
-25.1706
-25.2291
-25.3245
-25.3749
-25.4591
-25.5006
-25.5917
-25.6319
-25.7042
-25.7347
-25.801
-25.906
-26.0194
-26.1622
-26.2993
-26.4608
-26.6031
-26.7574
-26.8583
-26.9938
-27.0681
-27.1619
-27.2211
-27.2969
-27.3271
-27.3565
-27.3496
-27.3408
-27.3477
-27.3551
-27.3809
-27.3972
-27.4254
-27.437
-27.4909
-27.5345
-27.6364
-27.7059
-27.8414
-27.9537
-28.1313
-28.2689
-28.4423
-28.5758
-28.7336
-28.7832
-28.8892
-29.0589
-29.2288
-29.3773
-29.4647
-29.6012
-29.6632
-29.7916
-29.8716
-30.0725
-30.1759
-30.3498
-30.4824
-30.673
-30.8542
-31.0867
-31.1691
-31.3566
-31.6144
-31.9179
-32.2672
-32.6728
-33.1397
-33.6493
-34.2287
-34.8799
-35.6393
-36.5297
-37.5646
-38.7436
-40.0702
-41.5545
-43.2208
-45.0929
-47.2096
-49.5522
-52.126
-54.9009
-57.811
-60.7771
-63.7297
-66.6148
-69.3241
-71.7071
-73.6384
-75.183
-76.4244
-77.2817
-77.387
-76.5555
-75.3006
-73.8281
-72.2495
-70.684
-69.1316
-67.6436
-66.174
-64.7257
-63.2534
-61.7295
-60.1273
-58.405
-56.5609
-54.5403
-52.3228
-49.8793
-47.1625
-44.1687
-40.8201
-37.1104
-32.9353
-28.3399
-23.2373
-17.5948
-11.3575
-4.52013
2.89847
10.9163
19.5348
28.7872
38.684
49.3764
61.1636
74.4077
89.1239
104.985
119.081
-18.2794
-17.1094
-16.9835
-17.0217
-17.1175
-17.2443
-17.402
-17.5849
-17.7774
-17.9864
-18.1997
-18.4235
-18.6527
-18.8816
-19.0936
-19.2878
-19.4879
-19.6805
-19.8746
-20.0683
-20.2521
-20.4371
-20.6054
-20.7698
-20.9199
-21.0761
-21.2157
-21.3499
-21.4573
-21.5707
-21.6741
-21.789
-21.8873
-21.9791
-22.0407
-22.1804
-22.3149
-22.4401
-22.5669
-22.6961
-22.8262
-22.9466
-23.073
-23.1846
-23.3146
-23.433
-23.5492
-23.6517
-23.7434
-23.8091
-23.9107
-24.0034
-24.1162
-24.2306
-24.3278
-24.4123
-24.4849
-24.5805
-24.672
-24.7727
-24.8737
-24.9829
-25.0849
-25.1687
-25.2476
-25.2925
-25.3322
-25.3631
-25.3985
-25.4561
-25.5307
-25.6038
-25.7045
-25.793
-25.9248
-26.0649
-26.2196
-26.3791
-26.5506
-26.7116
-26.8444
-26.9444
-27.0112
-27.0529
-27.076
-27.0937
-27.087
-27.0891
-27.0715
-27.0304
-27.0205
-27.0003
-27.0161
-27.0439
-27.0881
-27.1346
-27.2023
-27.2901
-27.3865
-27.4959
-27.5481
-27.6857
-27.8169
-27.9725
-28.1155
-28.2944
-28.4363
-28.5384
-28.6591
-28.7199
-28.8705
-28.9644
-29.0627
-29.1304
-29.1912
-29.1926
-29.2494
-29.2672
-29.3284
-29.3579
-29.4528
-29.5747
-29.7798
-30.0111
-30.2711
-30.5636
-30.904
-31.2957
-31.7497
-32.2654
-32.8397
-33.4841
-34.2158
-35.0611
-36.0348
-37.1525
-38.4247
-39.86
-41.4684
-43.2703
-45.3053
-47.5835
-50.1294
-52.9306
-55.9272
-59.0383
-62.1854
-65.2789
-68.2292
-70.9432
-73.3684
-75.3082
-76.4548
-76.6158
-76.2429
-75.6888
-74.711
-73.3838
-71.8856
-70.3086
-68.7654
-67.2794
-65.8612
-64.4917
-63.1366
-61.7716
-60.3543
-58.8645
-57.284
-55.5766
-53.7238
-51.6819
-49.4312
-46.9066
-44.0761
-40.8776
-37.2272
-33.1395
-28.5717
-23.5007
-17.8981
-11.778
-5.12471
2.02681
9.70604
17.9653
26.8503
36.5334
47.2063
59.0458
72.0338
85.7701
97.7386
-18.4236
-17.5703
-17.4492
-17.4245
-17.4865
-17.6053
-17.7575
-17.9388
-18.1173
-18.2851
-18.4648
-18.6715
-18.8628
-19.0769
-19.2726
-19.4529
-19.6208
-19.8022
-19.995
-20.1942
-20.3808
-20.5775
-20.7603
-20.9263
-21.0989
-21.2436
-21.3993
-21.5386
-21.6899
-21.8
-21.9242
-22.0196
-22.1341
-22.2099
-22.3386
-22.3771
-22.4546
-22.5667
-22.6975
-22.8389
-22.9697
-23.1085
-23.2229
-23.349
-23.4576
-23.5923
-23.707
-23.8433
-23.9272
-24.0811
-24.152
-24.2717
-24.2942
-24.3563
-24.441
-24.5309
-24.6752
-24.7467
-24.8687
-24.9432
-25.0805
-25.1444
-25.2602
-25.3213
-25.4205
-25.4675
-25.541
-25.575
-25.6283
-25.6325
-25.6678
-25.7499
-25.8451
-25.9867
-26.1089
-26.2743
-26.4177
-26.5902
-26.735
-26.9013
-27.029
-27.1492
-27.248
-27.3286
-27.3699
-27.3979
-27.3918
-27.3715
-27.3487
-27.332
-27.3233
-27.3172
-27.3144
-27.3084
-27.3392
-27.3658
-27.4478
-27.5219
-27.6627
-27.7787
-27.9648
-28.0829
-28.2684
-28.4071
-28.581
-28.6517
-28.772
-28.9327
-29.0867
-29.2349
-29.3408
-29.4615
-29.546
-29.6906
-29.7623
-29.9497
-30.0075
-30.1827
-30.2493
-30.4558
-30.4935
-30.634
-30.642
-30.7341
-30.8897
-31.0877
-31.3185
-31.5996
-31.9337
-32.3172
-32.7661
-33.2838
-33.8874
-34.5888
-35.4079
-36.3699
-37.4993
-38.8113
-40.308
-42.0017
-43.9305
-46.1051
-48.5699
-51.3535
-54.4362
-57.7476
-61.171
-64.5924
-67.9276
-71.1453
-74.1513
-76.7238
-78.6463
-79.9476
-80.5085
-79.9793
-78.5879
-76.8227
-74.8636
-72.8691
-70.9822
-69.2375
-67.6763
-66.2318
-64.864
-63.5163
-62.146
-60.7195
-59.2017
-57.6039
-55.8889
-54.0441
-52.0166
-49.7694
-47.2848
-44.4829
-41.2957
-37.6912
-33.6555
-29.1653
-24.2189
-18.7876
-12.878
-6.51262
0.308004
7.65522
15.6388
24.3903
34.042
44.6529
56.2401
68.3508
78.7844
-18.2838
-17.4732
-17.3966
-17.4114
-17.4646
-17.5398
-17.6701
-17.802
-17.9539
-18.1127
-18.2763
-18.4486
-18.6486
-18.8621
-19.0552
-19.2352
-19.4145
-19.5867
-19.7569
-19.9433
-20.1255
-20.302
-20.4802
-20.6444
-20.7918
-20.9453
-21.0821
-21.2223
-21.3422
-21.4674
-21.5738
-21.6865
-21.7631
-21.8794
-21.9725
-22.0926
-22.2072
-22.322
-22.4337
-22.5594
-22.6971
-22.8352
-22.9754
-23.1043
-23.2313
-23.3133
-23.4295
-23.4847
-23.6161
-23.729
-23.8493
-23.9402
-24.0527
-24.1595
-24.2538
-24.3375
-24.3921
-24.4919
-24.5649
-24.6777
-24.7898
-24.9174
-25.0331
-25.143
-25.238
-25.3012
-25.3294
-25.3559
-25.3711
-25.404
-25.4301
-25.451
-25.5239
-25.5892
-25.7093
-25.8746
-26.0607
-26.2627
-26.4661
-26.6578
-26.832
-26.9582
-27.0736
-27.1427
-27.1755
-27.202
-27.1943
-27.1758
-27.1363
-27.0774
-27.0315
-26.9889
-26.9694
-26.9671
-26.9743
-26.9943
-27.0363
-27.1123
-27.1729
-27.2769
-27.3757
-27.5085
-27.671
-27.848
-28.0207
-28.2041
-28.3681
-28.5059
-28.6397
-28.7491
-28.8754
-28.9249
-29.0224
-29.0579
-29.1279
-29.1179
-29.1567
-29.1704
-29.2298
-29.2906
-29.3589
-29.4498
-29.6086
-29.7777
-29.9811
-30.1988
-30.4469
-30.7267
-31.0505
-31.4188
-31.8416
-32.3254
-32.8782
-33.5089
-34.2363
-35.0842
-36.0863
-37.269
-38.6475
-40.2338
-42.0537
-44.1115
-46.4604
-49.1643
-52.2531
-55.686
-59.3425
-63.0861
-66.7977
-70.3874
-73.7689
-76.8245
-79.3848
-81.1192
-81.6701
-81.1187
-79.9377
-78.1958
-76.0644
-73.8883
-71.7809
-69.8755
-68.2252
-66.7948
-65.5385
-64.3518
-63.177
-61.9441
-60.647
-59.2765
-57.8067
-56.205
-54.4427
-52.5045
-50.3397
-47.9087
-45.1449
-42.0159
-38.4871
-34.5653
-30.2404
-25.4856
-20.2973
-14.6755
-8.65551
-2.15693
4.96782
12.846
21.554
31.1129
41.5319
52.3794
61.6373
-18.1764
-17.7433
-17.6682
-17.7025
-17.7731
-17.9042
-18.0304
-18.1539
-18.287
-18.4343
-18.5614
-18.7011
-18.865
-19.0496
-19.2161
-19.3844
-19.5284
-19.6945
-19.8753
-20.0604
-20.2504
-20.4322
-20.6285
-20.8107
-21.0006
-21.1581
-21.3055
-21.4486
-21.6145
-21.7369
-21.8693
-21.9252
-22.0665
-22.1073
-22.2074
-22.2466
-22.3214
-22.4195
-22.5383
-22.6824
-22.8109
-22.9531
-23.0825
-23.2198
-23.3542
-23.5025
-23.621
-23.7574
-23.845
-23.9773
-24.0592
-24.1735
-24.2097
-24.2834
-24.3768
-24.4519
-24.5793
-24.6363
-24.7404
-24.8104
-24.9275
-25.0319
-25.1699
-25.277
-25.3727
-25.4475
-25.5204
-25.5558
-25.5763
-25.5689
-25.5734
-25.6098
-25.6614
-25.7676
-25.876
-26.0134
-26.1716
-26.3632
-26.5678
-26.7911
-26.987
-27.1652
-27.2757
-27.3778
-27.4366
-27.4587
-27.4674
-27.4507
-27.3946
-27.3427
-27.2937
-27.2538
-27.2213
-27.1967
-27.1971
-27.1979
-27.2492
-27.3235
-27.4628
-27.5608
-27.716
-27.8533
-28.0282
-28.1833
-28.3513
-28.4771
-28.6182
-28.7757
-28.9346
-29.0911
-29.2224
-29.3603
-29.4678
-29.5946
-29.6716
-29.7844
-29.82
-29.902
-29.9362
-30.0632
-30.0739
-30.1159
-30.0891
-30.1341
-30.2206
-30.3417
-30.4928
-30.6774
-30.9027
-31.1659
-31.479
-31.8523
-32.2962
-32.825
-33.4454
-34.1702
-35.0277
-36.0506
-37.2774
-38.7259
-40.4225
-42.3627
-44.5967
-47.1986
-50.219
-53.6787
-57.5318
-61.6574
-65.8623
-69.9801
-73.8984
-77.5382
-80.7411
-83.2362
-84.7513
-85.1379
-84.093
-81.921
-79.152
-76.2396
-73.4624
-71.0915
-69.1552
-67.606
-66.3167
-65.1722
-64.0877
-63.0061
-61.9034
-60.7455
-59.4955
-58.1434
-56.6637
-55.0308
-53.1933
-51.1188
-48.7725
-46.1008
-43.0725
-39.6836
-35.9402
-31.8423
-27.3511
-22.4567
-17.1741
-11.4707
-5.19848
1.80641
9.6443
18.3002
27.7463
37.5626
45.915
-17.6546
-17.5235
-17.4939
-17.5247
-17.5466
-17.6605
-17.785
-17.9133
-18.0496
-18.1995
-18.3446
-18.504
-18.6969
-18.8798
-19.0456
-19.2065
-19.3532
-19.5112
-19.664
-19.8322
-20.006
-20.1845
-20.3277
-20.4826
-20.639
-20.7991
-20.9465
-21.0985
-21.2337
-21.36
-21.4954
-21.6185
-21.7136
-21.8198
-21.9073
-22.0123
-22.1081
-22.2045
-22.3097
-22.4298
-22.5683
-22.7141
-22.8542
-22.9852
-23.1097
-23.1986
-23.3121
-23.3878
-23.5186
-23.6525
-23.7713
-23.8848
-23.991
-24.0782
-24.149
-24.2403
-24.3151
-24.4008
-24.4739
-24.585
-24.6959
-24.8196
-24.9573
-25.0935
-25.2161
-25.3277
-25.3754
-25.399
-25.4104
-25.3973
-25.365
-25.3378
-25.3596
-25.3866
-25.4964
-25.6504
-25.8315
-26.0413
-26.2725
-26.5259
-26.7654
-26.9711
-27.1458
-27.2567
-27.3268
-27.3568
-27.3423
-27.3269
-27.2833
-27.1873
-27.1051
-27.0246
-26.9691
-26.9266
-26.8928
-26.8774
-26.8852
-26.9188
-26.9383
-27.0435
-27.1624
-27.3109
-27.4976
-27.702
-27.91
-28.111
-28.2889
-28.4491
-28.6001
-28.7355
-28.861
-28.9192
-29.0257
-29.05
-29.1351
-29.1431
-29.1866
-29.2016
-29.2407
-29.266
-29.3384
-29.4224
-29.5221
-29.6222
-29.7487
-29.9027
-30.0812
-30.2698
-30.477
-30.7162
-30.9947
-31.3172
-31.6939
-32.1354
-32.6544
-33.2663
-33.9902
-34.8567
-35.9095
-37.1835
-38.7091
-40.4875
-42.559
-44.989
-47.8464
-51.2092
-55.1065
-59.474
-64.1047
-68.7805
-73.3245
-77.5888
-81.4455
-84.7171
-87.1039
-88.1325
-87.5655
-85.5184
-82.5578
-79.0244
-75.4957
-72.4465
-70.0676
-68.318
-66.9355
-65.8006
-64.8243
-63.9093
-62.987
-62.0166
-60.9721
-59.8594
-58.6416
-57.3063
-55.8
-54.0873
-52.1411
-49.919
-47.3821
-44.4934
-41.3105
-37.8108
-34.0017
-29.8132
-25.2376
-20.2966
-14.8556
-8.73972
-1.74953
6.10093
14.7048
23.6604
31.2934
-17.8172
-17.7031
-17.7019
-17.8013
-17.8751
-17.9776
-18.1
-18.2084
-18.3385
-18.4597
-18.5857
-18.7086
-18.8286
-18.9686
-19.1286
-19.2889
-19.4406
-19.6014
-19.7635
-19.9367
-20.1499
-20.3404
-20.5221
-20.6958
-20.8836
-21.056
-21.1912
-21.3284
-21.5086
-21.6344
-21.7653
-21.8427
-21.9566
-22.017
-22.0793
-22.1239
-22.1965
-22.2716
-22.3657
-22.4956
-22.6342
-22.7862
-22.9342
-23.09
-23.2366
-23.3876
-23.5063
-23.6128
-23.7193
-23.8677
-23.9767
-24.092
-24.148
-24.2209
-24.3216
-24.3701
-24.4717
-24.518
-24.5977
-24.6655
-24.7627
-24.8793
-25.0232
-25.1739
-25.3365
-25.4557
-25.5414
-25.5709
-25.5784
-25.5803
-25.5535
-25.5071
-25.4908
-25.5795
-25.6108
-25.7065
-25.8619
-26.0568
-26.2891
-26.5565
-26.8271
-27.1059
-27.3084
-27.4246
-27.5072
-27.5786
-27.582
-27.5497
-27.4855
-27.4238
-27.3318
-27.2531
-27.1736
-27.1067
-27.0686
-27.0489
-27.0605
-27.1012
-27.2106
-27.2834
-27.4083
-27.5493
-27.7189
-27.8981
-28.0949
-28.2704
-28.45
-28.6308
-28.8008
-28.9636
-29.1155
-29.2668
-29.3696
-29.4773
-29.5458
-29.6322
-29.6497
-29.6925
-29.6967
-29.7599
-29.7145
-29.7143
-29.6898
-29.6703
-29.6797
-29.738
-29.8325
-29.9618
-30.1134
-30.2947
-30.5068
-30.7557
-31.0516
-31.402
-31.8206
-32.317
-32.9093
-33.618
-34.4837
-35.5517
-36.8679
-38.4511
-40.3407
-42.5818
-45.2365
-48.4148
-52.2284
-56.7299
-61.7827
-67.1302
-72.4749
-77.5463
-82.1795
-86.276
-89.55
-91.4856
-91.7293
-90.2628
-87.0923
-82.7826
-78.2152
-74.0705
-70.9302
-68.7763
-67.2157
-66.1253
-65.3516
-64.6445
-63.8921
-63.0882
-62.256
-61.3443
-60.3665
-59.3293
-58.1463
-56.7855
-55.2101
-53.4372
-51.359
-48.972
-46.3205
-43.3738
-40.1931
-36.6781
-32.8115
-28.6117
-23.9936
-18.7638
-12.6689
-5.6099
2.25201
10.4949
17.5475
-17.4517
-17.432
-17.4431
-17.4949
-17.6188
-17.6969
-17.8452
-17.9842
-18.1071
-18.2646
-18.4051
-18.5408
-18.6968
-18.8429
-18.9792
-19.1219
-19.2593
-19.3986
-19.5451
-19.7003
-19.8496
-20.0106
-20.1567
-20.3148
-20.4585
-20.6292
-20.7908
-20.9422
-21.0943
-21.2576
-21.4466
-21.5718
-21.6661
-21.7565
-21.8361
-21.9343
-22.0243
-22.1071
-22.2004
-22.3078
-22.4342
-22.5836
-22.7232
-22.8498
-22.9758
-23.0883
-23.1958
-23.2747
-23.4023
-23.5343
-23.6626
-23.7939
-23.9222
-24.0353
-24.1149
-24.1949
-24.266
-24.3346
-24.4001
-24.4872
-24.5815
-24.6897
-24.8266
-24.9962
-25.188
-25.3494
-25.4599
-25.5267
-25.5415
-25.454
-25.3658
-25.2963
-25.2509
-25.1964
-25.2756
-25.387
-25.5502
-25.7641
-26.0123
-26.3022
-26.6077
-26.9043
-27.1644
-27.3668
-27.5003
-27.5172
-27.5213
-27.5154
-27.4678
-27.3714
-27.2627
-27.1447
-27.0458
-26.951
-26.8666
-26.8025
-26.7621
-26.7583
-26.7497
-26.8236
-26.928
-27.0716
-27.2652
-27.4906
-27.7323
-27.9653
-28.181
-28.3698
-28.5409
-28.6977
-28.8365
-28.9437
-29.0566
-29.1218
-29.2115
-29.2492
-29.3005
-29.3101
-29.3246
-29.3457
-29.3762
-29.4183
-29.4746
-29.5276
-29.5701
-29.6121
-29.6799
-29.7719
-29.8869
-30.028
-30.1929
-30.3835
-30.6089
-30.8798
-31.2065
-31.6031
-32.0793
-32.6535
-33.3557
-34.2261
-35.3219
-36.6845
-38.3687
-40.4212
-42.8882
-45.869
-49.4988
-53.9275
-59.1666
-65.0423
-71.1997
-77.2456
-82.8341
-87.7615
-91.8993
-95.0398
-96.7278
-96.1329
-92.6945
-87.7019
-81.9016
-76.1841
-71.6651
-68.7507
-67.0917
-66.1564
-65.6621
-65.1895
-64.6028
-63.9527
-63.3161
-62.6019
-61.8677
-61.0934
-60.1914
-59.1591
-57.9496
-56.5754
-54.9607
-53.0813
-50.9255
-48.5281
-45.8818
-42.9975
-39.8116
-36.344
-32.5551
-28.2131
-23.0715
-16.8684
-9.73995
-2.12173
4.505
-17.173
-17.2567
-17.3862
-17.4691
-17.6082
-17.7437
-17.8634
-18.0332
-18.1402
-18.2754
-18.4133
-18.5355
-18.6853
-18.8445
-18.9922
-19.15
-19.3038
-19.4508
-19.6114
-19.7999
-19.97
-20.1756
-20.3595
-20.5366
-20.7131
-20.8738
-21.0522
-21.1962
-21.364
-21.4969
-21.6518
-21.7568
-21.837
-21.898
-21.9448
-22
-22.0616
-22.1286
-22.2236
-22.3272
-22.4573
-22.6235
-22.7932
-22.9514
-23.1091
-23.2801
-23.39
-23.4953
-23.6061
-23.7409
-23.8672
-24.0079
-24.0791
-24.1632
-24.2411
-24.2912
-24.361
-24.4016
-24.4635
-24.511
-24.5894
-24.6879
-24.8069
-24.9707
-25.1775
-25.371
-25.5276
-25.6343
-25.7143
-25.7524
-25.6495
-25.5064
-25.3833
-25.3303
-25.2991
-25.3509
-25.4818
-25.6608
-25.9109
-26.2085
-26.5525
-26.9377
-27.2705
-27.5294
-27.6733
-27.7146
-27.7173
-27.6813
-27.6099
-27.5243
-27.4128
-27.2903
-27.1699
-27.0708
-26.9867
-26.927
-26.9004
-26.8873
-26.9325
-26.9753
-27.0702
-27.2097
-27.3725
-27.5708
-27.8067
-28.0362
-28.2632
-28.4797
-28.6706
-28.8481
-29.011
-29.162
-29.2793
-29.3886
-29.4505
-29.5179
-29.5508
-29.5802
-29.5681
-29.5358
-29.4836
-29.4436
-29.4195
-29.4135
-29.431
-29.4601
-29.501
-29.5577
-29.6389
-29.7439
-29.8672
-30.0124
-30.1777
-30.3756
-30.6137
-30.9069
-31.2667
-31.7089
-32.2493
-32.9254
-33.7866
-34.8835
-36.2795
-38.0384
-40.2066
-42.8791
-46.1981
-50.3664
-55.5227
-61.6537
-68.4866
-75.5953
-82.4204
-88.5191
-93.7613
-98.0818
-100.821
-100.977
-98.9064
-94.314
-87.6368
-80.1006
-73.1975
-68.6618
-66.6472
-65.8421
-65.6299
-65.4256
-65.1064
-64.646
-64.1595
-63.6775
-63.1187
-62.5541
-61.916
-61.1567
-60.3176
-59.2833
-58.1381
-56.7516
-55.0956
-53.2267
-51.0771
-48.7567
-46.1768
-43.4079
-40.4037
-36.9868
-32.8399
-27.6468
-21.4194
-14.4884
-8.02338
-16.7948
-16.972
-17.1139
-17.2611
-17.388
-17.525
-17.6577
-17.8102
-17.953
-18.0987
-18.2544
-18.3973
-18.5433
-18.7072
-18.8545
-19.0064
-19.1556
-19.2975
-19.4294
-19.5831
-19.7207
-19.8925
-20.0501
-20.2061
-20.373
-20.5232
-20.6975
-20.8485
-21.0182
-21.1786
-21.3386
-21.4795
-21.6001
-21.6984
-21.784
-21.862
-21.934
-22.0158
-22.1028
-22.2057
-22.3125
-22.4372
-22.5783
-22.7047
-22.8246
-22.9211
-23.0245
-23.1278
-23.2388
-23.3636
-23.5133
-23.7152
-23.8738
-23.9917
-24.0807
-24.1624
-24.2246
-24.2789
-24.3397
-24.4112
-24.4758
-24.5582
-24.6718
-24.8307
-25.0399
-25.2517
-25.4457
-25.5858
-25.5912
-25.4843
-25.4916
-25.3819
-25.2478
-25.1586
-25.1368
-25.1472
-25.2356
-25.4165
-25.6552
-25.9392
-26.2757
-26.6438
-27.0226
-27.3943
-27.6641
-27.7982
-27.8028
-27.7503
-27.6799
-27.584
-27.461
-27.3194
-27.1679
-27.0292
-26.9073
-26.7865
-26.7029
-26.6602
-26.622
-26.6285
-26.6755
-26.7793
-26.9553
-27.1895
-27.4735
-27.7623
-28.0462
-28.2792
-28.4714
-28.6427
-28.8054
-28.9589
-29.0941
-29.2075
-29.305
-29.3744
-29.4181
-29.4257
-29.4421
-29.4393
-29.4216
-29.3932
-29.3642
-29.3413
-29.3273
-29.3317
-29.3465
-29.3777
-29.4269
-29.4934
-29.5812
-29.6847
-29.7984
-29.9339
-30.1004
-30.3113
-30.5687
-30.8872
-31.2797
-31.7768
-32.4176
-33.251
-34.3479
-35.7956
-37.6607
-40.0366
-43.0557
-46.9114
-51.8184
-57.9824
-65.3023
-73.3999
-81.6509
-89.3021
-95.8189
-101.176
-105.398
-108.08
-107.974
-103.902
-95.9067
-85.7668
-75.7171
-68.1244
-64.4132
-63.3863
-63.9582
-65.0845
-65.6648
-65.3558
-64.8393
-64.4534
-64.1116
-63.6999
-63.277
-62.7809
-62.2527
-61.6022
-60.7914
-59.8906
-58.7842
-57.3969
-55.822
-53.9579
-51.9313
-49.7452
-47.4062
-44.9215
-41.8933
-37.9431
-32.9034
-26.8032
-20.5834
-16.507
-16.7411
-16.9151
-17.0942
-17.2473
-17.4036
-17.5498
-17.7018
-17.8661
-18.0065
-18.1606
-18.308
-18.4518
-18.6127