/*--------------------------------*- C++ -*----------------------------------*\
| =========                 |                                                 |
| \\      /  F ield         | OpenFOAM: The Open Source CFD Toolbox           |
|  \\    /   O peration     | Version:  4.1                                   |
|   \\  /    A nd           | Web:      www.OpenFOAM.org                      |
|    \\/     M anipulation  |                                                 |
\*---------------------------------------------------------------------------*/
FoamFile
{
    version     2.0;
    format      ascii;
    class       volScalarField;
    location    "12.5";
    object      epsilon;
}
// * * * * * * * * * * * * * * * * * * * * * * * * * * * * * * * * * * * * * //

dimensions      [0 2 -3 0 0 0 0];

internalField   nonuniform List<scalar> 
204246
(
2.79201
2.98144
2.99244
3.01035
3.02279
3.03718
3.04995
3.06441
3.075
3.0912
3.0995
3.11705
3.12301
3.14457
3.15225
3.17075
3.18169
3.18655
3.21582
3.22
3.24175
3.25209
3.2672
3.28113
3.2951
3.30913
3.32321
3.33611
3.35305
3.36708
3.38366
3.39824
3.41511
3.43023
3.44563
3.46207
3.46707
3.49948
3.50455
3.5271
3.53874
3.55706
3.57054
3.58722
3.60062
3.61937
3.63453
3.65237
3.66844
3.68467
3.70191
3.71791
3.73475
3.74008
3.77514
3.78068
3.80502
3.81915
3.83815
3.8553
3.87234
3.88981
3.91043
3.92954
3.94998
3.97042
3.98945
4.01196
4.03107
4.05352
4.06139
4.10095
4.11122
4.1419
4.15803
4.18465
4.20494
4.22902
4.25009
4.27682
4.30161
4.32681
4.35329
4.377
4.4059
4.42964
4.4586
4.47005
4.51837
4.53165
4.5711
4.58974
4.62596
4.64564
4.6848
4.71111
4.74396
4.77577
4.80709
4.8405
4.87027
4.90786
4.93773
4.97568
5.00652
5.04392
5.06533
5.12571
5.14316
5.19736
5.21711
5.27437
5.30122
5.35069
5.38916
5.43216
5.47292
5.51663
5.56041
5.60425
5.65219
5.69566
5.74653
5.77402
5.85462
5.87619
5.95114
5.97845
6.05139
6.08467
6.15556
6.19261
6.26324
6.30354
6.37477
6.41802
6.48929
6.53548
6.6079
6.65685
6.7108
6.79713
6.83777
6.92243
6.96552
7.051
7.09495
7.18241
7.22691
7.31639
7.36104
7.45256
7.49689
7.59072
7.63479
7.73126
7.77506
7.84988
7.93756
7.99075
8.07931
8.13075
8.22212
8.27125
8.36563
8.41197
8.51055
8.55318
8.65644
8.69609
8.80593
8.84174
8.96011
8.99318
9.12462
9.15195
9.27187
9.36317
9.44582
9.56402
9.6421
9.78918
9.87173
10.0517
10.1502
10.3684
10.4973
10.7596
10.9332
11.2155
11.3964
11.5511
11.5711
0.450114
0.689927
0.699425
0.698375
0.708179
0.703108
0.710821
0.707096
0.715202
0.711362
0.72072
0.717356
0.726868
0.721967
0.732216
0.72656
0.737832
0.733024
0.732163
0.74299
0.737634
0.748275
0.7425
0.753061
0.749736
0.760814
0.757677
0.768655
0.763753
0.775572
0.769907
0.781814
0.776091
0.788436
0.782985
0.79664
0.795061
0.794296
0.807409
0.802278
0.814861
0.811855
0.824769
0.821802
0.834498
0.829618
0.843188
0.837599
0.8513
0.845762
0.85918
0.856197
0.871529
0.870137
0.870448
0.885327
0.880459
0.895049
0.89251
0.907692
0.905305
0.920566
0.916291
0.932737
0.927804
0.944695
0.939905
0.956708
0.954593
0.973811
0.973499
0.978703
0.995278
0.994126
1.01333
1.01188
1.03168
1.03014
1.05094
1.0481
1.06969
1.06555
1.08778
1.08381
1.10619
1.10524
1.13085
1.13228
1.14154
1.1626
1.16289
1.18816
1.18793
1.21479
1.21327
1.2413
1.23858
1.26692
1.26377
1.29403
1.29199
1.32275
1.3243
1.35572
1.35746
1.39197
1.39369
1.41919
1.44499
1.4489
1.48481
1.48626
1.52474
1.52463
1.56504
1.56518
1.6084
1.61179
1.65608
1.66054
1.70529
1.70918
1.76021
1.76813
1.80154
1.84091
1.84791
1.90153
1.90983
1.96422
1.9721
2.03083
2.04055
2.10166
2.11246
2.1767
2.1885
2.25595
2.26915
2.34308
2.36024
2.41071
2.47116
2.48705
2.56542
2.58306
2.66444
2.68292
2.7678
2.78747
2.87616
2.89729
2.9876
3.00879
3.10304
3.12568
3.2286
3.25592
3.32322
3.4073
3.43147
3.53203
3.55576
3.65695
3.68063
3.7806
3.80346
3.90153
3.9228
4.01787
4.0379
4.12968
4.14807
4.23898
4.26188
4.3476
4.36859
4.4047
4.47131
4.47518
4.54011
4.53688
4.58642
4.57642
4.61138
4.59573
4.63158
4.61978
4.75772
4.88295
5.35831
5.63976
5.78333
0.590951
0.605554
0.611799
0.615107
0.619987
0.622332
0.626499
0.628654
0.632659
0.634985
0.6388
0.641168
0.644894
0.647375
0.651104
0.653994
0.657749
0.660821
0.6637
0.667589
0.670143
0.674258
0.677067
0.681158
0.684415
0.688434
0.692004
0.69597
0.699751
0.703694
0.707785
0.711842
0.716314
0.720545
0.72544
0.72977
0.734889
0.73861
0.744375
0.748124
0.753896
0.758226
0.763848
0.768699
0.774184
0.779414
0.784808
0.790482
0.795813
0.801937
0.807424
0.814121
0.819754
0.826647
0.831611
0.838855
0.844063
0.851103
0.856986
0.863846
0.870289
0.877006
0.883867
0.89036
0.897795
0.90418
0.912107
0.918859
0.927344
0.93448
0.943176
0.949708
0.958676
0.965567
0.974447
0.982065
0.990963
0.999356
1.00829
1.01711
1.0259
1.03534
1.04421
1.05429
1.06361
1.07447
1.08425
1.09542
1.10446
1.11605
1.12541
1.13705
1.14737
1.15904
1.16985
1.18143
1.19276
1.20452
1.21654
1.2288
1.24137
1.25367
1.26673
1.27974
1.29351
1.30719
1.32093
1.33388
1.34844
1.36107
1.37641
1.389
1.40504
1.41766
1.43444
1.447
1.46471
1.47742
1.49578
1.50836
1.52752
1.54024
1.56102
1.57309
1.59135
1.60696
1.62185
1.64068
1.65353
1.67398
1.68522
1.70763
1.71724
1.74036
1.74941
1.7725
1.78107
1.80411
1.81235
1.83557
1.84331
1.86012
1.87425
1.88217
1.89983
1.90403
1.92084
1.92339
1.93785
1.93855
1.95061
1.94955
1.9568
1.95286
1.95709
1.95
1.95348
1.93946
1.93251
1.92813
1.90591
1.90391
1.87325
1.86878
1.83236
1.8258
1.78469
1.77695
1.7325
1.72393
1.67652
1.66756
1.6176
1.60823
1.55938
1.55062
1.49828
1.475
1.45631
1.4155
1.40996
1.36541
1.36116
1.31969
1.31748
1.28293
1.28458
1.26649
1.27649
1.26547
1.27348
1.16131
1.1195
0.738979
0.724413
0.738455
0.745315
0.750856
0.757974
0.760563
0.76688
0.769025
0.774884
0.776783
0.782312
0.784098
0.789752
0.791187
0.796973
0.798394
0.804663
0.807599
0.81029
0.815353
0.816736
0.822577
0.824264
0.829916
0.831767
0.837501
0.839425
0.845431
0.847101
0.853429
0.855215
0.861796
0.863723
0.87051
0.872722
0.8797
0.883273
0.887184
0.893321
0.895744
0.902585
0.905187
0.912257
0.914996
0.922435
0.925019
0.932792
0.935502
0.943679
0.946788
0.954926
0.958235
0.966743
0.971287
0.976967
0.983816
0.987989
0.995891
0.999357
1.00766
1.01118
1.01968
1.02307
1.0317
1.03514
1.04392
1.04759
1.05626
1.06009
1.06878
1.07367
1.08008
1.08624
1.09161
1.09875
1.10354
1.11138
1.1158
1.12425
1.12816
1.13685
1.14081
1.14968
1.1539
1.16279
1.16715
1.17579
1.18106
1.18796
1.19408
1.20039
1.20711
1.21299
1.22011
1.22549
1.23283
1.23794
1.2454
1.25049
1.25778
1.26286
1.26987
1.27529
1.28195
1.28766
1.29355
1.299
1.30462
1.30941
1.31523
1.31902
1.32526
1.32783
1.33422
1.33592
1.34184
1.34344
1.3485
1.3495
1.35392
1.35418
1.35811
1.35765
1.35775
1.35885
1.35676
1.35786
1.35374
1.35432
1.34803
1.34805
1.33928
1.33846
1.32723
1.32548
1.31152
1.3086
1.29225
1.28842
1.26758
1.25773
1.24329
1.2242
1.21397
1.18764
1.17885
1.14798
1.13786
1.10414
1.09284
1.05631
1.04379
1.00473
0.991134
0.950532
0.93652
0.89237
0.87141
0.840119
0.808464
0.786674
0.747217
0.732461
0.690869
0.676645
0.636981
0.62374
0.58777
0.575786
0.543491
0.533051
0.504548
0.495684
0.470782
0.463383
0.441674
0.432104
0.418863
0.40717
0.399465
0.385649
0.381853
0.368101
0.36502
0.356243
0.356088
0.355951
0.369704
0.381851
0.404615
0.412212
0.417887
0.903526
0.871809
0.882228
0.888126
0.894114
0.901266
0.9041
0.910167
0.912342
0.91748
0.919214
0.923774
0.925283
0.929729
0.930896
0.935286
0.936388
0.940817
0.942848
0.944968
0.948394
0.949327
0.953233
0.954342
0.958064
0.959274
0.962978
0.964223
0.968015
0.96909
0.97302
0.974164
0.978212
0.97946
0.983547
0.98494
0.988925
0.990934
0.993441
0.996629
0.99823
1.00192
1.00343
1.00727
1.00887
1.01285
1.01444
1.01858
1.02028
1.02467
1.0266
1.03105
1.03311
1.03761
1.04016
1.04363
1.04695
1.04991
1.05358
1.05611
1.06002
1.06231
1.06624
1.06825
1.07204
1.07396
1.07757
1.07944
1.08286
1.08468
1.08785
1.08957
1.09197
1.09382
1.09572
1.09762
1.09921
1.10105
1.10245
1.10403
1.10539
1.10648
1.10786
1.10843
1.1099
1.11008
1.11141
1.11134
1.11127
1.11171
1.11104
1.11143
1.11014
1.11041
1.1081
1.10846
1.10531
1.10549
1.10149
1.10152
1.09632
1.09569
1.09011
1.08904
1.08267
1.08129
1.07263
1.0689
1.06377
1.05604
1.05269
1.04195
1.03933
1.02657
1.02339
1.00908
1.00483
0.989905
0.984826
0.96855
0.962847
0.945151
0.939048
0.918775
0.909029
0.894192
0.878236
0.866794
0.84576
0.837047
0.812857
0.804169
0.778625
0.769486
0.743054
0.733606
0.706417
0.696639
0.669148
0.659234
0.630544
0.616924
0.595895
0.576617
0.560956
0.537263
0.526502
0.500828
0.491519
0.466384
0.457538
0.433767
0.425482
0.403298
0.3957
0.375464
0.368697
0.349787
0.341215
0.329142
0.31848
0.311164
0.299371
0.295363
0.284606
0.281472
0.272823
0.270503
0.26371
0.262069
0.257041
0.256091
0.252707
0.252432
0.250536
0.25087
0.250205
0.250485
0.252368
0.25266
0.25567
0.256392
0.259401
0.260087
0.262442
0.262868
0.266159
0.267489
0.274676
0.279491
0.288457
0.292072
0.294662
1.0153
0.991789
0.996383
1.00159
1.00483
1.01051
1.01265
1.0168
1.01825
1.02118
1.02203
1.02415
1.02463
1.02635
1.02646
1.02788
1.02784
1.02902
1.02939
1.0293
1.02978
1.02949
1.02978
1.02949
1.02964
1.02926
1.02934
1.02885
1.02889
1.02823
1.02824
1.02753
1.02747
1.02673
1.02659
1.02571
1.02538
1.0245
1.02363
1.02291
1.0217
1.02104
1.01971
1.01897
1.0177
1.01695
1.01582
1.01506
1.01412
1.01337
1.01267
1.01197
1.01138
1.01047
1.00976
1.0093
1.00804
1.00789
1.00643
1.00621
1.00448
1.00418
1.00201
1.00181
0.99912
0.998789
0.995582
0.994937
0.991517
0.990637
0.986235
0.983601
0.981175
0.976543
0.974758
0.968924
0.967016
0.960434
0.958265
0.950768
0.948734
0.940287
0.937968
0.92872
0.92583
0.916416
0.913151
0.902372
0.896778
0.889267
0.880611
0.874629
0.863634
0.858663
0.845742
0.841527
0.827298
0.822757
0.807786
0.802949
0.787139
0.781587
0.765619
0.759583
0.743027
0.7367
0.718371
0.709849
0.695727
0.683157
0.67168
0.655313
0.647161
0.627857
0.621015
0.600531
0.59309
0.573089
0.565351
0.54539
0.537657
0.517853
0.51021
0.489609
0.479977
0.464817
0.45148
0.440408
0.423981
0.4165
0.398805
0.392341
0.375087
0.368958
0.352652
0.346935
0.331616
0.326264
0.312091
0.307177
0.293585
0.287344
0.278359
0.270334
0.264389
0.255088
0.251579
0.242305
0.239215
0.230911
0.228198
0.220875
0.218522
0.212153
0.210155
0.204672
0.202996
0.198151
0.196028
0.19337
0.190822
0.189468
0.186929
0.186229
0.184259
0.183859
0.18258
0.182486
0.181979
0.182216
0.182181
0.183285
0.183557
0.185422
0.186091
0.188687
0.189768
0.192914
0.19492
0.198432
0.201362
0.205256
0.209122
0.213476
0.218314
0.223145
0.228889
0.234065
0.240489
0.245641
0.250857
0.253169
0.254477
1.09161
1.07386
1.07321
1.07383
1.07485
1.07644
1.07689
1.07757
1.07752
1.07748
1.07613
1.0756
1.07342
1.07247
1.06965
1.06838
1.06505
1.06339
1.06003
1.05734
1.05422
1.05074
1.0477
1.04384
1.04069
1.03666
1.03335
1.02924
1.02579
1.02159
1.01788
1.0137
1.0096
1.00552
1.00097
0.996871
0.991796
0.987061
0.982439
0.976687
0.972317
0.965974
0.961611
0.954705
0.950445
0.942809
0.939118
0.930809
0.927493
0.91888
0.915454
0.907118
0.903704
0.895068
0.890442
0.884471
0.877675
0.873158
0.865455
0.861689
0.853253
0.849906
0.840858
0.837812
0.828211
0.825019
0.814844
0.8112
0.800869
0.796869
0.785566
0.779496
0.770895
0.762116
0.754732
0.743932
0.737355
0.724881
0.718878
0.704821
0.699619
0.684438
0.678978
0.663171
0.657165
0.641407
0.635073
0.618363
0.609838
0.596884
0.585348
0.574631
0.56075
0.551828
0.535605
0.529134
0.511636
0.505308
0.48777
0.481481
0.464004
0.457438
0.440753
0.43416
0.417946
0.411534
0.39496
0.387346
0.37481
0.365008
0.35526
0.343256
0.336841
0.323406
0.318589
0.305168
0.300359
0.288178
0.283577
0.272288
0.268041
0.257614
0.253722
0.243592
0.239104
0.232091
0.226405
0.221608
0.214862
0.212117
0.205219
0.202898
0.196627
0.194577
0.189002
0.187222
0.182286
0.180734
0.17642
0.175089
0.171165
0.169417
0.167194
0.164912
0.163751
0.161354
0.160638
0.158494
0.157938
0.156182
0.155772
0.154386
0.154115
0.153085
0.152951
0.152268
0.152278
0.151943
0.151877
0.152176
0.152142
0.152837
0.152982
0.154033
0.154375
0.155769
0.156312
0.158142
0.15893
0.161215
0.162259
0.165035
0.166368
0.169628
0.171258
0.174971
0.176918
0.180896
0.183494
0.187579
0.190853
0.195055
0.198889
0.203285
0.207695
0.212413
0.217385
0.222405
0.227679
0.232302
0.236298
0.238236
0.239204
1.13326
1.11652
1.11255
1.10701
1.10436
1.10058
1.09806
1.09466
1.09157
1.08797
1.084
1.07999
1.07529
1.07088
1.0655
1.06066
1.05476
1.04922
1.04285
1.03692
1.02999
1.02359
1.01613
1.00938
1.00145
0.994393
0.985957
0.978751
0.969591
0.962571
0.952839
0.94586
0.935603
0.928621
0.91782
0.910603
0.899388
0.89077
0.88113
0.870587
0.861702
0.850181
0.841545
0.82933
0.820883
0.807868
0.799972
0.786139
0.778683
0.764259
0.757055
0.742796
0.735729
0.721415
0.712998
0.701948
0.691263
0.682217
0.670496
0.662757
0.650213
0.643426
0.629813
0.624317
0.610089
0.60469
0.590151
0.584424
0.570076
0.564145
0.549098
0.541402
0.529547
0.519173
0.509183
0.49682
0.48824
0.474337
0.46689
0.451654
0.445628
0.429753
0.423738
0.40795
0.401739
0.386675
0.380487
0.365406
0.35788
0.346328
0.337077
0.327821
0.317257
0.310034
0.298167
0.293439
0.281268
0.276872
0.26542
0.261338
0.250617
0.246651
0.237042
0.23332
0.22454
0.22115
0.212706
0.208923
0.202883
0.198415
0.193958
0.188701
0.186043
0.180407
0.178489
0.173143
0.171323
0.166705
0.165042
0.160957
0.159492
0.155867
0.154581
0.151172
0.149699
0.147489
0.145725
0.144241
0.142168
0.141436
0.139359
0.13873
0.136917
0.136389
0.134833
0.134404
0.133078
0.132732
0.131623
0.131357
0.130388
0.129977
0.129641
0.129111
0.129025
0.128583
0.128567
0.128277
0.128326
0.128216
0.128367
0.128327
0.128671
0.128714
0.129269
0.129423
0.130186
0.130458
0.131325
0.131957
0.132817
0.133802
0.134766
0.136161
0.137334
0.139106
0.140484
0.142649
0.144317
0.14692
0.148966
0.152068
0.154547
0.158153
0.161105
0.165204
0.168644
0.17313
0.177002
0.181673
0.185801
0.190633
0.195057
0.200007
0.204714
0.209754
0.214678
0.219683
0.224487
0.228802
0.232184
0.234024
0.234841
1.16062
1.13327
1.12461
1.1105
1.10356
1.09303
1.0866
1.07765
1.07111
1.06279
1.05584
1.04742
1.03993
1.03111
1.02315
1.01384
1.00551
0.995455
0.986101
0.976724
0.966063
0.956665
0.945088
0.935366
0.923311
0.913148
0.90059
0.890109
0.876913
0.866431
0.852586
0.842021
0.827614
0.816989
0.802036
0.791125
0.77579
0.76341
0.749879
0.735567
0.722785
0.707508
0.695066
0.679068
0.666917
0.650167
0.638738
0.621278
0.61049
0.592614
0.582339
0.56482
0.554936
0.537622
0.526765
0.512904
0.500161
0.488571
0.475064
0.465118
0.451105
0.442555
0.427917
0.421027
0.40613
0.400042
0.385355
0.379315
0.365479
0.359601
0.345896
0.339017
0.328257
0.319885
0.31104
0.301518
0.294268
0.283935
0.278062
0.267125
0.262698
0.251769
0.247591
0.23726
0.233193
0.223829
0.22
0.21113
0.206785
0.200198
0.195303
0.190187
0.184881
0.181073
0.175315
0.17299
0.167279
0.165235
0.16008
0.158267
0.153641
0.151957
0.147966
0.146445
0.142918
0.141579
0.138289
0.136832
0.134549
0.132882
0.131238
0.129327
0.128376
0.126369
0.125704
0.123838
0.123225
0.121648
0.121102
0.119741
0.119277
0.118102
0.117713
0.116633
0.116177
0.115559
0.115002
0.114656
0.11406
0.113924
0.113397
0.113308
0.112917
0.11288
0.112607
0.11262
0.112482
0.112551
0.112496
0.112671
0.112666
0.112897
0.113144
0.11331
0.113773
0.113938
0.114554
0.114787
0.115537
0.115846
0.116737
0.117126
0.118164
0.118647
0.119831
0.120441
0.121779
0.122552
0.123975
0.125016
0.126481
0.1278
0.129391
0.130971
0.132706
0.134591
0.136527
0.138793
0.141013
0.143667
0.146218
0.149292
0.152279
0.155862
0.159349
0.16347
0.167496
0.172131
0.176594
0.181663
0.186523
0.191883
0.196985
0.202505
0.207651
0.213121
0.218016
0.223131
0.227342
0.231534
0.234162
0.236014
0.236697
1.1967
1.14967
1.13336
1.107
1.09211
1.07069
1.05692
1.03963
1.02697
1.0122
1.00037
0.987123
0.975632
0.963143
0.951812
0.939374
0.928121
0.915352
0.903352
0.891713
0.878519
0.867094
0.853197
0.84135
0.826972
0.814628
0.799743
0.787002
0.771475
0.75859
0.742392
0.729334
0.712588
0.699392
0.682164
0.668695
0.651236
0.636537
0.620794
0.60453
0.589573
0.572713
0.558234
0.54102
0.527025
0.509545
0.496462
0.478836
0.466634
0.449107
0.437676
0.420847
0.410093
0.393858
0.382926
0.369428
0.357668
0.346064
0.334135
0.323998
0.312081
0.303245
0.291324
0.283855
0.27197
0.265835
0.254275
0.249021
0.23838
0.233567
0.22366
0.218735
0.210831
0.205588
0.199103
0.193618
0.188369
0.182745
0.178554
0.172776
0.169727
0.163956
0.161548
0.156166
0.153949
0.149217
0.14721
0.142888
0.140772
0.137549
0.135333
0.132773
0.130519
0.12854
0.126203
0.124854
0.122478
0.121533
0.119323
0.118501
0.116542
0.115797
0.11412
0.113459
0.111992
0.111416
0.110062
0.109452
0.108512
0.107837
0.107136
0.1064
0.105963
0.105182
0.104915
0.104185
0.103947
0.103351
0.103153
0.102658
0.102504
0.102103
0.101991
0.101642
0.101506
0.101389
0.101246
0.10123
0.101134
0.101177
0.101134
0.101237
0.101228
0.101429
0.101466
0.101766
0.101854
0.102243
0.102383
0.102862
0.103053
0.103567
0.103941
0.104439
0.104979
0.105491
0.106174
0.106731
0.107547
0.108177
0.109123
0.109851
0.110928
0.111776
0.112995
0.113985
0.115355
0.116513
0.118043
0.119479
0.121182
0.122931
0.124847
0.126896
0.129116
0.131506
0.134084
0.136825
0.139765
0.142878
0.146232
0.149788
0.153614
0.157669
0.162037
0.166625
0.171582
0.176726
0.182094
0.187762
0.193483
0.19957
0.205504
0.211823
0.217725
0.223943
0.229398
0.235016
0.239476
0.243827
0.246519
0.248407
0.24908
1.2863
1.20837
1.18001
1.13663
1.11038
1.07522
1.04887
1.01842
0.993983
0.969131
0.947579
0.926946
0.908205
0.890659
0.874058
0.858175
0.842883
0.827859
0.8129
0.799714
0.784636
0.772
0.757177
0.744369
0.729576
0.716358
0.701393
0.687934
0.6727
0.659226
0.643642
0.630099
0.614205
0.600581
0.584401
0.570629
0.554384
0.539932
0.524943
0.509797
0.495455
0.480299
0.466547
0.451671
0.438642
0.424265
0.412259
0.398612
0.387682
0.374953
0.365036
0.353314
0.344278
0.333421
0.324906
0.31533
0.307028
0.298101
0.289861
0.281235
0.272837
0.264285
0.25569
0.247178
0.238517
0.230142
0.22174
0.213852
0.205935
0.198563
0.191229
0.184494
0.178056
0.172125
0.166322
0.161239
0.156126
0.151841
0.147333
0.143684
0.139743
0.136647
0.133209
0.130535
0.127556
0.125243
0.12266
0.120616
0.118299
0.116677
0.114561
0.11319
0.111335
0.110138
0.108501
0.107484
0.106037
0.10517
0.103895
0.103155
0.102039
0.101404
0.10045
0.0998992
0.0990728
0.0986105
0.0978657
0.0974469
0.0968982
0.0964642
0.0960546
0.0956348
0.0953527
0.0949583
0.0947849
0.0944351
0.0943072
0.0940443
0.0939542
0.093772
0.0937224
0.0936167
0.0936052
0.0935654
0.0935661
0.0936579
0.093682
0.0938509
0.0939164
0.0941651
0.0942761
0.094604
0.0947692
0.095175
0.0954026
0.0958837
0.0961723
0.0967335
0.0970906
0.0977349
0.0981738
0.0988772
0.0994536
0.100192
0.100897
0.101705
0.102531
0.103425
0.104373
0.105369
0.106444
0.107557
0.108765
0.110016
0.111367
0.112779
0.11429
0.115903
0.117591
0.119384
0.121261
0.123252
0.125358
0.127583
0.130008
0.132549
0.135364
0.138341
0.141598
0.145086
0.14885
0.15288
0.157215
0.161821
0.16678
0.171971
0.177604
0.183418
0.189494
0.195909
0.202373
0.209256
0.215949
0.223066
0.229679
0.236609
0.242611
0.24872
0.253413
0.257988
0.260634
0.262591
0.263236
1.48554
1.36644
1.32154
1.25471
1.21075
1.15738
1.11341
1.06824
1.0266
0.987756
0.949784
0.915845
0.882318
0.854042
0.826835
0.804029
0.780986
0.761927
0.74193
0.72598
0.708536
0.694155
0.678942
0.665369
0.651452
0.638141
0.624842
0.611866
0.599128
0.586707
0.57446
0.562495
0.550633
0.539038
0.527392
0.515962
0.504479
0.493143
0.482266
0.471285
0.460706
0.450303
0.440199
0.430581
0.421276
0.412737
0.404499
0.39726
0.390151
0.384102
0.378026
0.373197
0.368225
0.364716
0.361276
0.357477
0.355548
0.351247
0.349514
0.344187
0.341839
0.334905
0.331745
0.322406
0.318229
0.306432
0.301147
0.287782
0.281484
0.267263
0.260341
0.247343
0.238155
0.227597
0.217261
0.209027
0.198415
0.192392
0.182289
0.177847
0.168739
0.165019
0.157224
0.154087
0.147506
0.144738
0.139155
0.136775
0.132221
0.129705
0.126036
0.123632
0.120672
0.118294
0.115997
0.11358
0.11187
0.109458
0.108221
0.105939
0.105001
0.102978
0.102132
0.100424
0.099698
0.0982465
0.0976348
0.0964608
0.0958627
0.0949366
0.0944367
0.0937026
0.0932824
0.0927268
0.0923609
0.0919685
0.0916605
0.0914094
0.0911697
0.0910283
0.0908718
0.0908057
0.090742
0.0907265
0.0907211
0.0908063
0.0908625
0.0910172
0.0911587
0.0913629
0.0916019
0.0918573
0.0921805
0.0924925
0.0928905
0.0932797
0.0937547
0.0942189
0.0947785
0.0953112
0.0959638
0.0965767
0.0973313
0.0980334
0.0988855
0.0996992
0.100643
0.101585
0.102627
0.103712
0.104862
0.106106
0.107381
0.108801
0.110222
0.111839
0.113428
0.115277
0.117081
0.11917
0.121243
0.123624
0.126038
0.12873
0.131533
0.134527
0.137775
0.141118
0.14488
0.148697
0.15306
0.157459
0.162524
0.16758
0.173413
0.179157
0.185816
0.192317
0.199506
0.206758
0.214406
0.222254
0.230162
0.238328
0.246118
0.254089
0.261097
0.268065
0.273399
0.278486
0.281384
0.283504
0.284173
1.76395
1.64098
1.59021
1.50767
1.44683
1.37647
1.31201
1.24885
1.18462
1.12758
1.06744
1.01636
0.962513
0.918327
0.871982
0.836556
0.798461
0.770421
0.739473
0.715854
0.691919
0.672266
0.654525
0.637651
0.623762
0.60877
0.597015
0.583478
0.573352
0.561392
0.55286
0.542468
0.535339
0.5263
0.520062
0.511853
0.505895
0.498219
0.492187
0.485717
0.479635
0.474346
0.468323
0.464164
0.458599
0.455909
0.45196
0.450945
0.449492
0.449998
0.449802
0.451722
0.452536
0.456625
0.459792
0.462736
0.468418
0.470602
0.47594
0.477584
0.480849
0.481047
0.481944
0.479913
0.479468
0.473322
0.470246
0.460363
0.454746
0.441884
0.434001
0.4205
0.407525
0.395133
0.379158
0.368006
0.35035
0.340784
0.323025
0.315303
0.298171
0.291356
0.275825
0.269862
0.256183
0.250671
0.238586
0.233694
0.223966
0.217629
0.210268
0.203032
0.197601
0.189602
0.185968
0.177489
0.17445
0.166299
0.163453
0.155837
0.153185
0.146243
0.143593
0.137355
0.134945
0.129344
0.127276
0.122612
0.120015
0.116531
0.113913
0.111468
0.108608
0.107222
0.104453
0.103517
0.101232
0.100427
0.0986744
0.0980602
0.0967266
0.0962762
0.0952952
0.0950032
0.0943961
0.0940652
0.0937901
0.0935866
0.0935617
0.0934754
0.0935453
0.0935582
0.0938464
0.0939351
0.0943763
0.0945599
0.0951376
0.0954059
0.0961159
0.0964668
0.0973174
0.0978104
0.0987027
0.0993754
0.100316
0.10118
0.102176
0.103236
0.104301
0.105563
0.106715
0.108189
0.109449
0.11115
0.11254
0.114482
0.116028
0.118245
0.120049
0.122408
0.124572
0.127141
0.12971
0.132548
0.135586
0.138791
0.142347
0.146004
0.150144
0.154342
0.159162
0.164013
0.169636
0.17525
0.181782
0.188227
0.195763
0.203147
0.211362
0.219687
0.228501
0.237577
0.246758
0.256254
0.265373
0.274678
0.282941
0.291047
0.2973
0.303073
0.306344
0.308671
0.309376
1.94142
1.88753
1.85546
1.79744
1.74897
1.69006
1.63029
1.56916
1.50102
1.43502
1.36104
1.29263
1.21825
1.1532
1.08153
1.0255
0.962745
0.918383
0.869452
0.829158
0.794541
0.760241
0.736614
0.70879
0.692121
0.669423
0.656828
0.637704
0.628011
0.611719
0.604536
0.591724
0.586519
0.577127
0.573601
0.566756
0.564165
0.559709
0.556579
0.554389
0.551264
0.550396
0.54801
0.547775
0.54671
0.547466
0.547048
0.549437
0.549808
0.554769
0.556719
0.56363
0.567053
0.575848
0.582034
0.589583
0.598855
0.605598
0.616072
0.62205
0.632288
0.63671
0.644517
0.646779
0.650693
0.650394
0.65108
0.648423
0.646757
0.640114
0.635736
0.62737
0.617384
0.60856
0.595132
0.585848
0.570382
0.561002
0.544591
0.535994
0.518721
0.511608
0.494975
0.488496
0.473178
0.466958
0.453054
0.447466
0.436293
0.428141
0.419886
0.409945
0.40379
0.392343
0.387993
0.375156
0.370853
0.357461
0.352951
0.338989
0.33422
0.319936
0.314407
0.299888
0.294147
0.27943
0.273846
0.260185
0.25145
0.240695
0.229677
0.221898
0.208755
0.203638
0.190421
0.18571
0.17392
0.169384
0.159163
0.155219
0.146434
0.143095
0.135729
0.133096
0.127438
0.124322
0.120466
0.117686
0.115237
0.112438
0.111365
0.108905
0.108264
0.106524
0.106064
0.104983
0.10476
0.104187
0.104196
0.103992
0.104215
0.104325
0.104732
0.105183
0.105698
0.106484
0.107076
0.108172
0.108862
0.11023
0.111056
0.112678
0.113665
0.115544
0.116716
0.118868
0.120248
0.122702
0.124413
0.127
0.129159
0.131937
0.134588
0.137611
0.140834
0.144198
0.148049
0.151873
0.156419
0.160839
0.166177
0.171327
0.177607
0.183631
0.191008
0.198028
0.20666
0.214859
0.224408
0.233818
0.244211
0.254613
0.26558
0.276597
0.287646
0.298622
0.308792
0.318533
0.326266
0.333296
0.337128
0.339921
0.340714
1.81352
1.87796
1.88761
1.88501
1.87922
1.86535
1.84511
1.82008
1.78745
1.74934
1.70305
1.65211
1.59328
1.53331
1.4631
1.39838
1.3236
1.26114
1.19478
1.13342
1.08194
1.02626
0.98856
0.942458
0.915281
0.878145
0.858351
0.827788
0.813432
0.787026
0.776018
0.754543
0.746355
0.730449
0.72507
0.714273
0.710685
0.704534
0.700146
0.697931
0.693851
0.692997
0.689965
0.689862
0.688379
0.689409
0.688666
0.691277
0.691227
0.696347
0.697833
0.705215
0.708212
0.71765
0.723795
0.731651
0.741434
0.748457
0.759776
0.766321
0.777909
0.783626
0.794032
0.797884
0.805534
0.807496
0.810841
0.810604
0.810962
0.808545
0.807078
0.80289
0.796415
0.790995
0.781477
0.774694
0.763358
0.755958
0.743713
0.736708
0.723723
0.717959
0.705646
0.70099
0.690198
0.686104
0.677276
0.674212
0.668329
0.664084
0.660961
0.656073
0.65473
0.649855
0.649112
0.643642
0.643037
0.636953
0.63611
0.629003
0.627689
0.61939
0.616856
0.606901
0.603423
0.591419
0.58727
0.575062
0.564922
0.554654
0.539747
0.530876
0.510975
0.503302
0.480512
0.472
0.447983
0.43812
0.413514
0.403298
0.378458
0.368222
0.343914
0.334296
0.312271
0.299037
0.282025
0.266424
0.254384
0.236483
0.229372
0.212056
0.205977
0.191366
0.185902
0.173975
0.169553
0.15992
0.156639
0.148824
0.14647
0.14117
0.138227
0.135237
0.132823
0.13138
0.129442
0.129055
0.127849
0.127869
0.127497
0.12794
0.127927
0.129176
0.129501
0.131321
0.131986
0.134368
0.135557
0.138014
0.139961
0.142539
0.145228
0.148001
0.15146
0.154538
0.15879
0.162312
0.167414
0.171544
0.17758
0.182496
0.189626
0.195518
0.203941
0.211001
0.220952
0.229509
0.240609
0.25082
0.263037
0.274711
0.287741
0.300502
0.313759
0.326965
0.339353
0.351648
0.361129
0.370439
0.374977
0.37858
0.379561
1.31082
1.53959
1.60911
1.66493
1.70127
1.73292
1.75573
1.76936
1.7803
1.78253
1.78299
1.77747
1.76733
1.74957
1.72414
1.69194
1.65123
1.60818
1.5604
1.50836
1.46105
1.40576
1.36218
1.3104
1.27281
1.22799
1.19753
1.15945
1.13578
1.10109
1.08237
1.04978
1.03548
1.0075
0.996318
0.974475
0.965752
0.95108
0.941576
0.933689
0.92386
0.919511
0.910916
0.908188
0.901421
0.900047
0.894875
0.894827
0.891743
0.892865
0.891941
0.894469
0.894529
0.899699
0.902853
0.906326
0.913072
0.91602
0.923753
0.926666
0.934216
0.936928
0.943626
0.945411
0.950498
0.951177
0.953118
0.952126
0.95201
0.948916
0.94724
0.94324
0.937705
0.932929
0.924931
0.918832
0.909266
0.902377
0.892113
0.885374
0.874777
0.868995
0.858908
0.854548
0.84624
0.842933
0.836857
0.834814
0.832611
0.831299
0.831636
0.831407
0.833233
0.833797
0.837507
0.838299
0.843226
0.844417
0.849903
0.85124
0.856962
0.858478
0.863629
0.864966
0.869387
0.870194
0.874332
0.875768
0.875982
0.877116
0.875917
0.876708
0.873022
0.873324
0.866829
0.866054
0.8568
0.854028
0.841763
0.837356
0.821558
0.815143
0.795628
0.788038
0.768076
0.751227
0.734067
0.710102
0.694931
0.663822
0.650816
0.615662
0.60212
0.565742
0.550693
0.514498
0.499525
0.464239
0.450329
0.415249
0.402165
0.37178
0.354498
0.331789
0.311937
0.296284
0.274982
0.265737
0.245984
0.238966
0.222812
0.217422
0.204881
0.200976
0.191704
0.189111
0.182721
0.181277
0.178171
0.176163
0.175996
0.175328
0.175983
0.176312
0.178855
0.179635
0.183649
0.185217
0.190482
0.192956
0.199443
0.203021
0.210827
0.215488
0.224771
0.230698
0.241756
0.249628
0.261759
0.272117
0.285469
0.298259
0.31264
0.327585
0.342495
0.358903
0.373331
0.389699
0.401246
0.414077
0.420093
0.424832
0.426127
0.591993
0.837
0.927195
1.04846
1.13349
1.21766
1.29727
1.3526
1.42058
1.4583
1.50922
1.53357
1.57007
1.58566
1.60827
1.61483
1.61926
1.61644
1.6132
1.60366
1.59269
1.5749
1.55692
1.53357
1.51201
1.48685
1.4657
1.44129
1.4232
1.39957
1.38429
1.35993
1.34633
1.32156
1.30885
1.28493
1.27309
1.25441
1.24012
1.22831
1.21372
1.20546
1.19141
1.18545
1.17319
1.16888
1.15804
1.15499
1.14608
1.1441
1.13706
1.13536
1.12987
1.12888
1.12584
1.12274
1.12272
1.11923
1.11888
1.11521
1.11454
1.11034
1.10944
1.10425
1.10287
1.09654
1.09426
1.08704
1.08323
1.07513
1.07005
1.06224
1.05423
1.04674
1.03701
1.02899
1.01817
1.00963
0.998372
0.989952
0.978654
0.970996
0.960427
0.954042
0.945064
0.940109
0.933183
0.929859
0.926679
0.92523
0.925217
0.925284
0.927206
0.929286
0.933753
0.937333
0.943985
0.948715
0.956853
0.962414
0.971835
0.978298
0.988384
0.995572
1.00605
1.01356
1.02454
1.03286
1.04216
1.05164
1.05998
1.07025
1.07735
1.08811
1.09415
1.105
1.11032
1.12053
1.12519
1.13479
1.1386
1.14734
1.15041
1.15898
1.16277
1.16659
1.1715
1.1723
1.17635
1.17519
1.17725
1.17329
1.17418
1.1658
1.16396
1.14987
1.14492
1.12467
1.11701
1.08889
1.07883
1.05006
1.02428
0.99885
0.961323
0.937555
0.88959
0.867946
0.814269
0.792492
0.737327
0.715639
0.66087
0.63934
0.58595
0.565185
0.515323
0.496248
0.455507
0.431583
0.403515
0.378277
0.360945
0.336936
0.328144
0.308745
0.303043
0.289944
0.286977
0.279791
0.279173
0.277106
0.278618
0.279286
0.284989
0.286596
0.295212
0.299416
0.308329
0.316646
0.326487
0.338864
0.350213
0.366255
0.379812
0.39913
0.41404
0.435337
0.449635
0.467646
0.476149
0.482723
0.484515
0.109961
0.221187
0.261887
0.33593
0.397625
0.465405
0.542196
0.604412
0.685363
0.745011
0.824397
0.880382
0.955815
1.00371
1.0782
1.11899
1.18835
1.21876
1.26835
1.30149
1.32828
1.35808
1.36971
1.38949
1.39657
1.40904
1.41349
1.42239
1.42642
1.43433
1.44051
1.44718
1.45323
1.45756
1.45929
1.45911
1.45857
1.45648
1.45185
1.44917
1.44247
1.43953
1.43162
1.42844
1.42023
1.41728
1.40875
1.40611
1.39783
1.39543
1.38693
1.38373
1.37449
1.37057
1.36235
1.35385
1.3471
1.336
1.32861
1.31628
1.30792
1.29463
1.28562
1.27106
1.26162
1.24633
1.23642
1.22101
1.21029
1.19512
1.18391
1.17001
1.15685
1.14427
1.13034
1.1182
1.10392
1.09189
1.07761
1.06594
1.05186
1.04096
1.02766
1.01787
1.00605
0.99762
0.987799
0.981133
0.974161
0.969037
0.965173
0.962755
0.962118
0.961964
0.963202
0.965342
0.969562
0.973788
0.979889
0.985757
0.993768