/*--------------------------------*- C++ -*----------------------------------*\
| =========                 |                                                 |
| \\      /  F ield         | OpenFOAM: The Open Source CFD Toolbox           |
|  \\    /   O peration     | Version:  4.1                                   |
|   \\  /    A nd           | Web:      www.OpenFOAM.org                      |
|    \\/     M anipulation  |                                                 |
\*---------------------------------------------------------------------------*/
FoamFile
{
    version     2.0;
    format      ascii;
    class       volScalarField;
    location    "12.5";
    object      k;
}
// * * * * * * * * * * * * * * * * * * * * * * * * * * * * * * * * * * * * * //

dimensions      [0 2 -2 0 0 0 0];

internalField   nonuniform List<scalar> 
204246
(
2.09157
2.18022
2.1905
2.19427
2.20526
2.20802
2.21771
2.22119
2.22983
2.2341
2.24164
2.24654
2.25371
2.25898
2.26775
2.27149
2.28185
2.28415
2.29297
2.30012
2.30528
2.31538
2.3181
2.32837
2.33128
2.3416
2.34452
2.35509
2.35774
2.36964
2.37207
2.38423
2.38674
2.39916
2.40174
2.41319
2.41631
2.42588
2.43368
2.43943
2.44867
2.45322
2.4633
2.46706
2.47793
2.48093
2.49345
2.49598
2.50893
2.51151
2.52332
2.52659
2.53822
2.54147
2.55158
2.55983
2.56589
2.57631
2.58075
2.59254
2.59606
2.60885
2.61218
2.62659
2.62977
2.64477
2.64815
2.66231
2.66654
2.68067
2.68502
2.69727
2.70605
2.7152
2.72655
2.73385
2.74702
2.75314
2.76756
2.77291
2.78988
2.79448
2.81218
2.81699
2.83385
2.83953
2.85641
2.86224
2.87732
2.88752
2.89966
2.91214
2.92281
2.93671
2.94655
2.96423
2.9713
2.99129
2.9976
3.01826
3.02483
3.04519
3.05269
3.07318
3.08098
3.10223
3.10998
3.12969
3.14175
3.15879
3.17284
3.18884
3.20686
3.22017
3.24147
3.25278
3.2753
3.28641
3.31011
3.32112
3.34643
3.35713
3.38357
3.39424
3.41931
3.43427
3.45679
3.474
3.4955
3.51503
3.5355
3.55648
3.57661
3.59883
3.61882
3.64226
3.66216
3.68657
3.70665
3.73207
3.75221
3.77708
3.79939
3.82336
3.84644
3.87055
3.89407
3.91849
3.9422
3.96707
3.99083
4.01614
4.03978
4.06562
4.08917
4.11552
4.1391
4.16561
4.18854
4.2153
4.23826
4.26439
4.28806
4.31338
4.33781
4.36216
4.38762
4.41084
4.43777
4.45984
4.48871
4.5095
4.54095
4.56085
4.59636
4.61437
4.65443
4.67613
4.71262
4.74276
4.77768
4.81691
4.85324
4.90265
4.94409
5.00511
5.05617
5.13003
5.1952
5.27412
5.34091
5.37881
5.39534
1.41873
1.39915
1.40251
1.40336
1.4072
1.40724
1.41092
1.41106
1.41461
1.41464
1.41865
1.4189
1.4227
1.42255
1.42655
1.42632
1.43087
1.43124
1.43189
1.43559
1.43554
1.43978
1.43965
1.44483
1.44547
1.45094
1.45182
1.45723
1.45766
1.46343
1.46385
1.46997
1.47049
1.47699
1.47776
1.48579
1.48811
1.49077
1.49706
1.4983
1.50624
1.50816
1.51628
1.51837
1.52633
1.52789
1.5361
1.53765
1.54607
1.54772
1.55691
1.55935
1.56913
1.57244
1.57703
1.58471
1.58691
1.59659
1.5995
1.60938
1.6125
1.62231
1.62495
1.6351
1.63781
1.64837
1.65127
1.66288
1.66668
1.67927
1.68412
1.69179
1.70279
1.70743
1.7205
1.72529
1.73917
1.74421
1.75866
1.76362
1.77825
1.78315
1.79857
1.80377
1.82047
1.82675
1.84467
1.85212
1.86453
1.87921
1.88802
1.90589
1.9134
1.93292
1.94046
1.96028
1.96788
1.98845
1.99623
2.01818
2.02673
2.04967
2.05933
2.0832
2.0934
2.11869
2.12954
2.15131
2.16999
2.18758
2.21108
2.22504
2.2521
2.26417
2.29357
2.30624
2.33803
2.3517
2.3847
2.3994
2.4335
2.4488
2.48567
2.50269
2.53463
2.56058
2.58871
2.61957
2.64678
2.68054
2.70741
2.74518
2.77212
2.81269
2.8405
2.88348
2.91277
2.958
2.98945
3.03729
3.0723
3.11466
3.15925
3.2003
3.24753
3.29125
3.34016
3.38681
3.43739
3.48726
3.53961
3.5929
3.6456
3.70294
3.75684
3.81897
3.87643
3.94281
3.99469
4.06974
4.12566
4.19573
4.26255
4.3272
4.40358
4.46297
4.54674
4.60226
4.69003
4.74413
4.83178
4.88726
4.96748
5.02612
5.10938
5.16643
5.24802
5.28722
5.38081
5.41648
5.5057
5.53787
5.62252
5.65133
5.73291
5.75889
5.84719
5.87826
6.04453
6.18916
6.60318
6.85935
6.96788
2.05511
1.96173
1.98681
1.99968
2.00105
2.01235
2.0121
2.02046
2.01999
2.02768
2.02684
2.03371
2.03263
2.04036
2.0381
2.04581
2.04349
2.05229
2.05587
2.05346
2.06047
2.05809
2.06563
2.06403
2.07078
2.06963
2.07669
2.07566
2.08424
2.08236
2.09143
2.08978
2.09948
2.09805
2.1081
2.10739
2.11831
2.12375
2.12286
2.13346
2.13311
2.14332
2.14358
2.15436
2.15487
2.16702
2.16662
2.17938
2.17912
2.19258
2.19334
2.20579
2.20705
2.22099
2.22777
2.2286
2.24141
2.24209
2.25411
2.25531
2.26726
2.26854
2.28143
2.28156
2.29515
2.2954
2.30953
2.31088
2.32409
2.32603
2.3407
2.34789
2.35119
2.36331
2.36531
2.37887
2.38127
2.39552
2.39826
2.41353
2.41533
2.43148
2.43358
2.45068
2.45399
2.47046
2.47447
2.49243
2.50129
2.50838
2.52305
2.52717
2.544
2.54851
2.56616
2.56986
2.58818
2.59219
2.61118
2.61567
2.63496
2.64018
2.65867
2.6646
2.68365
2.68998
2.71055
2.71958
2.73168
2.74699
2.7539
2.77279
2.77879
2.7984
2.80471
2.82462
2.83163
2.8509
2.85814
2.87757
2.88497
2.90512
2.91312
2.9335
2.94313
2.95728
2.97113
2.98139
2.99827
3.00602
3.02381
3.03183
3.0491
3.05714
3.07357
3.08156
3.09712
3.10514
3.12024
3.12853
3.14234
3.14901
3.1598
3.1656
3.17447
3.17897
3.18633
3.18766
3.19307
3.19184
3.19416
3.19028
3.19073
3.17959
3.17949
3.16228
3.16089
3.13418
3.12115
3.10528
3.07214
3.06297
3.01698
3.00457
2.9506
2.93522
2.87463
2.85711
2.79147
2.77212
2.70198
2.68143
2.60762
2.58644
2.51283
2.49264
2.414
2.37753
2.34167
2.27928
2.26389
2.19396
2.17988
2.11273
2.10095
2.04194
2.03534
1.99546
1.99972
1.97378
1.97901
1.84589
1.7965
2.78261
2.63376
2.65272
2.66824
2.67148
2.68331
2.68382
2.6908
2.69028
2.69554
2.69442
2.69832
2.69689
2.70115
2.69874
2.70259
2.70003
2.70378
2.70526
2.70244
2.70569
2.70288
2.70626
2.70427
2.70685
2.70526
2.70808
2.70662
2.71044
2.7083
2.71242
2.71047
2.71509
2.71338
2.71827
2.71716
2.72191
2.72454
2.72342
2.72854
2.72769
2.7325
2.73209
2.7374
2.7372
2.74359
2.7429
2.7496
2.74907
2.75629
2.75651
2.76351
2.76418
2.77153
2.77522
2.77577
2.78255
2.78281
2.78909
2.78962
2.79564
2.79616
2.80243
2.80226
2.80857
2.80839
2.81467
2.81501
2.8207
2.82132
2.82696
2.82978
2.8304
2.83462
2.83484
2.8393
2.83966
2.84418
2.84465
2.84932
2.84937
2.85401
2.85408
2.85876
2.85931
2.86353
2.86431
2.86821
2.87016
2.87062
2.87331
2.87362
2.87623
2.87654
2.8789
2.87891
2.88087
2.88083
2.88238
2.88235
2.88333
2.88326
2.88366
2.88353
2.88373
2.88332
2.88306
2.88212
2.88023
2.87907
2.87663
2.87501
2.87195
2.86967
2.86596
2.86309
2.85857
2.85531
2.84975
2.84574
2.83938
2.83401
2.82764
2.81931
2.81063
2.80267
2.79031
2.78305
2.76616
2.75983
2.7388
2.73195
2.70743
2.69943
2.67115
2.66187
2.6293
2.61837
2.58204
2.56983
2.52577
2.50422
2.47264
2.43429
2.41138
2.36076
2.34138
2.28365
2.26235
2.20061
2.17757
2.11203
2.08721
2.01815
1.99172
1.92058
1.89343
1.81703
1.7801
1.72155
1.66899
1.624
1.55884
1.52632
1.45472
1.42723
1.35631
1.33036
1.26485
1.24096
1.1814
1.16008
1.1068
1.08817
1.04098
1.0249
0.982758
0.963658
0.935964
0.913051
0.894925
0.868585
0.857132
0.83021
0.821723
0.803029
0.800161
0.796109
0.810502
0.827542
0.857529
0.86718
0.874427
3.28276
3.19087
3.19567
3.20884
3.21068
3.21876
3.21837
3.22058
3.21802
3.21897
3.21398
3.21407
3.20781
3.20789
3.20031
3.20031
3.19208
3.19173
3.18612
3.17959
3.17851
3.16973
3.16873
3.16038
3.15867
3.15077
3.14906
3.14142
3.14014
3.13196
3.13087
3.12293
3.12191
3.11433
3.11333
3.10604
3.10433
3.09935
3.09356
3.09193
3.0849
3.08301
3.07652
3.07474
3.06872
3.06733
3.06126
3.06009
3.05446
3.05342
3.04854
3.04729
3.04271
3.04138
3.03791
3.03399
3.03234
3.02754
3.02582
3.02073
3.01878
3.01347
3.01139
3.00547
3.00311
2.99664
2.99389
2.98713
2.98395
2.97685
2.97308
2.96629
2.96009
2.95403
2.94645
2.94058
2.93226
2.92629
2.91755
2.91137
2.9021
2.8955
2.88587
2.87887
2.86928
2.86174
2.85223
2.8435
2.83362
2.82397
2.81355
2.80367
2.79201
2.78227
2.76869
2.75976
2.74367
2.7357
2.71708
2.7101
2.6893
2.6814
2.65983
2.65126
2.62837
2.61933
2.59264
2.57991
2.55905
2.53897
2.5217
2.49435
2.48186
2.44871
2.43693
2.40028
2.38671
2.34899
2.33408
2.29396
2.27804
2.23553
2.21898
2.17124
2.1479
2.11223
2.07589
2.04801
2.00161
1.97953
1.92672
1.90589
1.85034
1.82874
1.77184
1.74973
1.69175
1.66909
1.61078
1.5879
1.52748
1.49833
1.45135
1.41199
1.37466
1.3275
1.29879
1.2459
1.22431
1.17033
1.14962
1.09818
1.07857
1.0301
1.01184
0.967027
0.950408
0.908147
0.88853
0.858916
0.835567
0.815017
0.788774
0.776591
0.750903
0.741862
0.719708
0.712383
0.694011
0.688145
0.673387
0.668965
0.657567
0.654521
0.646197
0.644434
0.638546
0.636335
0.63593
0.63433
0.635185
0.634427
0.63543
0.634572
0.635233
0.634038
0.63556
0.636036
0.64538
0.651167
0.663962
0.66869
0.672485
3.72824
3.62852
3.62222
3.62337
3.61965
3.62044
3.61327
3.61134
3.60066
3.59689
3.58367
3.57855
3.56399
3.55843
3.54245
3.5365
3.51965
3.51311
3.49831
3.48649
3.47529
3.46007
3.45084
3.43438
3.42545
3.40881
3.39987
3.38326
3.37443
3.3573
3.34874
3.33149
3.32294
3.30582
3.29693
3.28005
3.27015
3.25461
3.24204
3.22826
3.21415
3.20112
3.18642
3.17373
3.15891
3.14658
3.13172
3.11976
3.10526
3.09366
3.07999
3.06852
3.05535
3.04367
3.03145
3.01923
3.00719
2.99496
2.98269
2.97051
2.95752
2.94544
2.93145
2.91981
2.9044
2.89308
2.87616
2.86493
2.84713
2.83574
2.81643
2.80174
2.78567
2.76771
2.75258
2.73215
2.71768
2.69497
2.68112
2.65533
2.64346
2.61462
2.60329
2.57247
2.56009
2.52903
2.51602
2.48274
2.46388
2.43873
2.41301
2.39171
2.36106
2.34223
2.30648
2.29164
2.25221
2.23733
2.19631
2.18095
2.13832
2.12158
2.07895
2.06135
2.01776
1.99968
1.95262
1.9302
1.89236
1.86135
1.8293
1.79066
1.76537
1.71936
1.69961
1.64946
1.6295
1.5799
1.55939
1.50991
1.48944
1.4403
1.42006
1.36932
1.34518
1.30574
1.2737
1.24293
1.20452
1.18119
1.1384
1.12087
1.07738
1.06061
1.01922
1.00339
0.964208
0.949249
0.912611
0.898682
0.863423
0.846887
0.821491
0.801284
0.782515
0.759504
0.746618
0.722424
0.712971
0.689871
0.681342
0.660567
0.652941
0.634421
0.627681
0.611271
0.605342
0.590458
0.583665
0.573732
0.566049
0.559156
0.550865
0.546804
0.538885
0.536063
0.529431
0.527292
0.522356
0.520931
0.517628
0.516907
0.515197
0.51518
0.51478
0.515811
0.516228
0.518484
0.520608
0.523567
0.527337
0.531049
0.536295
0.540728
0.547452
0.552851
0.561049
0.567239
0.576746
0.583284
0.590714
0.593695
0.595617
4.02449
3.94147
3.92571
3.91276
3.89922
3.88846
3.87321
3.86106
3.84317
3.82956
3.80919
3.79416
3.77226
3.75637
3.73294
3.71655
3.69208
3.6747
3.65098
3.63016
3.60803
3.58474
3.56352
3.53912
3.51799
3.49321
3.47193
3.44706
3.42567
3.40069
3.37933
3.35446
3.33297
3.30836
3.28673
3.26223
3.23957
3.21492
3.19197
3.16661
3.14372
3.11791
3.09497
3.06865
3.04601
3.0188
2.99727
2.96901
2.94859
2.91937
2.89971
2.87064
2.85165
2.82207
2.79997
2.77697
2.75026
2.73047
2.70233
2.68405
2.65474
2.63744
2.6063
2.59117
2.55772
2.54384
2.50869
2.49395
2.45869
2.44332
2.40658
2.38542
2.35624
2.32852
2.30268
2.27045
2.24669
2.21098
2.18862
2.14921
2.12962
2.08634
2.0686
2.02307
2.0042
1.95895
1.93947
1.89253
1.86768
1.82994
1.79787
1.76562
1.72821
1.70012
1.6576
1.63501
1.58801
1.56901
1.52051
1.50163
1.45332
1.43387
1.38739
1.36792
1.32253
1.30352
1.25732
1.2356
1.19901
1.17184
1.14203
1.10968
1.08765
1.05047
1.03538
0.996847
0.981879
0.946333
0.931944
0.898639
0.885181
0.854071
0.841559
0.811307
0.797497
0.774951
0.758281
0.741309
0.722187
0.710341
0.689777
0.681576
0.661498
0.654054
0.635867
0.629193
0.612746
0.606728
0.591974
0.586593
0.572933
0.566625
0.557311
0.549751
0.543197
0.534814
0.530634
0.522101
0.518945
0.511151
0.508393
0.501575
0.499189
0.493285
0.491254
0.486229
0.484565
0.480281
0.478363
0.47599
0.473744
0.472733
0.470696
0.47022
0.468878
0.468736
0.468224
0.468474
0.468548
0.469884
0.470292
0.472603
0.473498
0.476685
0.47804
0.482021
0.483801
0.488234
0.490964
0.495537
0.499125
0.503959
0.508463
0.513794
0.519311
0.525103
0.531662
0.538011
0.545344
0.551367
0.556859
0.559362
0.560741
4.22611
4.14669
4.12184
4.08729
4.0643
4.03631
4.01174
3.98589
3.95935
3.93344
3.90473
3.87795
3.84778
3.82017
3.78857
3.76043
3.72789
3.69868
3.66621
3.63534
3.60323
3.57082
3.53847
3.50527
3.47228
3.4387
3.40494
3.37131
3.33637
3.30324
3.26721
3.23447
3.19737
3.16504
3.12675
3.09435
3.05528
3.02002
2.98489
2.9459
2.91238
2.87197
2.83891
2.7976
2.76499
2.72248
2.69129
2.64754
2.61746
2.57303
2.54365
2.50022
2.47128
2.42808
2.39619
2.361
2.32425
2.29371
2.25525
2.22762
2.18798
2.16244
2.12097
2.09839
2.05474
2.0346
1.98897
1.96933
1.92389
1.90389
1.85748
1.83229
1.79468
1.7626
1.72998
1.693
1.66394
1.62336
1.597
1.55297
1.53088
1.48372
1.46416
1.41611
1.39607
1.34987
1.32994
1.28365
1.26034
1.22343
1.19518
1.16456
1.13276
1.1075
1.07242
1.05354
1.01633
1.00132
0.964669
0.950533
0.915916
0.902168
0.870598
0.857584
0.828347
0.81631
0.788091
0.775095
0.753613
0.738695
0.721777
0.704769
0.692959
0.673982
0.66641
0.647357
0.640128
0.623246
0.616544
0.601283
0.595216
0.581376
0.575886
0.562765
0.556836
0.547205
0.540496
0.533031
0.525496
0.520259
0.512004
0.508625
0.500436
0.497375
0.489972
0.48722
0.480515
0.47802
0.471958
0.469706
0.464048
0.461418
0.457551
0.454403
0.451588
0.448119
0.446252
0.442671
0.44132
0.438008
0.43684
0.433957
0.432966
0.43053
0.429729
0.427793
0.427215
0.425705
0.42506
0.424588
0.424021
0.424023
0.423875
0.424524
0.424819
0.426311
0.426887
0.429225
0.430236
0.433464
0.435032
0.43919
0.441402
0.446508
0.449385
0.455437
0.458945
0.465633
0.469963
0.476816
0.48184
0.488709
0.494374
0.50112
0.507224
0.513867
0.520217
0.526655
0.532808
0.538263
0.542556
0.544811
0.545911
4.37291
4.27186
4.23423
4.17598
4.13834
4.09049
4.05179
4.00959
3.97144
3.93251
3.89446
3.85644
3.81754
3.77929
3.73964
3.70056
3.6604
3.61953
3.57784
3.5378
3.49419
3.45363
3.40863
3.36717
3.32154
3.27914
3.2327
3.18981
3.1423
3.0996
3.05112
3.00837
2.95905
2.91634
2.86617
2.82312
2.77233
2.72634
2.67998
2.63026
2.58561
2.53448
2.49062
2.43857
2.39546
2.34233
2.30103
2.24685
2.20714
2.15253
2.1141
2.06088
2.02349
1.97108
1.93138
1.88785
1.84385
1.80582
1.76061
1.72641
1.68067
1.64972
1.60308
1.57612
1.52841
1.50525
1.45686
1.43549
1.38884
1.36804
1.32185
1.29837
1.26084
1.23267
1.20099
1.16945
1.14243
1.10868
1.08552
1.04977
1.03157
0.994582
0.979149
0.943009
0.927957
0.894696
0.880413
0.848666
0.832954
0.808188
0.790679
0.77058
0.751836
0.735829
0.715835
0.704384
0.683668
0.675208
0.655338
0.647665
0.629558
0.622368
0.606339
0.599733
0.58527
0.579303
0.565684
0.559434
0.549079
0.542191
0.533961
0.526361
0.520399
0.512043
0.50805
0.499517
0.496111
0.488359
0.485202
0.478174
0.475305
0.468904
0.466291
0.460214
0.457427
0.452825
0.449708
0.446004
0.442582
0.439879
0.436151
0.434295
0.430523
0.429038
0.425525
0.424198
0.421038
0.419857
0.417043
0.416006
0.413456
0.412275
0.410607
0.409195
0.408132
0.40664
0.40607
0.404708
0.404288
0.403246
0.40297
0.402261
0.402134
0.401767
0.401793
0.401736
0.402078
0.402259
0.402792
0.403523
0.404067
0.405338
0.406066
0.407824
0.408751
0.411078
0.412294
0.415345
0.416999
0.420801
0.422992
0.427645
0.430523
0.436072
0.439766
0.446125
0.45069
0.457586
0.462991
0.470128
0.476105
0.483267
0.489562
0.496847
0.503347
0.51052
0.516927
0.523598
0.529359
0.534644
0.538393
0.540529
0.541463
4.51376
4.36928
4.31368
4.22745
4.17019
4.09839
4.04035
3.97721
3.92147
3.86453
3.81139
3.75833
3.70747
3.65668
3.60741
3.55745
3.50903
3.45866
3.40935
3.36174
3.31081
3.26371
3.21195
3.16385
3.11138
3.06226
3.00894
2.9591
2.90461
2.85457
2.79882
2.74843
2.69162
2.64096
2.58324
2.53207
2.47392
2.42022
2.36624
2.30956
2.2573
2.20005
2.14894
2.09167
2.04185
1.9847
1.93727
1.88046
1.83527
1.77929
1.73608
1.68237
1.64093
1.58898
1.54719
1.50231
1.45869
1.41837
1.37469
1.33777
1.29457
1.26072
1.21804
1.18752
1.14554
1.11854
1.07785
1.05419
1.01554
0.994692
0.957721
0.937563
0.906766
0.885769
0.859794
0.83829
0.816504
0.794821
0.776564
0.754704
0.740223
0.718154
0.706897
0.685289
0.675709
0.655998
0.647225
0.629025
0.620024
0.60567
0.596302
0.584407
0.574924
0.565169
0.555458
0.547944
0.537954
0.532342
0.522348
0.518057
0.508606
0.504623
0.49621
0.492557
0.484921
0.481597
0.474395
0.471002
0.465267
0.461636
0.4568
0.452945
0.449067
0.444945
0.441906
0.437575
0.435198
0.430897
0.428974
0.42487
0.423099
0.419306
0.417672
0.414044
0.412341
0.409471
0.407663
0.40522
0.403333
0.40138
0.399361
0.397863
0.395741
0.394656
0.392577
0.391731
0.389844
0.389105
0.38746
0.386829
0.385376
0.384695
0.383809
0.383039
0.382564
0.381831
0.381596
0.38106
0.380945
0.380691
0.380705
0.380685
0.380976
0.381142
0.381748
0.382123
0.383048
0.383663
0.384857
0.386055
0.387488
0.389303
0.391042
0.393404
0.395626
0.398576
0.401357
0.404862
0.40816
0.412196
0.416059
0.420714
0.425225
0.430601
0.435836
0.441979
0.447957
0.454824
0.461369
0.468827
0.475857
0.483746
0.491058
0.499015
0.506259
0.513865
0.520545
0.527222
0.532713
0.537697
0.541061
0.543123
0.543947
4.71929
4.5181
4.43819
4.31567
4.23137
4.12861
4.04257
3.95074
3.86622
3.78417
3.70744
3.63491
3.56586
3.50055
3.43792
3.37785
3.31965
3.26226
3.20546
3.15273
3.09674
3.04593
2.99159
2.9408
2.88692
2.83541
2.78132
2.72947
2.67501
2.62338
2.56842
2.5168
2.46128
2.40941
2.35326
2.30091
2.24449
2.19071
2.13704
2.08231
2.03
1.97603
1.92529
1.87296
1.82445
1.77452
1.72919
1.6823
1.64034
1.59674
1.55804
1.51788
1.48201
1.44462
1.4106
1.37653
1.34352
1.31053
1.27766
1.24459
1.21097
1.177
1.14234
1.10728
1.07207
1.03649
1.00221
0.967884
0.935306
0.902546
0.872143
0.842138
0.814933
0.78843
0.76351
0.740709
0.71851
0.699175
0.679383
0.66283
0.645215
0.631099
0.615514
0.603166
0.58949
0.578587
0.566573
0.556728
0.545899
0.537622
0.527723
0.52039
0.511581
0.504944
0.497056
0.49111
0.484011
0.478666
0.472257
0.467442
0.461664
0.457289
0.452122
0.448125
0.443433
0.439799
0.435431
0.431989
0.428318
0.424885
0.421695
0.418366
0.415603
0.412397
0.409989
0.406899
0.404815
0.401835
0.400061
0.397185
0.3957
0.392949
0.391667
0.389069
0.387825
0.385671
0.384426
0.38256
0.381369
0.379795
0.378664
0.37737
0.376313
0.375282
0.374323
0.373534
0.372667
0.372118
0.371364
0.371045
0.370468
0.370202
0.369998
0.369823
0.36982
0.369809
0.370051
0.370201
0.370692
0.371018
0.371754
0.37228
0.373262
0.374012
0.375252
0.37626
0.37778
0.379103
0.380879
0.382551
0.384549
0.386571
0.38885
0.391275
0.393995
0.396966
0.400238
0.403957
0.407847
0.4124
0.416988
0.422368
0.427722
0.433935
0.440102
0.447113
0.454116
0.461864
0.469456
0.477803
0.485872
0.49461
0.502936
0.511753
0.519945
0.528316
0.53573
0.542897
0.548714
0.553846
0.557212
0.559292
0.560071
5.04221
4.7921
4.68804
4.52596
4.40715
4.27188
4.15085
4.02872
3.91034
3.79706
3.68565
3.58203
3.48276
3.39278
3.30705
3.23004
3.15586
3.08903
3.02261
2.96349
2.90288
2.84859
2.79429
2.74338
2.69286
2.64333
2.5944
2.54608
2.49858
2.45202
2.40622
2.36139
2.3171
2.27339
2.22994
2.18663
2.14361
2.10054
2.05855
2.01688
1.97554
1.93594
1.89626
1.85954
1.82253
1.78925
1.75508
1.72627
1.69634
1.67384
1.64923
1.63171
1.61075
1.59749
1.58266
1.56726
1.55845
1.54058
1.53215
1.51054
1.49962
1.47207
1.45772
1.42077
1.40161
1.35463
1.33136
1.27864
1.25099
1.19416
1.16332
1.11162
1.0715
1.0288
0.984129
0.949538
0.904443
0.877704
0.834573
0.815037
0.775551
0.758966
0.724721
0.710557
0.681273
0.668645
0.643436
0.632416
0.611432
0.599863
0.582717
0.571261
0.557304
0.545743
0.534722
0.522865
0.514372
0.502446
0.495939
0.484406
0.479422
0.468898
0.464291
0.455066
0.450965
0.442802
0.439171
0.432163
0.428565
0.422559
0.419371
0.414163
0.411238
0.406806
0.404029
0.400305
0.39767
0.394551
0.392108
0.389441
0.387208
0.384893
0.382858
0.380842
0.378936
0.377255
0.375541
0.37405
0.372594
0.371242
0.37007
0.36885
0.367919
0.36683
0.366093
0.365182
0.364629
0.363896
0.363518
0.362987
0.362724
0.362442
0.36234
0.362285
0.362309
0.362508
0.362728
0.363147
0.363566
0.364222
0.364851
0.365763
0.366622
0.367814
0.368931
0.370432
0.371833
0.373684
0.375423
0.377685
0.379825
0.382568
0.385203
0.388429
0.391604
0.39526
0.399038
0.403174
0.407661
0.412455
0.417754
0.423348
0.429571
0.436027
0.44322
0.450526
0.458703
0.466839
0.47564
0.484496
0.493775
0.503118
0.512603
0.522076
0.53131
0.540309
0.548541
0.556158
0.56241
0.567698
0.571177
0.573269
0.574018
5.39266
5.1598
5.05521
4.88615
4.74799
4.59304
4.44265
4.29162
4.13841
3.99303
3.84574
3.71076
3.57472
3.45206
3.33128
3.22624
3.12299
3.03511
2.95001
2.87725
2.80752
2.74487
2.68839
2.63472
2.58811
2.54085
2.49966
2.45681
2.41947
2.38056
2.34738
2.31311
2.28467
2.25428
2.22876
2.19992
2.17499
2.14793
2.12293
2.09937
2.07384
2.05328
2.0285
2.0119
1.98954
1.97817
1.96019
1.95406
1.94372
1.94298
1.94082
1.94386
1.94426
1.95356
1.96188
1.96818
1.98354
1.98825
2.00136
2.0041
2.00973
2.00757
2.00836
1.99595
1.98956
1.96191
1.94673
1.90824
1.88345
1.83405
1.80031
1.74881
1.69814
1.6496
1.58895
1.54331
1.47768
1.43651
1.37011
1.33569
1.2698
1.24178
1.18033
1.15551
1.10086
1.07787
1.02922
1.00871
0.969182
0.942802
0.91258
0.882594
0.859714
0.826893
0.810547
0.775637
0.762207
0.728182
0.715479
0.683428
0.671476
0.641928
0.630027
0.603123
0.592163
0.567711
0.558072
0.537145
0.525652
0.509375
0.497599
0.485523
0.47279
0.464885
0.451973
0.446878
0.435402
0.430868
0.421465
0.417692
0.409917
0.40679
0.400372
0.397847
0.392817
0.390177
0.386373
0.384145
0.381238
0.379134
0.377113
0.37504
0.373796
0.371872
0.371056
0.369504
0.368882
0.367735
0.367306
0.366515
0.366255
0.365908
0.365709
0.365696
0.36567
0.366
0.366115
0.366792
0.367075
0.368088
0.368547
0.369915
0.370558
0.372303
0.373159
0.375297
0.376387
0.378949
0.380444
0.383174
0.385237
0.388237
0.390931
0.39428
0.397693
0.401524
0.405693
0.410115
0.415072
0.42021
0.426058
0.432045
0.438922
0.445867
0.453867
0.461798
0.470972
0.479916
0.489845
0.499696
0.510216
0.520683
0.531484
0.542146
0.552732
0.562889
0.572381
0.580937
0.588091
0.593901
0.597708
0.599961
0.600723
5.46031
5.40268
5.31635
5.20247
5.09748
4.96951
4.83753
4.6974
4.54738
4.39604
4.23455
4.07637
3.9121
3.75831
3.60021
3.46371
3.3253
3.21231
3.10058
3.0018
2.916
2.83382
2.76915
2.7035
2.65477
2.60284
2.565
2.52272
2.49245
2.45601
2.43223
2.40208
2.3867
2.36496
2.35595
2.34028
2.33398
2.32415
2.31558
2.3107
2.30201
2.29936
2.29213
2.291
2.28755
2.28955
2.28824
2.29533
2.29636
2.31101
2.31726
2.33805
2.34921
2.37523
2.39458
2.41636
2.44445
2.46407
2.49432
2.51151
2.5396
2.55172
2.5703
2.57354
2.57863
2.57342
2.57218
2.55548
2.54322
2.5135
2.49138
2.45589
2.41512
2.37726
2.32527
2.28512
2.22665
2.18584
2.12475
2.08629
2.02264
1.98861
1.92536
1.89653
1.83689
1.8109
1.75652
1.7331
1.6886
1.65621
1.62265
1.58452
1.55827
1.51567
1.4955
1.44773
1.42972
1.37975
1.36118
1.30962
1.29031
1.23782
1.21618
1.1629
1.14059
1.08673
1.06497
1.01514
0.982558
0.942966
0.902573
0.87269
0.824815
0.804527
0.7558
0.737224
0.693009
0.675101
0.63614
0.620289
0.586256
0.572543
0.543475
0.53224
0.509001
0.49643
0.479502
0.467953
0.4561
0.444499
0.437506
0.426369
0.42231
0.413001
0.409618
0.40254
0.399966
0.39457
0.392751
0.388572
0.387308
0.384579
0.383049
0.381664
0.380427
0.379913
0.379051
0.378935
0.378623
0.378763
0.378794
0.379573
0.379808
0.381123
0.381641
0.383464
0.384264
0.386605
0.387894
0.390416
0.392383
0.395151
0.397833
0.400907
0.404408
0.407929
0.412295
0.416428
0.421712
0.426609
0.432912
0.438697
0.446176
0.452993
0.461799
0.46974
0.479993
0.489169
0.500409
0.510737
0.522786
0.533925
0.546409
0.557904
0.570251
0.581415
0.592576
0.60224
0.610559
0.617371
0.621407
0.62406
0.624862
4.98285
5.15474
5.17018
5.14605
5.11279
5.05806
4.9944
4.91692
4.82852
4.72793
4.61666
4.49417
4.36108
4.22261
4.07398
3.93126
3.78143
3.64747
3.51561
3.39199
3.28659
3.1798
3.1001
3.01524
2.95703
2.89222
2.85105
2.80174
2.77366
2.73242
2.71317
2.68115
2.66932
2.65041
2.64593
2.63846
2.63821
2.63807
2.63679
2.64065
2.64084
2.64836
2.64996
2.66024
2.66321
2.67701
2.68079
2.69912
2.70517
2.72891
2.7387
2.7668
2.78189
2.81473
2.83799
2.8656
2.89775
2.92298
2.95793
2.98116
3.01515
3.03462
3.06487
3.07634
3.09463
3.09776
3.10218
3.09836
3.09621
3.08201
3.07064
3.04924
3.0207
2.99415
2.95491
2.92287
2.87699
2.84171
2.7924
2.7573
2.70521
2.67284
2.62086
2.59267
2.54399
2.51904
2.47536
2.45502
2.42224
2.39611
2.37436
2.34668
2.33152
2.30273
2.29229
2.26116
2.25129
2.21891
2.2086
2.17407
2.16274
2.12562
2.11112
2.07044
2.05332
2.00762
1.98892
1.9439
1.90761
1.86851
1.81932
1.7843
1.72202
1.69084
1.6184
1.58872
1.51171
1.47836
1.39973
1.36539
1.28602
1.25157
1.1739
1.14145
1.0717
1.02784
0.9735
0.922418
0.882469
0.825082
0.798925
0.742964
0.721522
0.672824
0.653427
0.61282
0.596684
0.563154
0.550548
0.522665
0.512907
0.492456
0.481439
0.467933
0.458366
0.449662
0.440859
0.436399
0.428767
0.426332
0.420695
0.419187
0.415508
0.414723
0.412698
0.41253
0.411876
0.412249
0.412867
0.413572
0.415437
0.416424
0.419453
0.420731
0.424857
0.426676
0.431846
0.434254
0.440519
0.443721
0.451111
0.455324
0.464001
0.46942
0.479576
0.486379
0.498217
0.506707
0.519657
0.529914
0.543806
0.555508
0.569881
0.582578
0.596713
0.609775
0.622472
0.634614
0.643844
0.653001
0.657322
0.660751
0.661712
3.72128
4.25021
4.40021
4.50194
4.5765
4.61917
4.63721
4.63468
4.62779
4.59978
4.56757
4.51356
4.45846
4.38883
4.31299
4.2254
4.1312
4.03276
3.93471
3.83302
3.74116
3.64335
3.5631
3.47928
3.4153
3.34901
3.30203
3.25162
3.22012
3.17949
3.15842
3.12354
3.10955
3.08499
3.07799
3.06809
3.06769
3.06814
3.06744
3.07374
3.07558
3.08699
3.09148
3.10598
3.11189
3.13016
3.13621
3.1578
3.16532
3.19082
3.20099
3.22909
3.24314
3.27445
3.29566
3.32036
3.34918
3.37129
3.40187
3.42175
3.45098
3.46742
3.49385
3.5046
3.52336
3.52817
3.53452
3.53268
3.53187
3.52274
3.51514
3.50048
3.47942
3.45927
3.4291
3.4026
3.36601
3.33503
3.29467
3.26232
3.21936
3.18816
3.14538
3.11711
3.0773
3.05199
3.0169
2.99635
2.97066
2.94874
2.933
2.91413
2.90604
2.89111
2.88692
2.8732
2.87066
2.85794
2.85607
2.84368
2.84219
2.82988
2.82716
2.81336
2.80969
2.79317
2.78892
2.7731
2.75785
2.74515
2.72167
2.70998
2.67798
2.66654
2.62754
2.61366
2.56967
2.54994
2.5012
2.47624
2.42146
2.39126
2.3296
2.29578
2.23409
2.17898
2.124
2.05385
2.00327
1.91798
1.8721
1.77515
1.73354
1.63174
1.58718
1.48581
1.44146
1.34302
1.30186
1.20577
1.16748
1.08418
1.03478
0.971512
0.915571
0.870127
0.811284
0.781581
0.726303
0.704487
0.657753
0.64034
0.602941
0.589444
0.56039
0.550282
0.528451
0.52123
0.507191
0.499196
0.491645
0.485675
0.482476
0.478151
0.477409
0.475468
0.475856
0.475719
0.478534
0.479417
0.484453
0.486551
0.49364
0.496808
0.505926
0.51045
0.521694
0.52854
0.540775
0.550552
0.563816
0.576302
0.590229
0.605026
0.618944
0.635276
0.648202
0.664369
0.674226
0.686343
0.691855
0.696024
0.697224
1.94762
2.58235
2.79856
3.05487
3.23301
3.39784
3.54744
3.63913
3.75038
3.80425
3.8786
3.90615
3.9397
3.9443
3.94989
3.9375
3.92772
3.89541
3.86827
3.83037
3.7932
3.75318
3.71392
3.67559
3.64008
3.60713
3.57976
3.55451
3.53787
3.52068
3.51302
3.49959
3.49459
3.48536
3.48408
3.48213
3.48475
3.48892
3.49271
3.50412
3.51064
3.5265
3.53542
3.55384
3.56424
3.58563
3.59618
3.62001
3.63067
3.65664
3.66837
3.69426
3.70732
3.73326
3.75026
3.76783
3.78897
3.80253
3.82297
3.83311
3.85011
3.85662
3.86881
3.87157
3.87718
3.87548
3.8754
3.86827
3.86199
3.84845
3.83677
3.81997
3.79913
3.77871
3.75135
3.72583
3.6932
3.66336
3.62713
3.59521
3.55667
3.52471
3.48624
3.456
3.42006
3.39233
3.36053
3.33694
3.31253
3.29059
3.27424
3.25754
3.24881
3.23908
3.23624
3.23159
3.23197
3.2304
3.23282
3.23228
3.23746
3.23836
3.24538
3.24726
3.25459
3.25639
3.26426
3.26744
3.27022
3.27439
3.27435
3.27757
3.27534
3.27722
3.27256
3.27352
3.26575
3.26445
3.25274
3.24964
3.23408
3.22911
3.20968
3.20373
3.18492
3.16661
3.15152
3.12485
3.11082
3.07502
3.06118
3.01685
3.00106
2.95026
2.92699
2.86983
2.83813
2.77259
2.73363
2.65417
2.60994
2.53105
2.45728
2.38563
2.29119
2.22269
2.11027
2.04521
1.92068
1.85999
1.72918
1.67304
1.54447
1.49105
1.36907
1.31841
1.20511
1.15862
1.06451
1.01036
0.942527
0.886021
0.840813
0.786496
0.760504
0.714108
0.696985
0.662074
0.650478
0.626766
0.619691
0.605318
0.601864
0.59499
0.594321
0.591808
0.592792
0.594854
0.597739
0.604454
0.609535
0.620929
0.62807
0.643639
0.653392
0.671934
0.684021
0.703635
0.715734
0.731456
0.738902
0.744194
0.745742
0.467211
0.835414
0.966197
1.18956
1.36241
1.54787
1.74472
1.89502
2.08335
2.20934
2.37394
2.48027
2.62193
2.70139
2.82915
2.88988
2.99684
3.03766
3.11076
3.16038
3.19503
3.23705
3.2506
3.28377
3.29538
3.32486
3.33657
3.36529
3.38068
3.4125
3.43375
3.46648
3.49046
3.52328
3.54982
3.58349
3.61044
3.64443
3.67006
3.70416
3.73095
3.76537
3.79321
3.82709
3.85468
3.88831
3.91454
3.9476
3.97197
4.00407
4.0268
4.056
4.07578
4.10067
4.11774
4.13242
4.14734
4.15498
4.16328
4.16445
4.16545
4.16181
4.15869
4.14867
4.1411
4.12595
4.11377
4.0945
4.07763
4.05481
4.03398
4.00929
3.98321
3.95692
3.92718
3.89813
3.86511
3.83317
3.79752
3.76368
3.72631
3.69199
3.65451
3.62107
3.58531
3.55389
3.52133
3.49322
3.46591
3.44121
3.42013
3.40061
3.38614
3.37314
3.36566
3.36053
3.35919
3.35871
3.36024
3.3624
3.36789
3.37304
3.38193
3.38993
3.40111
3.41062
3.42347
3.43484
3.44729
3.46024
3.47235
3.48628
3.49744
3.51202
3.52226
3.5371
3.54644
3.56049
3.56908
3.58255
3.59029
3.60318
3.6098
3.62278
3.6299
3.63837
3.64745
3.65301
3.6631
3.66582
3.67543
3.6769
3.68527
3.68592
3.69171
3.69127
3.69405
3.69166
3.69372
3.68681
3.68832
3.68287
3.67225
3.66914
3.65011
3.64594
3.61587
3.6078
3.5651
3.55001
3.49086
3.46433
3.38608
3.3419
3.2432
3.1844
3.06416
2.99111
2.86869
2.74637
2.63341
2.4795
2.36826
2.19832
2.09414
1.917
1.82974
1.64995
1.57109
1.40323
1.33172
1.18927
1.12997
1.0204
0.976101
0.90193
0.872899
0.82291
0.795582
0.768228
0.745374
0.735163
0.720966
0.717514
0.714892
0.720635
0.727632
0.742468
0.756349
0.774258
0.786535
0.793151
0.79532
0.0401776
0.112243
0.136267
0.185118
0.235748
0.289012
0.364024
0.425041
0.517482
0.588552
0.69232
0.770231
0.883886
0.960234
1.08909
1.16858
1.31252
1.3972
1.52941
1.64614
1.75088
1.88732
1.97141
2.10683
2.18084
2.30659
2.37295
2.48971
2.54798
2.66147
2.71524
2.82815
2.88134
2.99027
3.04212
3.1435
3.19722
3.28374
3.35194
3.42339
3.49563
3.56195
3.63283
3.69546
3.76182
3.82067
3.88209
3.93663
3.99217
4.04281
4.09253
4.13773
4.17868
4.21505
4.24527
4.26886
4.28813
4.30008
4.30434
4.30389
4.29961
4.28975
4.2776
4.25954
4.24099
4.21661
4.19295
4.16402
4.13632
4.10437
4.07374