/*--------------------------------*- C++ -*----------------------------------*\
| =========                 |                                                 |
| \\      /  F ield         | OpenFOAM: The Open Source CFD Toolbox           |
|  \\    /   O peration     | Version:  4.1                                   |
|   \\  /    A nd           | Web:      www.OpenFOAM.org                      |
|    \\/     M anipulation  |                                                 |
\*---------------------------------------------------------------------------*/
FoamFile
{
    version     2.0;
    format      ascii;
    class       volScalarField;
    location    "12.5";
    object      p;
}
// * * * * * * * * * * * * * * * * * * * * * * * * * * * * * * * * * * * * * //

dimensions      [0 2 -2 0 0 0 0];

internalField   nonuniform List<scalar> 
204246
(
5.96733
-13.1577
-14.2761
-14.5115
-15.3212
-15.703
-16.471
-16.8654
-17.3109
-17.7572
-18.2061
-18.5426
-18.8429
-18.9962
-19.1319
-19.1743
-20.3686
-20.9026
-20.7346
-21.2418
-21.2636
-21.4387
-21.5905
-21.8
-21.9859
-22.2234
-22.42
-22.6341
-22.7445
-22.8781
-22.9121
-23.0066
-23.0618
-23.2242
-23.3498
-24.2367
-24.6563
-24.3394
-24.8536
-24.8584
-24.9564
-25.0496
-25.2138
-25.3499
-25.5228
-25.6128
-25.7591
-25.8219
-25.9241
-25.9113
-25.8963
-25.8214
-26.7637
-27.1446
-26.7181
-27.1794
-27.0938
-27.0995
-27.0982
-27.1648
-27.2051
-27.289
-27.2935
-27.3595
-27.3437
-27.3714
-27.2815
-27.1881
-27.0315
-27.9375
-28.3949
-28.0733
-28.3688
-28.2845
-28.3011
-28.2857
-28.2988
-28.2248
-28.8127
-28.7266
-28.7837
-28.7961
-28.8761
-28.8422
-28.8076
-28.7078
-29.691
-30.2059
-29.9312
-30.2792
-30.1958
-30.175
-30.0893
-30.7439
-30.739
-30.8596
-30.8743
-30.8652
-30.6099
-31.283
-31.2355
-31.2304
-31.1621
-31.1397
-31.0853
-32.1761
-32.5621
-32.3533
-32.5507
-32.2931
-32.9108
-32.8593
-32.9793
-33.0321
-33.0811
-32.9166
-33.461
-33.1191
-33.6875
-33.5495
-33.4802
-33.3264
-34.4801
-34.9587
-34.7332
-35.1124
-34.7645
-35.4346
-35.4915
-35.5535
-35.4009
-36.0537
-35.8029
-36.447
-36.1624
-36.7894
-36.4044
-36.8872
-36.5969
-37.8622
-38.4571
-38.3448
-38.8406
-38.5381
-39.1956
-38.9345
-39.6561
-39.3571
-40.0463
-39.7544
-40.4895
-40.5527
-40.6578
-40.5623
-40.4267
-40.0851
-41.3084
-41.5964
-40.982
-41.12
-40.4866
-39.9356
-39.1909
-38.3969
-37.2969
-36.0385
-34.3731
-32.4684
-30.1015
-27.4727
-24.4257
-21.1862
-16.5698
-11.9277
-6.53523
-0.658571
6.1646
14.0855
22.6817
32.4859
43.4767
56.122
70.4793
87.0229
105.72
126.834
150.246
176.525
206.617
246.105
306.094
401.725
530.341
-2.16672
-6.1602
-9.81112
-12.2454
-13.9317
-15.0506
-15.8541
-16.4589
-16.991
-17.4934
-17.9316
-18.2873
-18.585
-18.8141
-19.0459
-19.346
-19.7967
-20.2319
-20.5495
-20.8291
-21.053
-21.2497
-21.4356
-21.6304
-21.83
-22.0391
-22.2454
-22.4478
-22.6183
-22.7522
-22.8503
-22.9486
-23.0627
-23.2188
-23.4397
-23.7582
-24.0622
-24.2798
-24.488
-24.6548
-24.8017
-24.941
-25.0878
-25.2403
-25.3965
-25.544
-25.6779
-25.7826
-25.8534
-25.8882
-25.9446
-26.0847
-26.3572
-26.6074
-26.7554
-26.8913
-26.9806
-27.0358
-27.0809
-27.1295
-27.1845
-27.2416
-27.2934
-27.3386
-27.3584
-27.346
-27.2935
-27.2632
-27.3352
-27.576
-27.8298
-27.9877
-28.106
-28.172
-28.2066
-28.2289
-28.2689
-28.3563
-28.5129
-28.6387
-28.728
-28.7884
-28.8161
-28.8181
-28.8539
-28.995
-29.2958
-29.603
-29.8035
-29.9506
-30.0399
-30.1169
-30.236
-30.4206
-30.5872
-30.7059
-30.7813
-30.8265
-30.8933
-31.0493
-31.1542
-31.18
-31.1816
-31.2219
-31.38
-31.7041
-32.0014
-32.1747
-32.3108
-32.4362
-32.6045
-32.749
-32.8579
-32.9482
-33.0135
-33.0998
-33.2398
-33.3426
-33.4626
-33.4986
-33.5285
-33.6826
-34.0283
-34.3752
-34.6033
-34.7903
-34.9432
-35.1439
-35.3265
-35.4449
-35.5836
-35.7709
-35.9624
-36.1788
-36.3807
-36.5611
-36.6751
-36.7859
-37.009
-37.4366
-37.8873
-38.2338
-38.5334
-38.7764
-38.9955
-39.2502
-39.4754
-39.7363
-39.9424
-40.2264
-40.4866
-40.8174
-40.9731
-41.1582
-41.0848
-41.2825
-41.4876
-41.6954
-41.7721
-41.737
-41.6542
-41.2419
-40.9206
-40.2727
-39.5836
-38.5848
-37.3629
-35.8234
-33.9985
-31.8746
-29.3649
-26.4744
-22.9755
-19.0159
-14.4205
-9.29987
-3.31398
3.52077
11.0983
19.6267
29.0608
39.7358
51.7153
65.4523
80.9954
98.6148
117.925
138.696
160.55
185.579
221.484
286.929
383.699
-10.5964
-9.99061
-10.9137
-12.2115
-13.5189
-14.626
-15.5119
-16.2021
-16.8092
-17.3361
-17.7919
-18.1737
-18.5081
-18.803
-19.0894
-19.4123
-19.7433
-20.0671
-20.3834
-20.6612
-20.9109
-21.136
-21.3501
-21.5476
-21.7509
-21.9479
-22.1529
-22.347
-22.5326
-22.6827
-22.8219
-22.9464
-23.0955
-23.2647
-23.4813
-23.7029
-23.9221
-24.1505
-24.3513
-24.5337
-24.6972
-24.8537
-25.0046
-25.1597
-25.314
-25.4717
-25.6136
-25.7412
-25.8331
-25.9201
-26.0197
-26.167
-26.3263
-26.4852
-26.6466
-26.78
-26.886
-26.9671
-27.0331
-27.0911
-27.1497
-27.2068
-27.2701
-27.3189
-27.359
-27.3596
-27.3563
-27.3731
-27.4612
-27.5751
-27.7055
-27.8471
-27.9679
-28.0626
-28.1234
-28.1784
-28.2393
-28.3341
-28.4359
-28.5538
-28.6621
-28.7534
-28.8072
-28.863
-28.9416
-29.0925
-29.2714
-29.4588
-29.6462
-29.7992
-29.929
-30.0461
-30.1846
-30.3195
-30.4637
-30.584
-30.6871
-30.7757
-30.8939
-30.9992
-31.1037
-31.1644
-31.2253
-31.3179
-31.4806
-31.6523
-31.8249
-31.9973
-32.1597
-32.3203
-32.46
-32.6036
-32.722
-32.8426
-32.9204
-33.0358
-33.1513
-33.2838
-33.3901
-33.4771
-33.5706
-33.7458
-33.9383
-34.1466
-34.3646
-34.5702
-34.7673
-34.9446
-35.1173
-35.2666
-35.4265
-35.5832
-35.7618
-35.9587
-36.1637
-36.3458
-36.5143
-36.69
-36.9275
-37.2234
-37.5418
-37.846
-38.1327
-38.3652
-38.6129
-38.8447
-39.0919
-39.3186
-39.5611
-39.7902
-40.0488
-40.254
-40.4575
-40.5516
-40.6871
-40.8176
-41.0468
-41.1728
-41.1659
-41.0799
-40.8529
-40.5389
-40.0826
-39.5049
-38.7351
-37.7418
-36.4899
-34.9225
-33.1078
-30.9236
-28.4368
-25.4922
-22.1811
-18.3348
-13.9425
-8.85482
-3.03761
3.50084
10.9279
19.2525
28.5903
38.9863
50.6753
63.8476
78.8599
95.8024
114.609
134.647
155.598
178.048
206.732
249.89
307.095
-13.9795
-12.3139
-12.2638
-12.8228
-13.6418
-14.5089
-15.3121
-16.0033
-16.6175
-17.1521
-17.6175
-18.0206
-18.3745
-18.6965
-19.0075
-19.3242
-19.6333
-19.9368
-20.2296
-20.5055
-20.7614
-21
-21.2274
-21.4327
-21.6395
-21.837
-22.0405
-22.2325
-22.419
-22.5802
-22.7363
-22.8804
-23.0404
-23.2133
-23.4131
-23.6105
-23.8138
-24.02
-24.2228
-24.4129
-24.585
-24.7538
-24.9102
-25.0721
-25.2258
-25.3858
-25.5281
-25.6669
-25.7791
-25.8982
-26.0169
-26.1583
-26.2922
-26.4298
-26.5695
-26.7018
-26.8224
-26.9052
-26.988
-27.0483
-27.1153
-27.1663
-27.2329
-27.2659
-27.3314
-27.3284
-27.3635
-27.3964
-27.4698
-27.5506
-27.6491
-27.7578
-27.8641
-27.9638
-28.0364
-28.115
-28.1853
-28.2761
-28.358
-28.4796
-28.5642
-28.6812
-28.7384
-28.8385
-28.9369
-29.0795
-29.223
-29.382
-29.5429
-29.6922
-29.8396
-29.9658
-30.1145
-30.2336
-30.3905
-30.4852
-30.6179
-30.7009
-30.8416
-30.9289
-31.0594
-31.1238
-31.2245
-31.324
-31.4915
-31.6153
-31.7741
-31.928
-32.0706
-32.2437
-32.3618
-32.5251
-32.6253
-32.781
-32.8535
-32.9967
-33.0913
-33.236
-33.3315
-33.4588
-33.5654
-33.7618
-33.9049
-34.089
-34.2844
-34.4575
-34.681
-34.8456
-35.0531
-35.193
-35.3943
-35.5339
-35.7453
-35.9055
-36.1333
-36.2924
-36.5071
-36.6773
-36.9651
-37.1938
-37.4714
-37.7671
-38.0409
-38.3599
-38.59
-38.8907
-39.1083
-39.4065
-39.6208
-39.9551
-40.1757
-40.4974
-40.6774
-40.9335
-41.0847
-41.3608
-41.5101
-41.7002
-41.853
-41.9064
-41.8881
-41.7513
-41.5547
-41.2352
-40.8107
-40.243
-39.434
-38.3905
-36.9674
-35.217
-33.0644
-30.5389
-27.5773
-24.1769
-20.2508
-15.7586
-10.5584
-4.63884
2.04859
9.59676
18.0332
27.4725
37.9836
49.7419
62.8349
77.3704
93.3211
110.724
129.767
151.571
178.856
213.616
252.018
-15.3454
-13.728
-13.4415
-13.6254
-14.1063
-14.7082
-15.349
-15.9615
-16.5352
-17.0546
-17.5125
-17.9252
-18.2875
-18.6276
-18.9418
-19.2572
-19.5475
-19.8411
-20.1235
-20.3934
-20.6532
-20.8928
-21.1289
-21.3378
-21.5504
-21.7482
-21.9544
-22.1454
-22.3394
-22.5051
-22.6774
-22.8299
-23.0024
-23.1688
-23.3599
-23.5379
-23.7312
-23.9274
-24.1241
-24.3184
-24.491
-24.6682
-24.829
-24.9988
-25.1547
-25.3207
-25.4616
-25.615
-25.7343
-25.8762
-26.0002
-26.1445
-26.2658
-26.3971
-26.5272
-26.6511
-26.7899
-26.8636
-26.9632
-27.0192
-27.1003
-27.1426
-27.2219
-27.2471
-27.3202
-27.3226
-27.3769
-27.4025
-27.4791
-27.5291
-27.6224
-27.7207
-27.7929
-27.9026
-27.9671
-28.0673
-28.1312
-28.2345
-28.307
-28.4366
-28.5081
-28.6397
-28.6947
-28.8173
-28.9085
-29.0562
-29.1715
-29.329
-29.4836
-29.6081
-29.7693
-29.8893
-30.048
-30.1659
-30.3267
-30.4235
-30.575
-30.6544
-30.8015
-30.882
-31.0199
-31.0927
-31.211
-31.3031
-31.4572
-31.5729
-31.7253
-31.8698
-32.0005
-32.165
-32.2875
-32.4526
-32.5491
-32.7104
-32.79
-32.9411
-33.0374
-33.1826
-33.2813
-33.4201
-33.5276
-33.7052
-33.8475
-34.0239
-34.1957
-34.3684
-34.576
-34.7307
-34.9403
-35.0881
-35.2936
-35.4414
-35.6545
-35.8143
-36.0403
-36.2004
-36.4149
-36.6036
-36.8682
-37.085
-37.3529
-37.6167
-37.8889
-38.1764
-38.4196
-38.6955
-38.9438
-39.2067
-39.4623
-39.7293
-39.9916
-40.2323
-40.4622
-40.6443
-40.8471
-41.03
-41.2455
-41.4218
-41.5182
-41.5455
-41.4765
-41.3045
-41.004
-40.5477
-39.9689
-39.225
-38.3895
-37.3497
-36.1305
-34.6177
-32.8064
-30.6182
-28.0384
-25.0011
-21.4794
-17.4033
-12.7117
-7.38749
-1.31315
5.58751
13.4045
22.2025
32.0259
42.8615
54.6507
67.2791
80.7204
95.0767
110.954
129.712
153.082
181.105
209.072
-16.03
-14.5814
-14.3051
-14.3527
-14.6413
-15.0526
-15.5365
-16.0445
-16.5457
-17.0283
-17.4619
-17.8689
-18.2305
-18.5779
-18.8909
-19.2035
-19.4816
-19.7659
-20.0406
-20.3061
-20.5665
-20.8038
-21.043
-21.2538
-21.47
-21.6684
-21.8758
-22.0672
-22.2663
-22.4371
-22.6194
-22.7783
-22.9615
-23.124
-23.3141
-23.4796
-23.6635
-23.8507
-24.0424
-24.2405
-24.4106
-24.5913
-24.754
-24.9309
-25.0887
-25.2622
-25.3987
-25.5739
-25.6873
-25.854
-25.9786
-26.1283
-26.2428
-26.3717
-26.499
-26.6155
-26.7525
-26.8361
-26.9364
-26.9988
-27.0818
-27.128
-27.2073
-27.2356
-27.307
-27.3181
-27.3781
-27.4014
-27.473
-27.5176
-27.5977
-27.6798
-27.7457
-27.8475
-27.9122
-28.0144
-28.0795
-28.1859
-28.2593
-28.3861
-28.4582
-28.5906
-28.6554
-28.786
-28.8744
-29.0202
-29.1329
-29.2804
-29.4251
-29.5505
-29.7077
-29.8248
-29.9814
-30.1019
-30.2614
-30.3623
-30.5151
-30.6069
-30.752
-30.8398
-30.9801
-31.0655
-31.1848
-31.2909
-31.4253
-31.5423
-31.6867
-31.8203
-31.9517
-32.0907
-32.2248
-32.3796
-32.4827
-32.6396
-32.7312
-32.873
-32.9905
-33.1225
-33.2383
-33.3689
-33.4919
-33.6432
-33.7916
-33.9588
-34.1207
-34.2892
-34.4721
-34.6306
-34.8291
-34.9862
-35.1842
-35.3426
-35.55
-35.7149
-35.9342
-36.101
-36.3249
-36.5104
-36.7674
-36.9738
-37.2332
-37.492
-37.7562
-38.0514
-38.3
-38.6008
-38.8463
-39.1522
-39.4009
-39.7226
-39.9791
-40.3083
-40.5423
-40.8822
-41.1095
-41.4439
-41.593
-41.835
-42.1596
-42.2979
-42.4682
-42.5182
-42.5562
-42.5863
-42.4461
-42.1488
-41.5853
-40.7936
-39.7241
-38.3849
-36.7309
-34.7536
-32.404
-29.6624
-26.4751
-22.8113
-18.5788
-13.761
-8.27208
-1.99858
5.14257
13.242
22.3105
32.3274
43.1728
54.7206
66.9173
79.8265
93.9314
110.419
130.086
152.788
174.321
-16.4341
-15.044
-14.894
-14.9403
-15.1291
-15.4297
-15.7927
-16.2078
-16.6301
-17.0624
-17.4604
-17.849
-18.2003
-18.5454
-18.8543
-19.1637
-19.4327
-19.7088
-19.9762
-20.2376
-20.4972
-20.7305
-20.9708
-21.1815
-21.4
-21.5988
-21.8068
-21.9974
-22.2026
-22.3745
-22.5662
-22.7211
-22.9206
-23.0713
-23.2747
-23.4296
-23.6081
-23.7881
-23.9691
-24.1773
-24.3413
-24.5247
-24.6834
-24.8707
-25.0205
-25.2095
-25.3439
-25.5265
-25.6481
-25.8204
-25.954
-26.1083
-26.2245
-26.3526
-26.482
-26.5929
-26.7302
-26.8155
-26.9163
-26.9801
-27.0666
-27.1155
-27.1997
-27.2283
-27.3
-27.3169
-27.372
-27.4058
-27.465
-27.5149
-27.5821
-27.649
-27.7163
-27.7994
-27.8714
-27.9626
-28.0378
-28.1358
-28.2201
-28.3382
-28.4137
-28.5445
-28.6174
-28.7482
-28.8415
-28.9838
-29.0989
-29.2386
-29.3727
-29.5064
-29.6571
-29.7752
-29.9232
-30.0546
-30.2101
-30.3146
-30.4693
-30.568
-30.7204
-30.8101
-30.9415
-31.0462
-31.1647
-31.2743
-31.4003
-31.5196
-31.6552
-31.7853
-31.9119
-32.0439
-32.1737
-32.3298
-32.4354
-32.5905
-32.6888
-32.8412
-32.9452
-33.081
-33.1969
-33.3315
-33.4552
-33.6167
-33.7392
-33.8982
-34.056
-34.2192
-34.4025
-34.5533
-34.7447
-34.9011
-35.0942
-35.2555
-35.4532
-35.624
-35.8231
-36.0038
-36.2083
-36.4084
-36.6319
-36.8533
-37.0976
-37.3413
-37.5938
-37.8545
-38.1085
-38.3729
-38.6356
-38.8999
-39.1721
-39.4396
-39.7178
-39.9797
-40.2497
-40.4875
-40.7361
-40.9394
-41.2038
-41.4398
-41.6174
-41.7406
-41.7819
-41.7372
-41.5917
-41.3545
-41.0949
-40.7549
-40.3932
-39.8902
-39.223
-38.3097
-37.1201
-35.6012
-33.7266
-31.4566
-28.7661
-25.6192
-21.963
-17.7895
-13.0038
-7.51743
-1.24368
5.88732
13.89
22.7416
32.3651
42.6735
53.6134
65.2621
78.0042
92.6243
109.453
128.229
145.461
-16.6536
-15.3955
-15.2917
-15.3733
-15.5294
-15.774
-16.0621
-16.4052
-16.7612
-17.1406
-17.4996
-17.8618
-18.1947
-18.53
-18.8312
-19.1377
-19.3979
-19.6669
-19.9262
-20.1833
-20.4412
-20.6691
-20.9115
-21.1199
-21.3408
-21.5391
-21.7498
-21.9338
-22.1496
-22.3116
-22.5193
-22.6699
-22.8723
-23.0241
-23.2303
-23.3824
-23.5633
-23.7398
-23.907
-24.1156
-24.2762
-24.4678
-24.6227
-24.8117
-24.9621
-25.1537
-25.2961
-25.4794
-25.6139
-25.7837
-25.924
-26.0826
-26.2045
-26.3369
-26.4642
-26.5759
-26.7147
-26.7992
-26.897
-26.9707
-27.0522
-27.1133
-27.1939
-27.2224
-27.286
-27.3194
-27.3689
-27.4052
-27.4598
-27.5084
-27.5693
-27.6283
-27.691
-27.7638
-27.8348
-27.9194
-27.9966
-28.0886
-28.1779
-28.2894
-28.3685
-28.4974
-28.5761
-28.6997
-28.8065
-28.9368
-29.059
-29.1929
-29.3226
-29.4558
-29.6024
-29.7208
-29.8701
-29.9952
-30.1505
-30.259
-30.409
-30.5139
-30.6602
-30.7582
-30.8947
-30.9971
-31.1251
-31.2299
-31.36
-31.4717
-31.605
-31.7301
-31.8558
-31.989
-32.106
-32.2549
-32.3625
-32.5105
-32.6146
-32.7581
-32.8684
-33.0078
-33.1233
-33.2637
-33.3846
-33.5336
-33.659
-33.8166
-33.971
-34.1285
-34.3037
-34.457
-34.6421
-34.8
-34.9939
-35.1551
-35.3565
-35.5266
-35.7371
-35.9124
-36.1341
-36.3278
-36.5621
-36.7614
-36.9943
-37.2461
-37.5046
-37.7805
-38.0405
-38.3266
-38.5944
-38.8918
-39.1696
-39.4797
-39.7685
-40.0906
-40.3896
-40.7208
-41.0205
-41.3448
-41.6141
-41.9186
-42.2378
-42.5431
-42.8388
-43.0876
-43.2988
-43.4369
-43.4411
-43.314
-43.003
-42.5345
-41.8765
-41.0275
-39.9408
-38.5931
-36.9307
-34.9253
-32.5323
-29.7266
-26.4469
-22.6834
-18.3568
-13.3969
-7.75395
-1.38642
5.71511
13.5455
22.0582
31.2063
40.9832
51.4852
63.0232
76.0541
90.7036
106.631
120.885
-16.7119
-15.6269
-15.5785
-15.684
-15.8401
-16.0606
-16.3091
-16.6033
-16.9098
-17.2431
-17.5646
-17.8981
-18.2085
-18.5312
-18.82
-19.1227
-19.3732
-19.6358
-19.8876
-20.1403
-20.3975
-20.6159
-20.8617
-21.0668
-21.2907
-21.4856
-21.7002
-21.8802
-22.095
-22.2611
-22.4693
-22.6262
-22.8262
-22.982
-23.1851
-23.3412
-23.5224
-23.6991
-23.8559
-24.0593
-24.2202
-24.4126
-24.5692
-24.7581
-24.9134
-25.1012
-25.2498
-25.4338
-25.5755
-25.7491
-25.8918
-26.0538
-26.1815
-26.3186
-26.445
-26.5616
-26.6963
-26.785
-26.8837
-26.9626
-27.0441
-27.1111
-27.1826
-27.2232
-27.2811
-27.3177
-27.3668
-27.4024
-27.4537
-27.4988
-27.5552
-27.6103
-27.668
-27.735
-27.8
-27.8816
-27.9542
-28.0442
-28.1304
-28.2426
-28.3239
-28.4487
-28.5326
-28.6581
-28.7587
-28.8928
-29.0074
-29.1414
-29.2739
-29.4003
-29.549
-29.6692
-29.8163
-29.9395
-30.0933
-30.2061
-30.3543
-30.463
-30.6072
-30.7103
-30.8482
-30.9515
-31.0808
-31.1875
-31.3177
-31.4227
-31.5524
-31.6784
-31.7995
-31.9341
-32.0484
-32.1891
-32.2996
-32.4406
-32.5501
-32.689
-32.8024
-32.9355
-33.0537
-33.1898
-33.3129
-33.4509
-33.5771
-33.7298
-33.8814
-34.0336
-34.196
-34.3457
-34.5168
-34.6718
-34.8412
-35.0134
-35.1961
-35.3744
-35.5624
-35.7471
-35.9449
-36.1416
-36.3494
-36.568
-36.8005
-37.0325
-37.2749
-37.5193
-37.7741
-38.0296
-38.2965
-38.5637
-38.8418
-39.1183
-39.4052
-39.6867
-39.9785
-40.2617
-40.5608
-40.8546
-41.1696
-41.4511
-41.6815
-41.8857
-42.0496
-42.2156
-42.3327
-42.409
-42.4658
-42.465
-42.4711
-42.3798
-42.1644
-41.7607
-41.1408
-40.2594
-39.0813
-37.5658
-35.6767
-33.3777
-30.609
-27.3552
-23.56
-19.1738
-14.1688
-8.52306
-2.24073
4.66969
12.1845
20.2948
29.0196
38.4776
48.9048
60.5695
73.5062
87.3231
99.4674
-16.6136
-15.7809
-15.7655
-15.8979
-16.0701
-16.2855
-16.5163
-16.7814
-17.054
-17.3513
-17.6424
-17.9494
-18.2371
-18.5439
-18.8169
-19.1124
-19.3553
-19.6119
-19.8594
-20.1043
-20.3601
-20.5732
-20.8138
-21.0202
-21.2438
-21.4382
-21.6506
-21.8354
-22.0449
-22.2177
-22.4212
-22.5861
-22.7825
-22.9445
-23.1419
-23.3021
-23.4822
-23.6591
-23.816
-24.0099
-24.1714
-24.3609
-24.5208
-24.707
-24.8657
-25.0527
-25.2032
-25.3885
-25.5339
-25.7119
-25.8583
-26.0224
-26.1548
-26.295
-26.424
-26.5455
-26.6786
-26.7712
-26.874
-26.9522
-27.0381
-27.1035
-27.1811
-27.2161
-27.283
-27.3095
-27.3672
-27.3929
-27.4476
-27.4832
-27.5373
-27.5877
-27.6396
-27.7065
-27.7615
-27.8447
-27.909
-28.0017
-28.0785
-28.1886
-28.2722
-28.3887
-28.4789
-28.6012
-28.7046
-28.8343
-28.9445
-29.078
-29.2138
-29.3386
-29.4826
-29.6071
-29.7494
-29.8742
-30.0237
-30.1407
-30.287
-30.3994
-30.5422
-30.6493
-30.7879
-30.8954
-31.0254
-31.134
-31.2633
-31.3651
-31.494
-31.6181
-31.7405
-31.8743
-31.9878
-32.1258
-32.2354
-32.3738
-32.4828
-32.6237
-32.7373
-32.874
-32.9902
-33.1312
-33.252
-33.3957
-33.513
-33.6601
-33.8111
-33.9624
-34.1245
-34.2757
-34.462
-34.6106
-34.8092
-34.9615
-35.1517
-35.3183
-35.5155
-35.6964
-35.9056
-36.1004
-36.3158
-36.5126
-36.7345
-36.9746
-37.2229
-37.4834
-37.7415
-38.018
-38.2868
-38.5783
-38.862
-39.1695
-39.468
-39.7903
-40.1024
-40.4391
-40.7636
-41.11
-41.4365
-41.7901
-42.1573
-42.5195
-42.8796
-43.2109
-43.5093
-43.7357
-43.8826
-43.9405
-43.893
-43.7551
-43.5189
-43.1785
-42.7053
-42.058
-41.1923
-40.0598
-38.6085
-36.7818
-34.5153
-31.7851
-28.5428
-24.7496
-20.3902
-15.4534
-9.94963
-3.88802
2.7199
9.8875
17.658
26.1551
35.5613
46.0442
57.6025
69.8081
80.4109
-16.3867
-15.8205
-15.8741
-16.0379
-16.2313
-16.4511
-16.6766
-16.9273
-17.1796
-17.4528
-17.7209
-18.0054
-18.2743
-18.5594
-18.8186
-19.1005
-19.3387
-19.5914
-19.8353
-20.0733
-20.3206
-20.5335
-20.7695
-20.9749
-21.1969
-21.3912
-21.6027
-21.7879
-21.9998
-22.1709
-22.3771
-22.5419
-22.7418
-22.9021
-23.1002
-23.2605
-23.4421
-23.6196
-23.7764
-23.966
-24.1264
-24.312
-24.4733
-24.6567
-24.8164
-25.0021
-25.1536
-25.3385
-25.4865
-25.667
-25.8179
-25.9836
-26.1197
-26.2621
-26.3953
-26.5209
-26.6557
-26.7536
-26.8604
-26.9401
-27.0299
-27.0929
-27.1711
-27.209
-27.2797
-27.303
-27.3639
-27.3854
-27.4365
-27.4632
-27.5155
-27.5657
-27.6081
-27.6734
-27.725
-27.8019
-27.8648
-27.9522
-28.0276
-28.1318
-28.2152
-28.3309
-28.4202
-28.5433
-28.6496
-28.77
-28.8829
-29.0094
-29.1414
-29.2752
-29.4119
-29.544
-29.6813
-29.8105
-29.9538
-30.0749
-30.2176
-30.3344
-30.4717
-30.5848
-30.7204
-30.8356
-30.9625
-31.0755
-31.1994
-31.3032
-31.428
-31.5516
-31.6761
-31.8037
-31.9164
-32.0477
-32.1579
-32.2887
-32.3995
-32.5335
-32.65
-32.7802
-32.899
-33.0322
-33.1551
-33.2883
-33.4086
-33.5516
-33.6965
-33.8503
-34.0028
-34.1454
-34.2965
-34.4483
-34.608
-34.7754
-34.9517
-35.1344
-35.3173
-35.5045
-35.6948
-35.8904
-36.0899
-36.2989
-36.5183
-36.7414
-36.9739
-37.2103
-37.458
-37.7094
-37.9729
-38.2403
-38.52
-38.8033
-39.0985
-39.3963
-39.7059
-40.0178
-40.3435
-40.6742
-41.0216
-41.3687
-41.7042
-42.0361
-42.3546
-42.6719
-42.9789
-43.3142
-43.6444
-43.9502
-44.2082
-44.3711
-44.4199
-44.3395
-44.1174
-43.7409
-43.1796
-42.3959
-41.3395
-39.9547
-38.1725
-35.9605
-33.2707
-30.0716
-26.3536
-22.1122
-17.3584
-12.0994
-6.33807
-0.0502388
6.82863
14.426
22.8936
32.3485
42.7712
53.7166
63.1536
-16.0937
-15.771
-15.9118
-16.1113
-16.3306
-16.5594
-16.787
-17.0328
-17.275
-17.5334
-17.7857
-18.051
-18.3059
-18.5735
-18.8206
-19.0845
-19.3179
-19.5672
-19.808
-20.0412
-20.277
-20.4907
-20.7214
-20.9282
-21.1458
-21.3431
-21.5498
-21.7388
-21.9454
-22.1199
-22.326
-22.4912
-22.6926
-22.853
-23.0508
-23.2131
-23.396
-23.5722
-23.7302
-23.9186
-24.0766
-24.26
-24.4208
-24.6018
-24.7619
-24.9453
-25.0984
-25.2796
-25.4289
-25.6073
-25.7613
-25.9281
-26.0679
-26.2126
-26.3493
-26.478
-26.6151
-26.7196
-26.8304
-26.9165
-27.0099
-27.0774
-27.1583
-27.1996
-27.2726
-27.3002
-27.3599
-27.3889
-27.4289
-27.46
-27.5029
-27.5461
-27.5931
-27.6472
-27.7004
-27.766
-27.8299
-27.9083
-27.9853
-28.0781
-28.1651
-28.2681
-28.3658
-28.4812
-28.5907
-28.7087
-28.8218
-28.9457
-29.0749
-29.2085
-29.3447
-29.4791
-29.617
-29.7491
-29.8877
-30.0168
-30.153
-30.2782
-30.4103
-30.5309
-30.6604
-30.7812
-30.9068
-31.0252
-31.1468
-31.2554
-31.3746
-31.4967
-31.6189
-31.7436
-31.8625
-31.9998
-32.1078
-32.2457
-32.3508
-32.4851
-32.5988
-32.7305
-32.8484
-32.984
-33.1065
-33.2412
-33.3589
-33.498
-33.6411
-33.7889
-33.9438
-34.0957
-34.2657
-34.4119
-34.5984
-34.7433
-34.928
-35.0896
-35.2709
-35.4514
-35.6482
-35.8392
-36.0451
-36.2387
-36.4521
-36.6795
-36.9156
-37.1627
-37.4112
-37.6748
-37.9367
-38.2171
-38.4965
-38.7955
-39.0933
-39.4106
-39.7268
-40.0633
-40.4
-40.7577
-41.1143
-41.4932
-41.8804
-42.2657
-42.6482
-43.0183
-43.3787
-43.7178
-44.049
-44.3644
-44.6643
-44.9339
-45.1511
-45.2852
-45.3137
-45.2147
-44.9627
-44.523
-43.8499
-42.8895
-41.5766
-39.8709
-37.7254
-35.1107
-32.0204
-28.4533
-24.4216
-19.9302
-14.9772
-9.53017
-3.51312
3.2172
10.8061
19.3496
28.8151
38.7523
47.2917
-15.7805
-15.6593
-15.8857
-16.1211
-16.3679
-16.6116
-16.8465
-17.0926
-17.3322
-17.582
-17.8247
-18.0765
-18.3203
-18.5754
-18.8145
-19.0644
-19.2926
-19.5348
-19.769
-19.9985
-20.2265
-20.4407
-20.665
-20.8725
-21.0865
-21.2855
-21.4898
-21.6803
-21.8805
-22.0606
-22.2582
-22.4324
-22.6253
-22.7952
-22.9849
-23.1561
-23.3368
-23.5093
-23.6742
-23.8538
-24.0167
-24.1954
-24.3576
-24.535
-24.6955
-24.877
-25.0302
-25.2084
-25.3567
-25.5306
-25.6843
-25.8517
-25.9953
-26.1433
-26.2823
-26.412
-26.5509
-26.6615
-26.7777
-26.8703
-26.9687
-27.042
-27.1253
-27.1753
-27.2506
-27.2877
-27.3488
-27.3851
-27.428
-27.4598
-27.5008
-27.5423
-27.5868
-27.637
-27.6876
-27.7481
-27.8075
-27.8802
-27.9534
-28.0403
-28.1236
-28.2217
-28.3167
-28.4276
-28.5345
-28.6508
-28.7631
-28.8856
-29.012
-29.1429
-29.2774
-29.412
-29.5496
-29.6816
-29.819
-29.9485
-30.0842
-30.2102
-30.3416
-30.4636
-30.5921
-30.713
-30.8385
-30.958
-31.0781
-31.1887
-31.3062
-31.4263
-31.5483
-31.6692
-31.7892
-31.9108
-32.027
-32.1479
-32.2644
-32.3873
-32.5054
-32.6294
-32.752
-32.8802
-33.0058
-33.131
-33.2486
-33.3844
-33.5224
-33.6674
-33.8118
-33.9567
-34.1047
-34.2521
-34.4128
-34.5684
-34.7426
-34.9148
-35.0913
-35.2717
-35.457
-35.6459
-35.8381
-36.0372
-36.2477
-36.4634
-36.6885
-36.9192
-37.1594
-37.4064
-37.6633
-37.9286
-38.2047
-38.4903
-38.787
-39.0935
-39.411
-39.7385
-40.0785
-40.4317
-40.8023
-41.192
-41.5933
-42.0106
-42.4384
-42.8753
-43.3133
-43.7489
-44.1767
-44.5961
-45.0027
-45.389
-45.7448
-46.0545
-46.2993
-46.4552
-46.4976
-46.3921
-46.0954
-45.5533
-44.703
-43.4965
-41.8869
-39.844
-37.362
-34.4425
-31.1009
-27.3451
-23.1722
-18.5455
-13.379
-7.51313
-0.779658
6.92275
15.5551
24.6698
32.5171
-15.4634
-15.5077
-15.8064
-16.0776
-16.347
-16.609
-16.8554
-17.1046
-17.347
-17.5926
-17.8316
-18.0764
-18.3123
-18.5579
-18.7905
-19.0317
-19.2552
-19.4905
-19.7168
-19.9418
-20.166
-20.3798
-20.5984
-20.8048
-21.0156
-21.2139
-21.4168
-21.607
-21.805
-21.9864
-22.1805
-22.3563
-22.546
-22.7184
-22.9061
-23.0801
-23.2602
-23.4325
-23.6008
-23.7761
-23.9419
-24.1176
-24.2816
-24.4551
-24.6166
-24.793
-24.9491
-25.124
-25.2736
-25.4439
-25.5956
-25.7613
-25.907
-26.0584
-26.1996
-26.3303
-26.4694
-26.585
-26.706
-26.8045
-26.9077
-26.9877
-27.0763
-27.1347
-27.2095
-27.2567
-27.3188
-27.3639
-27.4121
-27.449
-27.4934
-27.5358
-27.5799
-27.6296
-27.6792
-27.7387
-27.7953
-27.8655
-27.9343
-28.0185
-28.0971
-28.1929
-28.2825
-28.3901
-28.4928
-28.608
-28.7176
-28.8384
-28.9626
-29.091
-29.2251
-29.3581
-29.4971
-29.6283
-29.768
-29.8963
-30.0348
-30.1604
-30.295
-30.4163
-30.5468
-30.6669
-30.7945
-30.9138
-31.0367
-31.147
-31.2644
-31.3827
-31.5026
-31.6238
-31.746
-31.8709
-31.9849
-32.1087
-32.2207
-32.3433
-32.4578
-32.5823
-32.7024
-32.8321
-32.955
-33.084
-33.2033
-33.3334
-33.4688
-33.6093
-33.7569
-33.9067
-34.0638
-34.2112
-34.3724
-34.5228
-34.6891
-34.8503
-35.026
-35.2004
-35.3876
-35.5722
-35.7685
-35.9548
-36.1575
-36.3716
-36.5946
-36.828
-37.0645
-37.3137
-37.5643
-37.8305
-38.0996
-38.3861
-38.677
-38.9859
-39.2997
-39.6314
-39.9679
-40.3216
-40.6817
-41.0649
-41.4656
-41.8847
-42.3223
-42.7762
-43.2452
-43.7253
-44.2163
-44.7118
-45.2098
-45.7028
-46.1854
-46.6471
-47.0762
-47.4553
-47.7631
-47.969
-48.0325
-47.8996
-47.5081
-46.7995
-45.7225
-44.2419
-42.3493
-40.0477
-37.3588
-34.3014
-30.8797
-27.0611
-22.752
-17.7689
-11.906
-5.02684
2.83882
11.2624
18.595
-15.1585
-15.3411
-15.6874
-15.9927
-16.2782
-16.5544
-16.8131
-17.0658
-17.3148
-17.5601
-17.7997
-18.0426
-18.2758
-18.5164
-18.7445
-18.9801
-19.2015
-19.4315
-19.6526
-19.872
-20.0921
-20.3041
-20.5192
-20.7241
-20.9322
-21.1295
-21.3301
-21.5204
-21.7159
-21.8988
-22.0902
-22.2665
-22.4531
-22.6258
-22.8121
-22.9873
-23.1679
-23.3416
-23.5126
-23.687
-23.8547
-24.0284
-24.1941
-24.3656
-24.5281
-24.7005
-24.8586
-25.0297
-25.1826
-25.3494
-25.5011
-25.6628
-25.8098
-25.9632
-26.1068
-26.2404
-26.3778
-26.4981
-26.6219
-26.7265
-26.8338
-26.9214
-27.0146
-27.0824
-27.1587
-27.214
-27.2794
-27.3289
-27.3825
-27.4251
-27.4748
-27.52
-27.5654
-27.6165
-27.6655
-27.7247
-27.7805
-27.8488
-27.9154
-27.9969
-28.0729
-28.166
-28.2517
-28.3556
-28.4541
-28.5671
-28.674
-28.7927
-28.9139
-29.0392
-29.172
-29.3025
-29.4414
-29.5715
-29.7123
-29.8396
-29.98
-30.1052
-30.2425
-30.3636
-30.4964
-30.6163
-30.745
-30.8646
-30.9894
-31.1006
-31.2196
-31.3365
-31.4547
-31.5747
-31.6949
-31.8188
-31.9315
-32.0538
-32.1648
-32.2848
-32.3966
-32.5165
-32.6328
-32.756
-32.875
-32.999
-33.1183
-33.2447
-33.3713
-33.505
-33.6432
-33.7879
-33.9355
-34.0821
-34.2361
-34.3881
-34.5486
-34.708
-34.8771
-35.0492
-35.2302
-35.4125
-35.6009
-35.7882
-35.9879
-36.1943
-36.4114
-36.6367
-36.87
-37.1116
-37.3585
-37.6176
-37.8836
-38.1639
-38.4529
-38.7582
-39.0734
-39.4063
-39.7494
-40.1097
-40.4799
-40.8731
-41.2831
-41.713
-42.1634
-42.635
-43.1281
-43.6405
-44.1756
-44.7274
-45.2964
-45.8764
-46.4654
-47.0554
-47.6405
-48.21
-48.749
-49.2332
-49.6283
-49.8835
-49.9396
-49.7264
-49.1829
-48.2616
-46.9466
-45.2385
-43.1635
-40.756
-38.0412
-35.0047
-31.5621
-27.5076
-22.573
-16.5537
-9.45192
-1.65194
5.2923
-14.8744
-15.1605
-15.5318
-15.8682
-16.1604
-16.4449
-16.7173
-16.9721
-17.2298
-17.4777
-17.7219
-17.967
-18.201
-18.4409
-18.6686
-18.9027
-19.1248
-19.3525
-19.5724
-19.7885
-20.0056
-20.2157
-20.4282
-20.6322
-20.8382
-21.035
-21.2339
-21.4238
-21.6175
-21.8008
-21.9902
-22.1679
-22.3526
-22.5261
-22.7094
-22.8838
-23.0652
-23.2407
-23.4139
-23.5888
-23.7573
-23.9306
-24.0967
-24.2682
-24.4316
-24.602
-24.7616
-24.9297
-25.085
-25.2493
-25.4012
-25.5601
-25.7073
-25.8608
-26.006
-26.1432
-26.2809
-26.405
-26.5306
-26.6406
-26.7515
-26.8458
-26.9432
-27.0205
-27.1021
-27.1641
-27.2338
-27.2866
-27.3458
-27.3926
-27.4472
-27.4967
-27.5448
-27.5987
-27.6485
-27.7086
-27.7641
-27.8321
-27.8967
-27.9762
-28.0503
-28.1405
-28.2238
-28.3239
-28.4187
-28.5284
-28.6328
-28.7499
-28.8678
-28.9892
-29.1189
-29.2465
-29.3836
-29.5127
-29.6536
-29.7797
-29.9216
-30.0459
-30.1859
-30.3061
-30.4421
-30.5619
-30.6922
-30.8117
-30.9397
-31.0519
-31.1742
-31.2928
-31.4112
-31.5339
-31.6516
-31.7793
-31.8917
-32.0187
-32.1291
-32.2539
-32.3656
-32.4885
-32.6031
-32.7284
-32.8457
-32.9724
-33.0884
-33.216
-33.3439
-33.4745
-33.6115
-33.75
-33.8982
-34.0376
-34.1915
-34.3352
-34.4936
-34.6456
-34.8106
-34.9742
-35.1502
-35.3243
-35.5087
-35.6863
-35.8794
-36.0791
-36.2875
-36.505
-36.7305
-36.9653
-37.2026
-37.4548
-37.7105
-37.9835
-38.2624
-38.5603
-38.8669
-39.1941
-39.5312
-39.8889
-40.2567
-40.6509
-41.0646
-41.5004
-41.9601
-42.4442
-42.9547
-43.4888
-44.0549
-44.6462
-45.2674
-45.912
-46.5831
-47.2759
-47.9899
-48.7189
-49.4548
-50.1777
-50.8635
-51.4696
-51.9461
-52.214
-52.2025
-51.8451
-51.1093
-49.9868
-48.4994
-46.6888
-44.6101
-42.2889
-39.6849
-36.6069
-32.7148
-27.6721
-21.43
-14.2718
-7.7002
-14.6173
-14.9827
-15.3595
-15.7046
-15.9983
-16.2838
-16.5665
-16.8232
-17.0898
-17.3419
-17.5919
-17.8415
-18.079
-18.3217
-18.5523
-18.787
-19.0141
-19.2437
-19.4673
-19.6843
-19.9011
-20.1116
-20.3229
-20.5279
-20.7336
-20.9313
-21.1299
-21.3202
-21.5133
-21.6969
-21.8846
-22.0631
-22.2465
-22.4209
-22.6019
-22.7759
-22.9568
-23.1332
-23.3078
-23.4837
-23.6534
-23.8269
-23.9939
-24.1656
-24.3299
-24.4999
-24.6602
-24.8275
-24.9833
-25.1465
-25.2979
-25.4555
-25.6023
-25.7552
-25.9012
-26.0405
-26.1805
-26.3073
-26.4358
-26.5499
-26.6654
-26.7652
-26.8675
-26.9516
-27.0397
-27.1083
-27.1826
-27.2398
-27.3032
-27.3542
-27.4127
-27.4667
-27.5182
-27.5754
-27.6271
-27.6887
-27.745
-27.8132
-27.8771
-27.9554
-28.0278
-28.116
-28.1968
-28.2939
-28.385
-28.4912
-28.5928
-28.7082
-28.8241
-28.9422
-29.0683
-29.1918
-29.3257
-29.4539
-29.5924
-29.72
-29.8598
-29.9855
-30.1246
-30.2467
-30.3825
-30.5032
-30.6335
-30.7521
-30.8804
-30.9939
-31.1189
-31.2384
-31.3572
-31.4802
-31.5952
-31.724
-31.8343
-31.9635
-32.0719
-32.2004
-32.312
-32.4366
-32.5491
-32.6752
-32.7908
-32.9187
-33.032
-33.1627
-33.2918
-33.4219
-33.5597
-33.6944
-33.8433
-33.9802
-34.1351
-34.2763
-34.4354
-34.5848
-34.7485
-34.9076
-35.0807
-35.2499
-35.4326
-35.6042
-35.7946
-35.9889
-36.1897
-36.4001
-36.6157
-36.8452
-37.0735
-37.3195
-37.5664
-37.8314
-38.0994
-38.3874
-38.6817
-38.9989
-39.325
-39.6744
-40.0338
-40.4224
-40.8309
-41.2638
-41.7234
-42.2117
-42.7318
-43.2783
-43.8658
-44.4826
-45.1419
-45.8315
-46.564
-47.3324
-48.1471
-48.9991
-49.889
-50.8006
-51.7209
-52.6213
-53.4671
-54.1799
-54.6902
-54.9093
-54.7774
-54.2587
-53.356
-52.0998
-50.5687
-48.8493
-46.9824
-44.8702
-42.1683
-38.3547
-33.2197
-26.8851
-20.7345
-14.5043
-14.8954
-15.2307
-15.5487
-15.8225
-16.0869
-16.3629
-16.6153
-16.8857
-17.1421
-17.398
-17.6541
-17.899
-18.1448
-18.3821
-18.6173
-18.8548