/*--------------------------------*- C++ -*----------------------------------*\
| =========                 |                                                 |
| \\      /  F ield         | OpenFOAM: The Open Source CFD Toolbox           |
|  \\    /   O peration     | Version:  4.1                                   |
|   \\  /    A nd           | Web:      www.OpenFOAM.org                      |
|    \\/     M anipulation  |                                                 |
\*---------------------------------------------------------------------------*/
FoamFile
{
    version     2.0;
    format      ascii;
    class       volScalarField;
    location    "288";
    object      p;
}
// * * * * * * * * * * * * * * * * * * * * * * * * * * * * * * * * * * * * * //

dimensions      [0 2 -2 0 0 0 0];

internalField   nonuniform List<scalar> 
204246
(
121.972
-10.0232
36.9601
18.8202
15.9299
22.5286
11.2667
22.6733
9.80507
22.3532
8.93525
22.6441
7.19952
22.3981
8.5439
19.5576
13.4558
7.90059
18.7172
7.36119
18.8344
6.3746
17.8354
5.27335
17.7741
4.04747
19.1764
2.64728
20.3245
2.5588
20.413
3.51245
19.6931
6.76161
16.0737
13.5805
6.24621
19.4429
5.36806
19.2529
6.19086
19.6608
6.24544
20.8896
4.78593
22.0102
4.96692
21.8767
6.52176
19.5627
9.0943
17.5321
14.8735
7.8452
20.4972
6.69876
20.1935
7.1804
20.3643
6.96222
21.33
5.22905
22.2155
5.11803
21.9259
6.32184
19.6654
8.50544
17.1699
13.8006
8.02044
17.7722
6.61569
18.6251
6.06847
18.8641
5.43816
19.6788
3.42683
20.3701
3.08562
19.8651
4.07618
17.3449
6.00931
14.5694
11.0359
4.98925
14.6331
3.04436
15.0804
1.52845
15.302
-1.49081
14.9599
-3.12592
13.0101
-3.8894
9.37858
-4.60902
4.64083
-7.10183
0.256845
-10.0716
-5.10227
-11.2164
-17.659
-15.8391
-24.786
-20.2569
-33.6165
-26.09
-40.5055
-32.7332
-47.3805
-37.9222
-53.4582
-41.1496
-56.1374
-42.1704
-53.8438
-43.5118
-46.006
-47.2903
-36.6211
-42.8049
-29.4731
-36.4906
-22.2371
-30.3149
-15.8068
-25.2701
-10.444
-21.915
-6.81738
-19.8792
-5.75387
-17.6075
-7.69518
-11.7547
-18.039
-6.74932
-21.0822
-6.61421
-22.721
-7.49913
-24.162
-8.5987
-25.239
-9.48621
-25.8525
-10.0301
-25.7338
-10.4787
-23.9187
-12.4487
-17.1146
-21.5269
-9.49503
-22.2118
-6.15545
-20.2493
-3.76507
-16.6435
-1.17626
-11.9797
2.68508
-6.22542
7.78823
0.763743
14.0952
9.75157
22.0804
21.3205
31.5737
38.1147
40.3339
54.2246
58.7299
72.0767
81.7888
95.1992
109.504
124.443
144.347
162.214
190.465
213.157
257.027
285.996
373.711
389.643
596.68
44.2698
18.039
18.9855
22.265
15.8555
20.1078
14.5561
18.8488
13.8865
18.1547
13.2509
17.8626
12.8482
16.5125
13.6734
14.2031
16.7384
11.3186
14.6033
10.4221
15.2537
10.0073
14.8956
9.18003
14.715
8.77674
14.2596
8.57196
13.9309
9.04166
13.6463
10.0593
12.7487
12.1254
11.2381
15.1004
9.47453
14.6474
10.4478
14.4646
10.6725
14.9815
10.6261
15.752
10.5628
15.772
11.1083
15.434
12.1881
14.6553
13.2005
13.0536
16.2905
10.9734
15.9522
11.6293
15.6519
11.6126
15.9218
11.3371
16.443
11.0048
16.2191
11.2627
15.6489
12.0353
14.586
12.97
12.9129
15.4075
10.7945
14.7174
10.611
14.5996
10.3762
14.6076
9.87564
14.8929
9.32066
14.4507
9.36576
13.6753
9.92814
12.4106
10.6356
10.4914
12.8683
8.04059
11.8394
7.35773
11.3916
6.33986
11.0406
5.00385
9.6804
3.89108
7.76901
2.53512
5.54003
0.887578
2.64018
-1.91623
-1.0367
-4.68724
-6.5101
-6.18295
-13.3203
-13.5186
-19.6913
-20.5513
-26.7415
-27.5639
-33.3069
-34.8541
-40.3562
-41.0076
-46.4959
-45.8577
-49.8707
-48.9002
-49.368
-49.454
-45.531
-48.2585
-41.489
-42.0562
-35.8685
-35.2487
-29.2129
-28.6205
-22.8757
-22.9411
-17.4916
-18.6304
-13.8674
-15.347
-12.2654
-12.7736
-13.1952
-9.78474
-15.2076
-10.4556
-15.9206
-11.4821
-17.0537
-12.737
-18.3189
-14.0663
-19.4656
-15.1997
-20.2359
-16.0559
-20.2868
-16.8805
-18.9375
-18.3329
-15.5532
-20.0261
-14.3753
-18.5318
-12.7174
-16.2979
-10.5127
-13.5766
-7.62835
-10.183
-3.95274
-5.67426
0.777916
0.130885
6.17123
7.88143
13.113
17.6614
21.287
30.0635
33.7265
42.8394
49.3696
58.9309
68.5812
79.0786
92.0848
103.703
120.843
133.704
156.87
170.332
205.56
212.217
286.932
252.373
387.053
11.277
25.4413
18.5804
21.51
17.1011
19.7254
15.2723
18.7966
14.3793
18.1481
13.7475
17.5671
13.4482
16.592
14.1644
14.3881
14.5911
12.2428
14.9047
11.3784
14.115
10.7645
13.6482
10.0999
13.3464
9.86407
13.6267
9.34165
13.7838
8.83736
13.1485
10.0027
12.4432
11.9103
11.7488
13.7582
10.8767
13.9691
10.6359
14.2913
10.7783
14.8564
10.7733
15.3522
10.8388
15.5619
11.2087
15.4113
11.9609
14.7631
13.1078
13.5547
14.7611
12.1202
15.3827
11.7904
15.6282
11.6165
15.8532
11.4323
16.0996
11.2187
16.0753
11.3373
15.7137
11.8457
14.8603
12.6867
13.4383
14.0303
11.782
14.3306
10.964
14.4946
10.5013
14.5423
10.0258
14.585
9.55176
14.3434
9.4318
13.7616
9.73528
12.6471
10.3518
10.9306
11.4573
8.98593
11.4544
7.71638
11.254
6.5669
10.753
5.28858
9.67993
4.00328
8.12013
2.9173
5.50306
1.45013
2.31277
-1.01753
-1.43889
-3.82233
-6.51992
-7.79282
-11.8953
-13.2289
-18.3846
-19.6798
-25.0913
-27.3905
-32.0435
-34.8685
-39.2836
-41.6756
-45.6917
-46.8059
-49.6549
-49.857
-49.928
-50.5456
-47.4355
-48.5412
-43.5471
-42.6178
-37.277
-35.3992
-30.1873
-27.9718
-23.3926
-21.6848
-17.7146
-17.2003
-13.7012
-14.2887
-11.8271
-12.0716
-12.079
-10.3999
-13.4536
-10.3406
-14.9417
-11.0635
-16.3505
-12.281
-17.7722
-13.6331
-19.0057
-14.8211
-19.8459
-15.7409
-19.9955
-16.5654
-19.0442
-17.7255
-16.6819
-18.7014
-14.844
-18.0586
-12.7278
-16.3192
-10.5497
-13.493
-8.03882
-9.60549
-4.5811
-4.8389
0.051996
1.12556
6.07593
8.59762
13.5786
18.1269
23.192
29.7487
34.736
43.7803
50.3568
60.6323
70.2659
81.5622
95.0732
107.64
126.178
140.094
165.72
180.422
220.109
228.042
304.196
282.927
371.706
2.31506
16.2042
12.8936
18.5027
14.6095
18.2782
15.1194
17.158
15.3265
16.4144
15.1045
15.8276
14.8587
15.1424
15.2759
13.8103
15.6875
12.805
14.1688
12.4081
13.5253
11.8835
13.0139
11.4552
12.7917
10.9597
12.3165
11.0096
12.0671
11.0769
11.8576
11.2858
11.327
12.4069
10.823
13.5543
11.3337
13.3144
11.8443
13.2521
12.0368
13.4656
12.1824
13.687
12.4859
13.7121
12.9251
13.5693
13.5125
13.2392
14.138
12.7515
15.017
12.7002
14.5364
12.9872
14.3835
13.0313
14.4457
12.9839
14.5279
13.0213
14.2896
13.2253
13.8997
13.5848
13.3625
13.9987
12.6364
14.4795
12.277
13.8418
12.1357
13.4554
11.9371
13.2569
11.6573
13.0966
11.4719
12.6349
11.4676
12.0361
11.6475
11.3523
11.837
10.4049
12.1394
9.82896
11.172
9.26548
10.5259
8.60568
9.77882
7.82188
8.57676
6.76718
7.22248
5.50169
5.45125
3.75702
3.17458
1.43485
-0.0895019
-1.29879
-4.26006
-4.93179
-9.44467
-10.5703
-15.2311
-17.4048
-21.8745
-24.8776
-29.2798
-32.6838
-36.8564
-40.5017
-43.7633
-47.2727
-48.7041
-51.3737
-50.8098
-52.529
-49.9823
-50.4445
-46.5408
-45.3824
-40.6069
-38.2995
-33.4811
-30.6335
-26.5017
-23.5328
-20.4697
-18.011
-16.2086
-14.1963
-13.7244
-11.9228
-12.9819
-10.6884
-12.8869
-11.171
-13.4587
-12.559
-14.6955
-14.0962
-16.059
-15.7217
-17.3982
-17.1641
-18.4239
-18.2955
-18.8135
-19.1219
-18.3384
-19.6766
-17.4048
-19.3341
-16.9169
-18.1408
-15.7797
-16.351
-13.9543
-14.1539
-11.6743
-11.308
-8.58429
-7.68324
-4.56373
-3.02909
0.347865
3.1585
6.60502
10.8904
14.4397
20.6836
24.7927
31.7686
37.8529
45.2302
53.859
61.7286
73.2793
81.631
96.8024
105.627
126.157
133.28
166.309
161.196
218.684
205.55
276.646
0.963005
16.6941
11.6692
17.2995
15.1567
17.1825
15.8563
17.0603
15.7283
16.6256
15.3427
15.9197
15.129
14.9789
15.0984
14.0047
14.681
13.4921
13.9825
12.8262
13.0713
12.0371
12.5444
11.5175
12.2442
11.3632
12.0965
11.0518
11.9534
10.9845
11.6448
11.4999
11.3631
12.2154
11.3711
12.7517
11.547
12.7493
11.8482
12.9518
11.9675
13.3509
12.2966
13.4278
12.5468
13.5456
12.9081
13.4945
13.384
13.2323
13.802
12.9351
14.1918
13.1073
14.1234
13.1388
14.2131
13.0675
14.308
13.039
14.3299
13.1189
14.1886
13.2686
13.9319
13.4889
13.5546
13.7246
13.0234
13.8302
12.8008
13.5207
12.4609
13.3247
12.1213
13.162
11.8028
12.9414
11.6087
12.5611
11.4856
12.0916
11.5073
11.4507
11.5749
10.6456
11.4281
10.2089
10.928
9.55831
10.3528
8.82914
9.66029
8.05077
8.64745
7.00622
7.36206
5.70503
5.61204
4.04721
3.26435
1.88371
0.219603
-0.972242
-3.5253
-4.69684
-7.96699
-9.7287
-13.6369
-15.9155
-20.3608
-23.2966
-27.8997
-31.4093
-35.8691
-39.6643
-43.383
-47.0061
-49.2755
-52.0477
-52.3094
-53.9885
-52.1903
-52.4979
-48.7596
-47.2639
-42.3411
-39.5434
-34.295
-31.0121
-26.3375
-23.2431
-19.8161
-17.1696
-15.1714
-13.2317
-12.4511
-10.9399
-11.257
-9.93709
-11.2151
-10.3872
-12.0078
-11.6375
-13.3483
-13.3049
-14.911
-15.0023
-16.4024
-16.5302
-17.6062
-17.7581
-18.247
-18.6257
-18.3116
-18.9113
-17.8676
-18.5366
-17.1179
-17.5895
-15.795
-16.0535
-13.9699
-13.8219
-11.4894
-10.9239
-8.23911
-7.195
-4.08898
-2.31135
1.12998
3.90717
7.75761
11.8139
16.0969
21.575
26.7614
33.5362
40.375
48.161
57.4096
66.0805
78.4937
87.9063
104.302
113.992
136.472
144.234
178.582
175.52
224.807
213.446
258.544
0.570014
12.3331
9.40527
14.2678
13.2585
15.6658
14.718
16.1252
15.1442
16.1292
15.3672
15.6678
15.459
14.9268
15.4201
14.2231
14.9376
13.6214
13.9098
13.1867
13.2086
12.3888
12.71
11.7966
12.1584
11.6305
11.8409
11.6936
11.4789
11.8269
11.2106
11.9376
11.1004
12.3006
11.1208
12.7267
11.8392
12.5597
12.1942
12.6724
12.4521
12.8118
12.6929
13.0162
12.9716
13.1079
13.3579
13.1127
13.7708
13.053
14.1285
12.9613
14.2111
13.2691
13.9193
13.5464
13.8099
13.6405
13.8056
13.6976
13.7648
13.8034
13.5954
13.9298
13.4044
14.0327
13.1967
14.0739
12.9539
13.9943
12.9654
13.5102
12.9097
13.0686
12.6925
12.7976
12.4959
12.4946
12.3726
12.1079
12.2673
11.7304
12.1491
11.353
12.1062
10.8847
11.8118
10.641
11.2272
10.3215
10.5282
9.80825
9.82261
9.15645
8.94506
8.28186
7.8743
7.13199
6.50189
5.61695
4.60436
3.65005
1.98289
1.05768
-1.43822
-2.46093
-5.765
-7.24657
-11.097
-13.3741
-17.5463
-20.7345
-25.1823
-29.1041
-33.6227
-38.045
-42.1095
-46.5339
-49.3945
-53.0513
-54.0325
-56.2737
-55.1117
-55.5501
-52.5307
-50.9696
-46.461
-43.3334
-38.174
-34.2896
-29.5247
-25.6577
-22.0375
-18.765
-16.5713
-14.0347
-13.1878
-11.3515
-11.5482
-10.3156
-11.1256
-10.5892
-11.8102
-11.8058
-13.1657
-13.5783
-14.8409
-15.6305
-16.6609
-17.4099
-18.177
-18.8174
-19.1205
-19.7232
-19.4303
-20.136
-19.2731
-19.7148
-18.7182
-18.8554
-17.704
-17.5549
-16.3077
-15.8499
-14.3838
-13.6905
-11.8655
-10.8703
-8.68133
-7.11387
-4.62524
-2.24094
0.535794
3.96308
7.16793
11.66
15.7653
20.9347
26.601
32.228
40.04
46.0337
56.4647
62.7856
76.5241
82.5313
101.351
104.583
135.007
128.558
169.738
167.231
207.823
2.82841
13.5054
9.96343
14.4076
13.4931
15.4179
14.9727
15.9573
15.5822
15.8943
15.603
15.5392
15.5173
14.931
15.2653
14.3946
14.7365
13.9317
13.802
13.1966
13.1541
12.5171
12.481
12.0396
11.9783
11.7931
11.589
11.7269
11.3782
11.7544
11.2735
11.8889
11.1654
12.0756
11.1555
12.1322
11.7848
12.3236
12.1045
12.4215
12.3394
12.6501
12.6486
12.7778
12.9392
12.8749
13.2453
12.923
13.5428
12.9215
13.805
13.0403
13.8621
13.3671
13.6567
13.5179
13.6744
13.5578
13.7104
13.6587
13.6898
13.7962
13.5842
13.9133
13.4588
13.9945
13.3371
13.9405
13.1846
13.7588
13.193
13.4171
13.0624
13.0454
12.818
12.7559
12.578
12.4619
12.3997
12.1106
12.2275
11.7572
12.0597
11.3526
11.8422
10.9494
11.5441
10.752
11.0767
10.4274
10.4992
9.93833
9.82211
9.31136
8.99535
8.44142
7.98454
7.32487
6.67756
5.91885
4.88817
4.11369
2.56904
1.72377
-0.407783
-1.4997
-4.18078
-5.87701
-9.10871
-11.547
-15.3828
-18.6456
-23.0364
-27.1409
-31.857
-36.5589
-41.1026
-45.8982
-49.5185
-53.5903
-55.489
-58.072
-57.7665
-58.3742
-55.7203
-53.9948
-49.3214
-45.6127
-39.8715
-35.263
-29.7979
-25.4948
-21.2827
-17.8959
-15.2756
-12.8433
-11.6021
-9.92307
-9.76956
-8.69507
-9.37938
-8.94138
-10.0652
-10.2292
-11.5403
-12.1027
-13.3961
-14.223
-15.3723
-16.291
-17.0901
-17.9906
-18.3144
-19.1059
-18.97
-19.6108
-18.996
-19.4326
-18.4879
-18.6456
-17.5007
-17.3084
-15.9748
-15.5441
-13.9114
-13.2531
-11.2487
-10.2514
-7.90802
-6.31706
-3.65369
-1.27635
1.79728
5.09749
8.77371
13.0284
17.7251
22.7952
29.091
34.8024
43.2068
49.4491
60.501
67.0538
81.473
87.5893
107.223
109.436
137.38
134.029
165.241
161.398
190.201
2.65957
11.8935
8.81467
12.9018
12.3017
14.2724
14.1225
15.1047
15.0518
15.4137
15.444
15.3275
15.5635
14.989
15.4033
14.5401
14.8998
14.1317
13.9507
13.441
13.3132
12.8406
12.5792
12.4316
12.0091
12.1652
11.6304
11.977
11.339
11.8975
11.1632
11.9475
11.1057
12.146
11.2863
12.201
11.8628
12.2963
12.2288
12.4039
12.5074
12.5037
12.8659
12.6508
13.1538
12.7761
13.4422
12.8872
13.7254
12.97
13.9229
13.0817
13.8612
13.4542
13.6446
13.6815
13.6089
13.7841
13.6196
13.8729
13.5768
14.003
13.474
14.0911
13.429
14.1124
13.3444
14.0787
13.2314
13.8596
13.3261
13.4707
13.2502
13.1267
13.0606
12.7701
12.8684
12.4437
12.7065
12.1132
12.5357
11.794
12.3713
11.5202
12.2042
11.1987
11.8478
11.1294
11.3876
10.9024
10.889
10.5268
10.3141
10.0219
9.6328
9.33219
8.77152
8.37529
7.69874
7.16568
6.16096
5.55891
4.08608
3.37327
1.36261
0.382911
-2.17567
-3.66478
-6.79203
-9.03472
-12.7359
-15.933
-20.2319
-24.431
-29.2451
-34.3622
-39.3575
-44.9067
-49.355
-54.4012
-57.3155
-60.757
-61.2868
-62.3709
-60.3714
-58.868
-54.6419
-50.8146
-45.0273
-39.776
-33.8384
-28.5208
-23.7543
-19.3733
-16.4264
-13.3472
-12.0361
-10.0459
-9.8711
-8.75617
-9.24841
-8.96902
-9.93494
-10.2157
-11.5041
-12.2258
-13.6163
-14.6253
-15.9059
-17.0036
-17.9995
-19.0138
-19.5628
-20.3989
-20.415
-21.0075
-20.5792
-20.7721
-20.1792
-20.0547
-19.3192
-19.0442
-18.1222
-17.7579
-16.6111
-16.0921
-14.6931
-13.8897
-12.2451
-10.987
-9.06305
-7.20327
-4.91121
-2.35347
0.505159
3.72054
7.53743
11.261
16.4595
20.5676
27.6535
32.0405
41.4619
46.0246
58.4799
62.3071
79.9914
80.6938
105.288
103.372
131.823
131.728
158.75
5.10116
13.5661
10.0591
13.9344
12.9249
14.7033
14.5008
15.3102
15.2944
15.4464
15.5752
15.2796
15.5681
14.9752
15.3113
14.5849
14.8174
14.2376
13.8875
13.52
13.2543
12.9564
12.536
12.4922
11.997
12.1511
11.5965
11.9768
11.3153
11.8969
11.1449
11.9044
11.0419
11.8964
11.224
11.8975
11.7205
12.0499
12.0678
12.1956
12.3407
12.3174
12.6669
12.4608
12.957
12.5978
13.2218
12.7251
13.4921
12.849
13.7092
13.0906
13.647
13.386
13.4599
13.5448
13.5065
13.6828
13.5279
13.8157
13.5132
13.9741
13.4881
14.0994
13.4744
14.1011
13.4335
14.029
13.3784
13.7902
13.4372
13.472
13.3338
13.1632
13.1357
12.8246
12.9194
12.4807
12.7095
12.137
12.509
11.7812
12.285
11.458
12.0496
11.2112
11.6867
11.1381
11.2649
10.9297
10.8497
10.5762
10.3405
10.096
9.71356
9.46274
8.92285
8.58966
7.92604
7.51918
6.58317
6.13589
4.82645
4.24658
2.53818
1.6465
-0.486134
-1.94617
-4.58117
-6.83213
-10.1145
-13.3505
-17.4187
-21.8071
-26.6897
-32.1277
-37.5378
-43.5986
-48.8051
-54.5382
-58.4635
-62.6679
-64.3052
-66.0518
-64.9543
-63.7335
-59.6299
-55.332
-48.8617
-42.4748
-35.4502
-29.3003
-23.6463
-18.9423
-15.3148
-12.2165
-10.3378
-8.44866
-7.83887
-6.81157
-7.13821
-6.82705
-7.80009
-8.1228
-9.45546
-10.2549
-11.7145
-12.8588
-14.24
-15.5475
-16.6401
-17.9135
-18.553
-19.6356
-19.782
-20.5338
-20.2651
-20.5678
-19.938
-19.9875
-19.0704
-18.8995
-17.8159
-17.4771
-16.2285
-15.6768
-14.2119
-13.3471
-11.6539
-10.354
-8.37865
-6.52533
-4.13256
-1.65701
1.38076
4.46571
8.48544
12.0616
17.541
21.4653
28.7998
32.9899
42.5848
46.8009
59.3919
62.6081
79.5287
79.8612
101.542
99.1825
121.966
120.81
142.24
4.88507
13.0083
9.33336
13.4066
12.2197
14.1316
13.9509
14.8582
14.9702
15.2472
15.456
15.2963
15.575
15.0989
15.3934
14.7593
14.9075
14.385
14.12
13.7855
13.4624
13.222
12.7555
12.7481
12.1608
12.3519
11.7127
12.0787
11.3825
11.9376
11.1802
11.9339
11.1141
11.9808
11.2434
11.9867
11.6753
12.0478
12.1478
12.1713
12.4704
12.3048
12.8001
12.502
13.0965
12.648
13.3702
12.7711
13.642
12.8972
13.8105
13.1329
13.77
13.5126
13.5681
13.6734
13.5298
13.8062
13.5461
13.8967
13.5185
14.0168
13.4856
14.1344
13.4858
14.1784
13.4813
14.1057
13.4733
13.8826
13.5392
13.5562
13.4662
13.264
13.2837
12.9322
13.0788
12.5885
12.8921
12.2452
12.7154
11.9245
12.5292
11.6475
12.3048
11.4594
11.9473
11.4583
11.5526
11.3075
11.2083
11.0342
10.7952
10.665
10.2891
10.1513
9.65249
9.43598
8.77468
8.51141
7.59256
7.26273
6.02761
5.53837
3.95596
3.16968
1.20679
-0.0730952
-2.5221
-4.52481
-7.60553
-10.5846
-14.4655
-18.6256
-23.4303
-28.9304
-34.679
-41.3908
-47.5516
-54.4431
-59.7806
-65.2776
-68.1834
-70.8442
-70.2998
-69.4745
-65.8069
-61.569
-55.0724
-48.2749
-40.4659
-32.8573
-26.1469
-19.8572
-15.8392
-11.9087
-10.207
-7.93164
-7.61084
-6.38811
-6.88737
-6.53792
-7.58085
-7.93452
-9.33911
-10.2719
-11.8407
-13.1754
-14.6925
-16.2201
-17.5098
-18.9811
-19.8364
-21.042
-21.3407
-22.1176
-21.8633
-22.177
-21.5379
-21.4749
-20.6742
-20.5004
-19.6286
-19.4034
-18.4709
-18.1241
-17.05
-16.4939
-15.2256
-14.3388
-12.8199
-11.5127
-9.61511
-7.84787
-5.36852
-3.18734
0.189649
2.70193
7.32764
10.0844
16.3912
19.2932
27.7184
30.6186
41.8392
44.0071
59.5291
59.3347
78.8211
79.2379
99.6449
100.141
120.178
7.06514
14.9995
10.8466
14.7221
13.1355
14.9251
14.4613
15.2461
15.2168
15.3963
15.5416
15.3466
15.5537
15.1339
15.3365
14.7873
14.9143
14.4716
14.1056
13.8669
13.4662
13.3303
12.7888
12.8198
12.1982
12.4149
11.7261
12.1206
11.3676
11.9373
11.1239
11.8643
10.992
11.8109
11.1055
11.729
11.5808
11.7909
11.9938
11.9332
12.2723
12.0849
12.5633
12.2635
12.8725
12.4244
13.1527
12.5749
13.4137
12.7587
13.5626
13.0234
13.5197
13.3821
13.3864
13.5645
13.4083
13.7114
13.4474
13.8624
13.4594
14.0048
13.4594
14.133
13.481
14.1824
13.4912
14.1363
13.5315
13.9075
13.5977
13.5912
13.5447
13.2872
13.3767
12.9669
13.1598
12.6185
12.9315
12.2659
12.6996
11.9154
12.474
11.6159
12.2096
11.4234
11.8415
11.4182
11.4439
11.3128
11.1625
11.0764
10.7956
10.7588
10.321
10.3129
9.75714
9.71014
9.03262
8.91872
8.08369
7.90133
6.82883
6.49633
5.17381
4.5336
2.91579
1.77723
-0.248232
-2.12731
-4.77793
-7.68522
-11.2455
-15.509
-20.2625
-26.0811
-32.1081
-39.3581
-46.3023
-54.1226
-60.6725
-67.3888
-71.734
-75.6174
-76.7168
-77.069
-74.3975
-70.2791
-63.3479
-55.1233
-45.452
-36.2389
-28.0027
-20.899
-15.2562
-11.0545
-8.38297
-6.29378
-5.29908
-4.23965
-4.33446
-4.06158
-4.89418
-5.36205
-6.75119
-7.81294
-9.46716
-11.0293
-12.706
-14.5094
-15.9907
-17.7643
-18.8184
-20.3034
-20.8271
-21.7984
-21.805
-22.1734
-21.6745
-21.6367
-20.8001
-20.5221
-19.6565
-19.2991
-18.4225
-17.9679
-16.9557
-16.2892
-15.1419
-14.1835
-12.8288
-11.5202
-9.77373
-8.08735
-5.70222
-3.6983
-0.369218
1.83729
6.46647
8.8238
15.0553
17.532
25.7302
28.0802
39.0243
40.1221
54.6186
54.4675
70.7948
70.7657
87.9256
88.0882
105.079
6.77579
14.7239
10.5564
14.4935
12.77
14.8673
14.2222
15.2196
15.1384
15.431
15.599
15.4541
15.6801
15.2983
15.4695
14.9813
15.0364
14.6777
14.3043
14.1129
13.6638
13.5672
13.0012
13.0419
12.3734
12.5858
11.8538
12.2397
11.4619
12.0202
11.21
11.9312
11.0999
11.887
11.196
11.7867
11.609
11.829
12.0444
11.9722
12.3367
12.1187
12.6713
12.3147
12.9914
12.5021
13.2691
12.6454
13.5149
12.846
13.6367
13.1227
13.6122
13.4799
13.476
13.66
13.4482
13.7976
13.468
13.923
13.465
14.0429
13.4643
14.157
13.4889
14.2381
13.5786
14.1496
13.5966
13.9916
13.6768
13.6483
13.6833
13.3801
13.5009
13.0692
13.2898
12.722
13.092
12.3736
12.891
12.0487
12.6788
11.764
12.4171
11.6284
12.0692
11.6855
11.6815
11.6122
11.444
11.437
11.1543
11.2079
10.7965
10.8534
10.3363
10.3368
9.69324
9.66517
8.84421
8.73658
7.72912
7.45839
6.26466
5.72593
4.30827
3.34832
1.59009
-0.00392946
-2.32284
-4.84947
-8.03426
-11.8659
-16.3549
-21.9253
-28.0533
-35.4859
-43.1484
-52.1056
-60.2462
-68.7076
-74.9467
-80.3701
-82.5592
-83.4903
-81.4126
-77.8415
-70.8938
-62.4339
-52.2591
-40.9364
-30.6695
-21.0883
-15.0362
-9.58486
-7.43494
-4.7934
-4.71413
-3.19595
-3.9555
-3.48024
-4.65234
-4.99159
-6.53158
-7.61345
-9.30913
-10.9971
-12.7216
-14.755
-16.3865
-18.4662
-19.7311
-21.5129
-22.1991
-23.3846
-23.3651
-23.8759
-23.1978
-23.0923
-22.1125
-21.8576
-20.9214
-20.7459
-19.9806
-19.815
-19.0185
-18.6963
-17.7327
-17.1853
-16.0067
-15.2089
-13.6775
-12.5994
-10.5209
-9.21339
-6.35349
-4.87351
-0.917871
0.651598
6.0606
7.61024
14.9124
16.2716
26.1757
26.7559
39.1606
40.3149
54.4728
56.0097
71.1438
72.2761
88.141
9.21019
16.6728
12.1574
15.808
13.7241
15.6983
14.7355
15.6961
15.3534
15.6731
15.6492
15.5684
15.6781
15.3617
15.464
15.0473
15.0559
14.7361
14.3522
14.2267
13.7169
13.6905
13.055
13.1683
12.4358
12.691
11.8938
12.2994
11.4569
12.0172
11.1386
11.8517
10.9648
11.7421
11.0273
11.6115
11.3961
11.5805
11.8534
11.7243
12.1378
11.8865
12.428
12.0689
12.7526
12.2576
13.0641
12.4336
13.3137
12.6475
13.4476
12.9359
13.4288
13.3235
13.3258
13.5866
13.3375
13.7247
13.3852
13.8745
13.4146
14.0064
13.4302
14.1243
13.4521
14.2269
13.484
14.2506
13.6235
14.0344
13.7599
13.6706
13.7756
13.4119
13.6255
13.1189
13.4212
12.7657
13.1579
12.407
12.8891
12.0558
12.6468
11.7632
12.3602
11.5942
11.9925
11.6403
11.6218
11.6082
11.4078
11.469
11.1422
11.2847
10.8114
11.0247
10.4259
10.6027
9.95852
10.0615
9.3218
9.34625
8.48093
8.34246
7.3555
6.93819
5.79564
4.97747
3.57827
2.14999
0.256864
-2.07942
-4.8199
-8.46144
-12.5236
-18.0309
-24.0615
-32.0318
-40.3612
-50.3814
-60.2103
-70.6308
-78.8063
-86.0864
-90.1877
-93.2527
-93.5293
-91.9364
-86.3715
-77.0317
-64.6152
-50.1334
-36.8824
-24.77
-15.4234
-8.69608
-5.12284
-2.85551
-1.86012
-0.694408
-0.753561
-0.536492
-1.24436
-1.86182
-3.33057
-4.71562
-6.55033
-8.6389
-10.6385
-13.0429
-14.9469
-17.3911
-18.9496
-21.0278
-22.0578
-23.4424
-23.8285
-24.3722
-23.9525
-23.7621
-22.7795
-22.183
-21.3625
-20.7936
-20.2073
-19.8658
-19.1898
-18.7067
-18.0306
-17.3841
-16.5764
-15.7595
-14.6245
-13.5967
-11.8269
-10.7308
-8.02928
-7.00213
-3.2156
-2.14704
2.95673
4.03997
10.6883
11.6419
20.2975
21.3197
31.6618
32.8832
44.623
46.0702
59.1441
60.2285
74.3375
9.09309
16.8408
12.1696
16.0283
13.7875
15.9478
14.8119
15.9722
15.49
15.9401
15.8509
15.8097
15.8926
15.598
15.6646
15.2813
15.249
14.9485
14.5495
14.4716
13.93
13.9349
13.2587
13.3904
12.6142
12.882
12.0367
12.453
11.5612
12.1387
11.234
11.9448
11.0742
11.8235
11.101
11.6711
11.492
11.6319
11.8992
11.7593
12.1946
11.9143
12.5174
12.0879
12.875
12.2915
13.1844
12.4844
13.422
12.7257
13.5189
13.0175
13.5041
13.386
13.3842
13.6403
13.3837
13.8047
13.3764
13.9534
13.3925
14.095
13.4095
14.1978
13.4753
14.2377
13.5675
14.2629
13.6092
14.1606
13.8163
13.714
13.8311
13.4595
13.7024
13.1951
13.5162
12.8802
13.2931
12.5077
13.0827
12.1494
12.8073
11.8882
12.527
11.7687
12.179
11.8496
11.8008
11.827
11.6053
11.7486
11.3925
11.6732
11.1425
11.4569
10.8415
11.1246
10.415
10.6511
9.88276
9.98871
9.17074
9.06383
8.19901
7.86106
6.90873
6.24103
5.11847
3.96478
2.43673
0.520924
-1.75902
-4.86741
-8.472
-13.4098
-19.1256
-26.7589
-35.4819
-46.2296
-57.3038
-69.5972
-80.306
-89.823
-95.6956
-99.7905
-101.21
-100.865
-96.3409
-87.4545
-74.0429
-58.0331
-41.6258
-26.181
-15.337
-6.24556
-3.34848
-0.359314
-1.23072
0.502541
-0.542284
-0.155036
-1.31491
-1.49737
-3.04841
-4.32923
-5.92177
-7.9799
-9.83995
-12.4881
-14.4721
-17.3117
-19.1589
-21.6633
-22.961
-24.7281
-25.2021
-26.1154
-25.5469
-25.3076
-23.9676
-23.2582
-22.1354
-21.7
-21.1568
-21.1107
-20.7411
-20.5707
-19.8958
-19.5929
-18.7371
-18.4076
-17.2756
-16.9037
-15.156
-14.7764
-12.3294
-11.8953
-8.68002
-8.2213
-3.83605
-3.42512
2.51549
2.86431
10.4731
11.1066
20.3202
21.4501
32.0527
33.5523
45.5328
46.713
60.2272
11.0605
18.6844
13.6683
17.1866
14.7664
16.6381
15.3924
16.3237
15.7816
16.1049
15.9603
15.8984
15.9322
15.6563
15.7211
15.3412
15.3264
15.03
14.6348
14.5638
13.979
14.0699
13.3152
13.525
12.68
12.9874
12.0856
12.5135
11.559
12.1475
11.1524
11.9001
10.9161
11.7278
10.9266
11.5137
11.2821
11.4285
11.7088
11.5411
12.0031
11.7035
12.2966
11.8765
12.6589
12.074
12.9929
12.2728
13.2466
12.5328
13.3813
12.8335
13.372
13.2548
13.2602
13.5676
13.2629
13.7833
13.2715
13.9544
13.2963
14.1007
13.3263
14.22
13.3541
14.286
13.4616
14.2255
13.7134
14.1417
13.8273
13.8542
13.8797
13.5499
13.858
13.2442
13.6868
12.9245
13.4155
12.5577
13.1069
12.1884
12.8436
11.8933
12.5323
11.7384
12.17
11.7953
11.8003
11.8192
11.5596
11.7832
11.3372
11.7228
11.1018
11.5996
10.8868
11.3308
10.6033
10.9826
10.2429
10.4984
9.77083
9.762
9.0765
8.80318
8.07397
7.49495
6.64788
5.63989
4.48121
2.77773
0.979319
-1.76029
-4.71428
-9.18192
-14.1772
-21.4361
-29.7718
-41.1295
-53.6406
-68.2862
-81.6254
-94.0028
-102.208
-108.681
-112.877
-116.602
-116.771
-110.801
-96.961
-77.9373
-56.7131
-35.6551
-18.3935
-5.77965
0.395378
2.49482
2.96255
3.43633
2.71058
3.43687
2.77455
1.89601
0.957749
-1.26885
-2.95673
-5.71999
-7.7334
-10.8248
-13.1232
-16.322
-18.5286
-21.4348
-23.181
-25.2257
-26.2242
-27.3169
-27.1038
-26.791
-25.4669
-24.0705
-22.918
-21.9075
-21.3046
-21.0397
-20.8182
-20.3252
-20.2252
-19.7735
-19.4399
-18.9947
-18.4282
-18.0172
-16.708
-16.3973
-14.2496
-14.0595
-11.1494
-11.064
-7.13442
-7.05937
-1.9959
-1.9736
4.66128
4.70607
12.8785
13.1157
22.5387
23.107
34.006
34.5101
47.2489
11.2469
19.0879
13.9429
17.7115
15.1117
17.1098
15.7702
16.7439
16.1683
16.4697
16.3265
16.219
16.259
15.9438
16.0117
15.5991
15.5804
15.2406
14.8749
14.8218
14.1871
14.3321
13.5177
13.7603
12.8763
13.2102
12.2507
12.7016
11.6963
12.2913
11.2739
11.9847
11.0445
11.7765
11.0277
11.5731
11.3232
11.4582
11.7316
11.5583
12.0496
11.6999
12.3903
11.8589
12.7749
12.0488
13.1098
12.2789
13.3439
12.5645
13.4368
12.8859
13.4161
13.293
13.2784
13.6103
13.2759
13.8226
13.2977
13.9734
13.3248
14.1241
13.3437
14.2439
13.3829
14.2908
13.4764
14.2306
13.6556
14.1406
13.9578
13.8555
13.9503
13.6009
13.9102
13.302
13.7916
12.9617
13.6016
12.5855
13.3253
12.2111
13.0314
11.9668
12.7042
11.8734
12.2983
11.9761
11.9002
12.0005
11.6733
12.0166
11.5118
12.0203
11.3225
11.9888
11.0966
11.7693
10.8902
11.4278
10.5962
11.0116
10.1749
10.3495
9.61831
9.50439
8.8962
8.44601
7.85782
7.07581
6.2693
4.92788
3.53238
1.25799
-1.21968
-5.04798
-9.4733
-15.9811
-23.8275
-34.8688
-47.633
-63.77
-79.5211
-94.7646
-104.746
-112.095
-116.491
-122.235
-126.636
-125.959
-115.601
-93.6549
-69.2004
-43.9552
-22.3644
-4.13227
3.18439
6.33382
3.47073
4.57591
2.74408
2.53906
2.16452
1.79601
1.02367
-0.298532
-1.8365
-4.19426
-6.15446
-9.25751
-11.7087
-15.3356
-17.8969
-21.2382
-23.4131
-25.8465
-27.1155
-28.9786
-29.0523
-28.9303
-26.9941
-25.2339
-23.154
-21.9812
-22.0261
-21.7411
-22.23
-22.0962
-21.7145
-21.3384
-20.9059
-20.7228
-20.4148
-20.242
-19.2217
-19.1687
-17.424
-17.5652
-15.2454
-15.5262
-12.3572
-12.5983
-8.55453
-8.8616
-3.43179
-3.54795
3.34485
3.8371
11.6705
12.4798
22.0082
22.5578
34.5663
13.2798
20.6891
15.4197
18.6459
16.0207
17.5902
16.2964
16.898
16.4611
16.4808
16.4976
16.1985
16.3685
15.9788
16.0901
15.6805
15.6937
15.3563
14.927
14.9864
14.233
14.4962
13.5858
13.9048
12.9603
13.3242
12.3371
12.7805
11.7145
12.3123
11.2083
11.9556
10.8902
11.7166
10.8197
11.5094
11.135
11.3016
11.5666
11.3606
11.9155
11.4659
12.2854
11.6276
12.6685
11.8329
12.9872
12.0963
13.2213
12.4061
13.35
12.7296
13.3369
13.188
13.1798
13.5591
13.1459
13.8136
13.1733
13.9944
13.2091
14.1506
13.253
14.2818
13.3084
14.3309
13.4431
14.2876
13.6271
14.1264
13.9346
13.851
14.093
13.6489
14.0816
13.3532
13.9768
12.9642
13.757
12.5955
13.4359
12.229
13.1661
11.9686
12.8057
11.8599
12.3424
11.9702
11.8723
12.0204
11.618
12.0372
11.4173
12.0272
11.2763
12.0136
11.1172
11.8853
10.9758
11.7161
10.8435
11.4147
10.6044
10.896
10.213
10.2035
9.69279
9.26117
8.84657
8.12737
7.58483
6.43865
5.49203
3.63925
1.84884
-1.31402
-4.75837
-10.2976
-16.9788
-26.8257
-39.0546
-55.565
-72.7326
-90.6058
-104.578
-115.134
-121.579
-128.172
-136.248
-141.829
-139.884
-123.933
-97.8803
-65.4467
-37.082
-9.77856
6.42054
12.241
9.82015
7.2388
6.59035
7.08912
6.4318
5.65808
4.89668
2.59155
0.899398
-2.24854
-4.16583
-7.56612
-10.1851
-14.1129
-17.1579
-21.1108
-23.9125
-26.7006
-28.3307
-30.5003
-31.2127
-31.5401
-29.9477
-27.0586
-24.7698
-22.2838
-21.3286
-21.0198
-21.4935
-21.1327
-22.0092
-21.5011
-21.3862
-21.0714
-21.3134
-21.2665
-20.6209
-20.6455
-19.1136
-19.3377
-17.2957
-18.0885
-15.3333
-15.8231
-12.3879
-13.3686
-8.48376
-9.65913
-3.43334
-4.18286
2.91447
2.18441
10.8805
9.99508
21.9122
13.4041
21.194
15.9205
19.243
16.7402
18.0726
17.0836
17.3516
17.1132
16.9051
16.9603
16.6063
16.7123
16.3155
16.4155
15.9515
15.9448
15.6297
15.1243
15.2692
14.4227
14.8134
13.732
14.212
13.1048
13.5915
12.5
13.0162
11.8669
12.5221
11.3509
12.0879
11.0018
11.8069
10.8794
11.5456
11.2505
11.2874
11.6308
11.3051
12.021
11.3958
12.3824
11.5635
12.7386
11.7594
13.0595
12.0558
13.2749
12.3938
13.3711
12.7367
13.3455
13.216
13.153
13.6047
13.0909
13.8814
13.0971
14.0791
13.1287
14.24
13.1686
14.3569
13.2287
14.392
13.3561
14.3102
13.5875
14.1229
13.9404
13.7657
14.1419
13.5655
14.1643
13.3093
14.0978
12.9965
13.9133
12.6163
13.6323
12.2754
13.324
12.0461
12.9584
11.9775
12.455
12.1007
11.9734
12.2028
11.6729
12.3145
11.4502
12.3405
11.3456
12.2947
11.2699
12.1871
11.2112
11.956
11.0726
11.7109
10.87
11.2425
10.586
10.6423
10.2485
9.90518
9.68766
9.10086
8.79688
7.85629
7.15835
5.6155
4.18325
1.55927
-1.32201
-5.93685
-11.6805
-20.0762
-31.2852
-45.9078
-62.5897
-81.1292
-96.9232
-109.722
-118.476
-125.055
-131.813
-139.856
-142.951
-132.723
-108.673
-84.1945
-49.4571
-20.6636
3.56591
9.70132
10.1761
10.8647
1.62917
3.45059
4.00045
4.62403
5.21377
4.13435
2.8561
-0.0317992
-2.02754
-5.44556
-8.16448
-12.4121
-15.779
-20.1555
-23.444
-26.5757
-28.3155
-31.6708
-33.2836
-34.3961
-32.4821
-28.7017
-24.4997
-21.7528
-21.8434
-21.3585
-23.1283
-23.0422
-22.9495
-22.1953
-21.9799
-21.8123
-22.3453
-22.4151
-22.1142
-22.2647
-21.0913
-21.3511
-19.7875
-20.6432
-18.64
-19.3464
-16.8943
-18.2072
-14.4807
-16.1099
-10.9664
-10.8669
-6.41806
-5.7547
-0.528794
-0.337339
8.93433
16.1234
22.0945
17.3252
19.5668
17.6464
18.1177
17.5809
17.314
17.3211
16.8975
17.0496
16.6063
16.8146
16.3136
16.5422
15.9887
16.0651
15.7371
15.1647
15.4779
14.395
15.0425
13.7118
14.4819
13.0673
13.8711
12.438
13.2643
11.8226
12.6454
11.2687
12.1654
10.8336
11.8543
10.718
11.5669
11.117
11.1517
11.6086
11.0574
11.9912
11.1606
12.3227
11.3548
12.6946
11.593
12.9939
11.9022
13.2223
12.2663
13.3466
12.591
13.315
13.137
13.0687
13.5909
12.9577
13.9231
12.9684
14.1415
13.0056
14.3142
13.0631
14.4349
13.147
14.4566
13.3114
14.3709