/*--------------------------------*- C++ -*----------------------------------*\
| =========                 |                                                 |
| \\      /  F ield         | OpenFOAM: The Open Source CFD Toolbox           |
|  \\    /   O peration     | Version:  4.1                                   |
|   \\  /    A nd           | Web:      www.OpenFOAM.org                      |
|    \\/     M anipulation  |                                                 |
\*---------------------------------------------------------------------------*/
FoamFile
{
    version     2.0;
    format      ascii;
    class       volScalarField;
    location    "418";
    object      p;
}
// * * * * * * * * * * * * * * * * * * * * * * * * * * * * * * * * * * * * * //

dimensions      [0 2 -2 0 0 0 0];

internalField   nonuniform List<scalar> 
204246
(
127.493
-4.16523
40.0353
23.1112
18.6188
25.5946
13.9016
25.3566
12.325
25.1809
11.5824
25.8303
10.0404
26.1819
11.3688
23.6123
17.8691
12.4434
24.7064
10.0651
26.0504
10.531
24.7874
11.3864
24.7562
11.279
25.7137
9.5805
26.6832
9.36189
26.7192
9.83121
25.8405
12.3385
21.9966
18.5788
11.7884
24.2328
10.4624
23.8645
10.7968
23.9318
10.4607
24.8118
8.63679
25.6495
8.46809
25.3603
9.64153
23.1388
11.9249
20.5675
17.7162
10.5614
23.2222
9.27828
22.7984
9.62318
22.8244
9.25761
23.6215
7.34161
24.2791
7.02508
23.6097
8.07662
20.8009
9.68425
17.9527
14.1483
7.99301
17.0007
5.9513
15.9773
4.8048
13.9379
2.15084
11.8682
-2.23592
8.69796
-5.94755
3.8529
-9.8073
-3.33198
-14.3391
-11.5334
-16.8003
-25.4895
-23.7679
-33.3961
-29.6598
-42.0176
-33.5498
-50.7237
-35.8576
-53.4622
-36.1221
-51.2371
-35.7585
-45.1554
-32.2908
-36.5503
-25.0014
-26.9191
-16.7436
-15.6114
-15.0388
-4.91776
-9.80097
3.99862
-6.56193
9.25076
-2.85325
12.5342
-1.17496
13.9867
-0.418047
14.5194
-0.170541
13.8106
0.591124
10.5476
5.04167
-0.978519
8.88394
-5.11844
7.55899
-7.47356
4.49073
-10.392
1.25363
-13.7402
-2.0164
-17.2048
-5.16699
-19.9227
-8.43679
-21.2585
-12.7245
-17.8813
-24.6058
-13.2778
-27.5492
-12.4915
-28.1786
-12.0051
-28.1192
-11.4043
-27.5386
-10.6174
-26.5827
-9.72533
-25.1144
-9.06723
-22.1918
-10.2914
-14.7127
-18.6734
-6.55022
-18.9861
-2.89707
-16.717
-0.401739
-12.8717
2.47236
-8.13363
6.47061
-2.30927
11.6597
4.74083
18.0212
13.7745
26.0559
25.3654
35.5883
42.1671
44.3835
58.2795
62.7991
76.141
85.8684
99.2705
113.589
128.518
148.437
166.29
194.557
217.24
261.117
290.082
377.799
393.73
600.767
44.7826
24.1724
21.5033
25.7726
18.6647
22.6396
17.2614
21.2818
16.3465
20.7772
15.8131
20.7731
15.7476
19.8534
17.2048
17.7666
20.4309
14.9913
20.4222
15.2991
20.2214
15.9439
19.9554
15.9043
20.2431
15.6336
20.8146
15.2933
20.7119
15.4572
20.4027
16.0045
19.4072
17.5523
17.4014
20.3979
14.9475
19.8839
15.3959
19.4244
15.2475
19.5533
14.8531
19.9675
14.4213
19.6774
14.6227
19.078
15.4239
17.9606
16.4897
16.1612
19.319
13.8121
18.8079
14.3013
18.3595
14.1645
18.483
13.7571
18.8453
13.2647
18.4211
13.3206
17.5773
13.7467
16.3192
14.2323
14.1722
16.3188
11.485
14.4238
10.3645
13.1658
8.73812
12.0326
6.40951
10.1242
3.46641
6.7394
0.337668
2.1923
-3.11136
-3.96289
-7.53935
-11.8333
-11.7502
-20.2174
-21.3049
-28.1369
-30.3146
-36.3791
-36.4424
-42.972
-41.7202
-46.4882
-44.0532
-46.402
-42.0013
-44.1812
-38.9092
-36.7652
-32.452
-27.7091
-24.7486
-17.3975
-17.7615
-9.39765
-9.63095
-1.51724
-3.80363
2.60516
0.417114
5.79575
3.33405
7.92879
4.64592
8.84942
5.32461
8.31512
6.10181
5.83656
8.06054
2.39278
5.93182
0.582038
3.602
-1.83495
1.19025
-4.76087
-1.80337
-7.96172
-5.18634
-11.1945
-8.84108
-13.9717
-12.5883
-15.498
-16.978
-14.8634
-21.3961
-17.147
-22.5329
-17.9394
-22.9587
-17.9626
-22.8639
-17.576
-22.3441
-16.937
-21.4574
-16.2257
-20.0516
-15.8182
-17.5374
-16.3734
-13.3819
-17.3758
-11.6138
-15.4379
-9.60003
-12.9066
-7.12929
-10.0701
-4.08252
-6.49469
-0.254337
-1.88456
4.5665
4.02231
10.0399
11.8365
17.0599
21.655
25.2882
34.0828
37.7671
46.8808
53.431
62.9872
72.6567
83.1453
96.1674
107.775
124.934
137.777
160.96
174.417
209.646
216.306
291.019
256.46
391.14
17.9952
29.8779
23.4742
25.5708
20.5539
22.6752
18.0692
21.4001
16.6726
20.8761
16.1466
20.5643
16.1031
19.88
17.0238
18.3912
18.8881
16.4526
19.717
15.8143
20.0906
15.8477
20.1073
15.865
20.2447
15.7466
20.5104
15.541
20.5733
15.6083
20.3725
16.0692
19.6114
17.184
17.9771
18.809
16.1948
19.3258
15.6108
19.437
15.3053
19.5119
14.9908
19.6395
14.6646
19.5216
14.7115
19.0944
15.219
18.2204
16.1724
16.7322
17.7687
15.0166
18.2244
14.4611
18.328
14.167
18.3956
13.8578
18.4861
13.4905
18.2678
13.4279
17.6209
13.6675
16.3625
14.1148
14.4983
14.7892
12.3309
14.2775
10.7954
13.1926
9.34848
11.4734
7.29693
9.24354
4.70685
5.95392
1.68394
1.55254
-2.04373
-4.21928
-6.92299
-11.129
-13.2155
-18.6587
-20.7633
-26.714
-28.9866
-34.8041
-37.0293
-41.9533
-42.6779
-46.3334
-44.9434
-47.5335
-44.0958
-44.369
-40.4479
-37.8124
-33.3398
-28.8341
-24.7609
-18.9873
-16.6448
-10.2014
-9.36298
-2.86874
-2.59877
1.99724
1.72473
5.67211
4.04888
8.11375
5.16407
9.1797
5.80039
8.7946
6.45241
6.79327
6.94005
3.89804
6.00179
1.44999
4.14178
-0.921213
1.33709
-3.66796
-1.91083
-6.77298
-5.43223
-10.036
-9.04595
-12.983
-12.7378
-14.8855
-16.5475
-16.2363
-20.1537
-17.4294
-21.9237
-17.8996
-22.7007
-17.8652
-22.7571
-17.4574
-22.28
-16.8208
-21.3886
-16.1359
-19.9708
-15.6775
-17.7059
-15.8777
-14.5075
-16.0573
-12.0449
-14.9397
-9.52167
-12.8726
-7.14473
-9.7438
-4.40802
-5.76363
-0.802545
-0.913965
3.9278
5.10208
10.0235
12.5948
17.5738
22.1426
27.2212
33.7818
38.7863
47.8296
54.4232
64.6917
74.3433
85.6306
99.1575
111.71
130.268
144.17
169.807
184.51
224.195
232.13
308.284
287.014
375.794
5.99129
19.2285
15.8818
21.4333
17.3134
20.8784
17.3702
19.9625
17.1891
19.1869
17.2355
18.7374
17.5604
18.0252
18.3857
17.1203
19.3112
16.7826
18.8886
17.0878
18.6108
17.3956
18.5673
17.3827
18.716
17.3
18.8717
17.3177
18.7222
17.4924
18.4235
17.8872
17.8483
18.604
17.0505
19.2461
16.7242
18.5975
16.8955
18.2073
16.7805
18.1127
16.5856
18.0714
16.506
17.745
16.6388
17.3066
16.9861
16.7165
17.506
15.9353
18.1126
15.6868
17.5089
15.8627
17.1794
15.7569
17.0894
15.5646
17.0148
15.4616
16.5972
15.4977
16.0246
15.6031
15.2683
15.6093
14.2913
15.735
13.4856
14.2848
12.6453
12.9289
11.3622
11.7155
9.70348
9.8372
7.50364
7.00868
4.64356
3.24858
1.03525
-1.73281
-3.79704
-8.04068
-9.77627
-15.6793
-17.9672
-23.8984
-26.9434
-32.311
-35.5735
-40.0054
-43.3819
-45.5856
-47.5126
-48.067
-47.8187
-46.8141
-44.5841
-41.4177
-37.951
-32.6303
-29.2527
-22.34
-20.08
-13.1248
-11.197
-5.892
-3.74799
-0.318286
1.34596
3.69938
4.57899
6.16555
6.45443
7.23041
7.41532
7.13556
7.88568
6.02955
7.81051
4.97842
5.98425
3.53566
3.53552
1.4046
0.892262
-1.28005
-2.20978
-4.403
-5.72096
-7.7816
-9.48606
-11.1217
-13.1872
-13.8501
-16.6578
-15.9704
-19.3672
-18.9098
-20.8106
-20.0427
-21.515
-20.2731
-21.5812
-19.9752
-21.0905
-19.4338
-20.2293
-18.8227
-18.9595
-18.3091
-17.1725
-17.8649
-15.4463
-16.7572
-14.3033
-15.0806
-12.8159
-13.0256
-10.7578
-10.66
-8.23439
-7.69105
-4.97014
-3.95364
-0.818971
0.795376
4.20351
7.06362
10.5427
14.8538
18.4336
24.6896
28.8265
35.802
41.9124
49.2812
57.9344
65.7927
77.3642
85.6995
100.895
109.697
130.242
137.373
170.395
165.285
222.772
209.637
280.733
6.34621
20.8646
15.676
20.8242
17.8669
20.3905
18.0433
19.7288
17.7927
19.1842
17.6028
18.7019
17.7716
18.1546
18.1872
17.6382
18.5611
17.5056
18.4084
17.4633
18.4334
17.4697
18.5546
17.4156
18.6693
17.3877
18.7266
17.4565
18.6407
17.5974
18.4189
17.8844
17.9838
18.2639
17.4309
18.4504
17.337
18.1738
17.1666
18.0848
16.9139
18.0219
16.7043
17.9007
16.6329
17.6346
16.6816
17.2732
16.8851
16.8743
17.1911
16.3785
17.3614
16.1963
17.0758
16.0237
17.0078
15.7954
16.9544
15.6265
16.8213
15.5243
16.535
15.5104
16.0125
15.5474
15.2777
15.4236
14.3982
15.0254
13.7588
14.2938
12.9024
13.0715
11.6355
11.6595
9.98792
9.86935
7.98217
7.22074
5.28318
3.70286
1.68402
-0.834833
-2.96999
-6.7217
-9.0006
-13.6125
-16.5991
-21.8002
-25.323
-30.7687
-34.4553
-39.3039
-42.7255
-46.1751
-48.2613
-49.688
-49.8047
-49.0292
-47.0484
-43.9432
-40.1557
-34.8832
-30.564
-24.1579
-20.3274
-14.1321
-11.1001
-5.80866
-3.64598
0.281879
1.6498
4.2139
5.1636
6.68505
7.10268
7.89528
8.11121
7.99736
8.40206
7.33851
7.93421
6.31293
6.5713
4.71755
4.49136
2.49827
1.87216
-0.23037
-1.23549
-3.37385
-4.76159
-6.78637
-8.55638
-10.2499
-12.3463
-13.454
-15.7402
-16.269
-18.4474
-18.701
-20.1084
-19.8755
-21.1371
-20.1285
-21.3917
-19.8802
-20.9375
-19.3062
-20.1
-18.7218
-18.8097
-18.1528
-17.3286
-17.2086
-15.6531
-16.0877
-14.3317
-14.4865
-12.6029
-12.5776
-10.4995
-10.1209
-7.81415
-7.09838
-4.42413
-3.28621
-0.175697
1.63079
5.09565
7.88421
11.7577
15.8172
20.1244
25.5985
30.8102
37.5777
44.4376
52.2149
61.4806
70.1468
82.5753
91.9712
108.395
118.069
140.542
148.331
182.664
179.611
228.896
217.533
262.631
3.89315
14.7538
12.0391
16.9806
15.4333
18.0232
16.7642
18.2412
17.2566
18.0743
17.573
17.8211
17.9399
17.5201
18.3147
17.2937
18.533
17.5205
18.2067
17.7953
18.0405
17.9429
18.0575
17.9567
18.125
17.9805
18.131
18.0863
18.0073
18.2229
17.8145
18.3914
17.6198
18.6462
17.3481
18.5705
17.403
18.116
17.5649
17.7188
17.454
17.5685
17.3454
17.3771
17.3253
17.1015
17.3714
16.8668
17.3664
16.5606
17.5182
16.3109
17.5276
16.4659
17.0469
16.5743
16.7791
16.4654
16.5786
16.3719
16.3778
16.3527
16.0904
16.3269
15.7718
16.2121
15.4534
16.0595
14.935
15.6076
14.4102
14.7943
13.7826
13.8515
12.8259
12.7146
11.5384
11.1409
9.82282
8.94234
7.4539
5.90292
4.23303
1.68805
-0.170142
-3.86662
-6.13568
-10.8977
-13.8524
-19.2578
-22.9948
-28.5925
-32.9066
-38.117
-42.4636
-46.5055
-49.7879
-52.0236
-53.198
-52.9919
-51.7143
-48.6985
-45.4003
-39.7558
-35.4701
-28.3646
-24.2391
-17.197
-13.6515
-7.97935
-5.02278
-1.16805
1.08072
3.4151
4.99258
6.24462
7.22644
7.59403
8.38252
7.96452
8.66068
7.68437
8.16838
6.8252
6.92127
5.37943
5.09713
3.33736
2.68256
0.7357
-0.35998
-2.39073
-3.94406
-5.93262
-7.92397
-9.6614
-12.0133
-13.2459
-15.8319
-16.4773
-18.8796
-19.529
-20.7316
-21.2473
-21.6606
-21.6832
-21.7643
-21.4456
-21.212
-20.7857
-20.3311
-20.0877
-19.2296
-19.3206
-18.0964
-18.5102
-16.9943
-17.2425
-15.9628
-15.9385
-14.6947
-14.349
-13.0494
-12.4928
-10.9411
-10.1791
-8.2813
-7.19654
-4.95068
-3.3148
-0.779137
1.65188
4.46864
7.92087
11.1636
15.6637
19.8032
24.9691
30.6646
36.2814
44.1189
50.0974
60.5595
66.8449
80.6082
86.6293
105.418
108.679
139.091
132.646
173.825
171.32
211.911
6.77191
17.0543
13.0089
17.1928
15.9216
17.8094
17.0287
18.1327
17.5011
18.0346
17.7217
17.8671
17.9265
17.6922
18.1596
17.5206
18.1983
17.7543
17.9749
17.9235
17.9321
17.9971
18.0137
17.9908
18.0788
18.0215
18.0784
18.1102
18.0257
18.2356
17.8727
18.3367
17.6713
18.4096
17.5719
18.3024
17.6917
17.9198
17.7075
17.669
17.5292
17.5133
17.3969
17.3268
17.3235
17.0752
17.3009
16.8734
17.3146
16.6415
17.3276
16.432
17.1114
16.5691
16.7869
16.5269
16.6937
16.4537
16.5151
16.377
16.2906
16.3029
16.0352
16.2271
15.7324
16.0839
15.338
15.8266
14.9203
15.4052
14.531
14.7486
13.8842
13.8892
12.9716
12.7732
11.8017
11.3166
10.2293
9.35753
8.09983
6.62394
5.18764
2.9074
1.15877
-2.03634
-4.33858
-8.40638
-11.613
-16.4739
-20.6213
-26.094
-30.9323
-36.4912
-41.4535
-46.3467
-50.291
-53.5279
-55.4768
-56.1198
-55.4628
-52.8635
-49.4152
-43.6465
-38.3327
-30.9673
-25.565
-18.6015
-13.9752
-8.31523
-4.88704
-0.772829
1.49682
4.10682
5.62758
7.08905
8.01107
8.58169
9.2939
9.06516
9.64217
8.85965
9.29418
8.07847
8.20769
6.70123
6.44488
4.71449
4.03759
2.16777
1.0166
-0.934763
-2.54919
-4.50432
-6.56197
-8.37787
-10.7457
-12.2776
-14.6716
-15.9092
-17.8926
-18.9437
-20.1623
-20.852
-21.365
-21.5128
-21.6503
-21.3405
-21.1954
-20.711
-20.3107
-19.8435
-19.2971
-18.9887
-18.0735
-17.9854
-16.7675
-16.8168
-15.5329
-15.3692
-14.0868
-13.746
-12.324
-11.792
-10.1172
-9.40129
-7.36797
-6.35361
-3.96959
-2.38292
0.326305
2.68352
5.80583
9.07773
12.8063
17.0318
21.7793
26.8205
33.159
38.8447
47.2798
53.5086
64.5809
71.1231
85.5352
91.69
111.296
113.522
141.466
138.119
169.329
165.489
194.29
4.98608
14.3858
11.131
14.95
14.2669
16.0657
15.7856
16.8621
16.7271
17.1915
17.2764
17.2829
17.6803
17.2837
17.9799
17.4148
18.0845
17.72
17.8964
17.9727
17.8202
18.1214
17.883
18.1517
17.9302
18.2246
17.9027
18.3301
17.8188
18.4247
17.7434
18.5165
17.6154
18.5895
17.5254
18.3498
17.7287
17.9333
17.8382
17.6425
17.7648
17.3993
17.682
17.1834
17.6029
17.027
17.5195
16.8047
17.4827
16.6092
17.4932
16.5592
17.2898
16.7658
16.9457
16.8484
16.699
16.7582
16.5624
16.7181
16.3569
16.7177
16.1169
16.656
15.9641
16.5213
15.7531
16.307
15.4227
15.8829
15.0984
15.3063
14.5992
14.6539
13.923
13.7818
12.9986
12.6109
11.7469
10.9558
9.97483
8.59584
7.39874
5.23894
3.64955
0.572152
-1.69058
-5.73106
-8.90353
-13.8575
-18.0564
-23.7541
-28.9088
-34.9714
-40.5872
-46.342
-51.488
-55.8303
-59.1225
-60.6633
-60.8639
-58.6852
-55.7972
-50.1681
-44.9053
-36.9017
-30.6709
-22.4641
-16.9605
-10.253
-6.14049
-1.58263
1.22379
3.84479
5.69062
6.98143
8.23435
8.52595
9.50581
9.08849
9.83036
8.98277
9.47628
8.34089
8.48804
7.15934
6.93497
5.40046
4.72259
3.01984
1.82376
-0.0280263
-1.73662
-3.68653
-5.89568
-7.83235
-10.398
-12.1752
-14.8625
-16.3021
-18.7735
-19.9242
-21.4285
-22.1878
-22.8449
-23.0154
-22.9173
-22.7195
-22.1436
-21.8707
-21.0864
-20.9154
-19.995
-20.0895
-18.9793
-19.2152
-18.0373
-18.1057
-17.1704
-17.0591
-16.1034
-15.8658
-14.788
-14.4335
-13.1525
-12.6072
-11.099
-10.2335
-8.50821
-7.18305
-5.20107
-3.2958
-0.960662
1.61857
4.51421
7.73666
11.5835
15.3108
20.5257
24.6405
31.727
36.1161
45.5515
50.1067
62.5434
66.4106
84.0702
84.7778
109.371
107.462
135.909
135.822
162.838
7.99629
16.2786
12.5177
15.9725
14.9484
16.4156
16.1941
16.9012
16.8901
17.1792
17.34
17.2801
17.6484
17.3204
17.8283
17.4435
17.9176
17.7542
17.7853
17.966
17.7768
18.1101
17.8701
18.1575
17.9066
18.24
17.8926
18.331
17.8406
18.4104
17.7482
18.4715
17.6442
18.4974
17.6788
18.23
17.8732
17.83
17.9074
17.6363
17.7763
17.4348
17.6448
17.2354
17.5501
17.0239
17.511
16.8108
17.4543
16.6207
17.3186
16.5378
17.0635
16.7311
16.7552
16.7407
16.6296
16.6783
16.4554
16.6294
16.2409
16.5873
16.0012
16.506
15.787
16.3492
15.6231
16.0985
15.3928
15.7354
15.1184
15.2475
14.642
14.6339
14.0078
13.8408
13.2034
12.777
12.1299
11.3557
10.618
9.3696
8.43698
6.57665
5.25347
2.66092
0.637175
-2.8381
-5.89894
-10.379
-14.7436
-20.2877
-25.9161
-32.2588
-38.7052
-45.2272
-51.4424
-56.9694
-61.5942
-64.5417
-66.1528
-65.171
-62.6547
-57.0153
-50.7881
-41.8244
-34.1975
-25.3913
-18.4862
-11.4715
-6.3625
-1.5859
1.79358
4.54984
6.57737
8.02379
9.33959
9.7416
10.692
10.4711
11.0719
10.4429
10.8655
9.87137
9.98684
8.75369
8.49701
7.05534
6.33206
4.75644
3.50327
1.76297
0.00999087
-1.87104
-4.13818
-6.11361
-8.71861
-10.7044
-13.3678
-15.246
-17.5265
-19.1739
-20.7347
-21.8229
-22.5756
-22.9731
-23.0265
-22.7896
-22.4785
-21.9017
-21.3368
-20.8657
-20.1253
-19.8896
-18.9221
-18.814
-17.7122
-17.5984
-16.5272
-16.3563
-15.3144
-15.0572
-13.9606
-13.5496
-12.3073
-11.7454
-10.2721
-9.43628
-7.70716
-6.4357
-4.40081
-2.58546
-0.125293
2.30386
5.40814
8.45824
12.5303
16.0873
21.6021
25.5172
32.8763
37.051
46.6545
50.8949
63.4397
66.7018
83.6042
83.945
105.626
103.28
126.047
124.911
146.323
6.87841
15.1605
11.1942
14.9205
13.7885
15.3523
15.3061
15.9893
16.2104
16.496
16.8634
16.8346
17.3052
17.0918
17.6224
17.3135
17.805
17.6665
17.7484
17.9451
17.7502
18.1226
17.8216
18.2283
17.8558
18.3211
17.8523
18.4133
17.8159
18.4975
17.7513
18.5591
17.663
18.5303
17.6986
18.2554
17.9002
17.8826
17.9602
17.6788
17.8831
17.4773
17.7977
17.2473
17.7156
17.0427
17.6179
16.863
17.5473
16.7381
17.4545
16.7152
17.2107
16.9233
16.9916
16.9561
16.7891
16.9225
16.6119
16.9222
16.4504
16.8924
16.2766
16.819
16.1595
16.6738
16.0158
16.4664
15.8115
16.1648
15.5765
15.7761
15.2235
15.2921
14.7846
14.6503
14.1972
13.8339
13.3843
12.7138
12.1842
11.0718
10.316
8.60488
7.40203
4.95056
3.00876
-0.353056
-3.35455
-7.71279
-11.9407
-17.47
-23.1593
-29.8594
-36.7537
-44.0618
-51.4386
-58.3386
-64.6947
-69.2656
-72.36
-72.1879
-70.348
-65.0876
-58.9756
-49.8955
-40.8651
-30.4745
-22.1713
-13.4204
-7.40365
-1.80181
1.93915
4.94513
6.99479
8.30379
9.72172
9.84717
10.8962
10.4619
11.1374
10.3581
10.9043
9.89869
10.109
8.96854
8.85864
7.57744
6.91805
5.52948
4.29633
2.6744
0.908079
-0.947833
-3.29299
-5.39485
-8.15573
-10.4114
-13.3958
-15.5726
-18.4073
-20.2485
-22.3276
-23.5078
-24.5489
-24.8403
-24.8141
-24.3963
-23.6129
-23.0209
-22.0785
-21.7331
-20.699
-20.7869
-19.7322
-19.8982
-18.894
-18.9303
-18.0723
-18.0462
-17.2135
-17.0911
-16.2263
-15.9774
-14.9704
-14.5709
-13.4068
-12.777
-11.4407
-10.4846
-8.90439
-7.55939
-5.61249
-3.84011
-1.32026
0.857714
4.26204
6.77612
11.4084
14.1867
20.4572
23.4143
31.7721
34.7265
45.9202
48.0925
63.6293
63.4181
82.8964
83.3257
103.742
104.236
124.284
9.16824
17.0405
12.6098
16.2043
14.672
16.0754
15.7618
16.278
16.4572
16.5202
16.907
16.7798
17.2586
16.9779
17.5392
17.2007
17.7001
17.6025
17.6567
17.9133
17.6671
18.1077
17.7877
18.2101
17.8306
18.3229
17.8336
18.4191
17.8024
18.496
17.7473
18.5527
17.7053
18.5114
17.7743
18.2306
17.9627
17.861
17.9944
17.6598
17.917
17.4578
17.8254
17.2674
17.7089
17.0697
17.6213
16.8528
17.528
16.6834
17.3505
16.6505
17.0601
16.8279
16.7979
16.8775
16.6196
16.8108
16.4327
16.7703
16.248
16.7423
16.0689
16.6878
15.9291
16.5448
15.8786
16.3517
15.7173
16.0963
15.5861
15.6683
15.3093
15.1933
14.9021
14.6398
14.3578
13.9427
13.6838
13.0315
12.7352
11.7674
11.3166
9.93503
9.12463
7.19547
5.69319
2.96855
0.323763
-3.63276
-7.84553
-13.1975
-19.1311
-25.931
-33.5463
-41.7308
-50.4857
-58.9561
-67.1605
-73.8394
-79.1573
-81.5319
-81.4623
-77.2657
-70.49
-60.2695
-48.773
-36.545
-26.2604
-16.5596
-8.49464
-2.44985
2.61581
5.668
8.41599
9.46507
11.3312
11.3482
12.4571
12.1439
12.7243
12.0824
12.5437
11.6902
11.8286
10.778
10.5217
9.46577
8.6744
7.49396
6.17763
4.72043
2.93247
1.19778
-1.18521
-3.2648
-6.08424
-8.47857
-11.5475
-14.1004
-16.9867
-19.3829
-21.6461
-23.357
-24.619
-25.3001
-25.4777
-25.183
-24.564
-23.6853
-22.6152
-22.1364
-21.0063
-20.8696
-19.7561
-19.6889
-18.5202
-18.3823
-17.3748
-17.1905
-16.4104
-16.2137
-15.453
-15.176
-14.3419
-13.9357
-12.9814
-12.3649
-11.2147
-10.3031
-8.86612
-7.61573
-5.76764
-4.15364
-1.6835
0.278113
3.654
5.86158
10.5018
12.8976
19.1292
21.6117
29.8377
32.1484
43.105
44.1889
58.7059
58.5135
74.9375
74.7908
92.046
92.1628
109.156
8.51103
16.3481
11.7816
15.6159
13.8142
15.6202
15.1464
15.7716
15.9846
16.0834
16.5525
16.4757
17.002
16.8042
17.3535
17.0925
17.5891
17.511
17.6294
17.8621
17.6832
18.0708
17.7652
18.2488
17.8016
18.3807
17.8197
18.4774
17.8017
18.5555
17.7476
18.5912
17.7183
18.5206
17.7875
18.2543
17.985
17.914
18.0535
17.7179
18.0094
17.5158
17.9408
17.3011
17.8471
17.1003
17.7407
16.9327
17.6294
16.8555
17.4847
16.8387
17.2183
16.9849
16.9802
17.0857
16.7932
17.0683
16.6031
17.0509
16.4952
17.0022
16.3292
16.9705
16.2458
16.8265
16.1844
16.639
16.0769
16.3728
16.0239
16.0102
15.8377
15.6518
15.5329
15.2629
15.1488
14.7787
14.6616
14.1011
13.9335
13.0738
12.709
11.4351
10.6939
8.91178
7.53831
5.04858
2.67243
-0.876355
-4.76272
-9.84082
-15.6784
-22.604
-30.4183
-38.9157
-48.2405
-57.9421
-68.1321
-77.0009
-84.9461
-89.5514
-91.1569
-87.7972
-81.733
-71.3355
-59.3979
-44.8058
-31.3495
-19.1789
-9.63022
-2.02649
3.1242
6.90928
9.23378
10.3021
11.7119
11.7625
12.5652
12.0276
12.6218
11.749
12.3139
11.4445
11.6935
10.8783
10.5984
9.84054
9.13097
8.17073
6.96349
5.65319
3.92924
2.28965
-0.043902
-2.18794
-5.054
-7.63971
-10.9372
-13.8032
-17.2317
-19.9929
-22.8918
-24.9805
-26.7131
-27.5112
-27.6644
-27.1189
-25.9373
-24.8326
-23.2117
-22.5859
-21.2616
-21.3437
-20.3834
-20.5831
-19.7302
-19.6402
-18.8726
-18.7728
-18.0596
-18.0025
-17.3319
-17.2135
-16.3908
-16.1592
-15.233
-14.8665
-13.8356
-13.2518
-12.0016
-11.1841
-9.59654
-8.53567
-6.42521
-5.12379
-2.26061
-0.771318
3.17824
4.75833
10.1578
11.7234
19.0052
20.415
30.2433
30.8579
43.295
44.3694
58.5909
60.0754
75.243
76.3849
92.2505
10.8678
18.3502
13.2714
16.9991
14.7319
16.4033
15.6529
16.1632
16.2815
16.1447
16.6056
16.3924
16.9341
16.6689
17.25
16.9804
17.4523
17.3807
17.5407
17.7916
17.5943
18.0446
17.7104
18.2382
17.7734
18.3777
17.7994
18.4762
17.7933
18.559
17.7685
18.6073
17.7563
18.5448
17.835
18.2762
18.0195
17.9211
18.0801
17.6994
18.049
17.5007
17.9886
17.3038
17.9134
17.1025
17.7975
16.9247
17.6404
16.7969
17.4313
16.7459
17.1156
16.8874
16.7883
16.9664
16.604
16.9194
16.4219
16.866
16.2414
16.8573
16.0927
16.825
16.0234
16.7347
15.9679
16.5884
15.9817
16.2785
15.9909
15.9455
15.8198
15.6477
15.565
15.2688
15.244
14.8376
14.8757
14.3231
14.3857
13.6734
13.6501
12.6944
12.3687
11.0566
10.1312
8.21703
6.24902
3.25018
-0.305964
-4.88004
-10.4827
-17.0639
-25.2853
-34.5603
-45.5952
-56.9661
-69.2323
-81.164
-92.5056
-100.866
-105.991
-106.207
-101.554
-91.5593
-77.1223
-59.0986
-41.5225
-26.6275
-13.0048
-3.90564
4.03721
7.60094
11.6361
11.6757
14.0616
13.5727
14.6606
14.081
14.6477
13.7746
14.223
13.3656
13.4561
12.8158
12.3156
11.7239
10.9003
10.1286
8.88571
7.76505
6.01763
4.53976
2.22209
0.129001
-2.84368
-5.49119
-9.00196
-12.1972
-15.8944
-19.1706
-22.5294
-25.2282
-27.4831
-28.8345
-29.4233
-29.1286
-28.0448
-26.69
-24.4934
-23.5888
-21.8537
-21.6289
-20.4338
-20.3792
-19.231
-19.0507
-17.9372
-17.7494
-17.1601
-17.0509
-16.6606
-16.407
-16.0625
-15.697
-15.2583
-14.8124
-14.167
-13.5913
-12.6442
-11.8984
-10.5835
-9.66582
-7.79131
-6.72119
-4.02334
-2.95043
0.817312
1.94617
7.03896
8.11417
14.7715
15.7716
24.3524
25.4266
35.7159
36.9674
48.7705
50.0821
63.2674
64.2956
78.378
10.2622
18.0947
12.7723
16.7781
14.3019
16.2132
15.2841
16.0006
15.9988
16.0033
16.4367
16.238
16.7781
16.545
17.1311
16.885
17.3687
17.3685
17.424
17.7689
17.5528
18.0739
17.6729
18.2882
17.7483
18.4436
17.7686
18.5439
17.7576
18.6137
17.7303
18.655
17.7297
18.5655
17.8232
18.2983
18.039
17.953
18.1436
17.7315
18.1478
17.539
18.0872
17.339
18.0076
17.1587
17.9103
17.0221
17.7804
16.9574
17.6078
16.9243
17.301
17.0584
16.9798
17.1783
16.7711
17.1599
16.5837
17.1307
16.4363
17.0977
16.3072
17.1034
16.2351
16.983
16.279
16.7402
16.2375
16.5518
16.235
16.2165
16.1938
15.9795
16.0459
15.7388
15.8357
15.4667
15.5696
15.0712
15.1641
14.5072
14.5026
13.6508
13.3846
12.2754
11.5382
9.98189
8.36828
5.85385
2.71175
-1.40723
-6.6629
-12.8858
-20.6964
-29.7599
-40.9111
-53.3601
-67.1831
-80.8574
-95.0784
-107.325
-116.372
-119.261
-116.692
-108.407
-92.4867
-72.7983
-50.3692
-32.1906
-16.3454
-3.57737
4.23474
10.4243
11.9783
13.3878
14.2385
14.109
14.485
13.8182
14.1722
13.1738
13.5198
12.9608
12.9937
12.7677
12.3375
12.0356
11.345
10.8061
9.73518
8.81264
7.22845
5.90226
3.75259
1.79603
-1.05164
-3.75214
-7.23185
-10.6467
-14.7909
-18.5652
-22.618
-26.1308
-29.1538
-31.119
-32.0061
-31.698
-29.9277
-28.0554
-25.0488
-23.4409
-21.4175
-21.6211
-20.8578
-21.3202
-20.7977
-20.4948
-19.6887
-19.2019
-18.5797
-18.5251
-18.2271
-18.1751
-17.5489
-17.3416
-16.7221
-16.4704
-15.8585
-15.5758
-14.6675
-14.3289
-13.1172
-12.7228
-11.0355
-10.6359
-8.21504
-7.77239
-4.55996
-4.10455
0.287315
0.707719
6.59398
7.05791
14.5159
15.2444
24.4119
25.5201
36.1688
37.6472
49.6
50.9021
64.3817
12.4491
20.1124
14.1984
18.1631
15.2195
17.0233
15.7985
16.3884
16.1988
16.1051
16.5041
16.1626
16.721
16.3852
17.0271
16.6935
17.271
17.2501
17.302
17.6983
17.4347
18.0141
17.6108
18.2555
17.7208
18.4152
17.7606
18.5296
17.7593
18.6333
17.7497
18.6773
17.7695
18.6238
17.8759
18.3478
18.0711
17.9755
18.1716
17.7137
18.2002
17.5225
18.1711
17.3271
18.0962
17.1306
17.9793
16.9741
17.8002
16.8842
17.5548
16.865
17.22
16.9946
16.8523
17.0788
16.6179
17.0229
16.4029
16.9667
16.2189
16.9239
16.0756
16.8819
16.0543
16.8698
15.9891
16.7706
16.1111
16.4736
16.2407
16.0859
16.1692
15.9468
16.0361
15.6714
15.9056
15.4021
15.7219
15.1795
15.4913
14.9052
15.1614
14.5017
14.5408
13.7512
13.3328
12.2402
11.0334
9.17655
6.57793
3.23957
-1.46196
-7.02204
-14.5793
-23.3922
-34.935
-47.8907
-63.3729
-79.5581
-97.0718
-114.051
-128.669
-137.203
-139.012
-136.097
-122.374
-99.4714
-71.9053
-48.0098
-26.3734
-9.80886
4.71158
10.4787
16.5327
14.8445
17.5369
16.12
17.2926
16.3501
16.5777
15.6464
15.5426
14.7267
14.605
14.3419
13.8733
13.6417
12.9048
12.502
11.4188
10.7499
9.20828
8.09644
6.08629
4.24447
1.33618
-1.38426
-5.0953
-8.73226
-13.2528
-17.4976
-22.2
-26.4545
-30.445
-33.3866
-35.24
-35.6437
-34.1751
-32.1743
-27.9207
-25.5106
-22.2509
-21.8349
-20.3466
-20.7895
-19.4856
-19.8129
-18.4203
-17.9881
-17.4251
-17.3568
-17.4495
-17.0999
-17.4164
-17.0189
-16.9672
-16.6146
-16.4347
-16.0765
-15.5478
-15.2038
-14.3473
-14.0061
-12.5923
-12.3278
-10.2418
-9.98969
-7.1426
-6.97
-2.99711
-2.97008
2.09017
2.2356
8.64675
8.88113
16.9332
17.1792
26.7178
27.0988
38.1975
38.4911
51.2525
12.0894
20.1046
13.9639
18.2107
15.0961
17.0882
15.7283
16.4181
16.136
16.0976
16.4328
16.1269
16.6416
16.3333
16.9633
16.6235
17.2239
17.1809
17.2893
17.7008
17.4092
18.0779
17.5628
18.3281
17.6937
18.4777
17.7476
18.5906
17.7381
18.6612
17.7289
18.6934
17.7463
18.6317
17.8566
18.3719
18.0921
17.9993
18.2422
17.7299
18.2812
17.5304
18.2659
17.3344
18.2249
17.1599
18.134
17.0469
17.9832
17.0058
17.7507
17.019
17.4131
17.1692
16.9808
17.2886
16.7445
17.2525
16.5452
17.1937
16.3786
17.1755
16.2209
17.126
16.2263
17.0577
16.2199
16.8803
16.2357
16.693
16.3998
16.3676
16.4142
16.1404
16.4039
16.0064
16.2878
15.9182
16.1123
15.6771
15.9325
15.4034
15.6518
15.1081
15.1628
14.5985
14.3118
13.5523
12.61
11.207
9.04139
6.30265
2.20115
-2.65219
-9.46215
-17.5805
-28.524
-41.3899
-56.8409
-73.6374
-92.4717
-112.022
-129.325
-140.863
-147.147
-151.697
-146.08
-119.392
-87.517
-58.9815
-35.5018
-14.1512
0.951267
13.2006
15.2472
18.4819
16.6489
16.0343
16.1612
15.5914
15.7404
14.6016
14.5737
14.0845
13.9919
14.1703
13.8173
13.8662
13.3085
13.1308
12.2124
11.6926
10.3571
9.40857
7.63917
6.11308
3.5312
1.02423
-2.38312
-6.00337
-10.6492
-15.2727
-20.5987
-25.7667
-30.8313
-34.9145
-37.8668
-39.0952
-37.3788
-34.703
-28.9732
-24.6151
-20.7417
-21.0888
-20.2971
-22.1643
-22.1595
-21.8852
-20.8885
-19.4516
-18.3977
-18.4638
-18.8476
-18.907
-18.5364
-18.0909
-17.8122
-17.5015
-17.5688
-17.3416
-16.9415
-16.7334
-16.1347
-15.9765
-14.9554
-15.029
-13.249
-13.4514
-11.1074
-11.4261
-8.14522
-8.51049
-4.54215
-4.54287
0.458036
0.710206
7.32233
8.03391
15.6537
16.7668
26.0126
26.8757
38.6933
13.8643
22.1801
15.2034
19.5257
15.9404
17.7958
16.2446
16.735
16.355
16.1416
16.4795
15.9944
16.5681
16.134
16.8756
16.4415
17.1183
17.0351
17.1694
17.5846
17.3054
18.0367
17.4587
18.3702
17.5774
18.5237
17.6241
18.6601
17.5957
18.7546
17.6437
18.7648
17.6939
18.6908
17.8351
18.4087
18.1199
17.9889
18.2876
17.7166
18.3522
17.519
18.354
17.3046
18.3094
17.1032
18.2143
16.9756
18.0327
16.9286
17.7656
16.9584
17.3892
17.1306
16.9099
17.2182
16.6413
17.1636
16.3751
17.1123
16.149
17.0818
15.9814
17.0423
15.9324
16.9817
16.0185
16.8394
16.1824
16.572
16.259
16.3181
16.3712
16.0898
16.4187
15.8743
16.4084
15.7633
16.3023
15.6843
16.1611
15.5971
16.0128
15.5394
15.7854
15.4016
15.3065
14.9164
14.302
13.5149
11.8711
9.95729
6.55361
2.60023
-3.45202
-10.6373
-20.7138
-32.8133
-47.9837
-65.0052
-84.5272
-105.734
-126.048
-140.619
-149.808
-158.065
-164.314
-150.143
-115.432
-77.2881
-51.4729
-26.2471
-5.47966
10.3988
18.8664
19.3821
22.2311
18.8307
18.8489
18.5904
18.1986
17.7446
16.5644
15.4054
15.0561
15.2901
14.8745
15.0564
14.4756
14.4847
13.5577
13.3043
12.1047
11.4705
9.90867
8.55717
6.08398
3.70435
0.228251
-3.40368
-8.27925
-13.3095
-19.342
-25.4019
-31.8857
-37.4701
-42.0348
-45.0807
-44.6395
-43.062
-35.8663
-29.3306
-21.9495
-19.9496
-18.16
-19.3875
-19.2378
-21.1102
-20.0393
-18.6706
-17.0528
-16.4861
-17.3425
-17.4419
-18.7282
-18.1276
-18.1573
-17.6668
-17.9634
-17.7319
-17.7629
-17.4481
-17.2792
-17.0451
-16.2607
-16.4239
-15.0715
-15.2799
-13.4414
-13.9737
-10.9464
-11.7392
-8.38063
-8.98526
-4.63905
-5.42742
0.605779
-0.211154
7.16353
6.13678
15.0675
13.9975
26.0714
13.5389
22.3055
15.2303
19.7002
16.1326
17.9773
16.4888
16.8457
16.5652
16.2276
16.5404
16.019
16.5455
16.0887
16.8689
16.4217
17.1008
17.0534
17.0689
17.6371
17.2033
18.1062
17.3921
18.4508
17.5404
18.6132
17.5541
18.7505
17.4896
18.8006
17.5463
18.7955
17.6343
18.6977
17.8204
18.4074
18.1541
17.9761
18.3789
17.7006
18.4271
17.5109
18.4403
17.317
18.4291
17.1355
18.3574
17.041
18.1898
17.0366
17.9156
17.101
17.5307
17.3078
17.0269
17.4365
16.7124
17.4164
16.4593
17.3596
16.2378
17.319
16.0587
17.264
16.0092
17.1587
16.0533
16.9646
16.1943
16.7085
16.5341
16.3113
16.5954
16.1488
16.6542
16.0574
16.672
15.9396
16.6226
15.8494
16.5349
15.8509
16.3105
15.9324
16.0458
15.8752
15.7564
15.5713
15.0304
14.5435
13.2151
11.812
9.05118
5.8698
0.796317
-5.32845
-14.0497
-24.7877
-38.5822
-54.4215
-72.8739
-92.7871
-113.666
-128.586
-142.364
-152.256
-164.775
-152.112
-122.297
-85.8037
-57.3731
-36.0116
-11.9862
4.41564
17.6857
15.2513
19.7494
18.6103
16.9595
15.9005
17.1511
15.5149
16.0096
14.8424
14.3074
14.8291
14.776
15.1021
14.8423
14.9986
14.2065
13.9472
12.8848
12.3471
11.1447
10.2707
8.27602
6.26393
3.32098
-0.0464671
-4.69879
-9.71991
-16.0047
-22.6312
-30.0888
-36.8017
-43.2493
-48.2202
-49.0126
-48.0035
-39.4087
-28.8954
-19.4451
-18.8449
-18.992
-21.2613
-22.8764
-24.4229
-22.8584
-20.5057
-17.3214
-17.1784
-18.606
-19.2783
-19.2017
-18.5522
-18.1479
-17.8542
-18.4435
-18.4838
-18.3074
-18.1971
-18.185
-18.0407
-17.6205
-17.9439
-16.6971
-17.2478
-15.8074
-16.733
-14.2163
-15.1858
-12.9967
-13.6936
-10.6499
-11.8773
-6.70531
-6.96444
-2.12418
-1.69168
3.76602
3.72282
13.0893
15.1995
24.1317
16.2381
20.7664
16.8167
18.5309
16.9065
17.0871
16.74
16.2414
16.5645
15.8791
16.4465
15.8486
16.7495
16.2215
17.0056
16.9289
16.9616
17.5667
17.0804
18.0803
17.2945
18.4885
17.4351
18.6955
17.444
18.8307
17.3843
18.8879
17.4643
18.8749
17.5518
18.7749
17.7623
18.4304
18.1885
17.9119
18.4877
17.6211
18.559
17.4335
18.5361
17.2605
18.494
17.0785
18.416
16.9652
18.2598
16.9576
17.9773
17.0462
17.5401
17.3149
16.9432
17.4761
16.5861
17.4228