/*--------------------------------*- C++ -*----------------------------------*\
| =========                 |                                                 |
| \\      /  F ield         | OpenFOAM: The Open Source CFD Toolbox           |
|  \\    /   O peration     | Version:  4.1                                   |
|   \\  /    A nd           | Web:      www.OpenFOAM.org                      |
|    \\/     M anipulation  |                                                 |
\*---------------------------------------------------------------------------*/
FoamFile
{
    version     2.0;
    format      ascii;
    class       volScalarField;
    location    "138";
    object      p;
}
// * * * * * * * * * * * * * * * * * * * * * * * * * * * * * * * * * * * * * //

dimensions      [0 2 -2 0 0 0 0];

internalField   nonuniform List<scalar> 
204246
(
119.314
-8.85172
35.8517
18.6078
14.9213
21.6452
10.1276
21.573
8.55758
21.2847
7.72619
21.7934
6.08382
22.03
7.27086
19.4137
13.6494
8.22817
20.4289
5.8043
21.7832
6.26621
20.5614
7.15392
20.5673
7.09888
21.57
5.48656
22.5981
5.32456
22.6948
5.86183
21.8658
8.41152
18.0989
14.6439
7.95082
20.2926
6.56661
19.9343
6.85714
19.9543
6.46636
20.7444
4.59457
21.4624
4.33342
21.0118
5.4604
18.6042
7.54894
15.9996
13.1003
5.99655
18.5109
4.62239
18.0939
4.95978
18.1652
4.66611
19.0825
2.93143
19.9833
2.83448
19.7759
4.07578
17.6851
6.39827
15.3075
11.9463
6.43951
16.1962
5.20564
17.3348
4.92025
17.8572
4.57584
18.9442
2.8881
19.9144
2.81735
19.7137
4.04158
17.5729
6.30958
15.1378
11.7195
6.07727
15.8253
4.62162
16.9153
3.81648
17.9505
1.76581
18.6722
1.29694
18.135
2.03141
16.1629
3.30426
13.7798
2.83958
12.3543
2.36843
10.6158
4.01637
0.984334
7.26487
-1.71909
7.41915
-6.73559
5.98471
-9.07732
2.86588
-12.3471
-0.706847
-16.0129
-4.8777
-19.6896
-10.3083
-23.302
-16.9219
-23.4671
-32.036
-24.314
-37.2235
-28.0873
-42.8702
-31.3016
-47.1654
-33.1518
-49.191
-33.9221
-49.7825
-33.4309
-48.4939
-32.6662
-44.8153
-33.0499
-36.7278
-40.5295
-27.821
-40.4023
-24.038
-38.5008
-21.4193
-36.6175
-19.3422
-34.7594
-17.5156
-32.8669
-15.9309
-30.599
-15.0773
-26.9718
-15.5538
-19.4284
-23.3204
-11.1727
-23.5665
-7.52894
-21.4192
-5.0271
-17.8879
-2.39224
-13.3989
1.2659
-7.80313
6.14927
-0.997414
12.2947
7.80664
20.1151
19.2513
29.5047
35.9328
38.1808
51.9853
56.5222
69.7932
79.5453
92.8805
107.247
122.11
142.081
159.862
188.201
210.796
254.757
283.651
371.417
387.322
594.372
44.7397
18.3611
18.6286
21.9076
15.3099
19.1594
13.4647
17.7621
12.5806
17.0511
11.9292
16.9031
11.6882
15.8632
13.024
13.6255
16.2691
10.6467
16.2769
10.8792
16.0551
11.5374
15.784
11.5411
16.0951
11.3175
16.7233
11.0184
16.7041
11.255
16.4629
11.8835
15.519
13.5203
13.5236
16.5095
10.981
16.0807
11.4114
15.6135
11.2452
15.694
10.7984
16.0353
10.2699
15.6504
10.3695
14.9103
11.0233
13.7104
11.9524
11.7353
14.7533
9.12726
14.2111
9.49873
13.696
9.33018
13.8121
8.95044
14.2641
8.54843
14.0511
8.81772
13.5318
9.69925
12.5174
10.8353
10.8906
13.5035
8.9395
13.1394
8.97212
13.2909
9.00119
13.5807
8.77809
14.1552
8.48433
14.0219
8.81045
13.5318
9.68972
12.4979
10.746
10.8365
13.3819
8.71303
12.8995
8.4986
12.9994
8.09553
13.3686
7.53882
12.9663
7.4427
12.2147
7.30943
11.6371
7.21951
11.0575
6.48826
9.83051
6.24247
7.4559
8.00639
3.39157
5.93781
1.08849
5.60232
-1.36194
3.21647
-3.34172
0.34999
-6.19213
-3.08193
-9.73319
-7.40382
-12.6967
-12.9776
-16.345
-19.8604
-18.9649
-25.9393
-26.6474
-31.6447
-30.6352
-36.6197
-34.8496
-40.4816
-38.335
-43.1382
-39.9104
-44.262
-40.1194
-43.5118
-39.5247
-40.8024
-39.2761
-35.6415
-39.3351
-33.0515
-36.581
-30.5668
-34.0793
-28.186
-31.9402
-26.128
-30.0123
-24.31
-28.0924
-22.7389
-25.8919
-21.5942
-23.1987
-21.6549
-18.5577
-22.1842
-16.3804
-20.0995
-14.2831
-17.5964
-11.8822
-14.8746
-9.02464
-11.5571
-5.452
-7.21737
-0.827623
-1.63925
4.44444
5.9223
11.2002
15.6127
19.2626
27.9172
31.5942
40.6189
47.1807
56.66
66.3494
76.7694
89.8317
101.373
118.595
131.346
154.623
167.966
203.276
209.886
284.624
250.062
384.742
10.6314
26.1301
18.0769
21.1717
16.3907
19.0253
14.1647
17.6531
13.0915
16.9814
12.4504
16.5439
12.2761
15.7188
13.0715
14.1051
14.7785
12.233
15.4583
11.6284
15.775
11.6676
15.8035
11.7025
15.9742
11.6247
16.2809
11.4895
16.3846
11.6251
16.2407
12.1539
15.5435
13.3266
13.9915
14.9477
12.3359
15.3967
11.7964
15.4952
11.4711
15.5382
11.1196
15.5967
10.7464
15.3713
10.6979
14.8313
11.0789
13.7955
11.8592
12.1984
13.2422
10.471
13.5629
9.87821
13.6017
9.5537
13.6704
9.26104
13.8289
9.00064
13.7625
9.11032
13.4181
9.66445
12.6567
10.621
11.3898
12.1061
9.9882
12.605
9.43253
13.0202
9.23972
13.3386
9.05269
13.6603
8.88274
13.6925
9.0467
13.3877
9.61056
12.6085
10.5221
11.2596
11.929
9.70256
12.3452
8.91446
12.6704
8.37915
12.8748
7.89988
12.7204
7.62498
12.4227
7.71282
11.2413
7.62046
10.0565
7.06803
8.81679
6.78631
6.69977
6.86165
4.59298
5.70864
2.37581
4.33723
0.0478864
2.36406
-2.28657
-0.277408
-5.16957
-3.59222
-8.35885
-7.95007
-11.472
-13.1202
-15.3247
-19.0927
-20.0715
-24.6588
-25.7464
-30.4699
-31.3753
-35.4933
-35.6985
-39.7907
-38.6306
-42.8552
-40.1599
-44.2305
-40.3517
-43.6413
-39.901
-40.9952
-39.4477
-36.9319
-38.0603
-33.7399
-36.0625
-30.7621
-33.8159
-28.1387
-31.732
-25.9676
-29.8157
-24.1224
-27.9125
-22.5377
-25.7446
-21.5141
-22.7364
-21.2991
-19.1582
-20.7311
-16.5739
-19.4242
-14.0622
-17.3513
-11.6868
-14.466
-9.13795
-10.8197
-5.85483
-6.27604
-1.44059
-0.532263
4.37767
6.73132
11.6912
16.1025
21.1656
27.6257
32.609
41.5575
48.164
58.3647
68.0404
79.2446
92.8228
105.295
123.933
137.743
163.448
178.081
217.82
225.715
301.886
280.613
369.396
2.59367
16.3767
12.7826
18.0238
13.9749
17.4587
13.96
16.1674
13.8152
15.3544
13.5737
14.796
13.6834
13.9185
14.3837
12.9023
15.1375
12.4706
14.6087
12.7359
14.2943
13.0374
14.2569
13.0497
14.4367
13.0154
14.6451
13.0948
14.5645
13.3573
14.3398
13.8452
13.8278
14.6518
13.1102
15.3467
12.8263
14.7242
13.0008
14.3664
12.8677
14.2373
12.6265
14.1226
12.4624
13.6902
12.4833
13.1043
12.7239
12.4041
13.0593
11.4745
13.553
11.0002
12.8171
11.076
12.3802
10.9044
12.2675
10.706
12.246
10.6586
11.9724
10.8509
11.5999
11.2682
11.124
11.8086
10.5018
12.4676
10.3231
12.0539
10.4129
11.9447
10.4835
12.0224
10.4791
12.1466
10.5678
11.9755
10.8449
11.6557
11.2826
11.1884
11.7792
10.5063
12.4232
10.1885
11.9265
10.0937
11.6768
9.93174
11.5349
9.7901
11.1031
9.61934
10.6903
9.41626
10.2271
9.16028
9.63466
8.58522
8.55501
8.14957
6.92148
7.74884
5.57405
6.34123
4.1836
4.90832
2.51536
2.80534
0.934191
0.186835
-1.61094
-3.1282
-5.48587
-6.58407
-8.91815
-11.3631
-13.0064
-16.8613
-17.8717
-22.5856
-24.0988
-28.1364
-30.086
-33.5489
-35.673
-38.1396
-39.9883
-41.5199
-42.6464
-43.2093
-43.3047
-43.0196
-42.7347
-41.0458
-41.4378
-38.3707
-38.9505
-35.9639
-35.6771
-33.5519
-33.0249
-31.1365
-30.8669
-29.0211
-28.942
-27.2115
-27.0872
-25.6434
-25.149
-24.2507
-23.0298
-23.3653
-20.7862
-21.6533
-19.0594
-19.6969
-17.4776
-17.5772
-15.4695
-15.2674
-13.0358
-12.6132
-9.98892
-9.19158
-6.11402
-4.72536
-1.38227
1.2986
4.71738
8.88799
12.4308
18.5705
22.6867
29.5629
35.6742
42.9669
51.6435
59.4184
71.0361
79.2885
94.5565
103.274
123.909
130.915
164.011
158.885
216.373
203.236
274.334
1.05188
17.0941
11.4557
16.9531
14.3504
16.5815
14.6998
16.0218
14.3289
15.3849
14.0028
14.774
14.0422
14.0388
14.3154
13.3881
14.473
13.3153
14.1757
13.2985
14.1385
13.2876
14.2517
13.2415
14.3862
13.2479
14.4799
13.3739
14.4315
13.5783
14.2765
13.9344
13.9226
14.4031
13.5002
14.6331
13.482
14.3168
13.3753
14.2365
13.1225
14.1508
12.8957
13.9691
12.7769
13.6038
12.7068
13.1497
12.783
12.5467
12.8999
11.8561
12.8914
11.6879
12.4521
11.4871
12.2811
11.1799
12.1897
10.9733
12.0806
10.9428
11.8595
11.0333
11.5831
11.2553
11.2488
11.5683
10.8456
11.803
10.8415
11.6562
10.761
11.7026
10.6963
11.804
10.6671
11.8617
10.7677
11.7639
10.9377
11.5617
11.1985
11.2346
11.5163
10.7297
11.6779
10.6148
11.4802
10.3869
11.3695
10.0999
11.2714
9.93932
10.9629
9.7603
10.4806
9.6284
9.66797
9.34237
8.95293
8.75934
8.01995
8.09906
6.94854
7.38941
5.83596
6.17248
4.20467
4.43972
2.65645
2.67899
1.1599
0.613788
-1.12569
-2.1708
-4.53856
-5.93135
-7.98747
-10.3829
-12.2351
-15.5965
-17.3811
-21.0979
-23.2458
-27.0712
-29.2311
-32.6365
-34.913
-37.4877
-39.5606
-41.2023
-42.5637
-43.3362
-43.7582
-43.4618
-43.3578
-41.8536
-41.6085
-39.294
-38.902
-36.4492
-35.6265
-33.5245
-32.7754
-30.8833
-30.4436
-28.7065
-28.5242
-26.8638
-26.7229
-25.3043
-24.7721
-23.9073
-22.5922
-22.3691
-20.5467
-20.6623
-18.8061
-18.7726
-16.9587
-16.8099
-14.9064
-14.5727
-12.3991
-11.9109
-9.31963
-8.45889
-5.4467
-3.84034
-0.482124
2.12007
5.92705
9.83606
14.1051
19.473
24.6585
31.3381
38.1952
45.8969
55.1895
63.7724
76.2524
85.553
102.061
111.632
134.208
141.905
176.274
173.203
222.493
211.132
256.231
0.710472
12.2891
9.25511
13.7825
12.617
14.6646
13.6904
14.7255
14.0116
14.4201
14.011
13.9633
14.1157
13.5507
14.2539
13.0886
14.2659
13.1928
13.836
13.421
13.6555
13.5487
13.6765
13.5932
13.773
13.6681
13.8374
13.8483
13.7773
14.0894
13.6608
14.3817
13.5143
14.6429
13.3751
14.6987
13.5919
14.2189
13.6779
13.9642
13.5781
13.7547
13.4364
13.4918
13.333
13.1218
13.2152
12.7579
13.1334
12.304
13.1319
11.8544
12.8633
11.7395
12.2977
11.755
11.891
11.5586
11.6826
11.4336
11.4902
11.4382
11.248
11.5284
11.0241
11.6686
10.8432
11.8077
10.7024
11.8493
10.8778
11.5299
11.0235
11.4101
11.104
11.393
11.177
11.3714
11.3307
11.2545
11.5389
11.0934
11.7181
10.9444
11.8791
10.7875
11.8618
10.8226
11.5245
10.8632
11.2034
10.7663
10.9702
10.6575
10.6636
10.5505
10.3167
10.3946
9.77975
9.90966
9.30358
9.41059
8.6065
8.87561
7.62639
8.23839
6.89253
7.07963
6.10963
5.55937
4.40531
3.80339
2.65494
1.82666
0.472857
-0.699092
-2.36327
-4.15827
-5.88323
-8.41785
-10.1043
-13.5263
-15.3509
-19.3267
-21.4699
-25.4274
-27.9893
-31.5832
-34.2976
-37.2625
-39.74
-41.7635
-43.6449
-44.5242
-45.4492
-45.1186
-45.2941
-43.7205
-43.4549
-41.0821
-40.3335
-37.9659
-36.9211
-34.833
-33.8829
-32.1846
-31.3534
-29.9891
-29.3455
-28.2383
-27.5855
-26.804
-25.8195
-25.474
-24.0709
-24.0307
-22.3728
-22.2257
-20.7758
-20.4767
-19.1964
-18.7196
-17.4487
-16.9112
-15.4446
-14.8847
-13.0875
-12.2072
-10.129
-8.68207
-6.27956
-4.02978
-1.30593
1.99956
5.17644
9.5646
13.6689
18.7385
24.4283
29.9563
37.8281
43.7116
54.2443
60.4067
74.2876
80.177
99.0708
102.258
132.697
126.246
167.426
164.916
205.509
3.01423
13.6694
9.81326
14.0389
12.9718
14.6402
14.1201
14.7611
14.426
14.5562
14.3748
14.1709
14.3212
13.8025
14.2276
13.4425
14.0793
13.648
13.746
13.7589
13.6747
13.7724
13.7226
13.7788
13.7996
13.8339
13.8362
13.9811
13.7991
14.1521
13.7243
14.3579
13.631
14.5366
13.6244
14.4484
13.8587
14.1219
13.9017
13.9415
13.7824
13.7772
13.638
13.5341
13.531
13.2054
13.3894
12.864
13.2576
12.4326
13.0483
12.0855
12.7521
12.081
12.2983
11.9988
11.9377
11.7987
11.7152
11.6442
11.5101
11.5933
11.3033
11.608
11.1106
11.6565
10.97
11.6975
10.8423
11.5909
11.0783
11.3566
11.1901
11.2712
11.2181
11.267
11.2572
11.242
11.3721
11.1703
11.4796
11.1079
11.5743
10.9691
11.6259
10.8354
11.5627
10.9221
11.2327
10.9424
10.9713
10.763
10.7355
10.6396
10.4109
10.497
10.0633
10.22
9.69432
9.80423
9.17708
9.24132
8.44662
8.64953
7.61535
7.81278
6.9413
6.84935
6.09075
5.73324
4.83588
4.22426
3.15049
2.44555
1.16116
0.0938669
-1.47564
-3.08001
-4.76258
-7.12314
-8.93188
-11.9748
-14.1144
-17.5747
-20.1772
-23.794
-26.6766
-30.1963
-33.1823
-36.2578
-39.0351
-41.3187
-43.4869
-44.6649
-45.9255
-45.8367
-46.1655
-44.9155
-44.3977
-42.1838
-41.0942
-38.5384
-37.1372
-34.8406
-33.5733
-31.706
-30.9282
-29.4234
-28.8918
-27.7139
-27.1328
-26.2584
-25.3378
-24.7503
-23.4575
-23.1294
-21.5779
-21.3898
-19.8145
-19.5712
-18.0973
-17.8217
-16.3383
-15.9924
-14.3422
-13.9349
-12.0312
-11.2552
-9.04781
-7.71007
-5.13848
-2.9904
0.034917
3.15934
6.81955
10.944
15.6447
20.6062
26.9299
32.5365
40.9985
47.1298
58.281
64.688
79.2071
85.2567
104.92
107.132
135.062
131.724
162.924
159.082
187.883
2.63358
11.7132
8.54438
12.2314
11.5871
13.2146
13.1179
13.7312
13.7533
13.8146
13.9268
13.6833
13.924
13.4404
13.9005
13.2085
13.7223
13.4206
13.4659
13.5858
13.4076
13.6756
13.4414
13.76
13.5196
13.8665
13.5674
14.0412
13.56
14.2367
13.5429
14.4417
13.5144
14.5966
13.6061
14.4455
13.9029
14.0946
13.9875
13.9076
13.9288
13.6964
13.8253
13.4159
13.69
13.0927
13.5056
12.7667
13.3166
12.426
13.0839
12.0947
12.6648
12.0358
12.2078
11.9733
11.8429
11.7658
11.5428
11.6585
11.313
11.6119
11.1202
11.6147
10.9584
11.635
10.8406
11.7
10.8318
11.5588
11.092
11.2999
11.2523
11.1916
11.3455
11.1507
11.441
11.1069
11.5544
11.0842
11.675
11.0311
11.8249
10.9829
11.901
10.9581
11.7164
11.1823
11.3264
11.2439
11.0944
11.1674
10.9067
11.0312
10.6588
10.9216
10.3732
10.7488
10.0633
10.3857
9.61803
9.96356
9.04632
9.48368
8.40968
8.69982
7.8902
7.74875
7.04792
6.67011
5.87991
5.33815
4.42827
3.65814
2.62117
1.49616
0.25059
-1.44398
-2.88858
-5.25756
-6.96511
-10.0088
-12.1237
-15.7132
-18.3021
-22.1799
-25.237
-29.1377
-32.4499
-36.037
-39.2228
-42.1
-44.6867
-46.424
-47.9643
-48.2055
-48.5805
-47.2777
-46.7
-44.3609
-43.0447
-40.3572
-38.7725
-36.2377
-34.8486
-32.8444
-31.8086
-30.439
-29.6565
-28.7894
-28.0598
-27.5826
-26.5958
-26.3677
-25.0784
-24.9186
-23.4757
-23.1931
-21.8736
-21.5098
-20.3167
-19.9471
-18.807
-18.4569
-17.2935
-16.8913
-15.6137
-14.9708
-13.4806
-12.4042
-10.6149
-8.91748
-6.72273
-4.2907
-1.48954
1.62569
5.4209
9.05504
14.2681
18.2851
25.4228
29.7021
39.2306
43.6661
56.2049
59.9666
77.6763
78.3841
102.967
101.061
129.507
129.419
156.434
5.21002
13.5959
9.86298
13.5289
12.4001
13.8397
13.6819
14.099
14.2113
14.1243
14.2602
13.9498
14.1648
13.6799
14.0465
13.4471
13.7863
13.6924
13.5566
13.7878
13.5072
13.846
13.5177
13.8897
13.5842
13.9692
13.617
14.1174
13.6177
14.2614
13.6113
14.4245
13.6066
14.5468
13.7487
14.3705
14.05
14.0805
14.123
13.9796
14.1027
13.7925
14.0188
13.5393
13.888
13.2387
13.6968
12.9051
13.4594
12.586
13.1847
12.3128
12.7518
12.2906
12.317
12.1874
11.9862
11.9945
11.6737
11.8462
11.4116
11.7588
11.1951
11.7189
11.0197
11.6988
10.9005
11.6326
10.9209
11.4604
11.1717
11.2193
11.3063
11.1383
11.3774
11.1039
11.4454
11.0654
11.5266
11.0245
11.61
10.9568
11.6568
10.916
11.6675
10.9532
11.4793
11.1072
11.1557
11.1348
10.9379
11.0266
10.7342
10.8866
10.4817
10.7267
10.1873
10.5348
9.86601
10.2387
9.45909
9.78424
8.93433
9.27127
8.38975
8.55874
7.93386
7.77609
7.22894
6.89698
6.26859
5.74914
5.01628
4.29653
3.42308
2.3754
1.30403
-0.23281
-1.54503
-3.69051
-5.36163
-8.10916
-10.3177
-13.5758
-16.4206
-20.0476
-23.4205
-27.2247
-30.903
-34.5759
-38.1886
-41.3088
-44.3843
-46.4551
-48.5358
-49.1675
-49.9933
-49.149
-48.6194
-46.3196
-44.674
-41.6223
-39.4858
-36.6328
-34.7013
-32.5687
-31.3254
-29.9089
-29.1088
-28.2306
-27.484
-26.9609
-25.9942
-25.6066
-24.3301
-24.0235
-22.5421
-22.2353
-20.768
-20.4543
-19.1004
-18.8602
-17.6216
-17.3173
-16.0957
-15.8402
-14.502
-14.003
-12.4726
-11.5441
-9.70178
-8.14768
-5.83243
-3.56041
-0.552542
2.40077
6.41565
9.8789
15.388
19.1931
26.6031
30.6455
40.3486
44.4338
57.1092
60.2669
77.2035
77.5342
99.2143
96.8769
119.631
118.5
139.905
4.6083
12.5996
8.8674
12.5849
11.4215
12.9765
12.842
13.3769
13.5869
13.5512
13.7838
13.519
13.7523
13.3396
13.6625
13.1641
13.3813
13.418
13.2591
13.5063
13.266
13.611
13.3189
13.7576
13.3972
13.9019
13.4605
14.0885
13.4936
14.2775
13.518
14.4452
13.5549
14.5368
13.7495
14.3603
14.0647
14.0803
14.1521
13.9847
14.1386
13.8253
14.0541
13.5912
13.9104
13.2917
13.7101
12.9374
13.4614
12.5762
13.153
12.253
12.6634
12.1744
12.2121
12.0756
11.8604
11.866
11.5492
11.7195
11.2894
11.6425
11.0841
11.6094
10.9349
11.6105
10.8478
11.5859
10.9052
11.4283
11.1628
11.206
11.3226
11.1248
11.4093
11.0951
11.5029
11.0676
11.6132
11.0506
11.7413
11.0302
11.832
11.0516
11.8237
11.1302
11.6557
11.3443
11.3629
11.4077
11.1808
11.3632
10.9818
11.2863
10.7563
11.1382
10.5352
10.9745
10.2411
10.7619
9.89827
10.4241
9.49133
9.97133
9.06309
9.30229
8.71257
8.54263
8.0646
7.72503
7.19643
6.69691
6.08425
5.36699
4.65381
3.61903
2.73013
1.23197
0.0768147
-1.9848
-3.55302
-6.21546
-8.3491
-11.6079
-14.3973
-18.1825
-21.6158
-25.7841
-29.7108
-33.9723
-38.0343
-41.906
-45.5448
-48.3965
-50.9119
-52.0519
-52.9574
-52.0657
-51.3829
-48.942
-47.0802
-43.7517
-41.3622
-37.9883
-35.8369
-33.2283
-31.7777
-30.285
-29.4331
-28.809
-28.0995
-28.0178
-27.1569
-27.187
-26
-25.8417
-24.4877
-24.078
-22.7171
-22.3025
-21.0619
-20.718
-19.6906
-19.4539
-18.5108
-18.3422
-17.4546
-17.1606
-16.1431
-15.5217
-14.2405
-13.1399
-11.4182
-9.78599
-7.40689
-5.31225
-1.97022
0.458549
5.09467
7.77252
14.1252
16.9586
25.4377
28.2575
39.543
41.6976
57.2183
57.0384
76.475
76.9364
97.3262
97.8496
117.876
7.27633
14.7303
10.7195
14.0477
12.5709
14.0293
13.582
14.0525
14.0733
13.9916
14.1841
13.8707
14.0393
13.6159
13.8547
13.4416
13.5489
13.6113
13.4063
13.6659
13.3728
13.7343
13.3931
13.8257
13.453
13.942
13.4982
14.0934
13.5195
14.2684
13.5424
14.4245
13.604
14.5056
13.8118
14.3482
14.1355
14.0968
14.2497
14.0442
14.2828
13.9231
14.2422
13.7126
14.1231
13.4336
13.9349
13.104
13.6687
12.7821
13.3436
12.4968
12.8582
12.4253
12.3891
12.3163
12.024
12.1104
11.6891
11.9264
11.3982
11.7982
11.1563
11.7208
10.9629
11.6719
10.8533
11.5709
10.9244
11.3846
11.1775
11.1567
11.3351
11.0592
11.4091
11.0226
11.455
10.99
11.526
10.9486
11.6113
10.9197
11.6704
10.9392
11.6673
11.0319
11.4778
11.2224
11.1577
11.2819
10.9805
11.2232
10.8132
11.1082
10.6
10.9407
10.3388
10.7995
10.0333
10.5974
9.71496
10.2572
9.34071
9.8504
8.9907
9.26449
8.7403
8.59867
8.26868
7.97047
7.60933
7.14521
6.7292
6.05275
5.54026
4.58348
3.90594
2.56495
1.61162
-0.217532
-1.62509
-4.01978
-6.08597
-9.09435
-11.9645
-15.573
-19.2191
-23.3334
-27.6155
-31.9921
-36.5554
-40.7461
-45.018
-48.4093
-51.765
-53.5881
-55.3246
-55.1221
-54.9133
-52.5832
-50.4644
-46.6369
-43.4066
-39.4605
-36.4292
-33.5757
-31.5191
-30.0488
-28.8047
-28.3189
-27.3766
-27.3486
-26.4448
-26.3836
-25.2298
-25.046
-23.6614
-23.2995
-21.8059
-21.3762
-20.0796
-19.8108
-18.7381
-18.4036
-17.5296
-17.3603
-16.5542
-16.3597
-15.4957
-15.0278
-13.944
-13.0094
-11.4411
-9.97109
-7.66635
-5.76761
-2.46939
-0.345462
4.27749
6.53178
12.823
15.1543
23.5014
25.6368
36.7025
37.775
52.2378
52.1171
68.476
68.3885
85.5901
85.7703
102.73
6.64295
13.9498
10.0761
13.4362
11.8901
13.5817
12.9982
13.7036
13.6419
13.6486
13.8016
13.5847
13.7071
13.3526
13.498
13.1362
13.155
13.3075
13.0941
13.3602
13.1278
13.4946
13.2097
13.6897
13.3062
13.8934
13.3833
14.103
13.4334
14.2984
13.4957
14.4301
13.5818
14.5005
13.8123
14.3485
14.1577
14.1072
14.2864
14.0543
14.3241
13.9614
14.287
13.7721
14.1645
13.4923
13.9536
13.1458
13.6576
12.7646
13.303
12.4171
12.7762
12.2956
12.2728
12.1904
11.8803
11.9779
11.542
11.8025
11.2587
11.6961
11.0379
11.6351
10.8941
11.5979
10.8352
11.5279
10.9184
11.3707
11.1737
11.1656
11.3491
11.1087
11.4515
11.0779
11.5452
11.0484
11.6583
11.0303
11.7708
11.0219
11.8486
11.0658
11.8634
11.2132
11.6922
11.4519
11.4178
11.5291
11.2591
11.5162
11.0917
11.4649
10.8723
11.3667
10.6436
11.1995
10.4097
11.0346
10.1354
10.7785
9.83463
10.4207
9.58007
9.84557
9.40472
9.20252
8.94645
8.63386
8.3472
7.88866
7.56124
6.90907
6.50237
5.59474
5.03204
3.78078
2.94139
1.25264
-0.0390536
-2.26406
-4.20449
-7.06264
-9.79084
-13.3751
-16.9719
-21.2872
-25.6967
-30.5704
-35.5083
-40.4792
-45.3761
-49.629
-53.6532
-56.2533
-58.4696
-58.511
-58.2201
-55.6926
-53.3947
-49.1236
-45.5841
-40.7351
-37.1782
-33.3904
-31.0906
-29.2939
-28.3198
-27.9633
-27.5611
-28.0539
-27.5752
-28.0507
-26.9767
-26.9182
-25.5699
-25.0816
-23.5144
-22.9314
-21.4471
-21.0016
-20.2236
-19.8734
-19.2942
-19.1378
-18.6627
-18.7107
-18.1527
-17.9807
-17.2338
-16.7224
-15.5105
-14.5998
-12.6668
-11.4455
-8.58073
-7.20342
-3.196
-1.71901
3.77839
5.22292
12.6632
13.9264
23.7967
24.5271
36.8312
38.0124
52.1381
53.7068
68.7899
70.0134
85.8437
9.61828
16.0405
12.0603
14.9668
13.1987
14.6862
13.8395
14.479
14.1719
14.2381
14.1702
13.9582
14.0522
13.6528
13.7683
13.4148
13.4074
13.4242
13.2121
13.502
13.1926
13.5903
13.2302
13.7183
13.2887
13.8806
13.3515
14.0567
13.4072
14.2387
13.4872
14.3913
13.5754
14.4695
13.8113
14.3359
14.1632
14.1277
14.3242
14.0921
14.4287
14.035
14.4508
13.8814
14.3629
13.6497
14.1736
13.3475
13.8976
12.9912
13.5405
12.6762
13.0181
12.5455
12.4837
12.4372
12.0628
12.2255
11.6952
12.0003
11.3719
11.8363
11.1137
11.7117
10.9171
11.6287
10.8116
11.5115
10.9021
11.3365
11.1472
11.1238
11.3131
11.0152
11.4048
10.9523
11.4782
10.8999
11.5554
10.8621
11.6447
10.8489
11.6878
10.9049
11.6433
11.0563
11.4701
11.2917
11.2132
11.3763
11.0692
11.4035
10.883
11.3171
10.7065
11.1805
10.4888
11.0333
10.2017
10.8567
9.93689
10.6106
9.68945
10.2518
9.51974
9.79828
9.39458
9.33086
9.15657
8.88283
8.76889
8.34332
8.21589
7.60031
7.4036
6.57403
6.22918
5.13963
4.53802
3.09379
2.03982
0.0936669
-1.66871
-4.29484
-6.95865
-10.3694
-14.0462
-18.317
-23.0553
-28.1288
-33.7325
-39.2131
-45.0674
-50.1381
-55.2368
-58.7641
-62.081
-63.1278
-63.8126
-61.8636
-59.5787
-55.0124
-50.3272
-44.6602
-39.4651
-34.9981
-31.2894
-29.2225
-27.4804
-27.2173
-26.2182
-26.943
-26.1902
-26.8656
-26.0283
-26.1653
-25.0414
-24.6596
-23.1031
-22.3803
-20.9487
-20.5164
-19.4681
-19.0554
-18.4359
-18.1862
-17.7976
-17.8862
-17.6748
-17.6897
-17.3754
-17.0846
-16.2724
-15.5383
-13.897
-12.8936
-10.2301
-9.21221
-5.48889
-4.51374
0.666507
1.50395
8.39662
9.25108
17.8517
18.9057
29.2335
30.4893
42.3222
43.6247
56.8313
57.879
71.9615
9.10629
15.6601
11.628
14.7407
12.884
14.4911
13.6442
14.3098
14.039
14.0923
14.0733
13.8035
13.8879
13.4539
13.5066
13.1082
13.077
13.101
12.9236
13.2027
12.9702
13.3812
13.0886
13.6216
13.2074
13.8554
13.319
14.0755
13.3943
14.2635
13.466
14.4225
13.5752
14.4835
13.8287
14.3561
14.1866
14.178
14.3746
14.1074
14.4828
14.0759
14.5084
13.9498
14.417
13.7181
14.2142
13.3797
13.9299
12.9681
13.518
12.6133
12.9273
12.4662
12.3661
12.3314
11.9205
12.1078
11.548
11.9019
11.228
11.7703
10.98
11.6789
10.8432
11.5974
10.7879
11.5027
10.8887
11.3577
11.151
11.1555
11.3599
11.0724
11.4988
11.0318
11.5994
10.9888
11.7154
10.9647
11.8061
10.9676
11.8593
11.0607
11.8402
11.2337
11.7053
11.4998
11.4827
11.6157
11.3193
11.6702
11.167
11.6487
10.9752
11.5454
10.7694
11.4343
10.5299
11.2814
10.2862
11.0436
10.1067
10.7137
9.95391
10.2792
9.9069
9.78632
9.67021
9.38772
9.32311
8.89484
8.84028
8.2623
8.14219
7.38112
7.11087
6.12606
5.615
4.354
3.45148
1.76911
0.234318
-2.08521
-4.51984
-7.7204
-11.2269
-15.4528
-20.1083
-25.3683
-31.0605
-37.1102
-43.3896
-49.3987
-55.4555
-60.1424
-64.612
-66.6118
-67.8897
-65.6561
-63.3559
-58.2247
-53.2727
-46.248
-40.1695
-34.1233
-29.841
-27.2882
-25.9036
-25.8714
-25.8753
-27.4816
-27.5084
-29.0906
-27.9598
-28.1842
-26.9249
-26.4946
-24.6198
-23.7044
-21.5906
-20.8945
-20.4085
-19.8911
-19.7967
-19.4265
-19.4516
-19.4528
-19.4966
-19.6902
-19.6299
-19.7288
-19.213
-19.0157
-17.5899
-17.1839
-14.7863
-14.3732
-11.0137
-10.6963
-6.10405
-5.85276
0.183635
0.61536
8.11643
8.79693
17.9767
19.0792
29.7006
31.2369
43.1288
44.4589
57.9528
11.6175
17.7275
13.4743
16.1212
14.2143
15.4324
14.5172
14.9862
14.6
14.5854
14.522
14.1767
14.2498
13.8133
13.8085
13.4204
13.3167
13.2419
13.0027
13.2706
12.9728
13.4198
13.0263
13.6038
13.1029
13.795
13.1966
14.0198
13.274
14.2428
13.3516
14.41
13.4819
14.4696
13.7618
14.3383
14.1361
14.1538
14.3742
14.1144
14.5526
14.1159
14.645
14.0359
14.5971
13.8633
14.4362
13.5804
14.1535
13.2226
13.7479
12.8709
13.1824
12.6866
12.5831
12.5604
12.0969
12.332
11.6862
12.0651
11.3265
11.8611
11.0313
11.7151
10.8253
11.6175
10.7273
11.4918
10.8287
11.3195
11.0903
11.0978
11.2954
10.9784
11.4283
10.8923
11.514
10.8317
11.6068
10.7797
11.6919
10.7735
11.7319
10.8547
11.6734
11.0359
11.5108
11.3306
11.2553
11.5012
11.1473
11.5338
10.9943
11.5041
10.8043
11.4152
10.5852
11.2989
10.3247
11.1633
10.0711
10.892
9.94124
10.554
9.85534
10.2225
9.85764
9.87192
9.88104
9.58739
9.71457
9.29041
9.41575
8.84879
8.9244
8.23943
8.17004
7.35488
7.0578
6.02897
5.35907
3.95083
2.64275
0.60226
-1.61595
-4.53793
-7.9122
-12.0006
-16.838
-22.3493
-28.7782
-35.4478
-42.9885
-49.9404
-57.3425
-63.0736
-68.9577
-72.436
-75.3054
-74.4012
-72.6073
-67.7156
-62.0207
-54.3507
-45.532
-37.7997
-30.7009
-26.8872
-24.499
-24.5354
-22.7822
-25.0416
-24.6104
-26.8678
-26.777
-27.4202
-26.812
-26.5804
-25.1411
-23.9017
-21.9267
-20.899
-19.7243
-19.0576
-18.5989
-18.1667
-18.2494
-18.3123
-18.7611
-19.2432
-19.7467
-20.117
-20.1451
-20.115
-19.0893
-18.8673
-16.5576
-16.3948
-13.5496
-13.5537
-9.43246
-9.79392
-4.40095
-4.39932
2.07169
2.33123
10.4249
10.7024
20.2489
20.6351
31.7568
32.0713
44.8032
11.229
17.6211
13.4003
16.1047
14.2155
15.4885
14.6099
15.0709
14.7382
14.6762
14.5964
14.2455
14.1974
13.7525
13.6574
13.217
13.082
12.954
12.716
13.0688
12.7446
13.3143
12.9521
13.5961
13.0997
13.8497
13.2201
14.0695
13.3001
14.2797
13.3831
14.4317
13.529
14.4772
13.7978
14.3586
14.1683
14.1881
14.4295
14.1177
14.6143
14.1482
14.7052
14.1123
14.6606
13.9509
14.487
13.6541
14.2026
13.2346
13.774
12.8452
13.1564
12.6384
12.4969
12.4973
11.9904
12.2643
11.5658
12.0358
11.1847
11.8785
10.9165
11.7331
10.7704
11.6229
10.7084
11.5094
10.8144
11.3565
11.1129
11.1412
11.3693
11.0324
11.5572
10.9511
11.683
10.8963
11.7924
10.8616
11.8673
10.8851
11.8934
11.0007
11.8441
11.1975
11.703
11.5098
11.461
11.7487
11.3204
11.8522
11.2121
11.8495
11.0375
11.7909
10.8147
11.7061
10.5603
11.5503
10.3646
11.264
10.2426
10.9442
10.1771
10.5695
10.2213
10.153
10.2122
9.91969
10.0846
9.66165
9.85308
9.33524
9.44436
8.84434
8.80581
8.09401
7.87272
7.03403
6.5522
5.46085
4.4547
2.80271
0.900272
-1.67728
-4.73916
-8.52509
-13.0197
-18.3514
-24.6002
-31.627
-39.2575
-47.1012
-55.472
-62.56
-69.9116
-75.0679
-79.8179
-79.5877
-78.1752
-73.344
-67.2339
-58.1881
-48.0664
-37.6831
-28.6696
-23.8033
-21.0324
-22.4479
-22.1228
-25.5006
-26.82
-29.7706
-29.0256
-29.8344
-28.4337
-28.859
-26.9266
-25.4602
-21.9261
-20.2813
-20.0553
-19.7484
-19.8895
-19.5159
-19.3313
-19.1474
-19.6913
-20.2241
-20.9759
-21.7482
-22.3285
-22.8197
-22.1696
-22.0388
-20.2103
-20.2711
-17.7276
-18.1131
-14.5194
-15.2338
-10.9224
-11.0592
-6.06861
-5.79319
0.825299
1.54118
9.2289
10.2572
19.6216
20.3569
32.2351
13.5771
19.2416
15.0722
17.2063
15.3889
16.121
15.4143
15.4389
15.2944
15.0082
15.053
14.6179
14.6364
14.1408
14.0227
13.5643
13.3064
13.1153
12.7843
12.9787
12.6714
13.2133
12.7996
13.5116
12.897
13.7153
13.0408
13.9979
13.1262
14.2601
13.2003
14.4373
13.3587
14.4863
13.6804
14.3244
14.1295
14.0691
14.4361
14.0674
14.6435
14.1253
14.81
14.1339
14.8142
14.0499
14.6921
13.8336
14.4356
13.4831
13.9923
13.1121
13.3515
12.9007
12.6768
12.7272
12.1257
12.4679
11.6759
12.158
11.2683
11.9023
10.9333
11.7217
10.7247
11.618
10.6056
11.5166
10.7104
11.3213
11.0246
11.0661
11.3078
10.9214
11.5212
10.792
11.6466
10.7173
11.7457
10.6694
11.8115
10.6885
11.8223
10.8002
11.7452
11.0118
11.5649
11.3747
11.2679
11.6294
11.1352
11.7232
11.0119
11.757
10.8238
11.7243
10.6018
11.6297
10.3656
11.4429
10.1968
11.1749
10.0787
10.8907
10.0437
10.5643
10.2269
10.1527
10.3446
10.0872
10.4017
9.9611
10.3071
9.77288
10.0674
9.51871
9.6426
9.08183
8.99896
8.34039
8.01673
7.16462
6.39211
5.10402
3.56137
1.42483
-1.27023
-4.69471
-9.0021
-14.1921
-20.647
-27.9631
-36.8174
-45.3636
-55.5048
-63.5576
-72.498
-79.5233
-87.102
-88.8287
-88.3648
-84.5344
-79.8786
-71.7772
-59.5065
-46.4653
-32.2231
-23.2407
-19.3971
-19.8461
-16.3082
-19.6909
-20.8663
-25.8358
-28.1243
-29.1272
-28.5499
-28.9783
-28.4611
-27.2343
-24.1943
-21.0166
-18.9777
-18.0171
-18.093
-17.7561
-17.9625
-17.8312
-18.5318
-19.5261
-20.7928
-21.7265
-22.9988
-23.6605
-23.9032
-23.7592
-21.9218
-21.5786
-20.0837
-20.7555
-17.3778
-18.9274
-15.1899
-15.6256
-11.3039
-12.0338
-5.95481
-6.70967
0.720501
-0.333846
8.6571
7.53853
19.6675
13.357
19.133
15.449
17.0672
15.9101
16.239
15.8843
15.7244
15.6085
15.3114
15.1746
14.8409
14.6302
14.2471
14.0061
13.5341
13.2036
13.0084
12.5403
12.9023
12.6014
13.2161
12.8009
13.6125
12.9909
13.8353
13.0619
14.0887
13.1131
14.3432
13.2264
14.4606
13.4409
14.4593
13.7557
14.3452
14.1287
14.1783
14.461
14.0732
14.7311
14.1317
14.8893
14.1643
14.8852
14.1178
14.7663
13.8782
14.5287
13.5248
14.0671
13.1376
13.4536
12.8666
12.6582
12.7117
12.0816
12.4647
11.6062
12.2305
11.1746
12.0146
10.8501
11.8337
10.6315
11.7334
10.5465
11.5953
10.6952
11.3597
11.0827
11.0686
11.4427
10.8942
11.7014
10.7852
11.8266
10.7298
11.9219
10.6964
11.9733
10.7385
11.9692
10.8848
11.8826
11.1316
11.6956
11.5377
11.3974
11.8657
11.2439
12.0452
11.1286
12.1154
10.9448
12.0931
10.7275
11.9746
10.5343
11.7721
10.3891
11.4914
10.2826
11.1865
10.2489
10.8065
10.3953
10.3614
10.5755
10.1993
10.6403
10.146
10.6385
10.0153
10.4559
9.80001
10.0865
9.49961
9.53619
9.01242
8.8489
8.25765
7.73682
6.78956
5.57876
3.85767
1.59359
-1.35756
-5.17573
-9.95664
-15.9897
-23.235
-31.6821
-40.9258
-51.581
-60.2427
-69.7967
-78.0401
-88.1139
-91.9293
-92.5059
-89.312
-84.332
-77.3765
-65.4869
-50.4068
-33.0462
-19.0662
-14.1945
-18.8653
-18.3718
-21.3599
-24.7387
-29.026
-29.5708
-31.2502
-29.6001
-31.0744
-31.0898
-28.7086
-23.7387
-18.9992
-19.2312
-19.8329
-20.4101
-19.6089
-18.7988
-17.9531
-18.3943
-19.0438
-20.6879
-22.084
-24.1039
-25.7812
-25.9886
-26.2111
-24.7603
-24.2762
-23.0063
-23.0838
-20.1765
-21.9476
-19.8453
-20.0369
-17.5427
-18.388
-13.3391
-13.4959
-8.6098
-8.23486
-2.74257
-2.81339
6.5652
16.0165
19.977
16.951
17.7667
16.7173
16.5504
16.3191
15.9161
15.9069
15.5341
15.541
15.1483
15.0934
14.5809
14.4406
13.9008
13.4578
13.2181
12.5637
12.7428
12.3189
13.0905
12.5303
13.4396
12.7712
13.6889
12.894
14.0443
12.9692
14.3069
13.0461
14.4878
13.1934
14.5415
13.557
14.3377
14.045
14.0178
14.4964
14.0062
14.721
14.077
14.9004
14.1491
15.0111
14.0961
14.9754
13.9746
14.7699
13.6423
14.3272
13.2398
13.6944
13.0863
12.7926
12.9065
12.1827
12.6625
11.6547
12.3423
11.2038
12.0469
10.8093
11.8618
10.5313
11.7759
10.4427
11.6209
10.6034
11.312
11.0385
10.9611
11.4331
10.7643
11.705
10.6559
11.8216
10.5902
11.9122
10.5526