/*--------------------------------*- C++ -*----------------------------------*\
| =========                 |                                                 |
| \\      /  F ield         | OpenFOAM: The Open Source CFD Toolbox           |
|  \\    /   O peration     | Version:  4.1                                   |
|   \\  /    A nd           | Web:      www.OpenFOAM.org                      |
|    \\/     M anipulation  |                                                 |
\*---------------------------------------------------------------------------*/
FoamFile
{
    version     2.0;
    format      ascii;
    class       volScalarField;
    location    "6.5";
    object      epsilon;
}
// * * * * * * * * * * * * * * * * * * * * * * * * * * * * * * * * * * * * * //

dimensions      [0 2 -3 0 0 0 0];

internalField   nonuniform List<scalar> 
204246
(
0.61412
0.709282
0.710222
0.711411
0.711113
0.711304
0.710429
0.710321
0.709133
0.708415
0.707012
0.705713
0.704449
0.705056
0.704939
0.705861
0.706525
0.705324
0.708015
0.708819
0.709472
0.70902
0.708813
0.70847
0.708663
0.708451
0.708966
0.708662
0.710035
0.71033
0.711475
0.711939
0.713288
0.714355
0.715545
0.717384
0.716801
0.721849
0.723675
0.725659
0.729161
0.731536
0.735682
0.738535
0.743475
0.74819
0.756578
0.764382
0.77983
0.799685
0.840725
0.913628
1.05908
1.33231
1.82696
2.57007
3.30993
3.56743
3.66964
3.70659
3.74036
3.76507
3.78287
3.78171
3.78796
3.77882
3.77851
3.76104
3.75582
3.74976
3.73442
3.73911
3.74315
3.75029
3.77402
3.78909
3.82731
3.84997
3.89606
3.92511
3.97639
4.00722
4.05757
4.08693
4.13766
4.16758
4.21422
4.23191
4.28713
4.31593
4.3551
4.39766
4.42987
4.47444
4.5116
4.5562
4.59366
4.63795
4.67586
4.71913
4.7549
4.79844
4.83313
4.87353
4.91023
4.94741
4.97579
5.03732
5.05498
5.11489
5.1301
5.19527
5.21269
5.27603
5.30232
5.36368
5.39141
5.45408
5.48456
5.54764
5.58165
5.6452
5.6835
5.7306
5.80182
5.83883
5.90802
5.94782
6.01833
6.06105
6.13255
6.17646
6.25031
6.29557
6.37213
6.41896
6.49721
6.5459
6.6267
6.67718
6.74087
6.8289
6.87899
6.96618
7.0185
7.1074
7.16024
7.25202
7.30518
7.39986
7.45289
7.55028
7.60281
7.70321
7.75573
7.859
7.91124
7.99332
8.09036
8.15063
8.24907
8.30766
8.40958
8.46589
8.57158
8.62502
8.73575
8.7854
8.90165
8.9483
9.072
9.11474
9.24794
9.28806
9.43529
9.46965
9.60554
9.70692
9.80328
9.93406
10.025
10.1872
10.2823
10.48
10.5915
10.8301
10.9732
11.2588
11.4487
11.756
11.9523
12.1259
12.1472
0.04019
0.106004
0.102955
0.100472
0.101934
0.099452
0.10069
0.0987016
0.0997291
0.0976295
0.0986562
0.096898
0.0982445
0.096474
0.0986862
0.0970508
0.10001
0.0989338
0.0990064
0.101619
0.0997989
0.101808
0.0997491
0.101417
0.100107
0.101716
0.100526
0.102246
0.100692
0.103082
0.101411
0.104073
0.102526
0.105816
0.104546
0.108814
0.108823
0.110648
0.115075
0.114319
0.11945
0.119371
0.124923
0.12508
0.133227
0.135075
0.15314
0.163969
0.207234
0.256752
0.38157
0.579094
0.968731
1.57671
2.16467
2.31358
2.27705
1.88152
1.22813
0.937316
0.813159
0.759232
0.662674
0.637026
0.60891
0.61314
0.59265
0.601958
0.598054
0.62051
0.628877
0.659638
0.685733
0.711041
0.748946
0.770465
0.81207
0.832767
0.875666
0.894889
0.936495
0.95519
0.993951
1.01179
1.04723
1.06478
1.09781
1.11663
1.144
1.16655
1.18607
1.21215
1.22645
1.25384
1.25593
1.28808
1.28822
1.32132
1.32062
1.35302
1.35157
1.38328
1.38484
1.41373
1.41436
1.4446
1.4437
1.45955
1.48293
1.48299
1.51371
1.51227
1.54745
1.54639
1.58565
1.58647
1.62915
1.63289
1.6767
1.68114
1.72708
1.7323
1.78361
1.7923
1.82543
1.866
1.87335
1.92781
1.93646
1.99203
2.00063
2.06038
2.07071
2.13316
2.14476
2.21057
2.22331
2.29256
2.30684
2.38261
2.40085
2.45212
2.51471
2.5315
2.61229
2.63109
2.7151
2.73495
2.82263
2.84376
2.93579
2.95873
3.05179
3.07435
3.17321
3.19811
3.30461
3.33382
3.40421
3.49241
3.51846
3.62397
3.64985
3.75657
3.78276
3.88864
3.91423
4.01873
4.04296
4.14498
4.16827
4.26711
4.2889
4.38727
4.41367
4.50698
4.53208
4.57422
4.6474
4.65432
4.72575
4.72452
4.78086
4.77236
4.81268
4.79789
4.83734
4.82568
4.96774
5.09677
5.58575
5.88151
6.03312
0.00476945
0.00953001
0.00836689
0.00771784
0.00780559
0.00729256
0.00740128
0.00701975
0.00712673
0.00692466
0.00713183
0.00699964
0.00726291
0.00711537
0.00748841
0.00734041
0.0077032
0.00750072
0.00744109
0.00755988
0.00727503
0.00752023
0.00727795
0.00752383
0.00739427
0.00764274
0.00752596
0.00781717
0.00766339
0.00803745
0.00787312
0.00832203
0.00818437
0.0087446
0.00864374
0.00932294
0.00936391
0.00986023
0.0105191
0.0105246
0.0117476
0.0120574
0.0140983
0.015174
0.0192369
0.0232392
0.0338897
0.0492624
0.0830065
0.141257
0.258236
0.470842
0.858976
1.46386
1.81626
1.83919
1.50759
0.853357
0.518204
0.420882
0.389924
0.380837
0.371905
0.370114
0.368137
0.371196
0.374714
0.388038
0.399172
0.416184
0.431656
0.456457
0.488773
0.520933
0.56817
0.605895
0.660683
0.697248
0.751071
0.782694
0.835149
0.862752
0.913613
0.937499
0.984057
1.00579
1.04654
1.06561
1.09842
1.11483
1.14072
1.15367
1.17473
1.1857
1.20475
1.21627
1.23453
1.24804
1.26503
1.28118
1.29762
1.3156
1.3295
1.34709
1.35955
1.37541
1.38539
1.39944
1.40843
1.42004
1.42922
1.44003
1.45
1.46163
1.4734
1.48661
1.50131
1.51641
1.53331
1.54866
1.56675
1.58149
1.60072
1.61439
1.63148
1.64878
1.663
1.68307
1.69578
1.7174
1.72913
1.75232
1.76309
1.78723
1.79714
1.82169
1.83125
1.85614
1.86553
1.89064
1.89957
1.91841
1.9338
1.94383
1.9635
1.96905
1.98832
1.99229
2.00936
2.01153
2.0259
2.02589
2.03674
2.03468
2.04063
2.03564
2.04005
2.02959
2.02314
2.02171
2.00095
2.00005
1.97142
1.96799
1.93293
1.9271
1.88674
1.87948
1.83533
1.82702
1.77953
1.77077
1.71996
1.71057
1.66045
1.65151
1.59728
1.57307
1.55386
1.51104
1.50514
1.45823
1.45354
1.40957
1.40691
1.37003
1.37141
1.35108
1.36085
1.34887
1.35699
1.23881
1.19419
0.00101159
0.00146781
0.00135623
0.00129844
0.00129643
0.00124648
0.00125006
0.00122046
0.00122804
0.00121699
0.00123114
0.00122403
0.00124379
0.00123577
0.00126441
0.0012568
0.00128258
0.00126841
0.00126323
0.00126448
0.00124115
0.00125477
0.00123909
0.00125512
0.00124737
0.00126544
0.00125949
0.00128297
0.00127465
0.00130646
0.00129805
0.00133842
0.00133207
0.00138401
0.00138066
0.00144888
0.00145945
0.00151752
0.00161033
0.00167715
0.00191515
0.00209915
0.00266161
0.00339921
0.00513739
0.00814793
0.014658
0.0271045
0.0527914
0.102655
0.2003
0.380658
0.694855
1.15539
1.35966
1.36676
1.11188
0.581624
0.299111
0.213412
0.178383
0.162757
0.144762
0.12281
0.107731
0.10343
0.0982338
0.097233
0.0960596
0.0977891
0.100689
0.109598
0.124115
0.140297
0.166953
0.193681
0.234636
0.273218
0.329898
0.380357
0.452528
0.509053
0.588407
0.643827
0.721412
0.771768
0.843755
0.888072
0.948283
0.989419
1.03589
1.0717
1.10632
1.13694
1.1619
1.18871
1.20722
1.2321
1.24781
1.27188
1.28624
1.31016
1.32328
1.3446
1.35524
1.37157
1.37912
1.39087
1.39672
1.40243
1.40467
1.40479
1.4047
1.40215
1.39979
1.39753
1.39828
1.39858
1.40223
1.40451
1.41147
1.41341
1.41925
1.41981
1.42147
1.42373
1.42263
1.4242
1.42199
1.42314
1.41894
1.4196
1.41319
1.41327
1.40417
1.40336
1.39158
1.38966
1.37538
1.37249
1.35362
1.34478
1.33158
1.31366
1.30421
1.27875
1.2704
1.23995
1.23006
1.19618
1.1848
1.14747
1.13456
1.09419
1.07996
1.03756
1.02264
0.976103
0.953833
0.919954
0.886386
0.862038
0.819728
0.803458
0.758352
0.742591
0.699148
0.684345
0.644605
0.631102
0.59531
0.583459
0.551742
0.541615
0.513818
0.505305
0.480954
0.470143
0.455118
0.441941
0.433044
0.417557
0.413002
0.397569
0.393895
0.38389
0.383465
0.382857
0.396653
0.409409
0.433047
0.440862
0.446792
0.00107992
0.00107882
0.00107204
0.00106886
0.00106819
0.00106594
0.0010658
0.00106449
0.0010645
0.00106388
0.00106418
0.00106399
0.00106455
0.0010644
0.00106539
0.00106526
0.00106625
0.00106581
0.00106565
0.00106567
0.00106495
0.00106537
0.00106491
0.00106539
0.00106516
0.00106573
0.00106558
0.00106645
0.00106625
0.00106764
0.00106749
0.00106945
0.0010694
0.00107258
0.00107307
0.00107871
0.00108129
0.00109016
0.00110553
0.00112974
0.00118543
0.00128716
0.00151471
0.00197272
0.00296777
0.00503153
0.00944001
0.0185775
0.0376169
0.0759549
0.151584
0.292544
0.536341
0.8895
1.04776
1.05533
0.880726
0.482417
0.194741
0.107661
0.0735983
0.0589419
0.0507716
0.0445599
0.0354609
0.0298336
0.0265357
0.025323
0.0243238
0.0242772
0.0242626
0.0254318
0.028849
0.0334956
0.0403617
0.0475987
0.0575307
0.0690774
0.0864173
0.107025
0.137503
0.17109
0.217246
0.262893
0.324399
0.382404
0.456729
0.521307
0.595517
0.664627
0.729449
0.795363
0.848282
0.906328
0.944693
0.994263
1.01988
1.05863
1.07571
1.10824
1.12212
1.14993
1.16196
1.18441
1.1935
1.2083
1.21274
1.21686
1.21875
1.21729
1.21594
1.20586
1.19794
1.17718
1.1642
1.1384
1.12513
1.09984
1.08898
1.06918
1.06205
1.0458
1.04039
1.02258
1.01388
0.999838
0.983785
0.971985
0.951286
0.941829
0.91735
0.908287
0.881851
0.872156
0.844379
0.834189
0.805262
0.794564
0.764873
0.753839
0.722481
0.707471
0.683545
0.662453
0.643971
0.617857
0.604131
0.575108
0.563951
0.534758
0.524037
0.49612
0.485951
0.459701
0.450284
0.426159
0.417703
0.395087
0.384725
0.369787
0.35716
0.347742
0.333709
0.328614
0.315552
0.311492
0.300968
0.297923
0.289587
0.287365
0.281097
0.279687
0.275339
0.274717
0.272075
0.272158
0.271054
0.270956
0.272573
0.27266
0.275536
0.276108
0.27902
0.279571
0.281818
0.282113
0.28542
0.28668
0.29417
0.299129
0.308532
0.312304
0.315015
0.00106386
0.00106477
0.00106285
0.00106225
0.00106198
0.00106173
0.00106164
0.00106158
0.00106157
0.00106149
0.00106149
0.00106146
0.00106143
0.00106143
0.00106144
0.00106144
0.00106143
0.0010614
0.0010614
0.0010614
0.00106134
0.00106134
0.00106129
0.00106128
0.00106128
0.00106128
0.00106126
0.0010613
0.00106136
0.00106139
0.00106137
0.00106137
0.00106146
0.00106184
0.00106247
0.00106361
0.00106529
0.00106823
0.00107395
0.00108548
0.00111133
0.00116789
0.00129573
0.00157834
0.00220811
0.0035834
0.00659514
0.0130427
0.0267682
0.0550079
0.111638
0.218848
0.407966
0.694095
0.850975
0.867134
0.761754
0.486285
0.187651
0.0783408
0.0413868
0.0283325
0.022783
0.0201952
0.0176806
0.0150004
0.0120218
0.0111118
0.0108398
0.0109123
0.0115242
0.0133844
0.0170024
0.0222646
0.027871
0.0308699
0.0316723
0.0319257
0.0318589
0.0333197
0.0377099
0.0463139
0.0585895
0.0759996
0.0993395
0.127583
0.16267
0.202133
0.248635
0.302274
0.355723
0.416763
0.471695
0.535192
0.5856
0.645522
0.685396
0.736423
0.763818
0.804705
0.822155
0.851235
0.863127
0.883598
0.891145
0.901946
0.903355
0.903993
0.904531
0.899851
0.895696
0.880879
0.869646
0.843612
0.826392
0.793651
0.774118
0.739853
0.72083
0.688117
0.672403
0.644911
0.633607
0.608807
0.597064
0.578633
0.56296
0.547472
0.527999
0.516582
0.494536
0.485629
0.463424
0.4549
0.43366
0.425602
0.405489
0.397917
0.379223
0.372252
0.354335
0.345959
0.333328
0.323009
0.313913
0.302233
0.296129
0.284049
0.279508
0.268226
0.264214
0.254226
0.250725
0.242032
0.239041
0.231624
0.22916
0.222643
0.219748
0.215962
0.212628
0.210492
0.207088
0.205977
0.203184
0.202457
0.200565
0.200214
0.199188
0.199223
0.19897
0.199644
0.199836
0.201492
0.202045
0.20455
0.205562
0.208669
0.210684
0.214191
0.217218
0.221157
0.225166
0.229594
0.234608
0.239541
0.24551
0.250807
0.257529
0.262838
0.268284
0.270685
0.272046
0.00106504
0.00106414
0.0010627
0.00106211
0.00106164
0.00106138
0.00106125
0.00106113
0.00106107
0.00106097
0.00106095
0.00106095
0.00106095
0.00106091
0.00106091
0.0010609
0.0010609
0.00106101
0.00106131
0.0010615
0.00106155
0.00106157
0.00106157
0.00106158
0.00106158
0.00106158
0.00106152
0.00106152
0.00106152
0.00106148
0.00106148
0.00106146
0.00106144
0.00106144
0.00106143
0.00106153
0.00106193
0.00106294
0.00106538
0.00107096
0.00108395
0.0011137
0.0011825
0.00133919
0.00169685
0.00249759
0.00429257
0.00822518
0.0168201
0.035005
0.0726952
0.146621
0.283262
0.508781
0.6971
0.73379
0.687701
0.507888
0.237044
0.0853166
0.0359796
0.017833
0.011557
0.00949449
0.00875906
0.00861058
0.00864677
0.00941252
0.0114683
0.015612
0.0230598
0.0359877
0.0558065
0.0835376
0.10055
0.10587
0.104895
0.0959586
0.0704366
0.0448732
0.0330093
0.0297975
0.0290354
0.0311087
0.0374914
0.0483295
0.0621993
0.0790926
0.0997639
0.126046
0.154359
0.189392
0.224909
0.267369
0.305987
0.351957
0.388506
0.431925
0.460132
0.49664
0.515598
0.541227
0.55133
0.565867
0.570498
0.57582
0.575382
0.574795
0.574272
0.568226
0.563805
0.549718
0.540194
0.517747
0.504318
0.477262
0.462568
0.434774
0.420609
0.394376
0.382745
0.361337
0.352347
0.334153
0.325886
0.312957
0.304546
0.294228
0.284627
0.277419
0.266462
0.261898
0.251229
0.247193
0.237703
0.234176
0.225807
0.222741
0.215487
0.212878
0.206406
0.203441
0.199282
0.195727
0.192985
0.189187
0.187585
0.183935
0.182699
0.17958
0.178581
0.176021
0.175248
0.173234
0.172685
0.171197
0.170866
0.16981
0.169397
0.169276
0.168993
0.169143
0.169107
0.169769
0.169917
0.171041
0.171423
0.173041
0.173704
0.175846
0.176806
0.179502
0.180785
0.184038
0.185648
0.189416
0.191357
0.195421
0.19804
0.202208
0.205528
0.209874
0.213813
0.218353
0.222904
0.227772
0.232933
0.238122
0.243621
0.248414
0.25257
0.254578
0.255582
0.00106322
0.00106249
0.0010614
0.00106101
0.0010607
0.00106055
0.00106048
0.00106044
0.00106042
0.00106038
0.00106038
0.00106037
0.00106036
0.00106042
0.00106064
0.0010608
0.00106083
0.00106083
0.00106083
0.00106082
0.00106082
0.00106081
0.0010608
0.00106081
0.00106078
0.00106076
0.00106076
0.00106076
0.00106075
0.00106074
0.00106073
0.00106076
0.00106095
0.00106134
0.00106189
0.00106256
0.00106331
0.00106425
0.00106573
0.00106886
0.0010759
0.00109207
0.00112938
0.00121504
0.00141276
0.00186246
0.00288697
0.00516832
0.0102452
0.0212118
0.0445592
0.0919245
0.183502
0.344348
0.565856
0.648009
0.642122
0.535485
0.330419
0.123855
0.0460654
0.0201721
0.0115907
0.00898246
0.00845114
0.00851982
0.00958439
0.0128848
0.0206796
0.0368629
0.067994
0.122166
0.204594
0.315361
0.391704
0.415593
0.417457
0.405821
0.353777
0.272594
0.165198
0.0867614
0.0464419
0.0309595
0.0248412
0.0240656
0.0254444
0.0317483
0.0419646
0.0548581
0.0691259
0.0859382
0.104896
0.127919
0.152427
0.180491
0.206457
0.235713
0.259227
0.285771
0.303532
0.324395
0.3344
0.342638
0.344607
0.346073
0.345136
0.344023
0.34293
0.337955
0.33457
0.324911
0.318973
0.305167
0.297928
0.282144
0.274654
0.259222
0.252399
0.239112
0.233412
0.222589
0.218077
0.209202
0.205192
0.19899
0.195232
0.190232
0.186409
0.182826
0.178584
0.176405
0.172086
0.170408
0.16667
0.165274
0.162123
0.160972
0.158333
0.157392
0.155101
0.15406
0.152657
0.151436
0.150594
0.149322
0.148866
0.147715
0.147377
0.146492
0.146275
0.145654
0.145553
0.145202
0.145226
0.145126
0.145363
0.145416
0.145873
0.14641
0.146907
0.147881
0.148469
0.149881
0.150706
0.15255
0.153667
0.155908
0.157372
0.160082
0.161986
0.165219
0.167633
0.171403
0.174354
0.178653
0.182144
0.18685
0.190835
0.195724
0.200023
0.204971
0.20957
0.21466
0.219547
0.224741
0.229858
0.235032
0.240037
0.244508
0.248033
0.249931
0.250779
0.00106438
0.00106316
0.00106223
0.00106178
0.00106127
0.00106105
0.00106082
0.00106071
0.00106065
0.00106059
0.00106052
0.00106049
0.00106049
0.00106048
0.00106046
0.00106045
0.00106044
0.00106049
0.00106075
0.00106112
0.00106123
0.00106123
0.00106123
0.00106123
0.00106122
0.00106121
0.0010612
0.00106119
0.00106118
0.00106116
0.0010612
0.0010614
0.0010617
0.00106196
0.00106221
0.00106253
0.00106295
0.0010634
0.00106412
0.0010656
0.00106902
0.00107669
0.00109422
0.00113452
0.00122861
0.00144529
0.00194832
0.00308851
0.0056813
0.0114089
0.0239804
0.0504448
0.104293
0.206169
0.379618
0.560934
0.603069
0.57031
0.43759
0.239105
0.0854849
0.0335598
0.0171654
0.0127727
0.0122956
0.0134304
0.0183282
0.0294125
0.0520964
0.0941002
0.169117
0.283797
0.432471
0.595721
0.718699
0.77095
0.790543
0.796143
0.787501
0.756896
0.68055
0.557593
0.377947
0.205098
0.0879371
0.0462053
0.0299586
0.0265627
0.0265012
0.0297649
0.0384591
0.0504984
0.0636329
0.0771653
0.0913453
0.108307
0.126446
0.147338
0.165772
0.184959
0.19963
0.214991
0.223203
0.226918
0.227619
0.228088
0.227354
0.226353
0.22522
0.221907
0.219476
0.213912
0.210372
0.203015
0.199049
0.190952
0.18711
0.179676
0.176421
0.170311
0.16768
0.162777
0.160718
0.156745
0.154943
0.152122
0.150399
0.148065
0.146261
0.144523
0.142571
0.141469
0.1395
0.138715
0.137082
0.13648
0.135211
0.13477
0.133805
0.133498
0.132753
0.132435
0.132115
0.1318
0.131733
0.131507
0.131515
0.131452
0.131583
0.131649
0.132031
0.132175
0.132803
0.13306
0.133916
0.134328
0.135404
0.136025
0.137224
0.138184
0.139435
0.140688
0.142058
0.143604
0.145185
0.147052
0.148886
0.151181
0.153331
0.156071
0.158595
0.161799
0.164794
0.168531
0.17208
0.176384
0.180504
0.185347
0.189924
0.1952
0.200165
0.205776
0.210977
0.216748
0.222002
0.227713
0.23272
0.238055
0.242375
0.246746
0.249444
0.251362
0.252066
0.0010647
0.00106314
0.00106244
0.00106193
0.00106169
0.00106152
0.0010614
0.00106132
0.00106128
0.00106128
0.00106126
0.00106122
0.00106123
0.00106123
0.00106117
0.00106118
0.00106117
0.00106112
0.00106112
0.0010611
0.00106109
0.00106109
0.00106107
0.00106107
0.00106108
0.00106104
0.00106105
0.00106104
0.00106101
0.00106101
0.001061
0.001061
0.00106099
0.001061
0.00106113
0.00106142
0.0010618
0.00106227
0.00106289
0.00106385
0.00106585
0.00106994
0.0010788
0.00109822
0.00114255
0.00124398
0.00148039
0.00202103
0.00326564
0.0060527
0.0122854
0.0257393
0.054143
0.110797
0.215249
0.387027
0.536184
0.565121
0.52528
0.400156
0.220827
0.0845674
0.0393832
0.0267298
0.0255168
0.0293465
0.0439752
0.0728266
0.121339
0.191815
0.289799
0.410574
0.544353
0.669272
0.768772
0.846636
0.907742
0.932256
0.936923
0.930011
0.899262
0.857884
0.807885
0.74105
0.615605
0.423683
0.184133
0.079046
0.0407546
0.0272968
0.0253732
0.0258158
0.0305809
0.039888
0.0524495
0.0666892
0.0809133
0.0958746
0.11034
0.126283
0.141126
0.156506
0.167936
0.172931
0.174262
0.174746
0.174533
0.174124
0.17357
0.171935
0.17036
0.167195
0.1647
0.160609
0.15794
0.153662
0.151202
0.147276
0.145241
0.141908
0.140396
0.137837
0.136721
0.134591
0.133596
0.131955
0.130975
0.129561
0.128487
0.127434
0.126252
0.125538
0.124392
0.123915
0.123028
0.122702
0.122102
0.121909
0.121548
0.121466
0.121293
0.121247
0.12129
0.121298
0.121506
0.121561
0.1219
0.122069
0.122522
0.122801
0.123435
0.123857
0.124666
0.125262
0.126247
0.127025
0.1282
0.129181
0.130537
0.131818
0.133364
0.135004
0.136818
0.138846
0.140983
0.143393
0.145942
0.148745
0.151692
0.15491
0.158303
0.161997
0.165914
0.17014
0.174637
0.179425
0.184545
0.189905
0.195464
0.201362
0.207274
0.213596
0.21972
0.22628
0.232391
0.238837
0.244497
0.250315
0.254953
0.259457
0.262267
0.264222
0.26492
0.00106556
0.00106396
0.00106321
0.00106268
0.00106226
0.00106204
0.00106184
0.00106173
0.00106164
0.0010616
0.00106155
0.00106151
0.00106151
0.0010615
0.00106148
0.00106149
0.00106149
0.00106144
0.00106144
0.00106142
0.00106138
0.00106138
0.00106134
0.00106132
0.00106131
0.00106126
0.00106126
0.00106126
0.00106125
0.00106124
0.00106124
0.00106124
0.00106121
0.00106121
0.0010612
0.0010612
0.00106128
0.00106147
0.00106195
0.00106281
0.00106425
0.00106668
0.00107116
0.00108001
0.00109898
0.00114097
0.00123822
0.00146156
0.00198303
0.00316881
0.00587669
0.0118663
0.0249631
0.0523409
0.106428
0.206097
0.36495
0.508803
0.535892
0.510424
0.414827
0.265255
0.125474
0.0677179
0.0535405
0.0523838
0.0604791
0.0807517
0.116563
0.167422
0.23403
0.312197
0.400005
0.494974
0.601855
0.71943
0.844182
0.93749
0.966005
0.970487
0.959868
0.924256
0.861877
0.81127
0.797337
0.796159
0.780352
0.689728
0.470901
0.193793
0.0822599
0.0451527
0.0350199
0.0328669
0.0342367
0.0403368
0.0517939
0.0662547
0.0812971
0.096106
0.109755
0.123498
0.136229
0.146765
0.150498
0.151668
0.151776
0.151654
0.151259
0.150185
0.148974
0.14699
0.145064
0.142395
0.140145
0.137239
0.135007
0.132341
0.130474
0.128307
0.126913
0.125219
0.124214
0.122792
0.121945
0.120845
0.120035
0.119122
0.118312
0.117582
0.116726
0.11619
0.115495
0.115175
0.114707
0.114538
0.114365
0.114348
0.114334
0.114492
0.114675
0.11492
0.115211
0.115558
0.115996
0.116378
0.116934
0.117429
0.118134
0.118787
0.119638
0.120477
0.121508
0.122522
0.12375
0.124985
0.126379
0.127835
0.129435
0.13112
0.132946
0.134904
0.136955
0.139189
0.141575
0.144169
0.146997
0.150076
0.153393
0.157015
0.160888
0.165079
0.169542
0.174348
0.179464
0.184878
0.190709
0.19676
0.203064
0.209731
0.216435
0.223579
0.230506
0.237864
0.24473
0.251894
0.258128
0.264451
0.269316
0.274055
0.276795
0.278831
0.2795
0.00106539
0.00106368
0.00106276
0.00106222
0.00106183
0.00106166
0.00106151
0.00106145
0.0010614
0.00106137
0.00106137
0.00106136
0.00106133
0.00106138
0.00106153
0.00106161
0.00106164
0.00106167
0.00106168
0.00106169
0.00106169
0.00106169
0.00106169
0.00106163
0.00106163
0.00106163
0.00106157
0.00106158
0.00106157
0.00106152
0.00106153
0.00106153
0.00106152
0.00106153
0.00106149
0.00106149
0.00106148
0.00106147
0.00106158
0.0010619
0.00106263
0.00106401
0.00106653
0.00107115
0.00108012
0.00109842
0.0011385
0.00122791
0.00143481
0.00190615
0.00299226
0.00542564
0.0108572
0.022559
0.046782
0.0947927
0.180777
0.32094
0.473104
0.517879
0.514544
0.465424
0.365539
0.24065
0.14813
0.113464
0.108365
0.113621
0.135016
0.172954
0.23225
0.310975
0.411066
0.532569
0.670626
0.823014
0.964269
1.03408
1.04637
1.03836
0.99872
0.933408
0.849258
0.761797
0.707967
0.695877
0.705262
0.756163
0.813933
0.823123
0.748501
0.51324
0.200385
0.0807269
0.0490054
0.0399835
0.0392573
0.0412367
0.0490499
0.0616839
0.0770917
0.0930363
0.108217
0.122088
0.133515
0.138821
0.14049
0.140981
0.141108
0.141064
0.140798
0.139912
0.1385
0.136536
0.134315
0.131909
0.1296
0.12744
0.125521
0.123789
0.122244
0.120888
0.119726
0.118748
0.117869
0.117055
0.11619
0.115376
0.114566
0.113855
0.113143
0.112493
0.111954
0.111485
0.111232
0.111113
0.111071
0.111085
0.111275
0.111552
0.111859
0.112177
0.112631
0.113028
0.113517
0.114018
0.114634
0.115245
0.116025
0.116831
0.117753
0.118765
0.119873
0.121082
0.122364
0.123797
0.125242
0.126949
0.128638
0.130596
0.1326
0.134909
0.137281
0.139993
0.142808
0.145902
0.149222
0.152693
0.156559
0.160518
0.165015
0.16957
0.174811
0.180056
0.186101
0.192092
0.199016
0.205795
0.213293
0.22084
0.228799
0.236964
0.245184
0.253634
0.261723
0.269972
0.277243
0.284475
0.289996
0.295284
0.29825
0.300484
0.301179
0.00106685
0.0010647
0.00106373
0.00106309
0.00106261
0.00106233
0.00106217
0.00106207
0.00106203
0.00106203
0.001062
0.00106195
0.00106195
0.00106194
0.00106189
0.00106189
0.00106189
0.00106188
0.00106187
0.00106184
0.00106184
0.00106184
0.00106179
0.00106179
0.00106177
0.00106172
0.00106172
0.00106169
0.00106167
0.00106167
0.00106168
0.00106165
0.00106165
0.00106164
0.00106164
0.00106175
0.00106203
0.00106244
0.00106293
0.00106347
0.00106405
0.00106486
0.00106618
0.0010686
0.00107295
0.00108107
0.00109714
0.00113068
0.00120526
0.00137213
0.00175681
0.00262592
0.00459875
0.00894381
0.0182387
0.037612
0.0749473
0.143293
0.253001
0.400983
0.496082
0.522092
0.520101
0.490126
0.432094
0.358362
0.31669
0.30827
0.321986
0.358622
0.430925
0.52697
0.640636
0.766087
0.875472
0.975621
1.04601
1.06989
1.06762
1.03954
0.980175
0.892639
0.78894
0.674759
0.566831
0.462055
0.406518
0.393285
0.398657
0.433006
0.4884
0.521902
0.524119
0.487835
0.370877
0.197807
0.105778
0.0748062
0.0655356
0.0624376
0.0631244
0.0673177
0.077886
0.0922849
0.10862
0.123674
0.134727
0.139044
0.140629
0.141045
0.141091
0.140889
0.140176
0.138917
0.137063
0.134999
0.132494
0.130225
0.127815
0.125927
0.123952
0.122541
0.120927
0.119918
0.118728
0.118
0.116993
0.116116
0.115138
0.114259
0.11351
0.112661
0.112196
0.111625
0.111397
0.111236
0.11122
0.111249
0.111571
0.11188
0.112315
0.11264
0.113203
0.113669
0.114208
0.114799
0.11548
0.116237
0.117045
0.118043
0.119001
0.120221
0.121367
0.122822
0.124102
0.125797
0.127278
0.129294
0.131085
0.133322
0.135555
0.138095
0.140821
0.143702
0.146893
0.150179
0.15392
0.157625
0.161972
0.166238
0.171292
0.176258
0.182176
0.187964
0.194843
0.201527
0.209468
0.217128
0.225784
0.234427
0.243651
0.253057
0.262639
0.27246
0.281922
0.291564
0.3001
0.308542
0.31498
0.321036
0.324332
0.326803
0.327537
0.00106655
0.00106425
0.00106326
0.0010625
0.00106211
0.00106192
0.00106177
0.0010617
0.00106166
0.00106165
0.00106162
0.00106161
0.00106161
0.00106161
0.00106158
0.00106154
0.00106154
0.00106151
0.00106147
0.00106147
0.00106143
0.00106142
0.00106142
0.00106141
0.00106141
0.00106139
0.00106139
0.00106152
0.00106179
0.00106197
0.00106202
0.00106203
0.00106204
0.00106205
0.00106205
0.00106203
0.00106203
0.00106202
0.00106202
0.00106212
0.00106244
0.00106299
0.00106394
0.00106545
0.00106794
0.00107215
0.00107981
0.00109397
0.0011224
0.00118133
0.00131155
0.00159966
0.00225162
0.00369495
0.00682932
0.0135457
0.0270324
0.0534005
0.100136
0.178006
0.291829
0.415962
0.493536
0.534576
0.555973
0.570818
0.579746
0.598528
0.624806
0.665532
0.715705
0.77581
0.832111
0.894193
0.935894
0.947336
0.939338
0.9062
0.850933
0.77206
0.687411
0.58612
0.497572
0.401623
0.333804
0.260061
0.212305
0.181392
0.176385
0.181384
0.19956
0.241857
0.304501
0.386548
0.4461
0.464043
0.455665
0.40539
0.320416
0.210874
0.134398
0.104963
0.0967364
0.0945893
0.0960813
0.101778
0.114013
0.12861
0.141756
0.146911
0.148802
0.149514
0.149539
0.149446
0.148482
0.147205
0.144787
0.142565
0.139687
0.137648
0.134942
0.133172
0.130398
0.1288
0.126651
0.125569
0.124283
0.123061
0.121813
0.120248
0.119488
0.118111
0.117593
0.116663
0.116354
0.115964
0.115925
0.115865
0.116149
0.116352
0.116868
0.117089
0.117531
0.118012
0.118414
0.119057
0.119544
0.120473
0.12106
0.122243
0.122996
0.124392
0.125288
0.126924
0.127982
0.129876
0.131224
0.133499
0.13525
0.13774
0.140034
0.142778
0.145596
0.148668
0.152046
0.155457
0.159495
0.163379
0.168167
0.172719
0.178333
0.183667
0.190291
0.196558
0.204305
0.211629
0.220673
0.22922
0.239179
0.249032
0.259833
0.270702
0.282049
0.293573
0.304943
0.316445
0.326868
0.337102
0.345002
0.352429
0.356306
0.359253
0.36008
0.00106693
0.00106458
0.00106362
0.00106275
0.00106223
0.00106193
0.00106165
0.00106154
0.00106141
0.00106135
0.00106128
0.00106126
0.00106125
0.00106123
0.0010612
0.0010612
0.00106118
0.00106118
0.00106117
0.00106116
0.00106121
0.0010614
0.00106153
0.00106157
0.00106159
0.00106161
0.00106164
0.00106169
0.00106172
0.00106175
0.00106178
0.0010618
0.00106179
0.00106179
0.00106178
0.00106178
0.00106177
0.00106182
0.00106201
0.00106238
0.00106294
0.00106368
0.00106462
0.00106589
0.00106776
0.00107067
0.00107529
0.00108274
0.00109546
0.00111816
0.0011626
0.0012534
0.00145018
0.00187775
0.00280416
0.00481318
0.00892917
0.0172817
0.0328741
0.0609187
0.105887
0.173884
0.266172
0.372577
0.454707
0.519038
0.557045
0.597495
0.627787
0.66771
0.700074
0.736529
0.749535
0.747872
0.728036
0.681534
0.617137
0.529786
0.445208
0.349932
0.279691
0.203147
0.161385
0.113381
0.0928792
0.0654396
0.0536787
0.042093
0.0400023
0.0408565
0.0450666
0.0558773
0.0739257
0.106018
0.15434
0.217217
0.275921
0.341003
0.388432
0.415773
0.416913
0.398769
0.359675
0.299289
0.238988
0.189025
0.172545
0.167094
0.165837
0.167267
0.170556
0.175854
0.17728
0.178031
0.177564
0.177601
0.17627
0.175367
0.172583
0.170771
0.167065
0.164986
0.160657
0.158295
0.153949
0.151225
0.148686
0.146377
0.144925
0.142003
0.140963
0.138463
0.13774
0.136079
0.135669
0.134816
0.134794
0.134472
0.134668
0.134312
0.134501
0.134343
0.133955
0.133912
0.133483
0.133589
0.133387
0.133731
0.133673
0.134439
0.134576
0.135691
0.136027
0.137526
0.138105
0.14008
0.140978
0.143496
0.145023
0.147643
0.149885
0.152635
0.15555
0.158499
0.162155
0.165456
0.169926
0.17375
0.179138
0.18363
0.189957
0.195261
0.202664
0.208976
0.217664
0.225172
0.235452
0.244574
0.256031
0.266933
0.27957
0.291993
0.305433
0.318912
0.332546
0.346427
0.359176
0.372046
0.381828
0.39152
0.396237
0.399974
0.400994
0.00106898
0.0010654
0.00106407
0.00106291
0.00106229
0.0010619
0.00106157
0.00106143
0.00106132
0.00106129
0.00106121
0.00106118
0.00106118
0.00106116
0.00106111
0.00106111
0.00106109
0.00106105
0.00106105
0.00106104
0.00106099
0.00106099
0.00106098
0.00106094
0.00106094
0.00106092
0.00106091
0.0010609
0.00106089
0.00106099
0.00106123
0.00106139
0.00106143
0.00106147
0.00106149
0.0010615
0.00106149
0.00106148
0.00106147
0.00106147
0.00106151
0.00106168
0.00106209
0.00106279
0.00106401
0.00106586
0.00106887
0.00107334
0.00108045
0.00109157
0.00111048
0.0011435
0.00120673
0.00133169
0.00158818
0.00212967
0.00323051
0.00548741
0.00979156
0.017839
0.0313992
0.0534922
0.0847947
0.12836
0.177981
0.241707
0.296556
0.352669
0.388001
0.413694
0.415364
0.407832
0.386554
0.348311
0.306528
0.25397
0.211826
0.163508
0.131553
0.0926423
0.0719657
0.0473268
0.0371107
0.0242313
0.0192877
0.0131967
0.0107834
0.0084045
0.00787983
0.00794337
0.00854748
0.0103329
0.0134451
0.0191395
0.0277124
0.0416533
0.0596474
0.0886538
0.129078
0.183901
0.238707
0.311404
0.377126
0.457975
0.517164
0.535455
0.532586
0.504628
0.452343
0.393266
0.339981
0.311281
0.292987
0.286198
0.274562
0.270791
0.26115
0.2582
0.252382
0.251039
0.247569
0.246978
0.242767
0.241466
0.235638
0.230131
0.224765
0.219781
0.218267
0.214551
0.214099
0.211751
0.212154
0.211522
0.212856
0.213014
0.216017
0.216653
0.219473
0.218973
0.219957
0.219203
0.21595
0.213876
0.207671
0.2054
0.198818
0.196935
0.191048
0.189561
0.184907
0.183911
0.180479
0.179993
0.177779
0.177806
0.176746
0.177247
0.17743
0.178136
0.179464
0.1802
0.182749
0.183697
0.187365
0.188893
0.193631
0.195934
0.201711
0.204869
0.211686
0.215863
0.223907
0.229198
0.23877
0.245333
0.256772
0.265381
0.278012
0.289193
0.303128
0.316725
0.331715
0.347338
0.362797
0.379768
0.394765
0.411658
0.423721
0.436971
0.443207
0.448123
0.449462
0.00107252
0.00106643
0.00106463
0.00106333
0.00106241
0.00106203
0.00106163
0.00106151
0.00106137
0.00106134
0.00106125
0.00106126
0.00106124
0.00106121
0.00106119
0.00106123
0.00106123
0.00106123
0.00106119
0.0010612
0.0010612
0.00106113
0.00106113
0.00106112
0.00106108
0.00106108
0.00106106
0.00106101
0.001061
0.00106096
0.00106097
0.00106097
0.00106097
0.00106096
0.00106095
0.00106101
0.00106122
0.00106153
0.00106185
0.00106213
0.00106243
0.00106286
0.00106343
0.0010642
0.00106524
0.00106686