/*--------------------------------*- C++ -*----------------------------------*\
| =========                 |                                                 |
| \\      /  F ield         | OpenFOAM: The Open Source CFD Toolbox           |
|  \\    /   O peration     | Version:  4.1                                   |
|   \\  /    A nd           | Web:      www.OpenFOAM.org                      |
|    \\/     M anipulation  |                                                 |
\*---------------------------------------------------------------------------*/
FoamFile
{
    version     2.0;
    format      ascii;
    class       volScalarField;
    location    "6.5";
    object      k;
}
// * * * * * * * * * * * * * * * * * * * * * * * * * * * * * * * * * * * * * //

dimensions      [0 2 -2 0 0 0 0];

internalField   nonuniform List<scalar> 
204246
(
0.761998
0.836902
0.839508
0.838536
0.84017
0.838702
0.839323
0.837903
0.838287
0.836369
0.83658
0.834262
0.834889
0.833517
0.835315
0.834173
0.836602
0.835662
0.835925
0.838379
0.836975
0.83849
0.83673
0.837796
0.836637
0.837806
0.836896
0.838265
0.837467
0.83959
0.838607
0.840873
0.84005
0.8428
0.842132
0.844936
0.844768
0.846864
0.850191
0.850134
0.85424
0.854752
0.859365
0.86024
0.865779
0.867559
0.876132
0.880398
0.894618
0.908836
0.942812
0.998136
1.10856
1.29968
1.60694
2.02178
2.3573
2.46877
2.5078
2.52737
2.53888
2.55436
2.55606
2.56103
2.55803
2.55942
2.55416
2.55008
2.54387
2.5452
2.53908
2.53634
2.54248
2.54183
2.55684
2.55969
2.58117
2.58739
2.61305
2.62017
2.64881
2.65648
2.68457
2.69231
2.71867
2.72737
2.75187
2.76043
2.77905
2.79583
2.80832
2.83101
2.84031
2.86475
2.8741
2.89946
2.90876
2.93395
2.94327
2.96798
2.97724
3.00004
3.00968
3.03116
3.04158
3.06268
3.07342
3.09376
3.10589
3.1254
3.13757
3.15696
3.17121
3.1903
3.20678
3.22556
3.24291
3.26169
3.28015
3.29889
3.31875
3.33749
3.35901
3.37743
3.39894
3.41992
3.44028
3.46235
3.48296
3.50615
3.52688
3.5505
3.57188
3.596
3.61802
3.64282
3.66532
3.69069
3.71385
3.73986
3.76358
3.78903
3.81481
3.83963
3.86608
3.89133
3.91807
3.94393
3.97076
3.99734
4.0241
4.05131
4.07787
4.10582
4.13235
4.16084
4.1874
4.21631
4.24222
4.27144
4.29751
4.32611
4.35307
4.38086
4.40878
4.43557
4.46473
4.49037
4.52122
4.54569
4.5787
4.60187
4.6377
4.66001
4.70011
4.72053
4.76542
4.78986
4.83074
4.86427
4.90329
4.94653
4.98682
5.04085
5.08627
5.15249
5.20773
5.28738
5.35708
5.44209
5.51306
5.55563
5.57281
0.158626
0.240593
0.234915
0.231404
0.232951
0.229625
0.230909
0.22805
0.229098
0.226128
0.227252
0.224881
0.226455
0.224434
0.227184
0.225291
0.229315
0.228049
0.228091
0.231868
0.230053
0.232766
0.230481
0.232601
0.231141
0.233272
0.231919
0.234264
0.232488
0.235736
0.233902
0.237858
0.236312
0.241377
0.240269
0.246952
0.247653
0.251634
0.258245
0.258133
0.26647
0.267319
0.276104
0.277777
0.29208
0.297321
0.325503
0.343002
0.40134
0.463629
0.609515
0.818839
1.19894
1.7125
1.99643
2.03712
1.95877
1.62679
1.18085
1.00726
0.934253
0.905354
0.873574
0.872207
0.867625
0.889428
0.892654
0.934358
0.949847
1.00407
1.02786
1.08527
1.1265
1.19028
1.24544
1.30332
1.36765
1.41838
1.48822
1.53463
1.6
1.64454
1.70152
1.74305
1.79055
1.82593
1.86243
1.89284
1.9243
1.94311
1.97426
1.9896
2.01769
2.03208
2.05684
2.07045
2.09281
2.1071
2.12648
2.14082
2.15505
2.16816
2.17822
2.18971
2.19675
2.21062
2.21663
2.22591
2.24225
2.24931
2.26837
2.27653
2.29967
2.30997
2.33791
2.35072
2.38218
2.3963
2.42886
2.44376
2.47753
2.49315
2.52937
2.5468
2.57843
2.60562
2.63262
2.66544
2.69097
2.72725
2.75266
2.79272
2.81851
2.86096
2.88818
2.93285
2.96189
3.00865
3.04045
3.08936
3.12536
3.16816
3.21411
3.25561
3.30418
3.34901
3.39877
3.44739
3.49813
3.55095
3.60298
3.65984
3.71155
3.77307
3.82703
3.89306
3.95001
4.02136
4.07335
4.15236
4.21002
4.28281
4.35322
4.41962
4.50106
4.5617
4.65185
4.70828
4.80357
4.85843
4.95463
5.01093
5.10022
5.16033
5.25275
5.31233
5.4028
5.44621
5.54747
5.5873
5.68422
5.72061
5.81301
5.84605
5.93535
5.96544
6.06103
6.09591
6.26912
6.42088
6.84628
7.11512
7.2293
0.0161537
0.0346069
0.0318022
0.0302577
0.0304008
0.0290766
0.0292686
0.0282806
0.0285048
0.0280485
0.0285415
0.0282486
0.0289129
0.0286014
0.0295827
0.0292813
0.0302133
0.0297388
0.0295653
0.0298273
0.0292074
0.0298237
0.0293223
0.0299232
0.0296458
0.0302877
0.0300425
0.0307994
0.0304822
0.0314972
0.0311821
0.0324326
0.032199
0.0337689
0.0336497
0.0356191
0.0358952
0.0373841
0.0391051
0.0395572
0.0431379
0.0443176
0.0499926
0.0532156
0.0636101
0.0730645
0.0963335
0.125495
0.185531
0.275336
0.440969
0.702909
1.12982
1.66535
1.86349
1.85829
1.54505
0.983379
0.752608
0.69014
0.676591
0.677318
0.677175
0.68091
0.682778
0.698832
0.718041
0.753224
0.783122
0.823225
0.86255
0.917997
0.987106
1.06073
1.15713
1.24431
1.35684
1.44424
1.55546
1.63615
1.74862
1.82649
1.93786
2.0102
2.11598
2.18082
2.27572
2.32995
2.40774
2.45013
2.51065
2.5405
2.58741
2.60949
2.65012
2.66672
2.7039
2.71795
2.75265
2.765
2.79618
2.80635
2.82836
2.83484
2.85134
2.85532
2.87064
2.87659
2.87955
2.88696
2.88703
2.89484
2.89385
2.90239
2.90264
2.91686
2.92103
2.93939
2.94604
2.967
2.97464
2.99539
3.00301
3.0231
3.03252
3.04572
3.06074
3.06989
3.0878
3.09553
3.11442
3.12255
3.14118
3.14946
3.16741
3.17573
3.19316
3.20172
3.21885
3.22772
3.2437
3.2514
3.26379
3.27112
3.28153
3.28834
3.29668
3.30109
3.30821
3.30868
3.31344
3.31124
3.31258
3.305
3.30588
3.29236
3.29206
3.26817
3.25652
3.2429
3.2119
3.2038
3.16028
3.14893
3.09681
3.08213
3.02268
3.00555
2.94051
2.92126
2.85096
2.83013
2.75521
2.73335
2.65769
2.63645
2.55487
2.51674
2.47945
2.41452
2.39827
2.32509
2.31002
2.23935
2.22652
2.16393
2.15635
2.11344
2.11714
2.08868
2.09356
1.95384
1.90161
0.00682244
0.00802675
0.00763825
0.00743041
0.00741888
0.00723227
0.00724275
0.00712727
0.00715217
0.0071107
0.0071641
0.00713948
0.00721815
0.00719178
0.00730573
0.00727949
0.00737981
0.00733107
0.00731358
0.00731891
0.00722758
0.00727509
0.00721726
0.007277
0.00724926
0.00732056
0.00730016
0.007393
0.00736573
0.00749267
0.00746663
0.00762857
0.00761172
0.007819
0.00781438
0.00808381
0.00813253
0.00836271
0.00871037
0.00897488
0.00981386
0.0104159
0.0122135
0.0142662
0.018999
0.0262382
0.0412368
0.0670004
0.116734
0.203739
0.359434
0.616696
1.02287
1.47389
1.60413
1.5868
1.30791
0.788064
0.508449
0.410808
0.363656
0.339806
0.305334
0.265439
0.243101
0.236936
0.230351
0.230113
0.228685
0.234662
0.243479
0.265734
0.29865
0.335121
0.395113
0.456497
0.550486
0.642264
0.775758
0.896976
1.06374
1.19894
1.38116
1.51575
1.69511
1.82251
1.99272
2.10931
2.2549
2.3608
2.47449
2.56298
2.648
2.71949
2.78205
2.8392
2.88503
2.93101
2.9665
3.00537
3.03568
3.06964
3.09238
3.11672
3.12879
3.13926
3.1441
3.14589
3.14574
3.14418
3.13563
3.12187
3.09933
3.07726
3.05197
3.03327
3.01361
3.00071
2.9896
2.98414
2.98069
2.97794
2.97534
2.96966
2.96182
2.95242
2.94138
2.93351
2.91935
2.91246
2.89388
2.88749
2.86509
2.85758
2.8315
2.82273
2.79257
2.78227
2.74813
2.73649
2.69453
2.67398
2.64276
2.60617
2.5825
2.53257
2.5131
2.45496
2.43328
2.37031
2.34652
2.2788
2.25281
2.18098
2.15312
2.07855
2.04962
1.96919
1.93004
1.86697
1.81145
1.76172
1.69323
1.6555
1.57928
1.54903
1.4718
1.44301
1.37105
1.34435
1.27867
1.25469
1.1957
1.17463
1.12222
1.10396
1.057
1.0356
1.00443
0.978873
0.958297
0.928985
0.915831
0.885823
0.876087
0.854702
0.85086
0.84609
0.859487
0.877126
0.907637
0.917305
0.924759
0.00639023
0.00644112
0.00641037
0.00639644
0.00639342
0.00638295
0.00638225
0.00637608
0.00637616
0.00637309
0.00637457
0.00637368
0.00637645
0.00637574
0.00638056
0.00637974
0.00638382
0.00638163
0.00638093
0.00638219
0.00637967
0.00638209
0.00638014
0.00638256
0.00638158
0.00638469
0.0063841
0.0063889
0.00638825
0.00639555
0.00639508
0.00640483
0.00640482
0.0064194
0.00642143
0.00644622
0.0064562
0.00649151
0.00654922
0.0066299
0.00681162
0.00710913
0.00775752
0.00896648
0.0115082
0.0164768
0.0266277
0.0463622
0.0849666
0.156908
0.287708
0.510004
0.861489
1.26304
1.38567
1.37822
1.16449
0.724896
0.358835
0.229802
0.172152
0.145258
0.1287
0.114678
0.0949774
0.0831745
0.0765906
0.07426
0.07257
0.0726354
0.0729368
0.0765298
0.0856373
0.0976477
0.115261
0.134085
0.160259
0.191013
0.23714
0.292491
0.373848
0.463414
0.585538
0.707681
0.869904
1.022
1.2113
1.37681
1.56424
1.73686
1.90166
2.06473
2.19997
2.34073
2.43848
2.55394
2.61932
2.7073
2.74739
2.81415
2.84377
2.89561
2.91838
2.95318
2.96608
2.9777
2.9785
2.97847
2.97739
2.96686
2.95203
2.9199
2.88765
2.83513
2.7933
2.7323
2.69034
2.63046
2.59514
2.54187
2.51777
2.47575
2.45904
2.41497
2.39255
2.35665
2.31818
2.28774
2.23993
2.21574
2.16039
2.13781
2.07889
2.05527
1.99421
1.96978
1.90707
1.88189
1.81833
1.79271
1.72656
1.69437
1.64114
1.59799
1.55442
1.50247
1.46718
1.40852
1.38141
1.31989
1.29518
1.23528
1.21164
1.15484
1.13267
1.07984
1.05955
1.00964
0.986258
0.950288
0.92296
0.897337
0.867248
0.850886
0.820902
0.809656
0.783176
0.774033
0.751969
0.744585
0.726765
0.721096
0.707187
0.703136
0.69276
0.690185
0.68265
0.679685
0.678218
0.675703
0.676111
0.674568
0.675295
0.673544
0.673987
0.672171
0.672982
0.67322
0.682649
0.688248
0.70147
0.70627
0.710179
0.00637399
0.00637253
0.00636545
0.00636285
0.00636161
0.00636048
0.00636012
0.00635974
0.00635963
0.00635941
0.00635939
0.00635927
0.0063593
0.00635928
0.00635931
0.00635925
0.00635951
0.00635951
0.00635941
0.00635951
0.00635938
0.00635932
0.00635939
0.00635951
0.00635951
0.00635968
0.00635967
0.00635974
0.00635967
0.00635978
0.00635966
0.0063598
0.00636024
0.00636174
0.00636349
0.00636714
0.00637235
0.00638218
0.00640106
0.00643695
0.0065133
0.00667041
0.00701288
0.00774073
0.00931816
0.0126527
0.019711
0.0341612
0.063352
0.119723
0.225
0.40876
0.704863
1.08915
1.23598
1.24294
1.0988
0.756268
0.351841
0.170566
0.104517
0.0786173
0.066692
0.0609022
0.054635
0.0477706
0.0404763
0.0383364
0.0377215
0.0379981
0.0398269
0.0450027
0.0546178
0.0680383
0.0817315
0.0906844
0.0938642
0.0956418
0.0967811
0.104123
0.119811
0.146946
0.185639
0.239983
0.312399
0.398046
0.502961
0.620386
0.757755
0.913142
1.06727
1.2383
1.39266
1.56435
1.70162
1.85673
1.96227
2.08923
2.15904
2.25484
2.29602
2.35966
2.38577
2.42553
2.43855
2.45096
2.44978
2.44751
2.44507
2.4272
2.41019
2.36703
2.33193
2.26429
2.21642
2.1358
2.08285
2.00038
1.94843
1.87032
1.82627
1.75759
1.72523
1.66471
1.63543
1.58925
1.54991
1.51027
1.46241
1.43117
1.37828
1.35332
1.29866
1.276
1.22283
1.20116
1.15035
1.12979
1.08221
1.06311
1.01753
0.995853
0.961544
0.935896
0.909108
0.880773
0.860241
0.829862
0.816112
0.785868
0.773951
0.746443
0.735792
0.711343
0.701955
0.6805
0.672393
0.653103
0.644236
0.63107
0.62138
0.611996
0.601709
0.59572
0.585741
0.581882
0.573303
0.570292
0.563639
0.561471
0.556777
0.555459
0.552601
0.5521
0.550988
0.55128
0.551269
0.552916
0.554815
0.557202
0.560962
0.564135
0.569542
0.573453
0.580401
0.585296
0.593824
0.599564
0.60954
0.61577
0.623442
0.626438
0.628395
0.00637251
0.00637109
0.006364
0.00636154
0.00635956
0.00635832
0.00635777
0.00635723
0.00635704
0.00635682
0.00635675
0.00635661
0.00635658
0.0063565
0.0063568
0.0063574
0.00635763
0.00635759
0.00635759
0.00635758
0.00635752
0.00635765
0.00635768
0.00635786
0.00635793
0.00635816
0.00635825
0.00635836
0.00635836
0.00635836
0.0063583
0.00635834
0.00635831
0.00635821
0.00635825
0.00635877
0.00636009
0.00636351
0.00637116
0.00638767
0.0064245
0.0065056
0.00668717
0.00708923
0.00798628
0.0099496
0.0142441
0.0233538
0.0424616
0.0808477
0.155761
0.292912
0.527608
0.878275
1.10116
1.13638
1.06422
0.814539
0.44134
0.181388
0.0883734
0.0513121
0.0377284
0.0330897
0.0313864
0.0310638
0.0312156
0.0334078
0.0391102
0.0504211
0.0704281
0.104481
0.155083
0.221973
0.255762
0.265948
0.262168
0.23751
0.174697
0.120905
0.0992798
0.094586
0.0947393
0.106916
0.132778
0.170658
0.218199
0.276301
0.347609
0.435841
0.53016
0.644567
0.759845
0.894064
1.01574
1.15488
1.26567
1.39147
1.47461
1.57489
1.62776
1.69253
1.71815
1.74989
1.75914
1.76715
1.76471
1.76133
1.7573
1.73835
1.72207
1.68195
1.65127
1.59085
1.55029
1.47882
1.43422
1.36067
1.31695
1.24708
1.20943
1.14775
1.12017
1.06926
1.04529
1.00673
0.981528
0.950896
0.921857
0.899276
0.867649
0.851746
0.819783
0.80658
0.77727
0.765421
0.739004
0.728409
0.705023
0.695746
0.674657
0.664771
0.649619
0.638478
0.626905
0.615305
0.606604
0.594439
0.588758
0.577006
0.572363
0.56189
0.557876
0.548867
0.545462
0.537819
0.534985
0.528406
0.525398
0.521179
0.517954
0.515338
0.51212
0.510897
0.508212
0.507449
0.505711
0.50541
0.504797
0.504989
0.505144
0.506585
0.507132
0.509717
0.510766
0.514272
0.5158
0.519796
0.522351
0.526447
0.529958
0.534315
0.538882
0.543823
0.549515
0.554963
0.561758
0.567857
0.575482
0.58136
0.586988
0.589479
0.590875
0.00635773
0.00635497
0.00635017
0.00634851
0.00634724
0.00634663
0.00634633
0.00634602
0.0063461
0.00634684
0.00634851
0.00634971
0.0063502
0.00635041
0.00635062
0.00635101
0.00635178
0.00635204
0.00635208
0.00635208
0.00635206
0.00635216
0.00635221
0.0063522
0.0063521
0.0063521
0.00635208
0.00635198
0.00635195
0.00635186
0.00635195
0.00635258
0.00635385
0.00635579
0.00635845
0.00636144
0.0063649
0.00636907
0.00637501
0.00638565
0.00640693
0.00645238
0.00655253
0.00677539
0.00727712
0.00839434
0.0108882
0.0163091
0.0279988
0.0522185
0.101228
0.194875
0.364383
0.64311
0.969291
1.06862
1.05462
0.897447
0.598837
0.260895
0.108268
0.0555844
0.0372871
0.0316582
0.030577
0.0308977
0.0339652
0.0430369
0.0640101
0.106699
0.187111
0.323299
0.522094
0.772597
0.914812
0.957129
0.957231
0.920485
0.791889
0.602384
0.361981
0.199926
0.122675
0.0939076
0.0844104
0.0846352
0.0953082
0.123006
0.161805
0.209459
0.262884
0.326806
0.398384
0.483576
0.572838
0.673036
0.76533
0.866165
0.947173
1.03433
1.09253
1.15569
1.18362
1.20179
1.20557
1.20844
1.20538
1.20116
1.19602
1.17948
1.166
1.13528
1.11335
1.07098
1.04489
0.996903
0.969828
0.922358
0.897197
0.853132
0.831759
0.795521
0.779688
0.749621
0.735581
0.712841
0.699487
0.680926
0.666901
0.653543
0.638225
0.628562
0.612615
0.605658
0.590966
0.584875
0.571957
0.566627
0.555293
0.550636
0.540403
0.535569
0.527892
0.522597
0.516543
0.51108
0.506351
0.500702
0.497137
0.491479
0.489032
0.483681
0.48155
0.47694
0.475139
0.47126
0.469791
0.466558
0.465093
0.4633
0.461846
0.461058
0.459981
0.459774
0.459487
0.459765
0.460198
0.461445
0.462369
0.464686
0.466229
0.469633
0.471879
0.476385
0.479348
0.484953
0.488556
0.494901
0.499372
0.505875
0.511024
0.517504
0.523181
0.529641
0.535852
0.542311
0.548775
0.555092
0.561407
0.56677
0.571226
0.573427
0.574537
0.00636794
0.00636134
0.00635826
0.00635582
0.00635403
0.0063532
0.00635227
0.00635188
0.00635155
0.00635134
0.00635121
0.00635117
0.0063511
0.00635105
0.006351
0.00635098
0.00635097
0.00635144
0.00635278
0.0063553
0.00635902
0.00636129
0.00636187
0.00636195
0.00636196
0.0063619
0.00636191
0.00636189
0.00636187
0.00636178
0.00636177
0.00636169
0.00636168
0.00636161
0.0063618
0.00636256
0.00636433
0.00636706
0.00637126
0.00637765
0.00638887
0.00641143
0.00646042
0.00656839
0.00681199
0.00735876
0.00860224
0.0113652
0.0175026
0.0306365
0.0583078
0.11368
0.219993
0.408459
0.707072
0.971518
1.02608
0.979547
0.785915
0.480458
0.193669
0.0845986
0.0499556
0.0409006
0.0401791
0.0437935
0.0575041
0.0874517
0.146819
0.25068
0.423174
0.671057
0.978545
1.30402
1.55629
1.66788
1.70841
1.71817
1.6926
1.61143
1.43247
1.1588
0.772629
0.41366
0.200203
0.125513
0.0981474
0.0941711
0.0984371
0.118986
0.157048
0.20424
0.254428
0.30833
0.36639
0.435136
0.506674
0.586935
0.657911
0.731103
0.787524
0.843302
0.867196
0.877371
0.879095
0.880263
0.877694
0.873819
0.868791
0.856576
0.846011
0.825698
0.810576
0.784303
0.767427
0.738878
0.722543
0.695555
0.681382
0.657359
0.645544
0.625368
0.616415
0.599919
0.592153
0.579337
0.571943
0.561073
0.552768
0.544469
0.535682
0.529328
0.520145
0.515767
0.507128
0.503403
0.495911
0.492708
0.4862
0.483434
0.477612
0.474848
0.470317
0.467453
0.463753
0.46091
0.457904
0.455099
0.452695
0.450064
0.448397
0.445974
0.444946
0.442884
0.442115
0.440645
0.440157
0.439267
0.438886
0.438811
0.438649
0.43886
0.439027
0.43983
0.44034
0.441789
0.442693
0.445028
0.446424
0.449645
0.451691
0.455873
0.458722
0.46386
0.46761
0.473671
0.478284
0.485009
0.490504
0.497582
0.503689
0.510966
0.517422
0.524694
0.531153
0.538282
0.544724
0.551346
0.557213
0.562442
0.566304
0.568411
0.569359
0.00637283
0.0063657
0.00636279
0.0063607
0.00635969
0.00635904
0.00635866
0.00635849
0.00635827
0.00635813
0.00635813
0.00635813
0.006358
0.00635808
0.00635807
0.00635797
0.00635798
0.00635796
0.00635785
0.00635786
0.00635786
0.00635773
0.00635773
0.00635774
0.00635763
0.00635769
0.00635765
0.00635762
0.00635771
0.00635778
0.00635778
0.00635781
0.00635772
0.00635778
0.00635774
0.00635775
0.00635808
0.00635918
0.00636168
0.00636605
0.00637416
0.00638859
0.00641653
0.00647281
0.0065938
0.00685887
0.00745807
0.00879709
0.0118175
0.0184224
0.0327426
0.0624276
0.122127
0.234716
0.430085
0.730339
0.952125
0.991431
0.937676
0.752421
0.468661
0.201582
0.101322
0.0731419
0.0703254
0.0781676
0.10891
0.169096
0.268208
0.409859
0.605247
0.846158
1.11683
1.38129
1.61045
1.80224
1.93911
1.98955
1.99927
1.98659
1.92814
1.83581
1.70389
1.5221
1.2216
0.805838
0.354123
0.177923
0.115588
0.0960983
0.0948998
0.103107
0.129872
0.172375
0.224273
0.281933
0.340326
0.40377
0.46601
0.533531
0.595136
0.657376
0.697263
0.712589
0.716545
0.717871
0.717015
0.715134
0.712191
0.705116
0.697532
0.68435
0.672728
0.655834
0.643093
0.62536
0.613251
0.596817
0.586331
0.572009
0.563445
0.551178
0.544372
0.533693
0.52795
0.51937
0.513647
0.506357
0.500185
0.494052
0.48761
0.482618
0.476163
0.472139
0.466076
0.463216
0.457788
0.455378
0.450713
0.448651
0.444506
0.442524
0.439197
0.43725
0.434431
0.432527
0.430156
0.428401
0.426424
0.424873
0.423411
0.422164
0.421186
0.420217
0.419745
0.419148
0.418998
0.418862
0.418859
0.419469
0.419834
0.421122
0.421988
0.423945
0.425454
0.428027
0.430243
0.433517
0.436286
0.440217
0.443632
0.448191
0.452356
0.457662
0.462593
0.468688
0.474407
0.481242
0.487571
0.494997
0.501793
0.509608
0.516709
0.524685
0.531894
0.539502
0.546182
0.552855
0.558367
0.56336
0.566726
0.5688
0.569627
0.00637486
0.00636914
0.00636524
0.00636274
0.00636081
0.00635986
0.00635884
0.00635834
0.00635797
0.00635778
0.00635765
0.00635752
0.0063574
0.00635729
0.00635729
0.00635729
0.00635712
0.00635713
0.00635712
0.00635694
0.00635694
0.00635691
0.00635674
0.00635674
0.00635669
0.00635654
0.00635654
0.00635653
0.0063564
0.00635642
0.00635642
0.00635627
0.00635627
0.00635622
0.00635621
0.00635663
0.00635768
0.00635962
0.00636274
0.0063672
0.00637355
0.00638312
0.00639856
0.00642617
0.00648124
0.00659675
0.00685282
0.00742248
0.00872009
0.0116081
0.0180512
0.0318815
0.060994
0.119102
0.228116
0.418307
0.704542
0.927332
0.967317
0.934993
0.794382
0.559609
0.305528
0.17149
0.137786
0.134225
0.150156
0.191372
0.265386
0.371353
0.512618
0.681862
0.876561
1.08995
1.32433
1.57163
1.82156
1.99772
2.05026
2.0577
2.03983
1.98197
1.88462
1.77481
1.67068
1.58404
1.45326
1.21318
0.796982
0.358681
0.197872
0.14282
0.129437
0.128345
0.141368
0.175694
0.228018
0.289473
0.351259
0.413608
0.472245
0.532507
0.58725
0.626544
0.639384
0.643366
0.643713
0.643161
0.641323
0.636728
0.630997
0.622065
0.61263
0.600327
0.588957
0.575437
0.563991
0.551365
0.541348
0.530637
0.522447
0.513515
0.506813
0.498998
0.493111
0.486597
0.481124
0.475421
0.470055
0.464911
0.459404
0.454843
0.449835
0.446017
0.441589
0.43864
0.434694
0.432623
0.429326
0.427767
0.424812
0.423386
0.420995
0.419715
0.417728
0.416512
0.414798
0.413892
0.412595
0.411883
0.411131
0.410718
0.41051
0.410407
0.410482
0.410893
0.411409
0.412027
0.41295
0.414018
0.415209
0.416896
0.418326
0.420517
0.422528
0.42531
0.428034
0.431658
0.435114
0.439609
0.443881
0.449266
0.454306
0.460606
0.466534
0.473621
0.480509
0.488257
0.495852
0.50416
0.512268
0.521002
0.529346
0.538113
0.546415
0.554745
0.562285
0.569442
0.57536
0.580486
0.583937
0.586022
0.586811
0.00637532
0.00637056
0.00636554
0.00636358
0.00636165
0.00636088
0.00636018
0.00635988
0.00635972
0.00635957
0.00635952
0.00635935
0.00635926
0.00635926
0.00635921
0.00635906
0.00635907
0.00635905
0.00635893
0.00635894
0.00635895
0.00635881
0.00635887
0.00635886
0.00635875
0.00635876
0.00635875
0.00635859
0.00635864
0.00635864
0.00635853
0.00635853
0.00635854
0.0063584
0.00635843
0.0063584
0.00635839
0.00635869
0.0063596
0.00636155
0.00636513
0.0063711
0.00638098
0.00639753
0.00642722
0.0064831
0.00659731
0.00683815
0.00737321
0.00855642
0.0112201
0.0170495
0.0296993
0.0559889
0.108126
0.206596
0.374131
0.633795
0.883376
0.956222
0.95608
0.887693
0.739284
0.539616
0.363066
0.283772
0.271801
0.28263
0.3286
0.409646
0.536226
0.701018
0.903657
1.13933
1.39123
1.65175
1.88635
2.04278
2.08389
2.0855
2.05264
1.97682
1.86801
1.75094
1.63853
1.53533
1.48442
1.47153
1.46615
1.42805
1.23378
0.822553
0.36175
0.20201
0.161235
0.15188
0.154721
0.174476
0.217121
0.276599
0.343358
0.411421
0.475098
0.534886
0.581658
0.601456
0.607478
0.609045
0.609331
0.608804
0.6069
0.602205
0.595096
0.585507
0.574522
0.56253
0.55059
0.539083
0.528439
0.518655
0.509727
0.501683
0.494417
0.487898
0.481818
0.476101
0.470324
0.464812
0.459351
0.454207
0.449039
0.444055
0.439377
0.434913
0.431096
0.427673
0.42499
0.422358
0.420045
0.417809
0.416069
0.414229
0.412533
0.410749
0.409386
0.407836
0.40658
0.405332
0.404586
0.403802
0.403436
0.403152
0.403071
0.403087
0.403448
0.403916
0.404415
0.405394
0.406347
0.40767
0.409201
0.411181
0.413266
0.416035
0.418755
0.422124
0.425649
0.429516
0.433779
0.438342
0.443431
0.448777
0.45485
0.461109
0.468167
0.475397
0.483499
0.49158
0.500419
0.509219
0.518537
0.527885
0.537444
0.546843
0.556181
0.565142
0.573459
0.581091
0.587367
0.592702
0.596115
0.598295
0.599051
0.00637797
0.00636914
0.00636496
0.00636212
0.00635992
0.00635846
0.00635759
0.00635699
0.0063567
0.00635644
0.00635633
0.00635616
0.00635611
0.00635608
0.00635599
0.00635605
0.00635673
0.0063585
0.00636086
0.00636165
0.00636175
0.00636169
0.0063617
0.00636165
0.00636161
0.00636161
0.00636158
0.00636159
0.00636158
0.00636153
0.00636152
0.00636147
0.00636146
0.00636144
0.00636151
0.00636199
0.00636296
0.00636413
0.00636537
0.00636693
0.00636896
0.0063726
0.00637868
0.006389
0.00640573
0.00643417
0.00648601
0.00658582
0.00679304
0.00723325
0.00821162
0.0103623
0.0151296
0.0253532
0.0465224
0.088951
0.16714
0.303769
0.513027
0.773983
0.930449
0.979261
0.980906
0.942651
0.864618
0.758416
0.701253
0.692232
0.721908
0.791629
0.921345
1.0869
1.27683
1.48073
1.6574
1.82326
1.96065
2.03351
2.04186
2.0161
1.94407
1.82423
1.67646
1.50436
1.34244
1.18836
1.06323
0.986995
0.972737
0.983884
0.993544
0.99223
0.956407
0.841701
0.612977
0.358798
0.271854
0.244618
0.239678
0.239359
0.25276
0.286722
0.343318
0.411502
0.48205
0.543921
0.585153
0.601475
0.607465
0.608915
0.608958
0.607544
0.60358
0.597071
0.587814
0.577358
0.564853
0.552976
0.540368
0.529711
0.518769
0.510151
0.500955
0.494187
0.486857
0.481308
0.474947
0.469089
0.46295
0.456938
0.451482
0.445637
0.441226
0.435973
0.432559
0.428365
0.426366
0.423105
0.421554
0.418843
0.417582
0.415258
0.414051
0.412002
0.410864
0.409144
0.40818
0.407006
0.406402
0.40582
0.405532
0.405455
0.405423
0.405822
0.406177
0.406741
0.407423
0.40871
0.409797
0.411503
0.413482
0.415647
0.418458
0.421266
0.424688
0.428087
0.432354
0.43618
0.441242
0.445827
0.45175
0.457288
0.464332
0.470959
0.479174
0.48694
0.49639
0.505198
0.515464
0.52526
0.536003
0.546439
0.557466
0.568106
0.578825
0.589037
0.598584
0.607304
0.61443
0.620453
0.624107
0.626496
0.627273
0.00638107
0.00637121
0.00636711
0.00636385
0.00636218
0.00636133
0.00636068
0.00636048
0.00636037
0.00636034
0.00636031
0.00636026
0.00636021
0.00636021
0.00636012
0.00636001
0.00636001
0.00635996
0.00635982
0.00635983
0.00635967
0.00635962
0.00635962
0.00635961
0.00635953
0.00635953
0.00635951
0.00635945
0.00635947
0.00635995
0.00636053
0.0063608
0.00636097
0.00636138
0.00636205
0.00636235
0.00636241
0.0063624
0.0063624
0.00636268
0.00636362
0.00636557
0.00636922
0.00637536
0.00638581
0.00640255
0.00643088
0.00647903
0.00656807
0.00673924
0.00709433
0.00784302
0.00948022
0.0130089
0.0204798
0.0360262
0.0661696
0.122835
0.218991
0.372037
0.585506
0.80517
0.9364
1.00674
1.04507
1.07505
1.09541
1.13192
1.17931
1.24922
1.33334
1.43307
1.5285
1.63199
1.71699
1.75706
1.75788
1.72634
1.66056
1.55486
1.43607
1.28714
1.14905
0.984366
0.85524
0.715358
0.619799
0.538881
0.520323
0.523992
0.545833
0.604971
0.686638
0.759657
0.77706
0.779965
0.756408
0.682329
0.568913
0.427758
0.36671
0.349369
0.347922
0.352294
0.376469
0.422906
0.488852
0.55516
0.606461
0.626608
0.63417
0.63664
0.636679
0.635687
0.630836
0.624152
0.612968
0.601787
0.587644
0.57585
0.561609
0.55079
0.53695
0.527497
0.516055
0.508767
0.501131
0.494127
0.487191
0.478446
0.472163
0.46372
0.45982
0.452655
0.449516
0.444098
0.441824
0.437723
0.436043
0.432517
0.431112
0.428063
0.426375
0.423796
0.421963
0.42013
0.418498
0.417323
0.416012
0.4155
0.414618
0.414355
0.413902
0.413851
0.413744
0.414047
0.414383
0.415594
0.416536
0.4181
0.420117
0.422083
0.424796
0.427318
0.430738
0.433616
0.437982
0.441438
0.446774
0.451241
0.457611
0.463075
0.470759
0.477371
0.486308
0.494166
0.504539
0.51364
0.524912
0.535343
0.547363
0.558646
0.571063
0.582809
0.59504
0.60653
0.617525
0.627564
0.635714
0.642832
0.646737
0.649496
0.650314
0.00637801
0.00636956
0.00636611
0.00636387
0.00636239
0.0063614
0.00636019
0.00635971
0.00635911
0.0063589
0.00635878
0.00635872
0.00635862
0.00635837
0.00635831
0.00635831
0.00635821
0.00635811
0.00635811
0.00635808
0.00635789
0.00635789
0.00635786
0.00635772
0.00635772
0.00635769
0.00635752
0.00635755
0.00635752
0.00635743
0.00635743
0.00635742
0.00635735
0.00635734
0.00635729
0.00635745
0.00635804
0.00635923
0.00636113
0.00636339
0.00636616
0.00636922
0.00637318
0.00637864
0.00638695
0.00639954
0.00641865
0.00644766
0.00649379
0.0065701
0.00670789
0.00696891
0.0075002
0.00860123
0.0109067
0.0157711
0.0254745
0.0445944
0.0790956
0.138937
0.23127
0.366204
0.541771
0.735006
0.878077
0.988304
1.05378
1.12384
1.1767
1.24524
1.30059
1.36577
1.4022
1.40806
1.39168
1.33709
1.25339
1.12737
0.993171
0.831945
0.699222
0.543105
0.439213
0.324745
0.274086
0.209908
0.181599
0.151839
0.146433
0.148913
0.159381
0.18452
0.222106
0.285191
0.362768
0.45357
0.528384
0.606752
0.651259
0.693392
0.700835
0.693087
0.666842
0.620555
0.585188
0.573462
0.574335
0.579875
0.599949
0.632526
0.672667
0.704763
0.715292
0.719722
0.719845
0.720351
0.71736
0.713099
0.702226
0.691476
0.674849
0.662354
0.643587
0.630338
0.61127
0.596637
0.583796
0.572062
0.564712
0.550852
0.544153
0.53114
0.526195
0.516088
0.512352
0.504845
0.502184
0.495987
0.494017
0.487621
0.485604
0.479118
0.475217
0.469777
0.464607
0.461012
0.455815
0.453863
0.449213
0.447706
0.444052
0.442895
0.440054
0.439234
0.437419
0.437083
0.436534
0.436807
0.437576
0.438417
0.440298
0.441368
0.444218
0.445473
0.449369
0.451124
0.456115
0.458666
0.464883
0.468367
0.475698
0.480171
0.488663
0.494345
0.504178
0.511202
0.522767
0.531663
0.544341
0.555204
0.568941
0.581333
0.595589
0.608874
0.622963
0.636508
0.649235
0.661698
0.671088
0.680343
0.684749
0.688219
0.6892
0.00639
0.00637485
0.00636933
0.00636456
0.00636189
0.00636026
0.00635882
0.00635823
0.00635771
0.00635753
0.00635738
0.00635738
0.00635735
0.00635723
0.00635725
0.00635721
0.00635705
0.00635704
0.00635693
0.0063568
0.00635678
0.00635663
0.00635655
0.00635649
0.00635634
0.00635631
0.0063562
0.00635609
0.00635606
0.00635591
0.00635581
0.00635578
0.00635572
0.00635568
0.00635567
0.00635566
0.00635565
0.00635564
0.00635562
0.00635575
0.00635636
0.00635753
0.00635969
0.00636293
0.00636859
0.00637705
0.00639018
0.00640871
0.00643757
0.00648027
0.0065493
0.00666093
0.00685846
0.0072186
0.0079114
0.00930124
0.0120294
0.0174695
0.0275812
0.045992
0.0761422
0.123887
0.189653
0.278857
0.379643
0.50454
0.608768
0.713892
0.77978
0.8365
0.845931
0.839721
0.812316
0.755486
0.687881
0.595531
0.512756
0.414862
0.346848
0.264166
0.21414
0.14957
0.121713
0.0849831
0.0705414
0.0516017
0.0439546
0.0363996
0.0349193
0.0353295
0.0375856
0.0435377
0.052754
0.0680445
0.0881351
0.117927
0.151985
0.205065
0.268973
0.353931
0.433846
0.541112
0.631706
0.737992
0.824402
0.929093
0.96256
0.963583
0.947314
0.926732
0.920709
0.92349
0.922567
0.925605
0.924422
0.92867
0.926928
0.927731
0.921518
0.918926
0.909457
0.907003
0.893567
0.887035
0.8661
0.844185
0.822469
0.799285
0.790649
0.774628
0.770086
0.756273
0.753419
0.744374
0.74371
0.739959
0.741115
0.738205
0.739623
0.731862
0.731326
0.7187
0.704855
0.691606
0.66838
0.65577
0.63127
0.622008
0.599149
0.591249
0.57208
0.565581
0.54971
0.54456
0.531921
0.52811
0.518485
0.515907
0.509937
0.506017
0.503451
0.499689
0.499018
0.496599
0.496714
0.496068
0.497473
0.498012
0.501671
0.502892
0.508242
0.51041
0.51752
0.520747
0.529796
0.534453
0.545693
0.552886
0.565323
0.575558
0.589144
0.601949
0.616312
0.631103
0.64542
0.661539
0.674976
0.690817
0.70133
0.713266
0.718832
0.723038
0.724248
0.00640384
0.00637863
0.00637105
0.00636554
0.00636173
0.00636011
0.00635828
0.00635768
0.00635696
0.00635676
0.00635641
0.00635642
0.00635624
0.00635621
0.00635615
0.00635666
0.00635715
0.00635747
0.00635754
0.00635754
0.00635753
0.00635747
0.00635759
0.00635758
0.00635761
0.00635757
0.00635749
0.00635737
0.00635738
0.00635728
0.0063574
0.00635739
0.00635738
0.00635732
0.00635737
0.00635732
0.00635738
0.00635782
0.00635892
0.00636087
0.0063632
0.00636588
0.00636852
0.0063718
0.00637601
0.00638272
0.00639265
0.00640823
0.00643071
0.00646377
0.00651109
0.00658015
0.00668247
0.00683947
0.00708982
0.00752109
0.00827622
0.00968674
0.0122344
0.0169044
0.024744
0.0377118
0.0563918
0.083393
0.115111
0.155178
0.191963
0.232484
0.260526
0.282099
0.283171
0.276508
0.261672
0.234632
0.207102
0.170931
0.143636
0.111098
0.0915931
0.0667656
0.0551569
0.0398686
0.0337565
0.025326
0.0220557
0.0176717
0.0159317
0.0139481
0.0134159
0.0133763
0.0136104
0.0145418
0.0161962
0.0191542
0.0232882
0.0297447
0.0375335
0.0491709
0.0626556
0.0831662
0.106494
0.145215