/*--------------------------------*- C++ -*----------------------------------*\
| =========                 |                                                 |
| \\      /  F ield         | OpenFOAM: The Open Source CFD Toolbox           |
|  \\    /   O peration     | Version:  4.1                                   |
|   \\  /    A nd           | Web:      www.OpenFOAM.org                      |
|    \\/     M anipulation  |                                                 |
\*---------------------------------------------------------------------------*/
FoamFile
{
    version     2.0;
    format      ascii;
    class       volScalarField;
    location    "6.5";
    object      p;
}
// * * * * * * * * * * * * * * * * * * * * * * * * * * * * * * * * * * * * * //

dimensions      [0 2 -2 0 0 0 0];

internalField   nonuniform List<scalar> 
204246
(
-13.1076
-23.6907
-24.4564
-24.806
-25.162
-25.3642
-25.562
-25.6758
-25.776
-25.8271
-25.8556
-25.822
-25.7592
-25.6538
-25.6457
-25.7382
-26.0659
-26.198
-25.9189
-25.9162
-25.8798
-25.8682
-25.8258
-25.7983
-25.7607
-25.7511
-25.7313
-25.7242
-25.6688
-25.617
-25.5144
-25.4284
-25.3215
-25.3034
-25.3545
-25.5605
-25.6136
-25.4899
-25.434
-25.3771
-25.3491
-25.3267
-25.337
-25.3439
-25.3848
-25.4328
-25.538
-25.6247
-25.7143
-25.7204
-25.612
-25.3392
-24.9931
-24.6238
-24.5722
-25.7707
-29.9244
-37.3485
-46.6051
-54.6135
-58.4038
-63.0169
-65.8764
-68.4272
-69.166
-70.7451
-70.9076
-71.0432
-70.8749
-70.8907
-70.5741
-69.312
-67.7464
-65.9964
-64.3061
-62.5987
-61.0744
-59.6704
-58.4646
-57.1901
-56.3356
-55.3925
-54.8626
-54.4295
-54.1599
-53.9808
-54.4883
-55.0598
-54.747
-55.009
-55.2739
-55.6114
-55.9505
-56.3553
-56.7116
-57.1813
-57.6465
-58.1502
-58.3446
-59.2743
-59.3919
-60.1074
-60.1414
-60.7047
-60.8855
-62.2222
-62.9371
-63.1367
-63.5687
-63.552
-64.3258
-64.371
-64.674
-64.9029
-65.2248
-65.464
-65.7728
-65.9776
-66.1783
-66.2651
-66.3745
-66.3898
-67.6167
-68.2106
-68.1214
-68.6136
-68.3978
-69.1822
-69.3626
-69.5492
-69.5311
-70.288
-70.1612
-70.8982
-70.7245
-71.4349
-71.1584
-71.7226
-71.5447
-72.8867
-73.5708
-73.559
-74.1352
-73.9277
-74.6696
-74.5114
-75.3022
-75.0889
-75.8532
-75.7381
-76.5906
-76.8363
-76.9485
-76.64
-77.119
-76.5858
-77.8969
-78.2795
-77.7732
-77.9946
-77.443
-76.9701
-76.2982
-75.5743
-74.5396
-73.3415
-71.728
-69.8707
-67.5446
-64.9549
-61.9438
-58.7395
-54.1375
-49.5128
-44.1292
-38.2647
-31.447
-23.5252
-14.9257
-5.11875
5.87299
18.518
32.8741
49.4189
68.1195
89.2445
112.672
138.97
169.087
208.604
268.629
364.32
493.015
-19.4822
-21.1177
-22.7997
-23.9859
-24.7657
-25.1951
-25.4738
-25.6272
-25.7547
-25.8188
-25.8847
-25.8671
-25.8433
-25.7424
-25.7137
-25.7545
-25.9373
-26.0314
-25.9957
-25.9499
-25.9122
-25.8932
-25.8568
-25.8313
-25.7945
-25.7755
-25.7528
-25.7406
-25.7016
-25.6672
-25.592
-25.5178
-25.4238
-25.3857
-25.4151
-25.4762
-25.5076
-25.4934
-25.455
-25.4115
-25.3729
-25.3457
-25.3384
-25.3341
-25.3436
-25.3835
-25.4637
-25.571
-25.7335
-25.9155
-26.0128
-25.9387
-25.6647
-25.2471
-25.0398
-25.6373
-27.9841
-34.1795
-43.9121
-51.9553
-56.9868
-61.4148
-64.735
-67.4805
-69.1071
-70.3785
-71.121
-71.62
-71.788
-71.7772
-71.4339
-70.5171
-69.1738
-67.5367
-65.7596
-63.9894
-62.3082
-60.7415
-59.3109
-57.9824
-56.8261
-55.9089
-55.2348
-54.7329
-54.3333
-54.1383
-54.2071
-54.3599
-54.5093
-54.6777
-54.9577
-55.24
-55.5634
-55.9363
-56.3363
-56.7805
-57.269
-57.7451
-58.1249
-58.648
-59.1263
-59.5992
-59.979
-60.3868
-60.9008
-61.5261
-62.1495
-62.6619
-63.0947
-63.4466
-63.8122
-64.1744
-64.4723
-64.7507
-65.0334
-65.3188
-65.6054
-65.8437
-66.031
-66.1735
-66.3398
-66.6058
-67.0573
-67.5146
-67.8646
-68.1854
-68.4706
-68.7912
-69.0872
-69.3395
-69.607
-69.9169
-70.2169
-70.5463
-70.8428
-71.1156
-71.3127
-71.5412
-71.8729
-72.3873
-72.928
-73.362
-73.7414
-74.0681
-74.3877
-74.7222
-75.0408
-75.3666
-75.6813
-76.0729
-76.4713
-76.8885
-77.1059
-77.3478
-77.4445
-77.7539
-78.0189
-78.3102
-78.4819
-78.5416
-78.5537
-78.2168
-77.9808
-77.3892
-76.7749
-75.8417
-74.6875
-73.2032
-71.4286
-69.3452
-66.8731
-64.015
-60.5417
-56.6045
-52.0246
-46.9176
-40.938
-34.1024
-26.5218
-17.9875
-8.54907
2.1296
14.1101
27.8483
43.392
61.0154
80.3304
101.105
122.958
147.984
183.901
249.332
346.06
-25.7411
-24.4652
-24.2219
-24.4801
-24.8432
-25.1693
-25.4291
-25.6092
-25.7347
-25.8194
-25.8738
-25.8854
-25.8656
-25.8285
-25.8067
-25.8266
-25.8857
-25.9317
-25.9424
-25.9346
-25.9158
-25.8927
-25.8595
-25.8308
-25.7934
-25.7672
-25.7459
-25.7268
-25.6993
-25.6618
-25.6088
-25.5447
-25.4874
-25.464
-25.4603
-25.4588
-25.4529
-25.4398
-25.421
-25.391
-25.3577
-25.3279
-25.3093
-25.3026
-25.2951
-25.2945
-25.3215
-25.4049
-25.5602
-25.7711
-25.9866
-26.1646
-26.2681
-26.3793
-27.0229
-29.4272
-32.5104
-38.0024
-46.6636
-53.1571
-58.1928
-62.3406
-65.7466
-67.8316
-69.2104
-70.4657
-71.5525
-72.1206
-72.2664
-72.2428
-71.9127
-71.1491
-69.9256
-68.3602
-66.5614
-64.7192
-62.9751
-61.3131
-59.7761
-58.4066
-57.19
-56.2067
-55.4645
-54.8945
-54.4546
-54.225
-54.1838
-54.2214
-54.3249
-54.5541
-54.7968
-55.0685
-55.4189
-55.7598
-56.1633
-56.5719
-57.0621
-57.5345
-58.0085
-58.4592
-58.9529
-59.4255
-59.8725
-60.3509
-60.863
-61.391
-61.9032
-62.4042
-62.8554
-63.2755
-63.6529
-64.0092
-64.3206
-64.623
-64.903
-65.1939
-65.4682
-65.7162
-65.93
-66.1361
-66.3532
-66.6376
-66.9352
-67.2486
-67.5855
-67.9112
-68.2327
-68.5372
-68.835
-69.1241
-69.4091
-69.6968
-70.001
-70.3093
-70.6115
-70.8909
-71.1521
-71.4247
-71.7506
-72.1334
-72.5313
-72.9211
-73.3022
-73.6542
-73.9944
-74.3198
-74.6475
-74.9654
-75.3019
-75.6475
-76.0168
-76.3315
-76.6135
-76.8305
-77.0469
-77.2666
-77.5711
-77.7825
-77.8556
-77.8566
-77.7036
-77.4819
-77.1004
-76.6031
-75.9033
-74.9809
-73.7865
-72.2716
-70.503
-68.3611
-65.9136
-63.0026
-59.7219
-55.9009
-51.5327
-46.4629
-40.6602
-34.1316
-26.709
-18.3855
-9.0466
1.34953
13.0363
26.2044
41.2138
58.1586
76.9756
97.0275
117.988
140.436
169.099
212.241
269.435
-28.3933
-26.8763
-25.9768
-25.5854
-25.4648
-25.504
-25.5979
-25.7092
-25.7967
-25.8727
-25.9124
-25.9217
-25.9111
-25.8971
-25.8912
-25.9028
-25.9218
-25.9316
-25.9347
-25.9328
-25.9242
-25.9084
-25.8883
-25.8674
-25.838
-25.8053
-25.7776
-25.7501
-25.7196
-25.6816
-25.634
-25.5817
-25.5444
-25.5285
-25.5221
-25.4958
-25.4728
-25.4561
-25.4327
-25.403
-25.3728
-25.3438
-25.3208
-25.3014
-25.2699
-25.2322
-25.2202
-25.2535
-25.3492
-25.4956
-25.6842
-25.9121
-26.1803
-26.5403
-27.5984
-30.9912
-35.3195
-41.5733
-49.7395
-55.8631
-60.0651
-62.9985
-65.6391
-67.6867
-69.3831
-70.5715
-71.6314
-72.3223
-72.6704
-72.7819
-72.54
-71.9052
-70.7961
-69.2989
-67.5082
-65.5417
-63.6049
-61.7558
-60.0652
-58.5739
-57.2614
-56.2163
-55.3978
-54.7646
-54.2757
-54.0498
-53.9136
-53.8992
-53.9972
-54.1446
-54.3982
-54.7033
-55.0156
-55.4355
-55.8382
-56.2799
-56.7703
-57.2445
-57.7296
-58.2015
-58.704
-59.1879
-59.6778
-60.1794
-60.6989
-61.2036
-61.7053
-62.1906
-62.6472
-63.0856
-63.489
-63.8691
-64.1915
-64.5156
-64.7905
-65.0896
-65.3439
-65.6036
-65.8176
-66.0585
-66.2811
-66.5872
-66.8348
-67.132
-67.4362
-67.7404
-68.0893
-68.3686
-68.7034
-68.9758
-69.3056
-69.5747
-69.9094
-70.1886
-70.5248
-70.784
-71.0995
-71.375
-71.7521
-72.0687
-72.4291
-72.8035
-73.1573
-73.5568
-73.8868
-74.2691
-74.5823
-74.9648
-75.2813
-75.7009
-76.0344
-76.4491
-76.722
-77.0843
-77.3119
-77.7369
-77.9379
-78.2314
-78.4947
-78.6433
-78.7208
-78.6534
-78.53
-78.2664
-77.911
-77.4072
-76.6812
-75.7192
-74.364
-72.6692
-70.5591
-68.0661
-65.1295
-61.7487
-57.8377
-53.3569
-48.1639
-42.2466
-35.5585
-28.0068
-19.5661
-10.1234
0.389426
12.1487
25.2456
39.7893
55.753
73.1687
92.2182
114.005
141.258
175.99
214.382
-29.9752
-28.4842
-27.3896
-26.6656
-26.2276
-26.0035
-25.9033
-25.8805
-25.8928
-25.919
-25.9341
-25.9373
-25.9331
-25.92
-25.9134
-25.9166
-25.926
-25.9282
-25.9233
-25.9167
-25.9027
-25.8876
-25.8677
-25.8419
-25.8163
-25.7923
-25.7656
-25.7403
-25.7112
-25.6752
-25.6293
-25.5844
-25.5469
-25.5239
-25.5027
-25.4861
-25.4626
-25.4317
-25.3973
-25.3673
-25.3339
-25.3055
-25.2767
-25.242
-25.1926
-25.1406
-25.1039
-25.104
-25.1444
-25.2328
-25.3751
-25.5935
-25.9082
-26.3928
-27.5838
-30.9329
-35.478
-41.8619
-49.9899
-56.9766
-61.2353
-64.4563
-66.3074
-67.9543
-69.4293
-70.795
-71.9103
-72.6996
-73.2515
-73.5174
-73.5469
-73.0631
-72.0917
-70.6216
-68.7541
-66.6796
-64.5624
-62.5252
-60.6886
-59.0712
-57.6484
-56.4655
-55.5409
-54.8477
-54.3499
-54.0219
-53.8311
-53.7917
-53.8556
-54.1146
-54.2754
-54.5192
-54.8593
-55.2222
-55.6173
-56.0536
-56.5327
-57.0047
-57.4917
-57.9703
-58.479
-58.9738
-59.488
-60.0032
-60.5306
-61.0299
-61.5271
-62.0073
-62.4657
-62.9131
-63.3296
-63.7306
-64.0631
-64.4088
-64.6859
-64.9912
-65.2382
-65.506
-65.7195
-65.9644
-66.1841
-66.465
-66.7058
-67.0035
-67.2934
-67.5739
-67.9193
-68.1989
-68.5412
-68.8157
-69.1559
-69.4285
-69.7711
-70.0479
-70.3891
-70.6516
-70.9759
-71.2527
-71.6166
-71.9217
-72.2769
-72.6261
-72.9731
-73.3585
-73.6866
-74.0623
-74.3915
-74.7563
-75.1005
-75.4769
-75.8377
-76.2007
-76.5322
-76.8397
-77.1354
-77.4123
-77.7152
-77.9752
-78.154
-78.2734
-78.3002
-78.2303
-78.0273
-77.6628
-77.1475
-76.4527
-75.6565
-74.66
-73.4924
-72.0318
-70.2712
-68.1288
-65.5888
-62.5846
-59.0886
-55.0312
-50.3509
-45.0325
-38.9591
-32.0574
-24.2377
-15.4368
-5.60884
5.23253
17.0312
29.6711
43.1254
57.4952
73.379
92.1288
115.486
143.493
171.451
-31.1291
-29.6739
-28.5096
-27.6391
-27.022
-26.6178
-26.3602
-26.2224
-26.1358
-26.0986
-26.0694
-26.0545
-26.0351
-26.0149
-25.9943
-25.9859
-25.9795
-25.9708
-25.9623
-25.9512
-25.9399
-25.9271
-25.9096
-25.8909
-25.8691
-25.8416
-25.8128
-25.7835
-25.7524
-25.7168
-25.679
-25.6364
-25.6065
-25.5766
-25.5445
-25.5224
-25.5028
-25.4808
-25.4497
-25.4094
-25.374
-25.342
-25.3099
-25.2609
-25.1964
-25.13
-25.0728
-25.029
-25.0105
-25.027
-25.0931
-25.2572
-25.5968
-26.1775
-27.3715
-30.4612
-35.4758
-41.6427
-49.4598
-56.937
-62.3143
-65.1626
-67.0765
-68.4342
-69.7468
-70.9609
-71.9835
-72.8481
-73.5131
-73.9648
-74.1375
-73.8724
-73.0945
-71.807
-70.0139
-67.8432
-65.5387
-63.2763
-61.2108
-59.4078
-57.8408
-56.5323
-55.4276
-54.6037
-54.0755
-53.7202
-53.4681
-53.3511
-53.365
-53.4436
-53.6937
-54.0591
-54.4418
-54.8334
-55.2863
-55.7432
-56.2576
-56.7563
-57.2691
-57.7626
-58.2785
-58.7835
-59.3067
-59.8287
-60.3619
-60.8631
-61.3576
-61.8375
-62.304
-62.761
-63.1821
-63.5941
-63.9407
-64.2977
-64.588
-64.8976
-65.1489
-65.4214
-65.6394
-65.8892
-66.103
-66.3668
-66.5982
-66.8824
-67.1619
-67.435
-67.7632
-68.0451
-68.3806
-68.6637
-69.0016
-69.2833
-69.6253
-69.9081
-70.2491
-70.5208
-70.8508
-71.1271
-71.4781
-71.7731
-72.1183
-72.4555
-72.7991
-73.1762
-73.5132
-73.8931
-74.2314
-74.6173
-74.9666
-75.3705
-75.7339
-76.1426
-76.491
-76.9043
-77.2451
-77.6782
-77.9428
-78.2664
-78.6353
-78.9072
-79.2074
-79.3193
-79.4286
-79.4808
-79.43
-79.2742
-78.8091
-78.0962
-77.091
-75.806
-74.1979
-72.2598
-69.9435
-67.2295
-64.0644
-60.4176
-56.1971
-51.3867
-45.9017
-39.6295
-32.4877
-24.3847
-15.3095
-5.28409
5.57152
17.1293
29.3327
42.2444
56.3474
72.8269
92.4874
115.185
136.71
-31.9105
-30.4982
-29.3264
-28.3937
-27.6792
-27.1563
-26.7825
-26.5215
-26.3428
-26.2311
-26.1557
-26.1065
-26.0697
-26.0391
-26.0166
-25.9957
-25.9845
-25.9733
-25.9576
-25.9428
-25.9252
-25.9071
-25.8848
-25.859
-25.8354
-25.8089
-25.785
-25.7617
-25.7324
-25.7025
-25.6662
-25.6325
-25.5951
-25.5679
-25.5449
-25.5169
-25.487
-25.4593
-25.4303
-25.3983
-25.3623
-25.3324
-25.2984
-25.2551
-25.2002
-25.1401
-25.076
-25.013
-24.9563
-24.9177
-24.9143
-24.9924
-25.2387
-25.7881
-26.8418
-29.1839
-34.4919
-40.3884
-47.9374
-55.5155
-61.5051
-64.6231
-66.8935
-68.3721
-69.5665
-70.7893
-71.8963
-72.867
-73.7055
-74.3929
-74.8419
-74.8354
-74.1964
-73.0932
-71.348
-69.1343
-66.6996
-64.2847
-62.0508
-60.089
-58.4065
-56.9629
-55.744
-54.8383
-54.273
-53.8437
-53.602
-53.4607
-53.4111
-53.4743
-53.8003
-54.0054
-54.33
-54.709
-55.1222
-55.5636
-56.0371
-56.5367
-57.0499
-57.5549
-58.0734
-58.5857
-59.1154
-59.645
-60.1853
-60.6933
-61.1881
-61.6691
-62.1438
-62.603
-63.029
-63.446
-63.8079
-64.1711
-64.4765
-64.7919
-65.0544
-65.3284
-65.5565
-65.8143
-66.0309
-66.2866
-66.5042
-66.7658
-67.0392
-67.313
-67.6232
-67.9119
-68.2356
-68.5274
-68.8565
-69.1505
-69.4822
-69.7769
-70.1065
-70.3952
-70.7139
-71.0034
-71.3276
-71.6242
-71.9497
-72.2771
-72.6149
-72.96
-73.2977
-73.6512
-73.9995
-74.3614
-74.7229
-75.0968
-75.468
-75.8401
-76.2046
-76.5664
-76.9279
-77.2816
-77.6385
-77.954
-78.2059
-78.4245
-78.5699
-78.6367
-78.5886
-78.4336
-78.2129
-77.9099
-77.596
-77.1497
-76.5468
-75.6975
-74.5681
-73.1026
-71.2737
-69.0415
-66.3804
-63.2556
-59.6146
-55.4496
-50.6674
-45.1796
-38.9005
-31.76
-23.7437
-14.8762
-5.23708
5.08394
16.0299
27.6796
40.4161
55.0294
71.8538
90.6294
107.859
-32.4325
-31.096
-29.9499
-29.0042
-28.2493
-27.6645
-27.2258
-26.9073
-26.6612
-26.4922
-26.3642
-26.278
-26.2081
-26.1645
-26.1238
-26.0901
-26.0629
-26.0362
-26.0144
-25.9941
-25.9782
-25.9608
-25.9421
-25.9229
-25.9017
-25.8786
-25.8497
-25.8149
-25.7845
-25.7514
-25.7184
-25.6811
-25.6547
-25.6218
-25.5859
-25.5594
-25.5359
-25.5102
-25.4794
-25.4408
-25.4065
-25.3717
-25.3328
-25.2818
-25.2261
-25.1644
-25.0984
-25.0302
-24.9696
-24.9196
-24.8916
-24.9136
-25.0616
-25.4878
-26.3583
-28.0316
-32.4051
-38.1087
-45.2689
-52.8575
-59.4679
-64.2797
-67.0382
-68.4344
-69.5796
-70.8158
-71.9953
-73.0719
-74.0673
-74.9224
-75.5648
-75.9183
-75.8376
-74.7749
-73.1201
-70.8384
-68.2023
-65.5334
-63.0505
-60.8645
-58.9978
-57.3692
-55.9601
-54.8936
-54.147
-53.6202
-53.3495
-53.222
-53.1858
-53.1521
-53.2485
-53.6203
-53.9747
-54.3685
-54.8185
-55.2821
-55.7628
-56.2809
-56.8125
-57.3333
-57.8685
-58.3937
-58.9334
-59.4649
-60.0025
-60.5115
-61.0111
-61.495
-61.9735
-62.4291
-62.8589
-63.2759
-63.6487
-64.0169
-64.336
-64.6569
-64.931
-65.2059
-65.4436
-65.6955
-65.9163
-66.1581
-66.3813
-66.6368
-66.897
-67.1696
-67.4619
-67.7553
-68.0647
-68.3678
-68.6852
-68.9953
-69.3167
-69.6288
-69.9486
-70.257
-70.5709
-70.8752
-71.1862
-71.488
-71.8038
-72.1317
-72.4652
-72.8106
-73.1552
-73.5151
-73.8711
-74.2486
-74.6225
-75.0197
-75.4093
-75.8199
-76.2198
-76.642
-77.047
-77.4654
-77.8484
-78.2494
-78.6564
-79.0446
-79.4296
-79.774
-80.077
-80.3005
-80.4086
-80.3865
-80.1696
-79.7824
-79.1968
-78.4119
-77.3815
-76.0833
-74.4642
-72.4971
-70.1364
-67.3575
-64.0983
-60.3486
-56.0287
-51.07
-45.4224
-39.045
-31.9279
-24.0786
-15.5482
-6.38659
3.39748
13.9009
25.4335
38.4589
53.106
69.0342
83.2898
-32.6312
-31.3817
-30.2967
-29.3738
-28.6182
-28.0029
-27.5214
-27.1463
-26.8543
-26.639
-26.4771
-26.3568
-26.2625
-26.1928
-26.1442
-26.1044
-26.0719
-26.0395
-26.0101
-25.99
-25.964
-25.9409
-25.9147
-25.8869
-25.8643
-25.8362
-25.8135
-25.7916
-25.7619
-25.7328
-25.6998
-25.6707
-25.6351
-25.609
-25.5861
-25.5554
-25.5255
-25.4991
-25.4711
-25.4426
-25.4118
-25.3843
-25.349
-25.3072
-25.259
-25.2065
-25.1441
-25.0794
-25.0172
-24.966
-24.9336
-24.9425
-25.0515
-25.3916
-26.1274
-27.5142
-30.4625
-35.4455
-41.8564
-49.2384
-56.2771
-62.1457
-65.6286
-67.8777
-69.56
-70.5464
-71.6127
-72.6351
-73.6804
-74.6902
-75.5319
-76.0892
-76.1677
-75.6216
-74.185
-72.07
-69.5072
-66.7435
-64.051
-61.7757
-59.7377
-57.8871
-56.3681
-55.1746
-54.2379
-53.7066
-53.484
-53.2765
-53.2132
-53.3095
-53.4201
-53.6261
-53.9427
-54.348
-54.764
-55.2067
-55.6584
-56.1443
-56.6758
-57.1784
-57.7011
-58.2191
-58.7495
-59.2777
-59.8054
-60.3173
-60.824
-61.3116
-61.7877
-62.2458
-62.6841
-63.101
-63.4818
-63.8499
-64.1809
-64.5009
-64.788
-65.0649
-65.318
-65.5609
-65.7918
-66.0241
-66.2548
-66.5024
-66.7501
-67.0174
-67.2988
-67.5887
-67.889
-68.1899
-68.5018
-68.813
-69.1322
-69.4468
-69.7649
-70.0755
-70.3855
-70.6874
-70.9881
-71.289
-71.5988
-71.9096
-72.2277
-72.5496
-72.8805
-73.2168
-73.5632
-73.9178
-74.2848
-74.6588
-75.0435
-75.431
-75.8263
-76.221
-76.6244
-77.0285
-77.4447
-77.8494
-78.2165
-78.5489
-78.8259
-79.0706
-79.2532
-79.4058
-79.5019
-79.5438
-79.6078
-79.583
-79.4414
-79.11
-78.5586
-77.7384
-76.6143
-75.1447
-73.2943
-71.025
-68.2786
-65.0385
-61.2504
-56.8636
-51.8516
-46.1924
-39.893
-32.9621
-25.4286
-17.3038
-8.57054
0.89042
11.3146
22.9762
35.9117
49.7295
61.8763
-32.546
-31.4366
-30.4644
-29.619
-28.9045
-28.3129
-27.833
-27.4451
-27.1329
-26.8895
-26.6941
-26.5458
-26.4241
-26.3377
-26.2686
-26.2116
-26.1612
-26.1273
-26.0933
-26.057
-26.0318
-26.0068
-25.9829
-25.9614
-25.9385
-25.9154
-25.8822
-25.8471
-25.8183
-25.786
-25.7545
-25.7192
-25.6934
-25.6609
-25.6254
-25.597
-25.5726
-25.5481
-25.5192
-25.4845
-25.4554
-25.4236
-25.388
-25.345
-25.3017
-25.2542
-25.2021
-25.1472
-25.0978
-25.0587
-25.0378
-25.0505
-25.1455
-25.4244
-26.0225
-27.1268
-29.2002
-33.1924
-38.5095
-44.9259
-51.8781
-58.3061
-63.3015
-66.7085
-68.8272
-70.5568
-71.8923
-72.933
-73.8935
-74.8048
-75.5881
-76.1375
-76.3171
-75.8258
-74.7088
-72.8719
-70.5012
-67.8559
-65.2268
-62.8406
-60.6661
-58.8229
-57.1845
-55.704
-54.612
-53.9478
-53.545
-53.3191
-53.2202
-53.2606
-53.3232
-53.4589
-53.7425
-54.1175
-54.5494
-54.9994
-55.4248
-55.9061
-56.4531
-56.9672
-57.4948
-58.0302
-58.5674
-59.0947
-59.6131
-60.1242
-60.6347
-61.1249
-61.6003
-62.0583
-62.496
-62.9119
-63.299
-63.6703
-64.0104
-64.3341
-64.6324
-64.918
-65.1817
-65.4321
-65.6682
-65.9017
-66.1315
-66.3711
-66.6155
-66.8749
-67.1495
-67.4357
-67.7356
-68.0356
-68.3496
-68.6605
-68.984
-69.3022
-69.6289
-69.9453
-70.2655
-70.5708
-70.878
-71.1725
-71.4783
-71.7915
-72.1088
-72.4354
-72.7665
-73.1122
-73.4597
-73.8277
-74.1991
-74.5922
-74.9878
-75.4045
-75.8207
-76.2559
-76.6868
-77.1347
-77.5738
-78.0322
-78.4944
-78.947
-79.3932
-79.8167
-80.2197
-80.5614
-80.8231
-80.9906
-81.0239
-80.9579
-80.7914
-80.5186
-80.1111
-79.5261
-78.7189
-77.6394
-76.2347
-74.4453
-72.2066
-69.4933
-66.2587
-62.4628
-58.0927
-53.1382
-47.614
-41.5306
-34.9024
-27.7182
-19.9369
-11.4351
-2.0286
8.45379
20.0121
32.2186
42.8244
-32.1814
-31.2235
-30.3729
-29.6164
-28.9534
-28.3924
-27.9319
-27.5455
-27.2277
-26.9752
-26.7692
-26.6057
-26.4734
-26.3719
-26.296
-26.2292
-26.1739
-26.1233
-26.0818
-26.0506
-26.0176
-25.987
-25.9564
-25.9266
-25.8999
-25.8728
-25.8494
-25.8235
-25.7955
-25.7662
-25.7337
-25.7056
-25.6724
-25.6465
-25.6232
-25.5932
-25.564
-25.5369
-25.5112
-25.4893
-25.4646
-25.4407
-25.41
-25.378
-25.3438
-25.3069
-25.2639
-25.2221
-25.185
-25.1609
-25.1535
-25.1794
-25.2792
-25.5261
-26.0239
-26.931
-28.5345
-31.3225
-35.4807
-40.8945
-47.0892
-53.3561
-58.988
-63.547
-66.8943
-69.2765
-70.9873
-72.2854
-73.3456
-74.2505
-75.0116
-75.5341
-75.6971
-75.4042
-74.4749
-72.9268
-70.8646
-68.4801
-65.9948
-63.6055
-61.4664
-59.5939
-57.8708
-56.4072
-55.2192
-54.2808
-53.6611
-53.3309
-53.1757
-53.2155
-53.2898
-53.4248
-53.7467
-54.0999
-54.5025
-54.9589
-55.3957
-55.8408
-56.3562
-56.8561
-57.3605
-57.8704
-58.4006
-58.9195
-59.4281
-59.9299
-60.4331
-60.9207
-61.3926
-61.8485
-62.2928
-62.7168
-63.108
-63.4807
-63.8249
-64.1529
-64.4595
-64.7519
-65.0236
-65.2813
-65.5222
-65.7569
-65.9878
-66.2224
-66.4613
-66.714
-66.9784
-67.2562
-67.5462
-67.8434
-68.1513
-68.4614
-68.7811
-69.1012
-69.4262
-69.7463
-70.0626
-70.3683
-70.6675
-70.9626
-71.2612
-71.5593
-71.8625
-72.1684
-72.482
-72.8044
-73.1391
-73.4861
-73.8479
-74.2223
-74.6108
-75.0111
-75.4246
-75.8479
-76.2829
-76.7263
-77.1806
-77.6389
-78.0898
-78.5401
-78.9785
-79.4072
-79.8151
-80.2156
-80.6004
-80.9757
-81.3033
-81.5383
-81.6587
-81.6489
-81.4974
-81.1901
-80.6948
-79.9722
-78.9709
-77.633
-75.8871
-73.698
-71.0181
-67.8158
-64.0837
-59.8203
-55.0416
-49.7578
-43.9732
-37.6649
-30.7716
-23.1666
-14.6953
-5.23829
5.18556
16.132
25.5714
-31.59
-30.7997
-30.0931
-29.4668
-28.9282
-28.4499
-28.0379
-27.6831
-27.3885
-27.1387
-26.9316
-26.7602
-26.6143
-26.5006
-26.4095
-26.3339
-26.2637
-26.2118
-26.1676
-26.1219
-26.0893
-26.0575
-26.0295
-26.0048
-25.979
-25.954
-25.9256
-25.891
-25.8562
-25.8225
-25.79
-25.7547
-25.7273
-25.6941
-25.6579
-25.6321
-25.6069
-25.5845
-25.5597
-25.5315
-25.5092
-25.4823
-25.4539
-25.4217
-25.3899
-25.3554
-25.3223
-25.2921
-25.2731
-25.2663
-25.2773
-25.3209
-25.4304
-25.6598
-26.083
-26.822
-28.0822
-30.1504
-33.2421
-37.4297
-42.5998
-48.2817
-53.8631
-58.8186
-62.9401
-66.2094
-68.6923
-70.5605
-71.9781
-73.0795
-73.925
-74.4877
-74.7475
-74.4878
-73.7694
-72.5316
-70.8225
-68.784
-66.5814
-64.3635
-62.2592
-60.3431
-58.6558
-57.2532
-55.9926
-55.0283
-54.3456
-53.8904
-53.6361
-53.4248
-53.4017
-53.4844
-53.7997
-54.1267
-54.4166
-54.8083
-55.2208
-55.6841
-56.1826
-56.6654
-57.1786
-57.6867
-58.2147
-58.725
-59.2252
-59.7289
-60.2342
-60.7246
-61.2021
-61.6582
-62.0975
-62.5185
-62.9136
-63.2922
-63.6422
-63.9796
-64.2942
-64.5957
-64.8767
-65.1431
-65.3896
-65.6286
-65.8578
-66.0894
-66.3273
-66.5761
-66.8356
-67.1068
-67.3928
-67.6883
-67.9973
-68.307
-68.6291
-68.9519
-69.284
-69.6109
-69.9377
-70.2492
-70.5556
-70.8469
-71.1423
-71.4411
-71.7411
-72.0475
-72.3572
-72.6801
-73.0098
-73.3594
-73.7178
-74.0981
-74.4879
-74.8996
-75.3194
-75.7598
-76.2074
-76.6747
-77.1469
-77.6393
-78.1388
-78.6373
-79.1302
-79.6061
-80.0675
-80.512
-80.9464
-81.3515
-81.7336
-82.0795
-82.3687
-82.5721
-82.6699
-82.6415
-82.4605
-82.0896
-81.4814
-80.5792
-79.3141
-77.6407
-75.5105
-72.8942
-69.7887
-66.1956
-62.1333
-57.6115
-52.6297
-47.157
-41.1202
-34.378
-26.7815
-18.2325
-8.76429
1.17423
9.71545
-30.7456
-30.1422
-29.6009
-29.1052
-28.6752
-28.2877
-27.9328
-27.6257
-27.3567
-27.1291
-26.9343
-26.7721
-26.6332
-26.5193
-26.4261
-26.3427
-26.2742
-26.2144
-26.1641
-26.1218
-26.0797
-26.0426
-26.0068
-25.974
-25.946
-25.9138
-25.8904
-25.8655
-25.8376
-25.8055
-25.7715
-25.7421
-25.7106
-25.6845
-25.65
-25.6267
-25.5989
-25.5691
-25.5447
-25.5296
-25.5109
-25.4917
-25.4669
-25.4435
-25.4235
-25.4073
-25.3871
-25.3689
-25.3573
-25.3622
-25.3865
-25.4445
-25.5645
-25.7871
-26.1639
-26.7823
-27.7895
-29.3786
-31.7342
-34.9478
-39.0173
-43.7688
-48.8409
-53.7857
-58.226
-61.9955
-65.0801
-67.5196
-69.403
-70.8414
-71.9212
-72.6449
-73.0292
-73.065
-72.5921
-71.6752
-70.3407
-68.6812
-66.817
-64.8699
-62.9511
-61.1371
-59.4736
-58.0137
-56.7349
-55.7283
-54.8967
-54.2687
-53.8533
-53.7035
-53.6311
-53.6466
-53.7776
-54.0571
-54.4892
-54.9415
-55.2883
-55.6198
-56.0399
-56.5009
-57.0085
-57.5254
-58.057
-58.5492
-59.0535
-59.5514
-60.047
-60.5246
-60.9846
-61.4375
-61.8817
-62.31
-62.7128
-63.0967
-63.4519
-63.7953
-64.1141
-64.4214
-64.7091
-64.9833
-65.2378
-65.4804
-65.7113
-65.9418
-66.1751
-66.4171
-66.6687
-66.9327
-67.2093
-67.4985
-67.8003
-68.1079
-68.4269
-68.7505
-69.0828
-69.4144
-69.7433
-70.0592
-70.3633
-70.6554
-70.9458
-71.2341
-71.5239
-71.8147
-72.1094
-72.4126
-72.7285
-73.0615
-73.4108
-73.7788
-74.1639
-74.5678
-74.9865
-75.4217
-75.8715
-76.3395
-76.8257
-77.3348
-77.8556
-78.3887
-78.9268
-79.466
-80
-80.5297
-81.0516
-81.5587
-82.0466
-82.5091
-82.9375
-83.3179
-83.6322
-83.8594
-83.9748
-83.9436
-83.7206
-83.2483
-82.4593
-81.2987
-79.715
-77.6766
-75.1814
-72.2333
-68.8537
-65.0583
-60.8478
-56.1881
-50.995
-45.1115
-38.3655
-30.653
-22.0144
-12.898
-5.05197
-29.6996
-29.2955
-28.9454
-28.6044
-28.3102
-28.0415
-27.7866
-27.5593
-27.3575
-27.1705
-27.0082
-26.8564
-26.7222
-26.6091
-26.5108
-26.4299
-26.353
-26.2882
-26.2373
-26.1868
-26.1451
-26.1074
-26.0774
-26.0497
-26.0206
-25.9932
-25.9627
-25.9267
-25.8914
-25.8607
-25.8274
-25.7912
-25.7625
-25.7347
-25.7191
-25.6711
-25.6371
-25.613
-25.594
-25.5717
-25.5561
-25.536
-25.5149
-25.4923
-25.4728
-25.4535
-25.4388
-25.4259
-25.4265
-25.4433
-25.4808
-25.5527
-25.6827
-25.9009
-26.2443
-26.7813
-27.6101
-28.862
-30.6877
-33.192
-36.4132
-40.2761
-44.5938
-49.0952
-53.4496
-57.4198
-60.8728
-63.7657
-66.1041
-67.9529
-69.3794
-70.398
-71.0476
-71.3644
-71.1471
-70.556
-69.5887
-68.307
-66.795
-65.1521
-63.4734
-61.8367
-60.2971
-58.8989
-57.6515
-56.5871
-55.7295
-55.0592
-54.5458
-54.17
-53.9938
-53.9459
-54.0175
-54.2023
-54.4664
-54.8035
-55.198
-55.625
-56.0824
-56.5207
-56.9448
-57.3542
-57.8243
-58.3016
-58.7847
-59.3012
-59.8256
-60.3165
-60.7882
-61.2463
-61.682
-62.0978
-62.4996
-62.8917
-63.256
-63.606
-63.9341
-64.2546
-64.5532
-64.8407
-65.1027
-65.3487
-65.5779
-65.8061
-66.0369
-66.2738
-66.5207
-66.7801
-67.0519
-67.3358
-67.6348
-67.9394
-68.2587
-68.5826
-68.918
-69.2545
-69.5938
-69.9182
-70.2318
-70.5239
-70.8114
-71.0964
-71.3793
-71.6642
-71.9496
-72.245
-72.5483
-72.8714
-73.2081
-73.5683
-73.945
-74.3465
-74.7614
-75.1972
-75.6455
-76.115
-76.5992
-77.1097
-77.637
-78.18
-78.7371
-79.3054
-79.8829
-80.4683
-81.058
-81.6452
-82.2278
-82.7993
-83.355
-83.8876
-84.3859
-84.8347
-85.2152
-85.4986
-85.6426
-85.59
-85.2741
-84.6287
-83.595
-82.1323
-80.2333
-77.9039
-75.1698
-72.0597
-68.5875
-64.725
-60.3798
-55.3707
-49.4892
-42.5939
-34.715
-26.29
-18.9681
-28.4504
-28.2454
-28.0969
-27.9354
-27.7879
-27.6353
-27.4899
-27.3479
-27.2004
-27.0591
-26.924
-26.8063
-26.6952
-26.594
-26.5051
-26.422
-26.3521
-26.2937
-26.235
-26.1854
-26.1397
-26.0974
-26.0578
-26.0233
-25.9942
-25.9647
-25.9382
-25.9116
-25.8846
-25.8514
-25.8157
-25.7817
-25.7475
-25.7179
-25.6812
-25.6653
-25.6359
-25.593
-25.571
-25.559
-25.5462
-25.5335
-25.5155
-25.4971
-25.4801
-25.4712
-25.4674
-25.4768
-25.4927
-25.5182
-25.5603
-25.6366
-25.7685
-25.9796
-26.3013
-26.7808
-27.4894
-28.5152
-29.9686
-31.9441
-34.5117
-37.6529
-41.2735
-45.1977
-49.2026
-53.075
-56.6388
-59.7908
-62.4639
-64.6683
-66.4325
-67.7619
-68.6817
-69.204
-69.4309
-69.2068
-68.6093
-67.6967
-66.5363
-65.2101
-63.7952
-62.3613
-60.9649
-59.6544
-58.458
-57.3964
-56.4893
-55.7589
-55.1763
-54.7556
-54.4632
-54.3017
-54.2671
-54.3592
-54.5557
-54.8338
-55.1637
-55.5192
-55.9046
-56.3239
-56.7916
-57.2805
-57.8026
-58.2572
-58.6786
-59.1037
-59.5751
-60.0511
-60.535
-61.0148
-61.4667
-61.8941
-62.2966
-62.695
-63.0645
-63.4199
-63.7522
-64.0747
-64.3783
-64.6757
-64.9495
-65.2064
-65.4407
-65.669
-65.8971
-66.1291
-66.3671
-66.6199
-66.886
-67.1616
-67.4519
-67.7503
-68.0651
-68.388
-68.7243
-69.0648
-69.4102
-69.7432
-70.0644
-70.361
-70.648
-70.926
-71.2037
-71.4797
-71.754
-72.0346
-72.3235
-72.6316
-72.9576
-73.3092
-73.6789
-74.075
-74.489
-74.9271
-75.3795
-75.8525
-76.3391
-76.8533
-77.3875
-77.9414
-78.5132
-79.1032
-79.7115
-80.336
-80.9759
-81.6262
-82.2861
-82.9494
-83.6137
-84.2735
-84.9251
-85.562
-86.1728
-86.7352
-87.2142
-87.5573
-87.7022
-87.5709
-87.0938
-86.2131
-84.9073
-83.1785
-81.0558
-78.5825
-75.7994
-72.7014
-69.2074
-65.1144
-60.1522
-54.1093
-46.9872
-39.1837
-32.2624
-27.0044
-27.0363
-27.0934
-27.1337
-27.1547
-27.1514
-27.1287
-27.0871
-27.0355
-26.9638
-26.8868
-26.8027
-26.7133
-26.6291
-26.5483
-26.4764
-26.4071
-26.3431
-26.2893
-26.2392
-26.1951
-26.1539
-26.1194
-26.0886
-26.0594
-26.0313
-25.9993
-25.9725
-25.9406
-25.9065
-25.8701
-25.8313
-25.7959
-25.7625
-25.7354
-25.697
-25.6685
-25.6558
-25.6224
-25.6003
-25.5879
-25.5756
-25.5623
-25.5472
-25.5358
-25.5243
-25.521
-25.5248
-25.5417
-25.5685
-25.6147
-25.6953
-25.8273
-26.0321
-26.3319
-26.7659
-27.3859
-28.2552
-29.4527
-31.0568
-33.1347
-35.7037
-38.7299
-42.1063
-45.6836
-49.2956
-52.7787
-56.0075
-58.8773
-61.3535
-63.4221
-65.067
-66.3035
-67.141
-67.6097
-67.7146
-67.4722
-66.9048
-66.0797
-65.0632
-63.9148
-62.7015
-61.4771
-60.2883
-59.1706
-58.1605
-57.262
-56.4931
-55.8509
-55.3421
-54.9722
-54.7272
-54.5944
-54.5774
-54.6698
-54.8584
-55.1258
-55.4452
-55.8051
-56.1876
-56.5941
-57.0048
-57.4534
-57.9224
-58.4081
-58.9092
-59.4304
-59.903
-60.3397
-60.7716
-61.2038
-61.6325
-62.0393
-62.4469
-62.8207
-63.1927
-63.5413
-63.8784
-64.1966
-64.5124
-64.8012
-65.0727
-65.3099
-65.5401
-65.7666
-65.9933
-66.223
-66.4685
-66.7296
-66.9967
-67.2825
-67.5744
-67.8843
-68.2025
-68.536
-68.8782
-69.2314
-69.5742
-69.9057
-70.2055
-70.4998
-70.7755
-71.0471
-71.3113
-71.5727
-71.8411
-72.1152
-72.4079
-72.7169
-73.0547
-73.4107
-73.7971
-74.2037
-74.6389
-75.0891
-75.5621
-76.049
-76.566
-77.105
-77.6665
-78.2491
-78.8543
-79.4836
-80.1339
-80.8091
-81.5055
-82.225
-82.9594
-83.7085
-84.47
-85.2477
-86.0428
-86.8494
-87.6499
-88.4196
-89.1173
-89.691
-90.0576
-90.1383
-89.8525
-89.1539
-88.0292
-86.5011
-84.6179
-82.4492
-80.0383
-77.3568
-74.2203
-70.2871
-65.2123
-58.9448
-51.778
-45.2416
-25.3475
-25.6472
-25.9331
-26.1823
-26.3883
-26.5454
-26.6539
-26.724
-26.7576
-26.7608
-26.7371
-26.6973
-26.6399
-26.5767
-26.5138
-26.4485
-26.3898
-26.3332
-26.2794
-26.2316
-26.1848
-26.1439
-26.1025
-26.0673
-26.0384
-26.0118
-25.9862
-25.9602
-25.9362
-25.9078
-25.8728
-25.833
-25.7931
-25.7562
-25.7184
-25.6906
-25.6619
-25.6305
-25.608
-25.5861
-25.5685
-25.559
-25.5498
-25.5409
-25.5289
-25.5214
-25.5184
-25.5294
-25.5543
-25.597
-25.6554
-25.7397
-25.8664
-26.0571
-26.3337
-26.7283
-27.2828
-28.0386
-29.06
-30.4053
-32.1349
-34.2762
-36.8266
-39.7294
-42.8954
-46.1996
-49.5042
-52.6825
-55.6215
-58.258
-60.5524
-62.4624
-63.9836
-65.1286
-65.9106
-66.3052
-66.4114
-66.1321
-65.5846
-64.8244
-63.9093
-62.8971
-61.8367
-60.7748
-59.7446
-58.7848
-57.9117
-57.1372
-56.4777
-55.9386
-55.5016
-55.1868
-54.9714
-54.8585
-54.8505
-54.9415
-55.1187
-55.3621
-55.6664
-56.0145
-56.3987
-56.8028
-57.2344
-57.6788
-58.1313
-58.5916
-59.075
-59.56
-60.0438
-60.5179
-60.9797
-61.4425
-61.8764
-62.2818
-62.639
-62.997
-63.3373
-63.6785
-64.0012
-64.3275
-64.6232
-64.9094
-65.163
-65.4114
-65.6455
-65.8703
-66.0986
-66.3344
-66.5844
-66.8386
-67.119
-67.3993
-67.7073
-68.0127
-68.3478
-68.6858
-69.0388
-69.386
-69.7335
-70.0431
-70.3482
-70.6264
-70.8949
-71.1556
-71.4121
-71.6704
-71.9274
-72.2028
-72.4923
-72.8144
-73.1564
-73.5299
-73.923
-74.3486
-74.7907
-75.2603
-75.7431
-76.2589
-76.7985
-77.3641
-77.9533
-78.5665
-79.2087
-79.873
-80.5724
-81.2975
-82.0582
-82.841
-83.6561
-84.4978
-85.3809
-86.3005
-87.2607
-88.2467
-89.2467
-90.2354
-91.179
-91.9989
-92.6233
-92.9526
-92.9014
-92.4168
-91.498
-90.1744
-88.5324
-86.681
-84.6931
-82.4912
-79.7291
-75.8743
-70.7102
-64.3638
-58.2473
-23.5176
-24.0972
-24.6417
-25.1245
-25.5361
-25.8661
-26.129
-26.3201