/*--------------------------------*- C++ -*----------------------------------*\
| =========                 |                                                 |
| \\      /  F ield         | OpenFOAM: The Open Source CFD Toolbox           |
|  \\    /   O peration     | Version:  4.1                                   |
|   \\  /    A nd           | Web:      www.OpenFOAM.org                      |
|    \\/     M anipulation  |                                                 |
\*---------------------------------------------------------------------------*/
FoamFile
{
    version     2.0;
    format      ascii;
    class       volScalarField;
    location    "1553";
    object      p;
}
// * * * * * * * * * * * * * * * * * * * * * * * * * * * * * * * * * * * * * //

dimensions      [0 2 -2 0 0 0 0];

internalField   nonuniform List<scalar> 
204246
(
139.845
-3.53626
49.448
30.3303
28.5076
35.6178
24.6875
36.5152
23.823
36.744
23.3677
37.5357
21.8457
37.8795
23.0367
35.2305
29.3931
23.7651
36.0031
21.1681
37.0976
21.3895
35.5775
21.9962
35.3026
21.6464
36.0382
19.7134
36.8071
19.2915
36.6549
19.5956
35.5804
22.0206
31.609
28.0739
21.1428
33.651
19.6783
33.1311
19.8641
33.0219
19.3383
33.6768
17.2574
34.1861
16.8144
33.3368
17.8407
30.3498
19.2408
27.2976
23.9009
16.2324
28.2365
13.9216
26.1004
12.5581
24.1789
10.2464
22.2242
6.48613
19.0864
3.57882
14.5336
0.55106
8.34633
-3.02984
1.56963
-3.45257
-11.6015
-8.10628
-18.113
-11.985
-24.3328
-15.8043
-30.4037
-17.504
-34.7949
-17.7982
-35.522
-17.8611
-32.4208
-19.0464
-27.4225
-17.734
-18.8795
-22.4288
-11.3565
-20.3682
-6.58889
-18.6486
-2.92815
-18.9541
-0.260331
-18.2728
0.866263
-17.5644
1.06925
-16.1216
-0.579028
-14.5756
-1.08557
-12.9811
-2.5561
-8.47967
-11.7705
-2.2779
-14.12
0.252894
-16.2651
1.37402
-15.7229
0.992331
-15.4459
1.03132
-15.3491
1.05461
-14.9575
0.658404
-13.3342
-1.77831
-7.24258
-12.0588
-0.717696
-14.4624
0.922847
-14.9389
1.40317
-14.9727
1.59485
-14.8974
1.71034
-14.7893
1.80144
-14.2492
1.3442
-12.5728
-1.09563
-6.3898
-11.3971
0.0886802
-13.6189
1.745
-13.8451
2.47401
-13.7207
2.93809
-13.3274
3.41193
-12.7046
3.93223
-11.6369
4.23142
-9.11456
2.70302
-1.93055
-6.05727
5.95766
-6.61927
9.41952
-4.57531
11.837
-0.918924
14.5018
3.74221
18.3819
9.49603
23.4914
16.4816
29.7999
25.4611
37.7826
37.0176
47.2719
53.7981
56.0336
69.8957
74.4266
87.7402
97.4829
110.859
125.196
140.102
160.039
177.87
206.157
228.815
272.717
301.66
389.394
405.316
612.357
47.9991
28.0607
28.2092
33.5134
27.2849
32.6754
27.5911
32.2772
27.724
32.277
27.6107
32.5324
27.6367
31.6621
29.0191
29.4657
32.135
26.4895
31.8697
26.5714
31.4032
26.9681
30.8717
26.6738
30.9034
26.1554
31.2349
25.5836
30.9075
25.5422
30.3919
25.9105
29.2091
27.2829
27.0975
30.0241
24.4397
29.3513
24.7611
28.7484
24.4727
28.7215
23.9132
28.9351
23.2719
28.3493
23.1954
27.345
23.4702
26.0045
23.8919
23.5659
26.0785
20.1875
24.4505
19.4641
22.7799
17.8796
21.0524
15.7025
18.9943
12.8592
15.9262
9.98214
11.9307
6.81111
6.83657
3.07898
0.148858
0.842166
-6.74874
-7.04375
-13.296
-13.0768
-18.8881
-17.9848
-24.1276
-21.9993
-27.9529
-24.5161
-29.1449
-25.3661
-27.7236
-24.6288
-24.9909
-23.3895
-19.6885
-21.2919
-15.5459
-18.155
-12.2679
-15.2494
-9.10289
-13.546
-7.29898
-12.2214
-6.27237
-11.2798
-6.00176
-10.2596
-6.22467
-9.76122
-6.43653
-8.59124
-7.54454
-5.9372
-10.1949
-5.43872
-10.3359
-4.71766
-10.3977
-4.88429
-9.91376
-4.93563
-9.81328
-4.83081
-9.73828
-4.8689
-9.29029
-5.44761
-7.87321
-7.24332
-4.83311
-9.8323
-4.60965
-9.72064
-4.44033
-9.55283
-4.29713
-9.42032
-4.19107
-9.2947
-4.12881
-9.10965
-4.23384
-8.56671
-4.80754
-7.13176
-6.59407
-4.07235
-9.11848
-3.88195
-8.92764
-3.66381
-8.65937
-3.34007
-8.34851
-3.03328
-7.95873
-2.68061
-7.39186
-2.3438
-6.3926
-2.32717
-4.2587
-3.24713
-0.420466
-4.60402
1.05975
-2.94061
2.86149
-0.623959
5.14098
2.10551
8.0501
5.52962
11.7484
10.0425
16.4846
15.8516
21.8829
23.5973
28.8277
33.3654
36.9996
45.7535
49.4384
58.518
65.075
74.6004
84.2812
94.7431
107.779
119.365
136.543
149.357
172.566
185.99
221.247
227.885
302.61
268.05
402.73
23.6563
35.122
30.7503
33.001
29.381
32.4033
28.5882
32.3124
28.1534
32.2886
27.9133
32.2388
27.926
31.6022
28.7787
30.0124
30.4971
27.9049
31.108
27.0532
31.2307
26.8405
30.9874
26.6032
30.8684
26.2396
30.8919
25.8049
30.7318
25.665
30.3309
25.9423
29.3903
26.9142
27.5779
28.4098
25.6613
28.7685
24.9492
28.7408
24.4994
28.6626
24.0279
28.6017
23.5044
28.2285
23.2835
27.456
23.4168
26.0192
23.7854
23.9412
24.5076
21.4135
24.0229
19.7921
22.7653
18.1413
21.0975
16.1493
18.9034
13.7472
15.6953
11.1089
11.575
7.91852
6.67574
4.15052
0.558792
-0.659961
-5.43028
-6.68783
-11.6438
-13.2175
-17.624
-18.8341
-23.2254
-22.7296
-27.3923
-25.0775
-29.1854
-25.8786
-28.3266
-25.4747
-25.0894
-23.784
-20.6202
-21.0134
-16.6482
-17.1191
-12.7714
-14.4186
-9.34142
-12.8923
-7.1665
-11.7332
-5.9904
-10.938
-5.61041
-10.245
-5.76011
-9.6563
-6.16097
-8.65499
-7.20109
-6.91056
-8.94421
-5.90154
-9.70304
-5.10045
-10.0254
-4.84667
-9.89137
-4.79165
-9.79582
-4.69999
-9.71957
-4.78335
-9.27226
-5.30888
-8.1595
-6.64675
-6.22732
-8.51574
-5.21236
-9.219
-4.58894
-9.38998
-4.29439
-9.35394
-4.14735
-9.24142
-4.08192
-9.03134
-4.16652
-8.531
-4.65392
-7.40754
-5.9736
-5.46252
-7.80704
-4.44221
-8.4316
-3.75908
-8.48317
-3.31481
-8.27249
-2.95464
-7.90351
-2.58937
-7.32544
-2.25429
-6.34421
-2.17597
-4.51385
-2.7013
-1.63358
-3.37178
0.544299
-2.54561
2.81788
-0.695908
5.05884
2.21005
7.6253
6.10091
11.1074
10.8756
15.7528
16.8383
21.7835
24.2969
29.2869
33.8129
38.8989
45.4223
50.438
59.4476
66.0542
76.2923
85.9598
97.2191
110.766
123.291
141.874
155.75
181.407
196.084
235.792
243.712
319.872
298.602
387.382
9.98484
26.7763
22.8141
30.029
26.6859
30.6434
28.2958
30.7097
28.9604
30.7232
29.2501
30.6231
29.6362
29.9714
30.3928
28.9735
31.1628
28.4554
30.4889
28.5223
29.9308
28.571
29.6112
28.2954
29.488
27.9571
29.3861
27.7361
29.0002
27.6979
28.4899
27.9045
27.7175
28.4762
26.8018
28.9293
26.3325
28.1456
26.3664
27.642
26.1263
27.4058
25.7913
27.194
25.535
26.6373
25.4273
25.8957
25.4503
25.0134
25.3703
23.7701
25.4243
22.7451
23.8654
21.9493
22.3946
20.5339
20.8491
18.7668
18.8155
16.5949
16.038
13.8861
12.5578
10.5731
8.21445
6.65327
2.90789
1.89918
-3.04055
-4.67269
-9.20053
-11.4175
-15.4691
-17.879
-21.2006
-23.6561
-25.6552
-27.4787
-28.0297
-28.7072
-28.1335
-28.0721
-26.1212
-25.9399
-22.4567
-22.2523
-18.7596
-17.9179
-15.0574
-14.1298
-11.8592
-11.6273
-9.85781
-10.1827
-8.62984
-9.29548
-8.07554
-8.69575
-7.91798
-8.30353
-8.06583
-7.59029
-8.55664
-6.6306
-8.89115
-6.69897
-8.74405
-6.62704
-8.47003
-6.76624
-8.18321
-6.78573
-8.08407
-6.72204
-7.98358
-6.81596
-7.5853
-7.21757
-6.76977
-7.93863
-5.81821
-8.26987
-6.05946
-8.05872
-6.15822
-7.83493
-6.15149
-7.66158
-6.1127
-7.50822
-6.1046
-7.29403
-6.22509
-6.86041
-6.60292
-6.04364
-7.31361
-5.10841
-7.60414
-5.37347
-7.35567
-5.4453
-7.07363
-5.33931
-6.77307
-5.14807
-6.42498
-4.90356
-5.93601
-4.66606
-5.13831
-4.61034
-3.73761
-4.59135
-2.2412
-3.89341
-1.47111
-2.48694
-0.201902
-0.643734
1.67108
1.56848
4.00746
4.41252
7.12112
8.0396
11.1534
12.6953
16.0784
18.8775
22.3394
26.599
30.1695
36.3804
40.5154
47.453
53.5671
60.9031
69.5657
77.3941
88.9812
97.289
112.502
121.286
141.854
148.939
181.991
176.873
234.361
221.226
292.323
12.6558
28.446
24.0293
29.3897
27.731
30.1688
28.9078
30.5448
29.3174
30.6179
29.4443
30.4641
29.6919
29.9685
30.0696
29.3352
30.3081
29.0857
29.9426
28.8576
29.6995
28.5981
29.5501
28.2793
29.3924
28.0026
29.1894
27.8373
28.8644
27.7598
28.4377
27.8414
27.8105
28.0739
27.145
28.118
26.8763
27.7007
26.6017
27.4795
26.2164
27.2812
25.8794
27.0061
25.6448
26.5428
25.4292
25.942
25.3683
25.0625
25.1939
23.9829
24.7144
23.219
23.7588
22.2431
22.496
20.9035
21.0019
19.2481
19.0675
17.2079
16.4602
14.6595
13.091
11.3998
9.00747
7.36025
4.04628
2.39131
-1.46563
-3.67142
-7.83709
-10.3656
-14.4389
-17.1038
-20.5845
-23.1405
-25.5539
-27.5614
-28.6294
-29.5328
-29.1176
-29.1542
-27.2934
-26.7256
-23.6936
-22.7367
-19.2887
-18.0351
-14.9865
-13.853
-11.5281
-10.915
-9.31142
-9.39575
-8.05197
-8.6914
-7.51471
-8.32646
-7.4473
-8.04721
-7.69697
-7.55839
-8.08567
-7.01804
-8.14815
-6.96361
-8.16494
-6.79537
-8.07372
-6.73909
-7.97619
-6.67626
-7.92485
-6.62709
-7.85268
-6.72282
-7.55179
-7.02057
-7.01216
-7.4485
-6.46914
-7.54808
-6.44878
-7.5777
-6.29937
-7.558
-6.16672
-7.47297
-6.07729
-7.34288
-6.04827
-7.13862
-6.13382
-6.78504
-6.39652
-6.23235
-6.80506
-5.72421
-6.86085
-5.72036
-6.84441
-5.53753
-6.75879
-5.30885
-6.55495
-5.05789
-6.24483
-4.78595
-5.76425
-4.52639
-4.99898
-4.44739
-3.89951
-4.05927
-2.64625
-3.34029
-1.63408
-2.11526
-0.215666
-0.432317
1.66855
1.8569
4.1882
4.77541
7.46153
8.51096
11.6271
13.3841
16.8491
19.5967
23.4729
27.4942
31.8067
37.2455
42.4656
49.1996
56.0721
63.8166
73.1009
81.7336
94.1852
103.552
119.995
129.645
152.158
159.899
194.259
191.191
240.481
229.121
274.218
11.4816
24.1015
21.1895
26.8029
25.8599
28.7929
28.1076
29.7514
29.3368
30.0368
29.8815
29.9945
30.2798
29.6695
30.5729
29.3378
30.552
29.3835
29.9666
29.3994
29.5183
29.2685
29.2369
29.0155
29.0018
28.7754
28.7304
28.6308
28.3614
28.5479
27.9662
28.5265
27.551
28.5605
27.1441
28.36
27.1262
27.7228
27.1228
27.2982
26.9143
26.9888
26.6887
26.6596
26.5214
26.2255
26.3373
25.7525
26.0974
25.2157
25.8514
24.5681
25.2641
23.9582
24.3106
23.2198
23.1588
22.134
21.7586
20.6698
20.0313
18.814
17.7456
16.429
14.7787
13.3418
10.979
9.47448
6.23285
4.53907
0.603555
-1.58063
-5.79104
-8.54429
-12.7247
-15.8544
-19.622
-22.7782
-25.6278
-28.2335
-29.7069
-31.2566
-31.1068
-31.4611
-29.6989
-29.1129
-26.0472
-24.7924
-21.3493
-19.6465
-16.6226
-14.8925
-12.7632
-11.3629
-10.1881
-9.32778
-8.84808
-8.40932
-8.37885
-8.06413
-8.32852
-7.84892
-8.50769
-7.56116
-8.6252
-7.33753
-8.33127
-7.38641
-8.04767
-7.38085
-7.74138
-7.41952
-7.53581
-7.42281
-7.46168
-7.4218
-7.3833
-7.5092
-7.14357
-7.67596
-6.79591
-7.83169
-6.56484
-7.62093
-6.7627
-7.37569
-6.84214
-7.17131
-6.85881
-7.0063
-6.84934
-6.85802
-6.8567
-6.67856
-6.92441
-6.41241
-7.07316
-6.05004
-7.22178
-5.87143
-6.98843
-6.12717
-6.73791
-6.21395
-6.52728
-6.18213
-6.29145
-6.07187
-6.01902
-5.91076
-5.66128
-5.66575
-5.13907
-5.47057
-4.39893
-5.08613
-3.72672
-4.19343
-3.00638
-3.18995
-1.97225
-1.85334
-0.566437
-0.15262
1.35155
2.02185
3.85932
4.85949
7.05889
8.62256
11.1268
13.4941
16.2905
19.6857
22.9169
27.3675
31.505
36.6286
42.328
47.9069
55.7556
61.6994
72.1775
78.433
92.2265
98.1944
117.038
120.255
150.688
144.235
185.418
182.907
223.501
15.3291
26.6584
22.7239
27.661
26.5783
28.8562
28.4236
29.6672
29.3812
29.948
29.9038
29.8925
30.1774
29.6617
30.2799
29.4707
30.1308
29.5431
29.7152
29.5039
29.3442
29.274
29.1392
28.9983
28.9094
28.7776
28.6247
28.6233
28.3044
28.5048
27.9615
28.4103
27.5835
28.3084
27.2484
27.998
27.2868
27.5152
27.2152
27.1558
26.95
26.889
26.6986
26.5775
26.4979
26.2008
26.2796
25.7649
26.0244
25.2086
25.673
24.6326
25.1385
24.1317
24.3266
23.4312
23.3341
22.448
22.0818
21.1374
20.4743
19.4417
18.3968
17.233
15.6981
14.394
12.1995
10.721
7.8382
5.97866
2.55126
0.0403971
-3.81059
-6.91647
-10.9891
-14.485
-18.3945
-21.9408
-25.1805
-28.2081
-30.2242
-32.1309
-32.4634
-33.0233
-31.6036
-30.84
-27.8643
-26.0824
-22.4045
-20.115
-16.7051
-14.6229
-12.0304
-10.6825
-9.08498
-8.45102
-7.77885
-7.4952
-7.54919
-7.3079
-7.81272
-7.3939
-8.11219
-7.33885
-8.21252
-7.28021
-7.95226
-7.37663
-7.66554
-7.35417
-7.43489
-7.3209
-7.32462
-7.25894
-7.26918
-7.27323
-7.2377
-7.35904
-7.08785
-7.48493
-6.88219
-7.51281
-6.74729
-7.27882
-6.86722
-7.07857
-6.85924
-6.94675
-6.80599
-6.81672
-6.7548
-6.6821
-6.73649
-6.52022
-6.77553
-6.30964
-6.85489
-6.09106
-6.86491
-6.01722
-6.59407
-6.19032
-6.38219
-6.17865
-6.23677
-6.07316
-6.05708
-5.90129
-5.83544
-5.68558
-5.53365
-5.46738
-5.00982
-5.16832
-4.35223
-4.70275
-3.61143
-4.04684
-2.82068
-2.99825
-1.74897
-1.60311
-0.23553
0.176479
1.80439
2.46781
4.47107
5.44135
7.81308
9.36379
12.068
14.3981
17.5187
20.7632
24.4879
28.6866
33.4319
38.4499
44.7925
50.4517
58.9007
65.0968
76.1955
82.693
97.1517
103.253
122.896
125.106
153.053
149.702
180.913
177.07
205.872
15.1597
25.8491
21.7048
27.0843
25.7003
28.4518
27.972
29.4555
29.3075
29.9016
30.0784
29.9395
30.4702
29.8119
30.5404
29.7376
30.3355
29.8412
29.8997
29.7973
29.5437
29.5881
29.2358
29.3593
28.9347
29.1452
28.6183
28.972
28.2887
28.8159
27.9641
28.6941
27.634
28.5801
27.3877
28.1751
27.4809
27.661
27.478
27.2974
27.2939
26.9621
27.106
26.6457
26.9295
26.2925
26.7205
25.95
26.4851
25.558
26.1821
25.1114
25.6112
24.7305
24.876
24.1559
24.0203
23.3133
22.9428
22.1889
21.5382
20.6977
19.6785
18.7192
17.205
16.0825
13.9707
12.5801
9.81762
7.97671
4.60006
2.14703
-1.7597
-4.90054
-9.18039
-12.9456
-17.2787
-21.315
-25.1952
-28.8716
-31.605
-34.1672
-35.062
-35.9625
-34.7307
-34.0034
-31.0632
-29.0052
-25.1787
-22.4486
-18.6896
-16.0621
-13.2
-11.2047
-9.62278
-8.39848
-7.98945
-7.28967
-7.72825
-7.16207
-8.11564
-7.44212
-8.5672
-7.68961
-8.62841
-7.77193
-8.21122
-7.78891
-7.83302
-7.66791
-7.49254
-7.55772
-7.29617
-7.52827
-7.24343
-7.58484
-7.25257
-7.6707
-7.17798
-7.765
-7.04985
-7.73515
-6.96305
-7.41967
-7.09034
-7.14482
-7.12231
-6.92078
-7.13434
-6.75673
-7.1284
-6.62658
-7.1275
-6.50962
-7.12712
-6.40159
-7.14445
-6.22235
-7.11484
-6.2536
-6.78535
-6.49834
-6.53898
-6.55495
-6.39411
-6.55967
-6.21139
-6.48672
-6.03992
-6.33731
-5.83149
-6.1739
-5.47967
-5.96975
-5.03955
-5.61484
-4.58239
-4.9171
-4.13282
-4.13696
-3.37394
-3.19249
-2.27682
-1.97641
-0.819356
-0.343785
1.07381
1.86044
3.52747
4.77595
6.72221
8.56012
10.8763
13.3951
16.2803
19.4479
23.2951
26.9715
32.1988
36.2607
43.3729
47.7105
57.1795
61.6813
74.1612
77.979
95.6696
96.3671
120.969
119.052
147.503
147.408
174.429
19.091
27.8267
23.4766
28.3717
26.5324
28.9662
28.3064
29.5414
29.3609
29.8543
29.9689
29.9079
30.2745
29.8141
30.2751
29.7511
30.0835
29.8306
29.7481
29.7294
29.467
29.5326
29.1793
29.3064
28.8891
29.1083
28.5652
28.937
28.2395
28.7744
27.9192
28.6072
27.6066
28.4004
27.4309
27.9865
27.4968
27.5243
27.4493
27.229
27.268
26.9119
27.0689
26.6027
26.8888
26.2573
26.6662
25.9035
26.3992
25.5416
26.0562
25.2108
25.5334
24.886
24.9127
24.3571
24.1993
23.6309
23.2704
22.6685
22.0513
21.3903
20.4432
19.6759
18.3092
17.3559
15.475
14.2081
11.7619
9.96282
6.93664
4.38855
0.775359
-2.61099
-6.75748
-10.8832
-15.336
-19.8917
-24.1476
-28.4806
-31.8041
-35.0687
-36.6196
-38.1111
-37.5011
-37.0131
-34.1541
-31.7671
-27.4399
-23.9284
-19.5026
-16.1943
-12.7424
-10.4742
-8.48647
-7.29268
-6.67581
-6.15195
-6.55733
-6.24378
-7.24817
-6.85127
-7.91869
-7.26762
-8.28368
-7.5597
-8.01035
-7.64027
-7.68587
-7.50781
-7.38559
-7.37399
-7.11788
-7.32454
-7.03264
-7.36948
-7.0835
-7.48488
-7.07022
-7.58648
-6.99244
-7.56884
-6.97562
-7.24883
-7.06798
-7.00608
-7.04416
-6.79432
-7.02512
-6.61452
-6.9873
-6.47721
-6.95567
-6.39718
-6.92275
-6.27763
-6.95822
-6.1546
-6.86699
-6.22162
-6.5492
-6.41699
-6.32806
-6.42837
-6.18772
-6.39541
-6.03118
-6.29278
-5.87308
-6.13959
-5.65076
-5.94834
-5.33341
-5.70868
-4.90598
-5.34033
-4.46271
-4.73043
-3.91499
-3.96203
-3.07888
-2.96543
-1.95653
-1.64605
-0.455657
0.0766351
1.53033
2.32738
4.0642
5.29751
7.34039
9.12634
11.5932
13.9959
17.0992
20.1177
24.1897
27.7149
33.239
37.1182
44.4944
48.6335
58.2708
62.4579
75.0556
78.2643
95.2038
95.5119
117.214
114.855
137.633
136.479
157.906
19.0948
28.6133
23.512
28.768
26.348
29.4381
28.2492
29.9499
29.4745
30.2118
30.2005
30.2493
30.5543
30.1635
30.5462
30.0898
30.3343
30.1183
30.0136
30.0028
29.7147
29.7938
29.3818
29.5629
29.0535
29.3552
28.7046
29.1563
28.3681
28.9701
28.0548
28.7972
27.755
28.5782
27.5922
28.1547
27.67
27.6881
27.6532
27.3896
27.4906
27.0901
27.3199
26.7869
27.1593
26.4865
26.9804
26.1695
26.7537
25.8811
26.4305
25.6061
25.933
25.3689
25.3836
24.9234
24.7604
24.3206
23.9595
23.5065
22.8997
22.3918
21.4778
20.8595
19.5583
18.7423
16.9782
15.8168
13.5306
11.8232
8.95082
6.52179
2.98346
-0.298101
-4.5206
-8.73242
-13.528
-18.4897
-23.4939
-28.5911
-32.9283
-37.1318
-39.6774
-41.7523
-41.4761
-40.8726
-38.1074
-35.413
-30.9233
-26.9519
-21.881
-17.8584
-13.6577
-10.6432
-8.26734
-6.62907
-6.11797
-5.41231
-6.1284
-5.85391
-7.15655
-6.93106
-8.32502
-7.71432
-8.82068
-8.14584
-8.34149
-8.07014
-7.9058
-7.72562
-7.45
-7.45499
-7.15133
-7.39363
-7.08795
-7.50992
-7.17936
-7.68613
-7.24273
-7.82724
-7.26393
-7.73983
-7.22267
-7.40214
-7.24064
-7.11959
-7.19069
-6.87245
-7.17205
-6.70723
-7.15903
-6.56196
-7.16769
-6.48751
-7.15523
-6.40884
-7.16769
-6.33123
-7.04854
-6.43479
-6.73822
-6.64887
-6.51779
-6.70562
-6.39553
-6.70118
-6.26521
-6.68179
-6.13956
-6.59536
-6.01664
-6.47944
-5.79743
-6.32313
-5.54706
-6.01436
-5.32132
-5.52435
-4.96459
-5.02094
-4.41344
-4.35776
-3.66255
-3.4719
-2.63467
-2.28402
-1.24237
-0.675592
0.584817
1.46926
3.00234
4.29073
6.2102
7.93447
10.4355
12.5647
15.9633
18.4288
23.0774
25.7968
32.1086
34.9907
43.4131
46.2866
57.5306
59.6651
75.2278
74.996
94.5033
94.9222
115.325
115.831
135.858
22.0999
30.3508
25.3818
29.9662
27.2659
30.0928
28.6304
30.1984
29.5374
30.2557
30.0868
30.2211
30.3667
30.1266
30.3511
30.0325
30.1892
30.0425
29.8925
29.928
29.6166
29.743
29.3097
29.522
28.9955
29.3134
28.6637
29.1169
28.3246
28.9254
28.001
28.736
27.7042
28.4798
27.572
28.046
27.6407
27.5855
27.6208
27.3069
27.4599
27.0214
27.2909
26.7288
27.1178
26.4308
26.9422
26.1161
26.7075
25.8655
26.3846
25.6571
25.9241
25.4872
25.4407
25.1264
24.9317
24.6455
24.2874
24.0025
23.4394
23.1193
22.3007
21.8881
20.7515
20.1405
18.6176
17.6509
15.6658
14.1257
11.5686
9.22435
5.96401
2.6172
-1.46594
-5.95129
-10.8794
-16.3505
-21.7471
-27.6593
-32.7948
-37.9884
-41.5527
-44.7755
-45.5704
-45.9819
-43.6004
-40.9478
-35.9168
-30.954
-24.8074
-19.4863
-14.3729
-10.4956
-7.58626
-5.39574
-4.72777
-3.84114
-4.63776
-4.40327
-5.94182
-5.82363
-7.52577
-7.04176
-8.45862
-7.9254
-8.33675
-8.03087
-7.94714
-7.76489
-7.48894
-7.39694
-7.03475
-7.1739
-6.84462
-7.25427
-6.95188
-7.46236
-7.07145
-7.65451
-7.12892
-7.71283
-7.19892
-7.37098
-7.22687
-7.0661
-7.18106
-6.81553
-7.128
-6.59033
-7.07913
-6.41659
-7.01939
-6.37782
-6.98565
-6.2956
-7.0208
-6.25147
-6.90033
-6.35405
-6.59888
-6.5639
-6.36558
-6.60379
-6.25449
-6.59722
-6.12753
-6.56321
-5.9954
-6.47695
-5.83417
-6.35453
-5.67392
-6.18288
-5.44524
-5.89693
-5.22636
-5.40695
-4.87948
-4.89486
-4.3351
-4.22397
-3.59311
-3.34737
-2.57823
-2.18967
-1.22499
-0.642475
0.547565
1.41209
2.87756
4.09816
5.9648
7.55611
10.033
11.9561
15.3371
17.4946
22.1569
24.4899
30.753
33.1845
41.4304
43.7182
54.6965
55.751
70.307
70.0902
86.4453
86.4342
103.575
103.762
120.745
22.9555
31.5613
25.9956
30.9933
27.8141
30.9355
29.1178
30.9151
30.0073
30.8446
30.5458
30.7064
30.7826
30.5621
30.7428
30.3971
30.5361
30.3359
30.1996
30.225
29.8843
30.0158
29.5335
29.781
29.1729
29.5519
28.814
29.3272
28.4701
29.1179
28.1443
28.923
27.8455
28.6324
27.7302
28.2023
27.7999
27.7413
27.7962
27.4522
27.6639
27.1789
27.5046
26.9096
27.3525
26.6338
27.1997
26.3571
26.9932
26.1236
26.6866
25.9618
26.2413
25.8471
25.7931
25.5465
25.3432
25.1508
24.7891
24.6142
24.0615
23.8564
23.0756
22.7785
21.7265
21.2358
19.8558
19.0179
17.2381
15.8528
13.5496
11.3935
8.36558
5.20493
1.26227
-3.10068
-8.07069
-13.73
-19.6707
-26.2688
-32.5199
-39.0659
-44.0893
-48.539
-50.2818
-50.7548
-48.4038
-45.4515
-40.1365
-34.6758
-27.641
-21.4224
-14.8196
-9.87982
-6.16511
-3.63942
-3.01347
-2.2368
-3.3902
-3.44724
-5.4775
-5.80991
-7.94606
-7.73208
-9.16152
-8.67154
-8.71445
-8.42803
-8.18646
-7.86581
-7.48698
-7.38312
-6.98607
-7.11731
-6.81529
-7.26933
-7.00598
-7.63622
-7.22847
-7.93841
-7.40911
-7.90243
-7.44198
-7.49469
-7.35981
-7.14346
-7.22227
-6.83877
-7.19123
-6.6503
-7.16344
-6.51186
-7.14931
-6.44998
-7.15647
-6.3892
-7.16502
-6.38093
-7.0419
-6.49006
-6.73621
-6.71029
-6.50386
-6.77946
-6.40314
-6.79589
-6.29353
-6.81781
-6.20145
-6.80023
-6.13147
-6.70974
-6.02812
-6.61826
-5.91912
-6.40218
-5.83612
-6.03745
-5.60995
-5.70386
-5.24758
-5.27756
-4.74704
-4.70017
-4.06715
-3.91989
-3.11739
-2.83793
-1.85638
-1.34238
-0.14981
0.637027
2.18738
3.22455
5.31374
6.57572
9.43389
10.8785
14.8386
16.3636
21.7917
23.302
30.6214
31.9439
41.9165
42.3614
54.878
55.967
70.1562
71.6831
86.8306
87.961
103.822
25.5626
33.373
27.6546
32.1417
28.7559
31.492
29.5478
31.1056
30.1144
30.8561
30.4777
30.6407
30.6515
30.4344
30.637
30.2926
30.4671
30.2536
30.0874
30.1646
29.7774
29.9905
29.4486
29.7663
29.1164
29.5222
28.7843
29.2921
28.4321
29.0843
28.0911
28.8726
27.8128
28.5756
27.6916
28.1366
27.7589
27.6562
27.7595
27.3763
27.634
27.1144
27.4757
26.8449
27.3419
26.5606
27.2079
26.2848
26.9943
26.1086
26.6972
25.9732
26.2834
25.9358
25.8516
25.734
25.4923
25.451
25.081
25.073
24.5591
24.5323
23.8446
23.7389
22.8408
22.556
21.4009
20.7821
19.2908
18.1359
16.1744
14.2463
11.5865
8.58878
4.93503
0.527042
-4.46422
-10.546
-16.9665
-24.5472
-31.8619
-39.6518
-46.2636
-52.4414
-55.9633
-58.2606
-57.1089
-54.9914
-49.7571
-43.4544
-35.0633
-26.7109
-18.3898
-11.242
-6.26654
-2.10911
-1.16848
0.198777
-1.17325
-1.05707
-3.38278
-3.82578
-6.67606
-6.69588
-8.86803
-8.59449
-9.1177
-8.67753
-8.59964
-8.3012
-7.82488
-7.49306
-6.9275
-6.86804
-6.46671
-6.89762
-6.63532
-7.31408
-6.94886
-7.72149
-7.22144
-7.97866
-7.48698
-7.60238
-7.42674
-7.2173
-7.31687
-6.8577
-7.19791
-6.56227
-7.10738
-6.34051
-7.02993
-6.31309
-7.00832
-6.29562
-7.05523
-6.29632
-6.98145
-6.42398
-6.68026
-6.66266
-6.42659
-6.74248
-6.31872
-6.75987
-6.2031
-6.76803
-6.08685
-6.76468
-5.98632
-6.67325
-5.9355
-6.59929
-5.83672
-6.42175
-5.80647
-6.0046
-5.68323
-5.6804
-5.37124
-5.27583
-4.95635
-4.76507
-4.35282
-4.08026
-3.52077
-3.15457
-2.41382
-1.89163
-0.916205
-0.200643
1.14395
2.04481
3.94462
4.95531
7.67308
8.66176
12.4931
13.5107
18.667
19.6784
26.4007
27.2413
36.0364
36.9039
47.3901
48.4649
60.3343
61.6761
74.8054
75.8902
90.0144
26.7416
34.9298
28.7082
33.5291
29.807
32.6194
30.543
32.0152
31.009
31.569
31.2358
31.2075
31.28
30.8984
31.1553
30.6491
30.8967
30.5771
30.4227
30.4767
30.0528
30.2805
29.6742
30.0202
29.3099
29.7575
28.9261
29.5225
28.547
29.3014
28.1994
29.0653
27.9269
28.7386
27.831
28.2894
27.9063
27.7947
27.9132
27.506
27.8136
27.241
27.687
26.9683
27.5808
26.6925
27.4527
26.4481
27.246
26.2733
26.9442
26.1873
26.5365
26.1868
26.0827
26.0347
25.7606
25.8005
25.4145
25.4885
24.9829
25.045
24.3936
24.3868
23.5722
23.3966
22.3932
21.9134
20.6557
19.6852
18.0338
16.3488
14.0457
11.3564
8.06754
4.00584
-0.708512
-6.63279
-13.1967
-21.0966
-29.2026
-38.4163
-46.6466
-54.9881
-60.4649
-64.0601
-63.0788
-60.3945
-54.8231
-48.0784
-38.6522
-29.4708
-19.0346
-10.2602
-4.00477
0.721608
1.66473
2.68945
0.986992
0.474731
-2.47309
-3.66194
-7.06004
-7.79233
-9.56343
-9.58953
-9.59362
-9.04783
-8.70187
-8.31955
-7.8122
-7.6104
-6.91171
-6.83372
-6.2449
-6.83146
-6.5703
-7.50614
-7.10436
-8.06146
-7.50716
-8.19331
-7.75967
-7.72964
-7.50835
-7.22186
-7.28191
-6.83615
-7.23971
-6.61159
-7.19188
-6.43769
-7.13644
-6.3889
-7.15541
-6.3595
-7.18415
-6.38079
-7.08251
-6.5026
-6.75961
-6.74087
-6.49055
-6.84148
-6.37894
-6.87802
-6.29971
-6.93203
-6.22513
-6.97031
-6.19536
-6.90928
-6.16614
-6.8877
-6.15748
-6.76662
-6.19453
-6.4393
-6.15785
-6.21161
-5.95491
-5.954
-5.70155
-5.6079
-5.35003
-5.18715
-4.76411
-4.58025
-3.9698
-3.72102
-2.91369
-2.55797
-1.38748
-1.00684
0.71792
1.05288
3.49192
3.87363
7.0899
7.51201
11.8927
12.2844
18.1798
18.5416
26.1844
26.7497
36.0278
37.1077
47.7309
49.2341
61.1884
62.3865
75.8854
28.9025
36.6365
30.2292
34.4345
30.8014
32.916
31.0595
31.9819
31.2388
31.4294
31.3185
31.0445
31.2903
30.7778
31.1188
30.546
30.8474
30.5095
30.3417
30.4187
29.9493
30.2734
29.5955
30.0204
29.2553
29.7837
28.8673
29.5506
28.4769
29.3227
28.1284
29.0657
27.8686
28.717
27.7777
28.259
27.8554
27.7576
27.8641
27.4398
27.7916
27.1682
27.6976
26.8862
27.5955
26.6212
27.4803
26.3894
27.2829
26.2515
26.981
26.1914
26.5916
26.2467
26.1223
26.1902
25.8589
26.035
25.6299
25.8557
25.3675
25.5872
25.0127
25.1619
24.4802
24.475
23.6624
23.3656
22.3767
21.6293
20.3407
18.9362
17.0843
14.7149
11.9149
8.12714
3.83261
-1.97859
-8.47681
-16.9765
-26.2229
-37.2326
-48.2276
-59.2125
-67.6745
-74.1304
-75.0646
-74.2333
-69.7147
-63.9536
-53.3746
-42.1508
-28.0568
-14.5525
-5.38293
2.92046
4.70781
6.36163
4.22763
4.29639
1.26422
0.0430284
-4.89166
-6.13762
-9.81813
-10.1852
-10.7563
-10.012
-9.8199
-9.18894
-8.45792
-7.85925
-6.96566
-6.57861
-5.72569
-6.15028
-5.91881
-6.88912
-6.60323
-7.67949
-7.31049
-8.32586
-7.89198
-8.09948
-7.72286
-7.46516
-7.49731
-6.86867
-7.24979
-6.46556
-7.08428
-6.19357
-6.97221
-6.18425
-6.99163
-6.2266
-7.09232
-6.28599
-7.09424
-6.4532
-6.79024
-6.72664
-6.50047
-6.81034
-6.35184
-6.85104
-6.23252
-6.89486
-6.14237
-6.94117
-6.11014
-6.92505
-6.09627
-6.90776
-6.09417
-6.87347
-6.21778
-6.49525
-6.27513
-6.27312
-6.13142
-6.0362
-5.97712
-5.80445
-5.71453
-5.48536
-5.27137
-5.02868
-4.6873
-4.41081
-3.89802
-3.53688
-2.67005
-2.28673
-0.888884
-0.58702
1.43143
1.61077
4.56389
4.61377
8.57234
8.61715
13.7073
13.6285
20.385
20.2817
28.6064
28.7089
38.2341
38.7274
49.694
50.1191
62.9103
30.191
38.1779
31.5638
35.7193
32.3137
34.0831
32.4665
32.9897
32.3911
32.2141
32.225
31.6694
31.9872
31.28
31.698
30.9123
31.2749
30.8574
30.6828
30.7528
30.1999
30.5705
29.8104
30.2934
29.4048
30.0406
28.9897
29.7917
28.5722
29.5394
28.2168
29.2516
27.9641
28.8725
27.894
28.3996
27.9866
27.8771
28.0201
27.5387
27.9666
27.2448
27.892
26.961
27.8064
26.701
27.6834
26.4942
27.4816
26.3709
27.181
26.3296
26.779
26.4227
26.2781
26.3859
26.0095
26.2651
25.8044
26.1207
25.5914
25.9149
25.3275
25.586
24.9646
25.0472
24.3797
24.1993
23.4249
22.8333
21.8412
20.6768
19.2079
17.204
14.8829
11.6092
7.816
2.53201
-3.63169
-11.8131
-21.2304
-32.8811
-45.0949
-58.8948
-70.3819
-80.5491
-83.095
-81.3778
-76.806
-70.1582
-59.0892
-47.085
-32.8791
-16.1454
-4.22524
5.84877
8.74705
10.041
7.26391
5.90172
2.16338
0.261587
-4.71776
-7.20271
-10.1437
-11.1236
-11.804
-10.1644
-9.53751
-9.3061
-8.67245
-8.56224
-7.28205
-6.77536
-5.29796
-5.87411
-5.67016
-7.19326
-6.80427
-8.03342
-7.50113
-8.49783
-8.2396
-8.21183
-7.90149
-7.31291
-7.43317
-6.88403
-7.37709
-6.59761
-7.27989
-6.31452
-7.11734
-6.26283
-7.14693
-6.2782
-7.21914
-6.33651
-7.16896
-6.49139
-6.81083
-6.79183
-6.50614
-6.89524
-6.34258
-6.94005
-6.26973
-7.01891
-6.22931
-7.09425
-6.21326
-7.1055
-6.23733
-7.08062
-6.29351
-7.0704
-6.46772
-6.80478
-6.58279
-6.59316
-6.51781
-6.43226
-6.44858
-6.27424
-6.41594
-6.17721
-6.11965
-5.92385
-5.73144
-5.54469
-5.2969
-5.0427
-4.5498
-4.30676
-3.26332
-3.26435
-1.5609
-1.77954
0.558914
0.192778
3.33727
3.16114
7.11229
6.74837
12.3255
12.0489
19.1156
19.4444
27.3732
28.1372
37.7151
38.1928
50.2414
32.6229
39.503
33.2773
36.0101
33.3892
33.9144
32.9885
32.7671
32.6204
32.0809
32.2948
31.5903
31.9848
31.2061
31.711
30.846
31.2608
30.8177
30.5969
30.7624
30.1073
30.596
29.734
30.3618
29.3405
30.1094
28.9336
29.8615
28.5114
29.5895
28.1599
29.2841
27.9092
28.9005
27.827
28.4051
27.9383
27.8415
28.0089
27.4681
27.9785
27.1651
27.9247
26.8808
27.8688
26.6189
27.7675
26.4278
27.5759
26.3324
27.2639
26.3257
26.8388
26.4757
26.3146
26.5075
26.0556
26.4731
25.8871
26.4167
25.7948
26.3317
25.698
26.1617
25.5601
25.8199
25.2827
25.232
24.6984
24.281
23.6309
22.7291
21.7221
20.0958
18.3662
15.5821
12.5437
7.84929
2.47758
-5.42371
-14.606
-27.2397
-41.2016
-57.5195
-73.4993
-88.3341
-94.207
-94.5353
-92.0884
-89.8556
-80.1426
-67.5417
-50.1073
-27.7339
-9.84871
7.47033
13.4071
15.027
11.3936
11.3851
8.57018
6.62083
-0.849611
-4.91003
-11.0817
-13.3214
-14.8751
-12.6322
-11.5383
-9.99202
-9.15196
-8.65638
-7.80249
-7.06576
-4.84402
-4.63765
-4.32971
-5.92054
-5.85016
-7.61795
-7.31352
-8.66151
-8.34163
-9.14545
-8.37015
-8.0057
-7.5276
-6.831
-7.22345
-6.31571
-7.03255
-6.0398
-6.85657
-5.99215
-6.88978
-6.11609
-7.09374
-6.26626
-7.20328
-6.49996
-6.89132
-6.78715
-6.58764
-6.84118
-6.37173
-6.86951
-6.20448
-6.9143
-6.16697
-7.02031
-6.18004
-7.08984
-6.21608
-7.10607
-6.26382
-7.13664
-6.44952
-6.94877
-6.64527
-6.68728
-6.66167
-6.50694
-6.63996
-6.43279
-6.68231
-6.41813
-6.53848
-6.2474
-6.31825
-6.07743
-6.13405
-5.875
-5.64552
-5.39384
-4.68474
-4.5126
-3.46635
-3.72589
-1.56264
-2.35857
0.369272
-0.042797
3.28304
2.20823
7.26132
5.88258
12.2849
11.4215
18.5667
17.831
26.5381
25.6281
37.5656
34.1585
40.1208
35.5125
37.1221
35.2258
35.3123
34.3442
33.9153
33.6632
32.9037
33.1312
32.2082
32.6773
31.67
32.2836
31.2185
31.651
31.1891
30.873
31.1187
30.3027
30.9247
29.8548
30.6671
29.4275
30.3859
29.009
30.0996
28.5902
29.7915
28.2273
29.4545
27.981
29.0592
27.9238
28.5142
28.0833
27.9046
28.1709
27.5042
28.1752
27.1686
28.1373
26.8816
28.0727
26.6351
27.9511
26.4633
27.7453
26.3952
27.4168
26.4255
26.9633
26.6038
26.4141
26.6187
26.132
26.5871
25.9748
26.5405
25.8898
26.4833
25.8391
26.3927
25.8047
26.1586
25.7027
25.7353
25.3789
25.0319
24.6307
23.8858
23.2054
21.8839
20.6126
18.3392
15.8926
11.9738
7.38979
0.618968
-7.78155
-19.3457
-33.578
-51.4328
-69.6976
-90.7281
-99.022
-97.2571
-92.4594
-89.8004
-82.2817
-74.8083
-62.3825
-37.7404
-16.6658
4.27613
16.6012
20.7416
14.5519
10.1283
6.86761
6.56136
0.937245
-4.65705
-10.1571
-13.5243
-16.6365
-13.3067
-10.8292
-10.4801
-9.93815
-10.2813
-8.5224
-7.8845
-4.35239
-4.42552
-3.96171
-6.60615
-6.2216
-7.50663
-7.20825
-8.57941
-8.67084
-9.101
-8.7614
-7.6549
-7.65075
-6.988
-7.54443
-6.68448
-7.36137
-6.22321
-7.01328
-6.10192
-7.04613
-6.14096
-7.18239
-6.29824
-7.19426
-6.52821
-6.84595
-6.8389
-6.55777
-6.93848
-6.32829
-6.98992
-6.21026
-7.04451
-6.18982
-7.11633
-6.22237
-7.16605
-6.26717
-7.18587
-6.34247
-7.19087
-6.60082
-7.03404
-6.84363
-6.83367
-6.88145
-6.65732
-6.84947
-6.6311
-6.99972
-6.79705
-6.97281
-6.67015
-6.79252
-6.58243
-6.76098
-6.60644
-6.69375
-6.54434
-5.96486
-6.08321
-5.10847
-5.52352
-3.98144
-5.01101
-3.13857
-3.3465
-1.38186
-2.56715
1.34262
-0.537093
4.80641
4.76223
9.29562
9.84513
15.1436
15.2695
24.5859
37.1463
40.8665
36.853