/*--------------------------------*- C++ -*----------------------------------*\
| =========                 |                                                 |
| \\      /  F ield         | OpenFOAM: The Open Source CFD Toolbox           |
|  \\    /   O peration     | Version:  4.1                                   |
|   \\  /    A nd           | Web:      www.OpenFOAM.org                      |
|    \\/     M anipulation  |                                                 |
\*---------------------------------------------------------------------------*/
FoamFile
{
    version     2.0;
    format      ascii;
    class       volScalarField;
    location    "21";
    object      p;
}
// * * * * * * * * * * * * * * * * * * * * * * * * * * * * * * * * * * * * * //

dimensions      [0 2 -2 0 0 0 0];

internalField   nonuniform List<scalar> 
6750
(
-182.852
-99.4529
-190.411
-190.454
-217.964
-226.451
-233.378
-236.478
-238.357
-242.802
-251.898
-243.421
-254.769
-139.265
-293.01
-182.512
-98.3518
-189.891
-190.586
-218.676
-227.184
-234.473
-236.968
-239.286
-243.053
-250.03
-243.653
-254.33
-137.963
-293.065
-182.207
-97.4152
-189.549
-190.79
-219.239
-227.758
-235.336
-237.711
-240.449
-243.683
-249.752
-245.987
-254.312
-137.371
-293.39
-181.818
-96.1815
-189.088
-191.032
-219.926
-228.412
-236.152
-238.286
-242.628
-243.125
-249.347
-243.239
-254.017
-136.409
-293.223
-181.47
-94.9085
-188.677
-191.29
-220.535
-228.949
-236.821
-238.489
-241.793
-243.136
-250.488
-242.355
-253.839
-136.217
-293.265
-181.19
-93.6543
-188.267
-191.499
-221.017
-229.358
-237.179
-238.258
-241.537
-243.133
-248.745
-241.769
-254.071
-135.485
-293.254
-181.063
-92.6648
-187.94
-191.647
-221.392
-229.857
-238.017
-239.504
-241.558
-242.47
-250.543
-246.772
-254.787
-135.683
-293.426
-181.099
-92.398
-187.86
-191.685
-221.487
-229.909
-238.07
-238.848
-241.563
-243.149
-249.685
-246.437
-255.77
-134.999
-293.629
-181.25
-92.9163
-188.102
-191.712
-221.424
-229.799
-237.895
-237.495
-240.973
-244.058
-251.195
-245.491
-254.947
-135.584
-293.373
-181.539
-94.0394
-188.553
-191.646
-221.148
-229.465
-237.361
-237.587
-241.484
-243.36
-249.46
-241.815
-254.211
-135.495
-293.121
-181.945
-95.3972
-189.081
-191.528
-220.741
-229.107
-236.846
-238.175
-241.268
-243.937
-251.424
-243.203
-254.071
-136.187
-293.057
-182.388
-96.7356
-189.589
-191.36
-220.224
-228.637
-236.231
-237.882
-242.193
-243.233
-249.997
-244.705
-254.195
-136.445
-292.966
-182.849
-98.0181
-190.139
-191.211
-219.634
-228.092
-235.567
-237.463
-241.035
-243.758
-250.437
-247.84
-254.609
-137.445
-293.124
-183.201
-98.9848
-190.542
-191.07
-219.137
-227.558
-234.743
-236.421
-239.377
-243.832
-251.389
-245.31
-254.657
-138.148
-292.82
-183.581
-100.115
-191.133
-191.023
-218.529
-226.988
-233.843
-236.511
-237.929
-243.36
-253.122
-246.329
-255.197
-139.584
-292.769
-251.399
-74.0235
-191.914
-191.719
-218.638
-227.327
-233.696
-234.049
-238.424
-242.554
-252.773
-237.59
-260.448
-100.165
-411.131
-250.96
-73.0307
-191.281
-191.752
-219.502
-228.314
-235.258
-235.353
-241.453
-243.368
-251.363
-236.657
-260.135
-99.1605
-411.544
-250.591
-72.38
-190.976
-191.894
-220.102
-228.968
-236.513
-237.238
-244.483
-244.687
-247.763
-236.769
-259.588
-98.8625
-412.374
-250.124
-71.4088
-190.447
-192.049
-220.846
-229.734
-237.347
-238.313
-241.853
-243.324
-249.763
-236.092
-259.073
-98.3327
-412.009
-249.729
-70.4742
-189.977
-192.245
-221.483
-230.347
-238.13
-239.359
-242.217
-242.866
-250.964
-234.733
-258.256
-98.5351
-412.058
-249.435
-69.5273
-189.433
-192.388
-221.966
-230.688
-238.275
-238.679
-241.859
-244.099
-250.276
-233.597
-258.212
-97.9405
-412.006
-249.38
-68.7564
-188.942
-192.505
-222.353
-231.182
-239.31
-239.222
-242.717
-243.791
-250.009
-236.222
-259.261
-98.0978
-412.453
-249.506
-68.5221
-188.798
-192.529
-222.434
-231.241
-239.379
-239.393
-242.106
-243.199
-247.951
-233.08
-259.034
-97.1055
-412.911
-249.656
-68.893
-189.154
-192.572
-222.399
-231.213
-239.298
-238.936
-242.318
-243.75
-249.205
-235.624
-259.568
-97.8942
-412.355
-249.958
-69.7304
-189.765
-192.543
-222.117
-230.817
-238.426
-237.592
-241.583
-243.655
-248.776
-233.465
-258.004
-97.8448
-411.662
-250.423
-70.7469
-190.424
-192.504
-221.736
-230.54
-238.217
-238.211
-241.943
-243.752
-250.687
-234.748
-258.068
-98.4272
-411.483
-250.947
-71.7272
-190.983
-192.415
-221.226
-230.118
-237.652
-238.48
-241.434
-243.034
-249.661
-236.053
-258.536
-98.3042
-411.217
-251.509
-72.7412
-191.599
-192.377
-220.622
-229.568
-237.107
-238.304
-244.137
-244.042
-248.223
-238.573
-259.281
-98.8456
-411.506
-251.937
-73.4171
-191.959
-192.312
-220.119
-229.066
-236.135
-237.406
-242.64
-243.904
-250.365
-237.996
-259.663
-99.1491
-410.661
-252.431
-74.4454
-192.671
-192.395
-219.401
-228.29
-234.798
-236.205
-239.535
-243.532
-251.424
-238.962
-260.238
-100.077
-410.221
-358.295
-26.6529
-187.656
-195.698
-220.727
-231.506
-238.227
-238.722
-241.65
-237.797
-242.131
-220.466
-264.775
-28.3619
-598.593
-357.731
-25.9932
-187.024
-195.542
-221.554
-232.53
-239.768
-240.219
-244.952
-241.556
-243.034
-218.75
-263.834
-28.0475
-599.308
-357.311
-25.8122
-186.799
-195.598
-222.06
-233.069
-240.763
-241.502
-246.815
-243.359
-240.225
-217.42
-262.427
-28.3013
-600.706
-356.768
-25.3942
-186.219
-195.599
-222.734
-233.811
-241.431
-242.046
-242.038
-241.152
-241.729
-218.266
-262.491
-28.579
-600.155
-356.363
-25.1486
-185.68
-195.697
-223.286
-234.322
-241.933
-242.292
-240.385
-238.986
-242.48
-218.518
-262.155
-29.3635
-600.58
-356.103
-24.8585
-184.959
-195.734
-223.695
-234.652
-242.133
-242.468
-241.08
-238.99
-242.512
-217.804
-260.745
-29.4416
-599.885
-356.211
-24.571
-184.247
-195.791
-224.003
-235.009
-242.789
-242.464
-242.317
-240.161
-240.895
-218.463
-262.364
-29.584
-600.92
-356.449
-24.4216
-183.996
-195.781
-224.029
-234.978
-242.716
-242.204
-241.631
-239.963
-241.532
-214.28
-258.44
-29.5297
-600.102
-356.528
-24.4884
-184.507
-195.844
-224.045
-235.003
-242.756
-241.929
-242.016
-240.372
-241.713
-217.748
-261.698
-29.6513
-600.458
-356.778
-24.7195
-185.317
-195.867
-223.835
-234.699
-242.146
-240.868
-241.201
-239.257
-241.39
-217.545
-260.448
-29.6277
-599.164
-357.251
-25.0303
-186.139
-195.945
-223.551
-234.49
-242.11
-241.783
-241.601
-240.476
-242.142
-218.317
-261.863
-29.5904
-599.481
-357.822
-25.3139
-186.733
-195.96
-223.13
-234.165
-241.764
-242.039
-242.257
-241.242
-240.219
-218.31
-262.002
-28.9116
-598.824
-358.482
-25.7886
-187.379
-196.099
-222.614
-233.651
-241.353
-241.994
-245.904
-241.734
-238.178
-219.079
-262.469
-28.7264
-599.168
-358.975
-26.01
-187.633
-196.125
-222.208
-233.278
-240.602
-241.349
-244.782
-240.679
-240.01
-219.788
-263.59
-28.5073
-597.657
-359.61
-26.7349
-188.337
-196.429
-221.565
-232.516
-239.4
-240.435
-242.5
-239.457
-239.884
-221.041
-264.528
-28.855
-596.653
-456.225
-8.61333
-175.057
-206.087
-225.302
-239.87
-247.245
-247.726
-244.9
-239.543
-231.966
-212.424
-265.976
54.5771
-780.546
-455.74
-8.17229
-174.664
-205.799
-225.831
-240.555
-248.217
-248.669
-247.504
-241.688
-233.806
-212.295
-264.086
52.9667
-783.16
-455.433
-8.24036
-174.555
-205.796
-226.165
-240.853
-248.73
-249.013
-249.54
-241.803
-232.479
-210.264
-259.081
52.201
-786.658
-455.013
-8.29914
-174.084
-205.682
-226.61
-241.372
-249.201
-249.028
-246.878
-238.2
-232.946
-212.814
-259.836
49.4129
-787.76
-454.773
-8.74338
-173.601
-205.721
-226.98
-241.668
-249.402
-248.731
-244.631
-235.883
-231.502
-213.083
-260.139
46.7183
-789.27
-454.715
-9.21754
-172.896
-205.69
-227.216
-241.899
-249.503
-248.743
-244.548
-234.928
-231.333
-211.747
-258.325
44.5065
-788.702
-454.991
-9.6408
-172.185
-205.719
-227.386
-242.094
-249.875
-248.822
-246.132
-236.913
-229.984
-209.979
-259.303
43.7145
-790.2
-455.227
-9.74086
-171.909
-205.704
-227.364
-242.022
-249.777
-248.5
-245.809
-236.651
-233.35
-210.886
-249.983
43.0392
-788.367
-455.231
-9.4116
-172.427
-205.797
-227.44
-242.099
-249.936
-248.497
-246.038
-236.522
-231.742
-211.914
-258.967
43.6575
-789.684
-455.354
-8.86019
-173.209
-205.858
-227.367
-241.992
-249.681
-248.144
-244.891
-235.374
-231.087
-211.256
-258.457
44.7051
-788.202
-455.674
-8.3966
-173.993
-206.018
-227.268
-241.901
-249.775
-248.75
-246.081
-237.39
-233.121
-213.811
-260.563
46.9012
-788.621
-456.092
-8.06104
-174.501
-206.097
-227.027
-241.747
-249.714
-249.113
-247.464
-238.658
-232.638
-212.974
-260.233
49.6191
-786.92
-456.631
-8.14246
-175.012
-206.361
-226.746
-241.431
-249.494
-249.403
-249.526
-241.099
-231.109
-210.97
-260.898
52.2591
-785.515
-457.015
-8.18733
-175.126
-206.452
-226.504
-241.263
-249.147
-249.264
-247.53
-240.724
-231.956
-211.91
-265.423
52.8712
-781.537
-457.571
-8.7722
-175.572
-206.894
-226.162
-240.835
-248.536
-248.929
-245.601
-240.6
-232.281
-213.436
-266.493
54.2433
-778.355
-562.746
-41.6885
-165.095
-225.618
-234.994
-252.305
-261.055
-260.592
-257.938
-243.792
-230.017
-213.505
-286.593
118.859
-995.677
-562.366
-41.1601
-164.933
-225.32
-235.216
-252.686
-261.48
-261.131
-259.13
-244.962
-230.223
-213.895
-282.2
114.896
-1000.85
-562.162
-41.1732
-164.931
-225.296
-235.407
-252.88
-261.682
-261.36
-259.714
-244.317
-229.932
-213.956
-273.649
113.569
-1006.47
-561.863
-41.2008
-164.661
-225.146
-235.591
-253.174
-261.915
-261.385
-259.197
-242.632
-232.455
-216.226
-271.772
108.3
-1010.08
-561.737
-41.7123
-164.394
-225.163
-235.798
-253.344
-262.026
-261.07
-257.744
-238.945
-230.994
-216.61
-271.303
102.551
-1012.3
-561.778
-42.2573
-163.974
-225.103
-235.867
-253.42
-261.984
-260.712
-257.353
-237.287
-229.862
-215.938
-267.752
97.6961
-1012.29
-562.092
-42.8549
-163.567
-225.13
-235.956
-253.533
-262.176
-260.775
-258.776
-241.952
-228.604
-210.579
-263.207
95.4204
-1013.12
-562.311
-43.0894
-163.389
-225.133
-235.916
-253.45
-262.031
-260.385
-258.158
-241.831
-229.355
-217.771
-255.186
94.7249
-1011.88
-562.369
-42.7051
-163.717
-225.261
-236.038
-253.562
-262.252
-260.47
-258.771
-240.905
-229.791
-214.138
-265.688
95.8814
-1013.02
-562.459
-42.0213
-164.183
-225.338
-236.063
-253.558
-262.19
-260.356
-257.579
-237.46
-230.103
-215.573
-268.485
99.046
-1011.95
-562.678
-41.5268
-164.701
-225.545
-236.149
-253.62
-262.451
-261.031
-259.026
-239.871
-233.407
-216.614
-272.194
104.233
-1011.83
-562.97
-41.2015
-164.998
-225.655
-236.082
-253.61
-262.555
-261.546
-260.3
-243.158
-233.707
-215.863
-272.56
110.281
-1009.35
-563.382
-41.3782
-165.312
-225.968
-236.071
-253.54
-262.597
-261.965
-260.993
-245.281
-231.738
-213.482
-275.124
115.743
-1005.45
-563.664
-41.5292
-165.319
-226.088
-235.983
-253.486
-262.57
-262.019
-260.366
-245.781
-231.55
-212.601
-282.886
117.189
-999.182
-564.112
-42.254
-165.535
-226.541
-235.944
-253.343
-262.48
-262.016
-259.646
-246.07
-233.259
-214.097
-286.769
120.897
-993.584
-680.479
-92.1773
-166.316
-253.389
-251.072
-270.048
-281.537
-280.553
-283.161
-259.538
-264.235
-236.144
-392.239
199.562
-1220.39
-680.138
-91.6646
-166.171
-253.081
-250.997
-270.16
-281.574
-280.611
-283.009
-260.323
-261.896
-235.164
-379.039
191.346
-1237.22
-679.998
-91.6486
-166.169
-253.062
-251.115
-270.364
-281.842
-280.922
-283.271
-261.824
-261.43
-239.157
-368.398
190.507
-1257.61
-679.735
-91.501
-165.995
-252.892
-251.071
-270.478
-281.866
-280.751
-281.799
-260.514
-261.338
-244.437
-359.243
176.63
-1277.83
-679.644
-91.7387
-165.928
-252.908
-251.191
-270.635
-281.815
-280.661
-279.132
-257.642
-255.467
-245.335
-345.435
159.036
-1286.4
-679.554
-91.9818
-165.796
-252.838
-251.154
-270.569
-281.485
-280.289
-278.273
-254.832
-252.25
-242.526
-330.821
142.487
-1290.35
-679.721
-92.371
-165.707
-252.896
-251.272
-270.648
-281.533
-280.201
-279.814
-258.313
-251.567
-236.824
-319.675
132.312
-1290.39
-679.998
-92.4647
-165.687
-252.931
-251.256
-270.584
-281.32
-279.907
-279.353
-259.457
-249.977
-242.516
-312.221
128.425
-1290.17
-680.275
-92.1878
-165.836
-253.081
-251.434
-270.748
-281.59
-279.977
-279.856
-256.681
-252.253
-237.351
-321.008
132.746
-1290.49
-680.453
-91.8495
-165.94
-253.164
-251.495
-270.787
-281.729
-280.027
-278.797
-253.45
-252.875
-240.888
-330.507
143.402
-1290.02
-680.653
-91.8157
-166.2
-253.43
-251.724
-271.034
-282.365
-280.808
-280.428
-256.866
-257.541
-243.593
-345.013
160.216
-1286.46
-680.905
-91.7764
-166.342
-253.562
-251.776
-271.12
-282.721
-281.257
-282.869
-260.128
-262.431
-244.001
-359.714
178.105
-1277.91
-681.264
-92.1218
-166.591
-253.916
-252.009
-271.288
-283.095
-281.846
-284.915
-262.638
-264.127
-240.112
-370.298
193.205
-1257.83
-681.481
-92.2954
-166.623
-254.047
-252.013
-271.274
-283.102
-281.867
-285.074
-261.993
-264.599
-235.979
-380.52
194.576
-1236.22
-681.88
-92.9911
-166.834
-254.507
-252.248
-271.376
-283.332
-282.215
-285.761
-262.243
-268.86
-238.804
-393.797
202.392
-1219.3
-804.612
-137.898
-179.17
-286.901
-274.483
-293.336
-308.332
-307.767
-317.981
-288.372
-333.885
-283.549
-712.1
215.351
-1564.06
-804.234
-137.488
-178.953
-286.491
-273.994
-293.038
-307.485
-307.33
-319.544
-291.424
-329.933
-281.959
-673.147
209.994
-1588.22
-804.125
-137.525
-178.9
-286.471
-274.076
-293.457
-307.611
-308.26
-319.611
-295.978
-326.962
-291.204
-636.677
213.718
-1613.02
-803.833
-137.336
-178.715
-286.241
-273.802
-293.546
-307.218
-307.902
-316.862
-297.403
-321.292
-299.197
-559.407
200.604
-1647.1
-803.755
-137.482
-178.697
-286.257
-273.949
-293.867
-307.613
-307.283
-311.931
-297.449
-313.356
-307.747
-509.045
174.186
-1660.25
-803.603
-137.531
-178.672
-286.177
-273.862
-293.854
-307.354
-307.405
-309.142
-296.081
-305.55
-309.894
-473.121
152.056
-1663.95
-803.649
-137.762
-178.736
-286.278
-274.04
-294.045
-307.517
-307.616
-311.46
-296.452
-303.5
-308.763
-453.591
139.291
-1666.12
-803.82
-137.822
-178.868
-286.356
-274.073
-293.984
-307.507
-307.358
-311.005
-296.498
-301.896
-311.186
-444.499
134.753
-1666.95
-804.305
-137.662
-178.938
-286.557
-274.308
-294.274
-307.846
-307.393
-310.911
-295.527
-302.021
-308.026
-453.408
141.269
-1667.35
-804.617
-137.485
-178.838
-286.647
-274.372
-294.338
-308.037
-307.399
-308.968
-294.981
-303.794
-308.339
-472.139
155.623
-1664.93
-804.814
-137.714
-179.059
-287.013
-274.743
-294.749
-308.82
-307.787
-311.863
-297.248
-312.361
-306.217
-507.637
178.7
-1660.45
-805.079
-137.8
-179.164
-287.185
-274.85
-294.794
-309.072
-308.281
-316.888
-297.732
-321.252
-299.131
-556.031
206.847
-1647.72
-805.467
-138.159
-179.448
-287.63
-275.344
-295.075
-309.823
-309.16
-321.044
-297.198
-328.922
-291.376
-634.541
222.995
-1613.37
-805.66
-138.278
-179.551
-287.78
-275.421
-294.881
-309.931
-308.839
-321.743
-293.598
-333.05
-283.286
-678.496
219.941
-1586.81
-806.083
-138.846
-179.838
-288.321
-276.016
-295.276
-310.752
-309.687
-320.967
-291.893
-338.311
-287.103
-717.038
223.92
-1562.14
-938.517
-178.495
-198.837
-323.758
-306.584
-323.543
-348.764
-349.407
-374.386
-356.269
-518.264
-339.053
-1716.93
244.543
-1745.77
-937.991
-178.102
-198.539
-323.036
-305.313
-321.637
-344.868
-349.603
-375.338
-357.581
-495.694
-330.699
-1567.91
281.559
-1818.31
-937.852
-178.216
-198.455
-322.942
-305.275
-321.639
-344.152
-350.522
-376.099
-360.518
-486.705
-343.841
-1502.61
325.901
-1922.2
-937.418
-178.05
-198.222
-322.576
-304.599
-321.366
-342.078
-345.953
-372.354
-360.281
-466.657
-366.306
-1217.21
355.197
-2073.38
-937.277
-178.294
-198.188
-322.625
-304.687
-322.165
-341.976
-340.14
-363.808
-358.236
-443.261
-384.364
-910.319
323.884
-2146.67
-936.973
-178.352
-198.165
-322.558
-304.557
-322.222
-342.532
-338.19
-357.805
-355.31
-422.036
-401.704
-735.764
275.42
-2168.08
-937.054
-178.543
-198.242
-322.695
-304.771
-322.689
-342.628
-339.16
-356.322
-355.309
-409.848
-413.41
-679.531
233.784
-2162.53
-937.115
-178.619
-198.517
-322.849
-304.797
-322.812
-342.652
-338.765
-354.399
-353.901
-405.377
-415.978
-659.695
218.573
-2158.03
-937.719
-178.511
-198.635
-323.122
-305.182
-323.383
-343.319
-339.743
-355.143
-354.768
-407.061
-413.084
-678.023
233.952
-2164.02
-938.231
-178.303
-198.424
-323.22
-305.356
-323.58
-343.835
-338.901
-357.09
-354.758
-418.428
-401.934
-730.899
274.484
-2168.88
-938.445
-178.65
-198.721
-323.73
-305.996
-324.201
-344.649
-339.829
-363.446
-358.446
-440.596
-385.128
-890.356
326.259
-2150.32
-938.812
-178.717
-198.839
-323.953
-306.223
-324.115
-344.955
-344.192
-371.916
-361.922
-465.698
-366.022
-1193.66
359.501
-2081.88
-939.36
-179.025
-199.184
-324.565
-307.155
-324.68
-347.127
-349.392
-377.635
-364.569
-490.12
-345.574
-1511.73
338.53
-1927.31
-939.597
-179.083
-199.334
-324.791
-307.365
-324.614
-348.084
-349.81
-378.418
-362.349
-499.678
-327.07
-1589.34
285.087
-1812.04
-940.151
-179.616
-199.693
-325.592
-308.622
-326.212
-351.533
-350.87
-378.639
-362.087
-524.156
-336.637
-1724.94
246.975
-1742.9
-1082.63
-218.337
-222.905
-364.328
-347.597
-362.334
-407.514
-396.197
-460.805
-399.633
-750.333
-250.859
-1830.42
-98.3285
-2260.22
-1081.9
-217.75
-222.46
-362.931
-344.981
-357.055
-399.572
-397.679
-458.819
-400.844
-715.917
-244.512
-1793.78
-3.1005
-2298.18
-1081.7
-217.877
-222.354
-362.573
-344.412
-355.291
-397.536
-395.678
-459.09
-406.885
-714.254
-263.553
-1962.13
2.8571
-2315.35
-1081.06
-217.637
-222.037
-361.87
-342.883
-353.825
-389.156
-389.436
-450.857
-416.41
-674.517
-354.144
-1928.72
112.876
-2595.06
-1080.8
-218.009
-222.007
-361.95
-342.755
-355.597
-384.197
-379.04
-437.305
-423.799
-620.192
-409.471
-1448.51
246.308
-2783.83
-1080.29
-218.12
-221.958
-361.996
-342.329
-356.924
-385.047
-373.168
-427.31
-425.7
-584.634
-473.522
-1052.3
285.199
-2812.55
-1080.36
-218.432
-222.008
-362.244
-342.694
-357.728
-386.515
-369.217
-423.485
-427.634
-566.85
-510.382
-943.518
254.49
-2822.64
-1080.23
-218.616
-222.386
-362.504
-342.83
-358.213
-386.376
-366.589
-421.446
-426.19
-560.029
-517.186
-917.867
246.869
-2811.75
-1080.97
-218.54
-222.605
-362.895
-343.601
-359.062
-388.06
-368.276
-424.266
-426.027
-566.496
-511.603
-944.251
262.705
-2832.12
-1081.83
-218.192
-222.321
-362.997
-343.997
-359.346
-388.944
-370.797
-428.357
-425.315
-585.775
-477.679
-1046.4
294.722
-2820.15
-1082.13
-218.576
-222.734
-363.638
-345.077
-359.774
-390.315
-377.233
-437.292
-425.468
-622.054
-415.029
-1422.12
268.659
-2788.85
-1082.64
-218.609
-222.9
-363.904
-345.589
-359.087
-393.257
-385.99
-451.384
-421.797
-678.935
-359.563
-1923.63
137.838
-2622.13
-1083.42
-218.959
-223.337
-364.848
-347.263
-360.332
-400.776
-393.371
-462.487
-415.109
-724.81
-266.093
-2020.12
18.3965
-2321.45
-1083.73
-219.022
-223.523
-365.311
-347.859
-361.502
-403.539
-397.713
-464
-410.075
-728.955
-241.85
-1819.44
10.2326
-2307.61
-1084.46
-219.73
-224.007
-366.723
-350.258
-366.114
-411.054
-398.088
-467.361
-410.341
-765.765
-252.983
-1864.49
-88.8331
-2263.67
-1235.06
-262.947
-250.097
-410.737
-397.007
-410.198
-484.779
-442.815
-584.814
-435.676
-973.767
-340.885
-1628.6
-8.66723
-3052.32
-1234.11
-261.94
-249.354
-408.367
-392.588
-401.607
-474.681
-444.952
-573.453
-436.266
-932.789
-318.621
-1703.03
-25.67
-3014.77
-1233.8
-261.961
-249.172
-407.519
-390.714
-397.507
-471.47
-446.479
-568.727
-450.289
-945.982
-313.318
-1961.57
9.83905
-2941.54
-1232.94
-261.459
-248.656
-406.06
-387.553
-393.616
-454.205
-442.114
-557.031
-477.108
-890.942
-396.468
-2360.45
52.4256
-3121.86
-1232.53
-261.847
-248.64
-405.977
-387.486
-395.915
-444.4
-430.613
-541.838
-498.329
-810.942
-487.914
-1925.82
227.644
-3559.07
-1231.82
-261.944
-248.539
-406.062
-386.918
-399.033
-439.998
-425.933
-527.524
-512.12
-754.585
-569.879
-1366.22
371.68
-3601.98
-1231.81
-262.436
-248.6
-406.519
-387.333
-401.112
-440.768
-421.913
-518.332
-520.677
-740.604
-624.322
-1207.44
340.041
-3636.99
-1231.45
-262.731
-249.027
-406.83
-387.681
-401.951
-440.931
-419.435
-514.806
-521.546
-732.353
-628.65
-1179.09
331.271
-3622.19
-1232.32
-262.717
-249.399
-407.459
-388.903
-403.264
-445.47
-420.353
-518.841
-520.588
-745.904
-625.349
-1210.32
356.116
-3659.95
-1233.61
-262.239
-249.133
-407.651
-389.57
-403.11
-446.129
-424.098
-527.695
-515.965
-765.392
-575.853
-1363.67
390.995
-3616.93
-1234.1
-262.67
-249.651
-408.476
-391.165
-403.111
-450.973
-430.473
-543.662
-506.425
-821.131
-491.905
-1909.71
280.209
-3588.53
-1234.73
-262.797
-249.893
-408.912
-391.831
-401.576
-458.784
-439.805
-562.162
-489.482
-905.202
-406.383
-2374.51
111.694
-3213.55
-1235.76
-263.401
-250.512
-410.524
-394.692
-404.197
-475.117
-445.553
-577.207
-465.4
-964.179
-315.86
-2036.39
20.4985
-2961.58
-1236.18
-263.581
-250.779
-411.458
-396.376
-407.58
-479.754
-447.65
-583.603
-451.735
-960.108
-321.237
-1751.15
-1.58931
-3019.5
-1237.12
-264.693
-251.534
-413.79
-400.449
-415.666
-489.739
-448.303
-595.677
-451.666
-1002.45
-348.314
-1684.56
-0.348757
-3041.14
-1396.46
-317.777
-281.42
-468.097
-460.211
-472.293
-585.086
-505.221
-757.445
-506.555
-1215.94
-528.855
-1717.87
306.261
-4138.6
-1395.32
-316.265
-280.265
-464.704
-454.094
-461.692
-574.086
-508.537
-734.038
-510.645
-1178.73
-540.266
-1804.51
70.9802
-4222.27
-1394.86
-316.082
-279.948
-463.284
-450.823
-455.536
-570.009
-515.274
-727.819
-531.821
-1209.08
-488.771
-2113.05
30.5369
-4019.03
-1393.78
-315.194
-279.083
-460.749
-445.161
-447.017
-548.997
-509.823
-713.522
-561.95
-1131.36
-551.264
-2698.59
139.962
-3970.24
-1393.18
-315.417
-279.001
-460.167
-444.147
-449.1
-537.548
-500.36
-698.541
-591.92
-1027.32
-648.375
-2382.63
335.07
-4571.71
-1392.3
-315.371
-278.829
-459.944
-443.935
-453.327
-529.573
-497.539
-680.207
-614.145
-939.827
-708.657
-1735.52
495.169
-4632.81
-1392.12
-315.99
-278.985
-460.575
-444.78
-457.289
-528.213
-496.415
-669.988
-634.549
-942.619
-761.657
-1548.04
477.06
-4663.62
-1391.61
-316.393
-279.345
-460.804
-445.385
-458.426
-526.833
-495.93
-663.567
-634.532
-923.009
-758.457
-1506.69
465.69
-4658.16
-1392.52
-316.523
-279.911
-461.74
-447.068
-460.459
-533.988
-498.071
-670.512
-638.443
-950.096
-762.999
-1548.39
506.576
-4692.86
-1394.19
-316.012
-279.795
-462.187
-447.986
-459.903
-537.106
-500.045
-684.305
-627.892
-963.419
-703.966
-1778.76
523.899
-4639.24
-1395.05
-316.514
-280.366
-463.384
-449.775
-459.417
-546.839
-504.099
-707.135
-613.046
-1053.29
-635.202
-2458.87
342.466
-4585.27
-1395.78
-316.873
-280.728
-464.23
-450.811
-456.673
-557.508
-512.468
-726.725
-586.561
-1156.01
-529.207
-2814.79
170.074
-3930.12
-1397.04
-317.923
-281.689
-466.86
-455.836
-462.622
-577.717
-520.281
-743.959
-557.494
-1232.95
-475.226
-2194.26
69.3666
-3978.92
-1397.62
-318.306
-282.105
-468.389
-458.982
-468.658
-582.303
-518.309
-750.725
-534.212
-1227.05
-539.141
-1884.34
87.4948
-4160.5
-1398.76
-319.922
-283.272
-471.759
-464.778
-479.173
-592.253
-516.044
-774.413
-527.763
-1264.09
-533.251
-1764.04
324.237
-4092.15
-1565.11
-385.594
-315.889
-536.732
-536.192
-547.524
-699.127
-589.954
-958.333
-637.594
-1511.38
-627.599
-2354.84
963.677
-5225.89
-1563.81
-383.618
-314.303
-532.476
-528.754
-535.835
-685.111
-589.913
-929.982
-654.749
-1472.95
-733.342
-2488.46
580.225
-5478.97
-1563.19
-383.17
-313.849
-530.53
-524.92
-528.595
-680.394
-599.199
-919.777
-669.797
-1510.2
-698.623
-2698.15
385.412
-5480.24
-1561.9
-381.877
-312.583
-526.963
-517.564
-515.904
-659.317
-593.674
-899.031
-674.18
-1375.97
-691.31
-3356.97
446.036
-5377.03
-1561.08
-381.807
-312.298
-525.571
-514.592
-513.594
-650.023
-587.838
-881.785
-696.841
-1279.48
-828.488
-3055
704.814
-5966.47
-1560.01
-381.545
-311.892
-524.566
-513.39
-516.697
-641.369
-584.293
-856.554
-718.399
-1144.9
-835.042
-2286.53
723.483
-6099.53
-1559.56
-382.174
-312.101
-525.066
-514.612
-521.895
-639.279
-586.315
-852.832
-748.311
-1181.54
-881.049
-2049.51
743.122
-6115.33
-1558.93
-382.675
-312.282
-525.122
-515.164
-523.657
-636.137
-586.511
-840.159
-742.365
-1131.84
-872.28
-1985.54
693.459
-6167.11
-1559.77
-383.012
-313.048
-526.372
-517.38
-526.914
-644.678
-590.848
-856.355
-755.545
-1173.85
-889.525
-2006.32
749.153
-6156.24
-1561.76
-382.562
-313.243
-527.302
-518.699
-526.478
-650.03
-591.7
-873.126
-739.462
-1176.29
-809.998
-2415.68
765.951
-6128.59
-1563.19
-383.137
-313.975
-529.266
-521.366
-526.142
-662.935
-596.043
-904.734
-733.351
-1320.75
-779.884
-3148.44
647.477
-6038.15
-1564.07
-383.802
-314.578
-530.947
-524.056
-525.668
-673.239
-603.673
-926.794
-713.701
-1408.83
-633.333
-3426.9
394.196
-5334.76
-1565.5
-385.397
-316.002
-534.738
-531.303
-536.633
-694.153
-613.566
-949.694
-704.889
-1541.61
-692.048
-2754.03
380.388
-5443.99
-1566.25
-386.071
-316.609
-536.901
-535.361
-544.588
-700.016
-608.566
-959.342
-686.397
-1546.99
-770.932
-2598.11
533.482
-5444.51
-1567.57
-388.174
-318.261
-541.286
-542.752
-556.95
-712.966
-607.187
-988.617
-666.887
-1585.67
-666.744
-2418.65
981.284
-5184.6
-1735.52
-475.913
-360.848
-625.351
-642.744
-656.74
-857.159
-725.778
-1204.86
-790.104
-1950.72
-589.663
-3360.21
1429.47
-6429.7
-1734.2
-473.688
-358.93
-620.645
-634.372
-644.835
-838.522
-717.346
-1170.7
-805.856
-1899.96
-811.222
-3671.31
992.455
-6679.89
-1733.47
-473.027
-358.38
-618.401
-630.356
-637.651
-830.108
-719.409
-1156.54
-805.204
-1894.68
-842.639
-3808.26
810.708
-6947.72
-1732.09
-471.488
-356.804
-614.195
-622.352
-624.21
-807.842
-710.169
-1123.63
-800.611
-1692.68
-740.769
-4261.73
727.787
-6913.66
-1731.09
-471.161
-356.293
-612.11
-618.08
-617.316
-796.028
-705.762
-1107.86
-822.363
-1598.25
-950.475
-4143.8
1052.12
-7487.47
-1729.9
-470.738
-355.556
-610.188
-614.713
-615.412
-784.879
-701.517
-1073.2
-831.654
-1432.86
-904.915
-3091.6
1077.03
-7936.54
-1729.18
-471.282
-355.683
-610.229
-615.243
-619.332
-783.359
-705.417
-1077.52
-858.84
-1499.54
-919.143
-2967.5
1082.46
-7714.25
-1728.47
-471.821
-355.677
-610.103
-615.306
-621.191
-779.927
-704.405
-1055.7
-850.253
-1406.22
-938.147
-2793.6
1166.85
-8146.54
-1729.2
-472.355
-356.538
-611.575
-617.974
-625.468
-789.414
-710.548
-1081.32
-862.532
-1425.72
-951.399
-2828.95
1251.09
-7904.69
-1731.37
-472.076
-357.089
-613.045
-620.139
-626.33
-796.004
-711.557
-1102.59
-847.232
-1473.77
-874.296
-3577.4
1175.55
-7916.08
-1733.34
-472.696
-358.152
-615.948
-624.743
-629.326
-811.176
-718.965
-1145.15
-863.027
-1688.79
-835.802
-4347.19
1030.11
-7480.76
-1734.44
-473.576
-359.009
-618.533
-629.315
-634.028
-823.871
-726.049
-1168.88
-851.146
-1771.08
-650.676
-4301.18
757.664
-6811.85
-1735.88
-475.573
-360.824
-623.176
-637.862
-647.448
-847.792
-739.448
-1202.79
-851.286
-1973.84
-784.482
-3976.77
871.72
-6861.2
-1736.72
-476.539
-361.591
-625.784
-642.417
-655.724
-858.509
-740.512
-1218.36
-843.576
-2019.14
-820.931
-3957
1079.05
-6566.01
-1738.07
-478.934
-363.653
-630.801
-651.143
-668.874
-878.172
-749.632
-1253.79
-821.561
-2065.73
-603.279
-3613.08
1640.76
-6292.39
-1899.41
-589.912
-412.919
-727.724
-764.023
-778.685
-1031.85
-894.597
-1481.6
-953.242
-2390.95
-599.139
-4163.04
1938.6
-8417.01
-1898.09
-587.471
-410.688
-722.794
-754.874
-766.299
-1009.75
-875.914
-1435.57
-947.673
-2319.57
-921.859
-4855.31
1295.88
-8660.1
-1897.25
-586.566
-410.003
-720.4
-750.534
-759.493
-998.135
-866.263
-1413.61
-926.709
-2264.44
-901.021
-5061.59
873.055
-8825.1
-1895.78
-584.787
-408.144
-715.862
-742.036
-746.524
-973.891
-846.386
-1361.26
-923.157
-2018.49
-758.199
-5314.03
751.894
-9003.72
-1894.62
-584.184
-407.396
-713.354
-737.103
-738.335
-957.652
-834.945
-1335.62
-950.871
-1924.15
-1032.88
-5256.64
1053.25
-9688.32
-1893.3
-583.581
-406.351
-710.766
-732.164
-732.203
-942.016
-825.234
-1290.46
-957.718
-1765.06
-924.028
-3848.86
1015.96
-10543.7
-1892.4
-583.977
-406.292
-710.314
-731.51
-733.176
-940.209
-827.083
-1299.47
-959.439
-1904.46
-929.371
-3745.56
769.031
-9808.93
-1891.7
-584.511
-406.188
-710.124
-731.144
-734.426
-938.001
-824.873
-1266.78
-961.874
-1757.9
-998.844
-4003.18
1126.29
-10852.1
-1892.36
-585.222
-407.049
-711.803
-734.251
-739.338
-948.436
-833.825
-1292.89
-953.252
-1759.01
-1010.05
-3744.18
1285.12
-10873.3
-1894.42
-585.176
-407.894
-713.816
-737.643
-743.018
-958.857
-842.159
-1332.75
-949.419
-1881.45
-1007.1
-4629.21
1296.55
-10480.6
-1896.68
-585.86
-409.417
-717.593
-744.295
-750.785
-978.872
-858.381
-1400.41
-986.019
-2234.2
-1026.92
-5497.6
864.421
-9833.3
-1898.1
-586.908
-410.574
-720.972
-750.441
-759.382
-997.735
-873.446
-1441.86
-987.18
-2337.45
-830.979
-5180.52
559.165
-8753.73
-1899.58
-589.203
-412.74
-726.231
-760.023
-773.73
-1024.68
-897.646
-1493.8
-1002.47
-2485.05
-908.369
-5098.47
744.737
-8724.71
-1900.46
-590.515
-413.703
-729.197
-765.216
-782.021
-1039.08
-911.111
-1520.92
-1015.27
-2556.62
-971.891
-5087.17
1155
-8499.19
-1901.76
-593.142
-416.125
-734.599
-775.047
-795.953
-1063.14
-933.358
-1567.9
-1015.47
-2613.35
-716.173
-4567.04
1831.94
-8274.4
-2014.64
-768.456
-500.599
-852.065
-961.441
-966.253
-1323.22
-1121.48
-1932.23
-1104.04
-3088.73
-521.745
-5314.85
2818.05
-11099.7
-2013.54
-766.295
-498.295
-847.756
-952.703
-955.279
-1300.45
-1099.33
-1870.99
-1070.22
-2967.84
-760.418
-6102.74
1995.84
-11425.4
-2012.75
-765.411
-497.573
-845.816
-948.526
-950.233
-1288.32
-1087.59
-1835.9
-1034.21
-2872.08
-653.56
-6252.54
1352.44
-11624.1
-2011.49
-763.817
-495.669
-841.905
-940.368
-939.958
-1264.36
-1066.4
-1762.19
-1022.21
-2583.39
-623.867
-6669.8
818.881
-12100
-2010.42
-763.189
-494.847
-839.793
-935.456
-933.842
-1247.21
-1054.48
-1710.66
-1058.39
-2415.08
-953.812
-6230.07
1613.33
-12960.2
-2009.27
-762.639
-493.724
-837.434
-930.16
-927.849
-1229.89
-1044.24
-1655.44
-1079.26
-2284.35
-901.437
-4565.17
1287.58
-14114
-2008.47
-762.954
-493.543
-836.942
-928.737
-927.46
-1225.74
-1044.63
-1654
-1071.05
-2392.18
-944.608
-4747.97
982.266
-12511
-2007.96
-763.491
-493.401
-836.849
-928.195
-928.425
-1224.48
-1046.35
-1627.07
-1085.21
-2235.16
-937.8
-5574.94
860.242
-12873.8
-2008.65
-764.211
-494.139
-838.484
-931.333
-933.063
-1235.17
-1054.32
-1656.7
-1058.48
-2266.03
-988.647
-4871.31
1223.67
-14792.8
-2010.42
-764.291
-494.952
-840.514
-935.244
-937.998
-1249.11
-1066.03
-1721.02
-1061.3
-2481.19
-939.307
-6027.8