/*--------------------------------*- C++ -*----------------------------------*\
| =========                 |                                                 |
| \\      /  F ield         | OpenFOAM: The Open Source CFD Toolbox           |
|  \\    /   O peration     | Version:  4.1                                   |
|   \\  /    A nd           | Web:      www.OpenFOAM.org                      |
|    \\/     M anipulation  |                                                 |
\*---------------------------------------------------------------------------*/
FoamFile
{
    version     2.0;
    format      ascii;
    class       surfaceScalarField;
    location    "21";
    object      phi;
}
// * * * * * * * * * * * * * * * * * * * * * * * * * * * * * * * * * * * * * //

dimensions      [0 3 -1 0 0 0 0];

internalField   nonuniform List<scalar> 
19125
(
136.242
-2.66493
1549.29
122.328
-9.64836
1439.81
96.8129
-4.86832
1136.74
82.4789
3.19447
987.663
65.419
10.9602
876.937
37.9641
14.8799
701.752
17.8236
23.5611
693.321
-7.85053
22.2078
515.008
-76.9252
147.994
19.9388
-70.8505
-9.35121
-102.141
-46.6409
-84.4674
189.54
-85.2281
-1.93554
576.348
-130.572
-4.82181
1120.95
-140.579
-11.5046
1464.99
0.137972
1838.8
135.348
-3.44511
1546.93
121.282
-12.1698
1444.84
96.7743
-5.25324
1160.83
82.7808
4.75407
1017.3
66.1736
13.1706
891.708
39.639
17.7821
703.522
18.4306
30.1083
655.985
-11.7784
37.3113
482.191
-78.4011
196.503
5.97611
-93.3144
11.883
-66.5531
-67.6304
-106.416
139.965
-84.0488
-14.552
531.406
-129.068
-4.23454
1139.54
-141.218
-12.094
1458.09
0.434228
1817.89
134.577
-3.83117
1545.29
120.623
-13.7617
1452.9
97.0705
-5.32559
1181.4
83.551
5.39589
1035.35
67.1828
13.6523
894.893
42.8421
17.4666
705.948
24.2349
28.8002
606.791
13.3745
25.7743
480.097
39.7373
157.999
219.293
-38.0578
49.2216
-100.905
-114.88
-21.8341
-114.143
-89.4778
-66.9254
495.069
-131.836
-5.61678
1140.52
-144.671
-10.2841
1445.4
-1.08591
1777.04
133.919
-3.71962
1539.07
120.491
-14.6487
1458.16
98.0151
-5.08808
1200.22
84.729
5.40422
1051.72
68.1026
12.8777
896.335
44.2144
15.2993
702.683
29.1346
24.1803
585.716
38.0222
-4.04781
483.968
137.672
26.9961
282.98
126.598
68.3802
17.9144
-38.8205
71.5672
-196.159
-84.7604
-40.5485
569.459
-128.513
-3.41569
1137.83
-142.343
-6.90096
1466.44
-0.947915
1790.51
133.607
-3.00693
1528.23
120.188
-13.8778
1465.88
98.6757
-4.55208
1221.92
85.5622
4.5794
1068.94
68.8442
10.686
897.78
43.6658
13.628
697.138
26.644
21.7483
576.499
-8.36171
0.925691
471.192
-108.319
-27.8858
-39.8979
-86.8073
13.8983
-138.651
-46.212
-7.12009
188.787
-83.8107
0.0727938
776.257
-129.633
4.57223
1125.91
-141.202
-6.41165
1474.86
-0.320261
1797.47
133.862
-1.6509
1510.81
119.742
-10.2121
1472.25
99.0067
-3.21974
1244.52
85.9123
3.16061
1087.63
68.873
7.59897
901.693
42.8078
12.4815
695.809
15.8962
24.433
542.654
-65.117
41.5901
312.207
-114.476
10.3173
-43.363
-58.703
-52.7724
82.1851
-46.3316
-57.8508
281.958
-79.4173
30.2861
703.939
-129.272
16.4182
1122
-141.008
-4.94546
1486.35
0.907847
1796.84
135.005
0.0640981
1486.18
119.402
-2.82026
1472.38
99.0642
-0.536899
1262.37
86.068
1.46693
1106.3
69.6486
3.14074
909.957
48.9343
5.51998
704.259
29.8421
10.9309
492.25
43.3496
3.31189
360.367
4.36115
13.3331
22.3802
-84.6287
-48.7077
-255.192
-107.832
-82.0704
-146.835
-91.322
-0.613124
544.61
-133.059
13.7271
1136.24
-143.115
-4.33388
1486.55
0.687339
1782.84
135.649
1.69583
1475.93
119.526
5.67219
1468.95
99.2081
2.72748
1264.76
86.0305
0.105499
1111.37
69.3378
-1.08977
912.686
49.5978
-2.00638
712.409
30.2918
-6.40354
471.727
40.9405
-40.6163
307.874
65.3836
-41.9183
144.444
-27.927
-4.4294
-159.886
-136.91
28.2274
-261.188
-117.499
-7.71993
381.325
-132.393
-11.3098
1125.56
-147.352
2.72767
1476.02
-1.85728
1751.25
134.746
3.16315
1492.56
119.492
12.1966
1472.06
99.1263
5.18312
1259.11
86.096
-1.46635
1103.37
69.5147
-5.14781
910.099
47.5644
-7.95655
706.55
23.7013
-18.1072
478.367
-46.4027
-11.7208
309.85
-186.76
17.7443
-126.427
-177.911
22.3677
-159.625
-93.0061
6.88593
94.2875
-94.088
-15.2718
475.98
-131.813
-17.5023
1139.93
-142.987
4.24975
1491.39
-2.16411
1786.48
133.867
4.20633
1516.14
119.893
15.2419
1470.82
99.0881
6.33242
1240.35
86.0799
-2.82954
1084.33
69.3809
-8.34052
902.575
44.3449
-10.7713
694.632
20.5412
-20.7428
521.645
-34.4907
17.8351
335.58
-91.2387
48.2968
-43.018
-57.3209
-9.16069
136.553
-43.8078
-19.1036
364.879
-80.7352
22.1925
685.414
-128.846
-6.20473
1123.32
-140.454
5.70666
1489.5
-0.828717
1802.92
133.809
4.64342
1532.81
120.379
15.6112
1464.45
98.7588
6.67672
1217.52
85.7997
-3.7055
1065.46
69.187
-10.6579
896.862
44.3417
-13.1868
693.208
25.356
-22.0041
571.04
18.6547
-0.701973
459.464
-71.7763
24.4143
-38.9436
-95.9409
-46.7309
-135.596
-61.4181
-102.384
153.38
-84.7779
50.7432
783.466
-130.041
2.44477
1131.26
-140.9
6.18699
1481.39
0.0248392
1801.15
134.286
4.51387
1542.79
120.767
14.4341
1456.72
98.1646
6.69783
1195.5
85.0748
-3.84068
1047.86
68.4604
-11.6446
893.984
43.7995
-15.2232
698.154
26.9653
-24.475
587.854
35.097
-30.4175
486.083
134.822
-110.873
288.965
103.854
3.35376
-12.0711
-62.7447
-2.49626
-200.935
-86.3153
66.9083
612.373
-129.147
5.90451
1144.18
-142.025
9.65662
1474.59
0.425565
1793.92
135.076
3.923
1548.31
120.977
12.6292
1451.65
97.2823
6.37565
1176.66
83.9803
-3.44641
1031.33
67.5805
-11.44
891.623
42.6041
-15.6465
704.209
23.4826
-26.0685
602.255
7.81395
-39.1755
483.956
56.7305
-188.916
220.897
-2.17599
17.795
-111.949
-110.141
99.3673
-92.7815
-91.049
20.1111
507.338
-132.285
5.02607
1149.07
-144.34
11.8003
1454.23
-0.88997
1780.8
135.944
2.96956
1549.38
121.706
9.93595
1443.74
97.0504
5.70198
1156.08
83.2371
-2.16091
1012.96
66.5647
-9.52237
888.335
38.7568
-12.4602
702.87
15.6243
-19.475
648.626
-40.1996
-10.1558
482.477
-118.414
-158.495
-20.2752
-94.0261
-31.4446
-101.372
-57.7464
55.7426
123.322
-86.4214
17.9395
533.034
-129.926
5.6771
1148.07
-141.043
11.0903
1466.63
-0.481401
1821.35
136.925
1551.31
122.812
1439.08
97.16
1132.42
83.0689
983.401
66.1656
873.616
38.4579
701.316
17.6924
687.734
-17.9801
526.498
-111.912
34.5797
-108.292
-176.434
-61.1678
104.402
-88.921
568.273
-132.124
1129.13
-140.461
1472.69
1842.44
432.038
-6.82917
1437.51
385.47
-24.626
1495.17
312.019
-18.859
1216.12
257.519
4.21429
1040.06
207.75
32.8487
915.354
125.735
50.1146
767.368
55.2361
82.9799
732.666
-77.0309
101.682
599.47
-290.518
161.773
166.411
-307.024
-112.76
-35.8987
-247.944
-189.818
225.146
-290.023
-84.2284
646.179
-365.073
-10.9347
1196.84
-404.274
-23.8888
1511.33
4.10637
1860.48
428.83
-8.7604
1436.97
382.217
-30.7355
1497.58
311.848
-21.139
1233.49
258.791
7.94052
1066.63
210.686
39.5154
933.148
131.94
59.0625
773.32
60.1115
103.193
707.601
-84.2699
153.545
574.711
-303.178
255.572
131.088
-334.009
-76.5563
-71.9183
-280.499
-233.506
130.147
-292.702
-138.902
598.284
-361.54
-11.0333
1208.48
-406.127
-24.8875
1503.68
4.93993
1843.23
426.274
-9.57512
1436.5
379.651
-34.3949
1503.2
312.096
-22.1249
1249.95
260.841
9.82136
1084.73
214.814
40.6962
939.74
144.365
57.8786
777.582
89.7228
93.7278
670.9
19.0684
141.862
562.437
-4.68797
200.916
297.711
-92.5319
-96.162
6.5569
-274.335
-50.7081
-115.132
-310.839
-132.936
525.611
-364.349
-18.8284
1201.83
-415.521
-18.4969
1490.19
-2.30423
1807.91
423.964
-9.0099
1431.69
378.475
-36.3309
1505.6
314.523
-22.5062
1264.57
264.738
10.1432
1101.19
218.497
38.5923
944.681
151.014
50.99
777.055
98.4985
80.3903
651.571
95.343
76.5131
552.476
105.241
93.0531
380.951
15.6586
-36.3715
47.7177
-208.95
88.021
-110.273
-294.718
-65.368
587.662
-354.527
-23.9707
1202.79
-407.513
-10.1321
1511.07
-3.22276
1821.14
422.696
-6.74948
1421.89
377.29
-33.9985
1508.96
315.933
-21.2289
1282.01
267.236
8.59124
1119.19
221.782
31.7626
950.066
154.074
42.5676
773.271
99.0224
70.7494
641.194
74.6141
26.3273
545.791
-115.161
2.17151
240.768
-222.22
-4.41023
-63.5466
-209.249
31.61
232.232
-269.494
-12.564
783.701
-356.508
-3.24507
1192.2
-403.916
-11.1877
1523.32
-1.32538
1828.05
423.098
-2.80426
1405.22
376.695
-24.6793
1509.34
316.35
-15.8896
1299.53
268.129
6.02625
1138.42
222.247
21.9591
957.381
151.29
35.6621
773.673
72.3752
73.0554
619.267
-109.684
71.5683
449.031
-309.588
66.2197
92.5043
-286.158
-29.3249
83.6753
-221.121
-118.02
366.556
-264.647
-16.4995
751.403
-354.631
18.6544
1190.09
-402.106
-11.325
1533.97
3.05002
1827.12
426.462
1.21976
1381.25
377.863
-6.71259
1503.03
315.94
-3.69567
1312.11
268.244
3.42121
1156.6
223.609
9.02971
967.524
164.204
16.5439
782.785
104.875
37.2563
587.383
44.4619
38.9199
453.434
-50.5815
29.5652
154.089
-162.964
-53.5977
-118.527
-273.18
-112.77
-41.8642
-300.053
-40.1808
595.168
-359.943
6.38733
1208.4
-408.316
-10.2363
1533.84
2.14293
1814.49
428.711
4.23546
1371.28
379.267
13.8726
1497.82
316.199
11.258
1312.88
268.165
1.82446
1161.01
222.408
-2.86101
970.337
166.132
-4.44319
789.674
112.621
-14.2682
576.767
101.688
-53.539
411.271
80.384
-45.2372
240.56
-51.418
-28.6292
-53.043
-291.608
94.5421
-228.305
-340.873
76.337
314.078
-358.23
-17.5126
1166.81
-415.213
5.37976
1517.39
-6.63584
1788.6
426.041
7.48113
1387.52
377.685
29.9181
1504.39
316.334
21.9984
1309.73
268.568
-0.579929
1153.55
223.526
-14.5475
966.831
164.202
-23.4428
784.876
104.203
-55.9287
580.031
-2.13989
-58.0352
420.696
-232.086
-25.1526
83.4458
-335.742
43.5426
-128.136
-302.561
102.507
53.1475
-299.184
36.6087
512.335
-358.933
-31.2829
1213.45
-407.543
7.6751
1537.71
-8.5718
1818.29
423.512
10.3221
1410.35
377.105
37.7538
1509.41
316.851
26.3839
1296.23
268.79
-3.03066
1134.85
223.474
-23.913
957.26
154.302
-33.1706
773.534
76.3102
-60.799
604.511
-98.7353
5.76031
446.836
-317.657
62.3963
88.3648
-306.69
34.297
134.839
-218.999
-38.0576
417.758
-259.154
29.3655
732.816
-352.625
-5.52106
1191.04
-399.018
7.37909
1536.19
-4.05565
1834.24
423.674
11.7093
1425.93
378.094
39.0619
1508.73
316.526
26.9405
1278.54
268.11
-4.66906
1115.52
223.22
-30.8825
948.724
154.57
-41.4472
770.138
92.6959
-64.8967
637.016
54.249
-32.6524
536.329
-132.509
-0.703764
210.925
-244.768
58.3278
-47.3554
-221.703
-107.12
199.386
-266.044
71.0383
786.138
-355.458
17.156
1198
-400.619
5.72724
1528.2
-1.03637
1832.95
425.443
11.5497
1434.62
379.715
36.3388
1505.18
315.44
25.8521
1260.87
266.161
-4.76048
1097.24
220.76
-33.6943
942.199
152.241
-47.8551
773.083
97.1525
-73.4028
651.452
98.1109
-99.4087
551.884
83.8446
-89.9811
392.514
-28.3433
129.241
29.2153
-215.151
2.86981
-124.111
-287.261
141.799
613.725
-353.013
17.5908
1209.49
-403.357
13.4727
1517.19
-0.124653
1826.18
428.174
10.1381
1438.49
381.274
32.0832
1502.82
313.307
24.1657
1246.32
262.717
-3.61337
1080.78
217.672
-33.4467
936.424
148.074
-49.87
775.825
95.2553
-84.702
666.378
32.0984
-111.815
559.525
5.92302
-159.279
316.38
-111.548
133.821
0.9554
-287.331
158.408
-72.5284
-305.75
118.77
548.791
-363.061
12.5751
1211.4
-411.061
19.5552
1496.15
-6.3419
1813.89
431.03
7.7142
1438.22
384.138
25.4885
1497.24
313.356
21.1003
1229.94
261.01
-0.807452
1062.51
214.263
-28.0282
929.669
137.194
-42.4173
772.491
70.3311
-70.2583
701.052
-65.6002
-67.2508
573.852
-260.512
-124.307
139.677
-303.309
123.06
-47.8039
-271.334
96.2308
153.533
-289.616
56.8782
613.214
-360.69
14.9461
1216.78
-402.329
18.4854
1509.34
-5.25186
1848.7
434.518
1438.17
387.666
1495.09
313.814
1213.06
260.175
1036.22
212.258
911.957
133.212
766.666
66.818
727.461
-55.3245
604.837
-266.489
193.209
-308.573
-84.3609
-253.999
147.269
-292.395
628.421
-363.599
1202.47
-399.957
1515.36
1866.51
758
-9.28151
1131.48
722.046
-29.6808
1539.93
603.282
-33.4741
1343.65
482.395
-8.5019
1161.6
390.965
41.4059
993.889
277.232
76.334
860.536
180.522
128.498
792.829
26.7999
165.381
701.114
-320.667
211.71
437.688
-464.616
6.10966
129.961
-404.772
-163.091
258.54
-435.836
-164.687
748.862
-528.651
-40.0856
1301.75
-647.395
-19.8781
1633.28
8.36221
1787.62
752.594
-11.6311
1133.94
715.112
-36.3637
1541.75
600.813
-38.9907
1353.31
483.388
-5.75639
1181.32
394.815
50.9266
1012.2
284.25
89.7555
870.465
184.074
152.684
783.592
13.5944
221.665
688.908
-319.436
278.074
397.757
-435.357
-26.0633
76.1805
-396.168
-232.082
159.953
-435.366
-213.689
686.487
-524.378
-46.5086
1303.92
-649.809
-20.0244
1629.26
8.67145
1776.07
748.716
-12.3427
1135.24
709.479
-39.5412
1545.62
598.481
-42.0355
1364
484.422
-3.77897
1196.82
400.097
53.1975
1021.8
302.048
88.72
876.666
222.579
138.938
764.116
121.853
222.332
662.498
35.346
196.68
465.615
-66.1849
-142.379
224.409
-314.92
-89.3236
-9.15037
-438.957
-81.9102
517.871
-529.44
-36.1689
1281.98
-663.816
-14.171
1618.71
-2.53793
1745.72
744.605
-10.899
1133.02
705.425
-40.6341
1545.88
599.926
-44.6364
1372.68
489.93
-3.5318
1210.94
406.891
50.7943
1030.12
314.467
79.5013
878.698
233.3
120.98
750.697
192.328
172.346
643.436
150.722
106.182
513.058
-11.3992
-148.689
216.154
-309.765
89.244
9.5305
-429.898
39.4981
586.39
-515.742
-40.4352
1292.9
-651.38
-6.47056
1639.01
-3.37272
1759.5
742.006
-6.92037
1125.51
702.405
-36.6242
1544.57
599.939
-43.3108
1383.16
492.455
-4.05948
1227.21
412.205
41.2346
1039.88
321.082
65.6063
878.289
232.049
109.129
742.08
197.555
115.242
637.39
-27.7931
95.4
476.903
-306.261
-57.6168
123.853
-365.463
73.8737
306.807
-411.137
22.7158
846.161
-521.175
-32.2545
1294.06
-651.613
-8.17202
1655.47
-3.34812
1764.21
741.584
-0.819092
1111.31
702.007
-25.4734
1537.78
599.356
-33.2996
1392.18
492.936
-3.40439
1244.19
413.39
27.2597
1050.9
321.601
49.028
882.042
220.232
97.6542
732.112
84.731
92.193
607.584
-233.496
134.377
371.758
-435.656
55.6862
172.537
-396.417
-78.7531
479.947
-423.188
-77.8509
878.743
-513.691
-48.0335
1296.37
-646.523
-7.07177
1665.7
0.669363
1764.67
745.958
3.27048
1090.06
707.026
-6.42161
1522.92
598.936
-8.92127
1395.83
491.888
1.17579
1259.07
412.657
11.2315
1062.78
330.682
21.2939
892.496
243.869
50.7243
721.128
164.124
39.7073
585.668
-3.34837
61.1919
394.751
-230.846
46.4366
118.227
-409.017
-11.2257
68.7855
-452.671
-79.4581
640.433
-522
-69.4234
1299.12
-658.158
-2.72703
1665.65
-5.82915
1752.86
749.423
4.68722
1080.91
711.127
14.7831
1514.92
599.996
21.1808
1393.92
491.86
8.34332
1261.98
410.131
-2.2973
1065.6
328.824
-6.04416
898.32
251.389
-15.9911
720.92
188.042
-47.2598
561.588
128.592
-48.2011
409.409
19.6239
-62.7326
165.1
-249.935
74.9302
-44.8956
-374.626
130.976
228.34
-514.574
24.0793
1213.26
-644.16
-0.702639
1644.95
-6.20646
1739.55
745.937
8.05144
1095.22
706.438
32.2574
1526.42
599.656
42.4777
1395.22
492.772
12.3604
1256.42
412.529
-16.3349
1061.11
330.101
-32.7536
894.016
247.374
-73.1927
719.962
135.021
-83.3207
569.112
-128.141
-67.787
366.2
-363.115
-50.371
94.4818
-407.333
40.7003
131.599
-416.641
67.7493
584.873
-521.816
31.4707
1311.24
-651.845
-0.307138
1667.34
-10.3311
1758.97
742.911
12.3176
1115.26
702.954
41.9909
1539.64
600.653
50.4803
1390.54
494.305
12.662
1240.9
414.675
-28.906
1049.46
323.557
-50.8901
882.79
219.204
-89.6821
725.357
50.0907
-65.3703
598.002
-284.696
3.18829
352.182
-456.322
50.5345
205.566
-381.841
-134.46
518.442
-405.808
-45.4079
869.943
-508.583
27.2978
1297.99
-638.368
-1.03039
1666.7
-4.91987
1775.71
744.013
14.8927
1128.06
704.377
44.8326
1545.53
601.693
50.4639
1381.25
494.199
11.7783
1223.9
414.72
-38.5837
1037.88
322.393
-64.727
876.304
228.5
-97.6507
738.88
180.526
-113.836
632.771
-40.8843
-29.0398
464.569
-295.26
134.738
122.824
-346.062
-149.406
265.14
-404.301
-42.43
841.402
-516.195
35.5789
1301.61
-644.122
-3.18587
1658.29
-3.85382
1773.57
747.237
15.2374
1134.19
708.306
42.7027
1546.26
602.417
46.6843
1370.55
492.626
11.3124
1207.5
411.007
-42.1654
1027.4
317.656
-73.6775
875.387
233.736
-110.75
748.476
198.224
-167.719
641.284
151.702
-109.989
519.993
-21.2818
123.857
213.093
-295.034
-4.01958
4.26982
-417.57
86.2978
607.538
-510.47
35.3297
1302.65
-643.755
4.51325
1642.78
-3.88979
1769.02
751.899
13.6401
1135.21
713.144
38.6608
1545.63
601.623
42.646
1361.89
487.947
12.2402
1193.53
405.234
-41.4018
1018.38
309.023
-76.0005
874.363
231.343
-126.546
759.858
139.252
-171.764
655.666
48.7776
-179.593
476.466
-125.262
77.5433
221.321
-361.345
130.41
29.1353
-433.876
152.647
554.978
-522.402
41.811
1293.45
-653.748
10.4343
1621.58
-14.3873
1757.89
756.139
10.5817
1133.01
719.327
31.2118
1541.52
604.513
36.1418
1351.27
487.628
13.5771
1178.06
401.277
-33.9172
1008.54
294.537
-65.298
868.533
201.474
-110.182
777.756
48.7587
-126.533
681.341
-262.44
-140.157
411.447
-433.503
77.1054
123.705
-412.683
54.6002
208.53
-428.911
68.5316
713.563
-516.393
34.9649
1311.11
-639.029
11.1789
1631.24
-13.4271
1788.24
761.907
1129.79
726.774
1539.64
607.552
1341.97
487.354
1158.77
398.623
990.258
289.929
858.432
200.583
786.886
72.2944
693.12
-243.209
457.419
-417.514
116.822
-386.633
205.871
-425.684
724.866
-516.628
1305.15
-633.596
1634.09
1801.84
980.939
-8.01775
770.629
1061.91
-26.3189
1465.84
956.404
-38.9976
1458.36
782.207
-29.0102
1340.97
631.32
23.3697
1136.42
498.965
69.5566
975.471
395.794
124.002
866.748
286.398
174.161
770.413
-24.7507
227.394
677.167
-342.443
83.0693
422.396
-397.742
-64.0236
356.912
-516.548
-149.057
945.474
-749.607
-91.3221
1573.9
-887.819
19.8515
1760.05
31.8322
1608.66
976.501
-9.72878
774.324
1052.66
-30.4004
1469.68
949.623
-46.3158
1463.68
779.623
-30.3897
1352.7
633
31.4788
1150.72
503.392
82.9255
986.704
395.953
144.566
870.466
274.382
215.299
769.342
-23.465
276.185
646.815
-284.727
31.3396
389.175
-341.693
-131.796
284.695
-498.74
-175.243
869.722
-744.823
-109.673
1568.36
-889.948
27.5454
1766.69
38.4156
1608.69
973.806
-10.1064
776.248
1045.74
-30.0054
1473.31
943.557
-50.2738
1470.15
776.315
-29.9992
1363.67
634.543
34.2657
1160.78
516.439
83.7529
993.942
423.402
135.864
865.856
334.011
212.711
754.478
239.334
202.943
633.536
167.288
-120.139
447.937
-48.4389
-140.709
215.495
-412.363
19.195
687.36
-762.159
-26.6471
1548.75
-908.559
33.2598
1759.4
20.7687
1591.73
969.703
-8.12218
776.425
1039.21
-27.087
1473.47
941.144
-53.5953
1474.07
779.558
-30.7205
1373.25
641.825
32.1687
1169.96
529.473
77.2147
997.588
434.736
121.68
859.618
365.212
181.341
744.33
298.095
139.907
643.213
139.111
-167.597
422.599
-139.628
-63.3805
210.945
-442.991
137.11
771.841
-742.326
-0.282677
1565.87
-894.595
32.912
1791.63
9.7816
1614.46
966.332
-3.56584
772.573
1034.63
-20.3468
1469.54
938.043
-51.4158
1477.57
779.109
-29.2976
1384.72
645.64
24.1955
1181.32
535.795
63.6541
1001.7
434.967
107.437
857.152
370.385
141.527
741.788
205.288
148.206
633.701
-175.397
-34.0952
371.039
-386.79
-32.3255
487.148
-505.578
26.915
1075.15
-741.829
-34.818
1564.85
-896.456
23.7599
1819.25
0.64725
1618.04
963.759
2.39203
764.275
1033.61
-10.7359
1458.33
936.223
-38.9965
1477.16
777.775
-22.2407
1395.58
645.455
14.2156
1193.21
537.439
44.3271
1009.38
433.356
87.3749
856.258
347.494
99.1816
735.794
108.127
153.262
606.073
-275.656
156.693
365.535
-442.229
-0.399598
614.598
-534.492
-133.572
1131.5
-723.519
-114.401
1564.98
-888.223
15.5018
1838.66
-1.16304
1620.73
964.864
4.35707
751.32
1040.17
-1.07937
1437.97
937.886
-10.7852
1469.91
776.115
-4.60646
1403.21
641.637
6.98567
1204.49
538.548
18.3562
1021.56
444.947
42.9186
859.186
369.002
37.1578
723.638
248.37
65.5563
603.091
14.6876
89.3459
419.26
-255.99
116.048
223.021
-489.171
-45.9003
785.946
-730.961
-125.807
1552.32
-898.898
8.76105
1840.34
-11.6553
1608.59
966.697
3.26828
745.516
1045.47
7.16869
1427.91
940.869
23.4866
1464.26
777.197
17.6235
1403.43
639.069
4.05521
1206.66
533.271
-4.09701
1026.57
445.578
-12.4773
864.01
359.231
-33.3625
718.457
267.25
-34.8791
601.827
183.474
-111.447
449.673
110.652
-68.8572
212.836
-230.187
135.849
387.434
-713.017
94.4612
1475.83
-872.394
-12.5139
1825.61
-2.0686
1605.63
965.669
5.31393
754.138
1039.74
17.1219
1442.41
938.391
48.578
1471.49
777.373
33.2005
1401.86
641.982
-1.78436
1202.35
537.285
-27.6767
1022.29
447.468
-63.0857
860.39
348.953
-84.0392
718.305
170.971
-94.0453
603.35
-131.856
-113.02
398.885
-319.458
-37.4368
287.784
-467.921
79.1806
790.007
-729.596
100.185
1567.19
-891.602
-26.4191
1843.25
-8.10914
1616.65
965.903
9.34822
766.195
1035.2
26.5215
1460.95
938.097
58.8385
1477.39
779.801
38.9601
1393.44
646.94
-10.4989
1191.04
539.027
-47.2656
1010.29
434.076
-86.7652
853.988
323.169
-104.293
729.165
53.2341
-76.3127
604.387
-315.55
82.6094
378.724
-430.736
-44.368
640.561
-513.699
-95.6248
1127.71
-714.689
32.9158
1566.25
-880.273
-37.0555
1842.92
-8.15583
1633.7
968.835
12.1448
773.202
1037.48
32.6626
1470.76
940.897
59.5044
1477.17
781.727
39.5123
1382.52
648.641
-18.7248
1179.2
538.51
-61.5421
1000.71
436.036
-99.6563
854.247
364.155
-138.858
739.219
212.181
-97.5751
637.807
-133.764
174.628
376.755
-353.277
-4.42811
444.72
-496.008
-173.419
1061.93
-733.379
1.42861
1570.47
-889.965
-46.6827
1824.5
-17.7888
1629.93
972.415
12.9378
775.868
1043.03
34.647
1473.66
945.041
54.8495
1473.2
783.333
37.7339
1370.99
646.671
-22.2761
1167.62
534.166
-68.8255
995.175
437.583
-111.033
856.435
369.138
-171.385
742.254
303.445
-158.813
646.923
145.024
120.674
425.468
-131.392
58.0255
218.234
-436.405
-58.045
797.18
-733.215
26.3631
1574.52
-888.998
-45.852
1797.73
-30.4434
1626.25
976.783
11.6544
774.668
1050.4
34.0137
1472.66
948.354
49.8023
1468.99
781.139
36.9323
1361.55
640.543
-21.3417
1158.04
524.164
-69.5904
991.507
432.248
-121.284
862.026
346.506
-179.505
749.53
248.093
-220.12
636.187
120.525
21.0183
448.549
-102.901
84.0109
226.583
-418.965
90.8098
722.19
-747.966
90.3814
1558.43
-899.423
-38.672
1765.86
-49.4122
1608.27
979.614
9.26076
772.02
1057.85
28.8439
1468.47
955.077
41.4793
1462.37
785.335
34.0401
1350.7
640.319
-15.5939
1147.81
513.812
-58.7845
984.236
411.484
-106.982
865.783
300.343
-148.725
761.706
28.7181
-181.843
644.798
-258.299
22.2601
409.487
-345.367
63.6603
315.954
-487.58
58.1826
888.407
-726.564
68.2892
1572.19
-876.633
-28.9409
1771.58
-40.997
1626.41
984.266
767.697
1067.59
1464.22
962.502
1457.07
788.771
1339.28
639.698
1133.49
511.248
972.741
414.481
860.583
319.583
758.481
51.3604
671.195
-264.519
425.303
-350.394
337.098
-486.673
928.678
-725.995
1577.25
-870.686
1765.89
1629.43
1062.97
-4.75689
541.921
1257.28
-20.7207
1276.53
1248.78
-35.329
1474.47
1094.58
-41.8798
1503.01
905.979
-9.48964
1324.04
749.143
33.2168
1122.42
629.54
86.2001
965.595
520.846
130.708
849.45
374.889
124.989
791.755
166.41
53.7202
622.448
-173.775
-2.55729
703.919
-657.893
-66.7554
1464.2
-1085.68
-92.7044
2047.16
-1094.56
84.2781
1738.21
55.8155
1398.52
1061.25
-5.48814
543.966
1249.67
-21.3296
1281.88
1239.74
-41.3157
1479.6
1087.35
-46.4514
1509.66
903.085
-6.33071
1331.83
750.067
42.3535
1130.58
630.498
104.618
971.617
523.725
162.528
844.295
394.537
141.667
759.326
251.263
-11.4167
597.586
-77.463
-21.8461
632.711
-630.512
-32.6588
1388.68
-1081.1
-114.872
2041.12
-1096.46
96.6694
1769.66
66.2004
1417.26
1060.86
-5.90768
544.981
1244.92
-17.1811
1285.1
1232.56
-43.1226
1484.33
1080.2
-47.4222
1517.01
898.809
-4.15176
1340
752.729
44.5405
1137.83
643.712
101.86
977.63
552.359
161.999
846.361
478.493
121.169
727.901
496.575
-123.827
542.265
202.567
-77.4602
565.119
-542.119
104.173
1295.22
-1102.8
-21.1857
2015.74
-1108.82
87.1103
1774.98
41.3564
1428.42
1058.44
-4.456
545.833
1238.86
-10.1036
1285.98
1227.01
-43.3767
1486.18
1079.03
-48.5812
1522.38
902.92
-5.01863
1346.94
760.462
42.4247
1142.16
654.754
89.0659
978.12
575.005
141.186
844.892
508.423
116.405
714.561
438.659
-165.14
533.676
65.8533
-121.616
627.907
-590.191
152.959
1379.1
-1067.19
21.0075
2000.68
-1098.44
76.9792
1833.01
18.2577
1462.73
1055.69
-1.2258
545.189
1234.53
-1.37827
1281.98
1222.1
-38.3343
1484.97
1075.11
-45.2178
1528.35
902.47
-7.57706
1356.52
762.15
34.8855
1149.55
654.547
71.116
982.705
581.921
110.045
845.556
499.598
133.157
699.273
138.067
6.59149
560.84
-322.792
-116.517
942.91
-690.967
0.869491
1595.41
-1053.18
-35.7863
1983.85
-1100.6
61.6231
1882.03
3.09264
1463.02
1052.1
2.82596
543.084
1231.94
5.57537
1271.55
1219.73
-26.5498
1477.59
1072.13
-33.4188
1531.38
899.712
-7.89992
1365.95
762.272
23.4944
1158.22
652.226
51.7894
985.631
573.441
72.5265
852.098
487.271
115.943
709.457
119.726
200.196
539.477
-362.884
14.669
966.022
-714.516
-140.048
1624.05
-1033.1
-132.323
1980.11
-1096.28
42.91
1920.56
-2.34301
1463.15
1049.74
3.63224
539.677
1235.02
4.6526
1253.62
1223.16
-6.59811
1461.83
1071.97
-8.33913
1529.33
894.707
-0.000138941
1373.86
758.784
10.8596
1170.11
654.473
23.2429
992.044
571.646
24.8748
854.118
507.796
46.6823
736.203
478.567
88.1903
560.495
97.9779
69.093
549.187
-584.6
-8.14791
1336.63
-1032.83
-105.486
1973.72
-1097.09
16.7088
1930.8
-7.86496
1453.75
1049.1
2.7796
538.09
1238.09
-1.2494
1244.82
1226.83
15.7609
1453.17
1074.61
21.4394
1525.87
893.549
13.2735
1374.45
754.62
2.50474
1173.86
650.789
-5.85078
996.934
553.897
-18.8587
859.083
464.101
-10.4557
748.762
513.464
-102.274
590.775
418.393
-114.626
491.627
-345.289
67.2363
1075.73
-1026.34
107.86
1943.53
-1080.81
-28.2802
1925.07
0.919577
1454.69
1050.84
3.78793
540.443
1235.33
-0.307429
1256.98
1223.11
34.4236
1465.05
1072.61
43.9393
1529.87
895.114
20.9096
1372.2
758.724
-8.84052
1170.03
655.547
-34.7233
992.44
555.453
-56.7017
856.243
471.476
-71.5705
748.443
348.266
-150.399
570.22
-39.9958
-51.7643
613.186
-614.167
74.3971
1357.02
-1034.59
114.854
1980.62
-1097.23
-59.013
1936.64
-4.98858
1460.19
1054.28
5.91389
543.488
1233.93
7.5578
1273.45
1221.67
45.1372
1478.95
1073.93
54.3014
1530.81
901.092
20.3901
1364.4
764.677
-20.4364
1158.3
653.119
-52.797
983.62
553.11
-81.2896
853.764
445.358
-89.6629
730.233
92.409
33.4741
547.802
-353.453
85.3141
949.347
-696.188
-70.9843
1615.83
-1025.68
28.6927
1981.9
-1093.89
-77.2272
1929.35
-9.99813
1473.13
1057.87
7.41423
544.605
1237.26
16.4177
1282.52
1225.22
49.1078
1485.25
1077.77
56.6861
1527.59
905.299
16.6773
1355.38
765.684
-28.6036
1148.49
654.377
-67.8777
980.635
571.297
-110.137
851.147
503.468
-100.519
716.492
203.658
157.796
552.244
-264.478
112.476
885.695
-677.819
-179.097
1583.38
-1046.13
-20.6787
1988.15
-1098.83
-91.0022
1890.98
-26.0195
1472.03
1060.37
7.89918
544.663
1242.15
22.8372
1285.48
1231.05
47.7422
1485.68
1082.94
54.3113
1521.47
907.498
13.9684
1345.77
765.056
-31.6175
1140.63
655.973
-79.0961
976.739
573.5
-133.79
848.385
513.258
-115.857
722.508
444.805
115.368
536.355
59.0182
73.9291
642.575
-589.43
-135.559
1402.09
-1058.99
18.2147
2005.2
-1096.92
-97.7577
1842.42
-50.7216
1471.68
1062.74
6.80866
543.307
1248.72
25.9191
1283.62
1237.4
44.8884
1483.17
1085.29
52.0289
1515.95
904.435
14.3051
1338.56
759.062
-31.0034
1136.27
650.485
-84.8123
976.321
559.632
-141.464
848.061
479.367
-132.429
733.027
478.102
25.2616
539.924
172.804
42.1598
563.654
-544.364
-10.8131
1314.62
-1089.24
100.946
2020.59
-1105.03
-102.922
1786.81
-76.6736
1442.23
1063.08
5.59702
541.97
1253.72
24.0128
1279.75
1245.09
37.8604
1478.03
1093.29
45.9612
1508.57
909.746
15.4003
1330.27
758.278
-24.3623
1129.07
641.821
-72.9677
970.397
537.951
-118.117
842.232
410.294
-112.296
752.325
271.549
-11.0906
584.587
-56.7845
58.2635
628.189
-608.084
33.2945
1395.6
-1064.2
81.1853
2048.06
-1088.65
-87.2406
1780.35
-63.2302
1432.16
1064.91
539.616
1261.64
1273.85
1254.58
1472.59
1101.2
1501.87
913.553
1322.19
758.834
1120.33
642.791
961.431
538.722
839.709
408.572
773.779
226.101
606.797
-118.414
700.2
-627.099
1467.79
-1067.79
2057.92
-1086.26
1752.9
1415.61
1097.93
-2.85087
474.061
1300.52
-15.8822
1077.34
1393.16
-29.0559
1387.44
1319.37
-44.5305
1584.86
1144.35
-39.6236
1504.26
973.607
-5.87904
1289.2
830.727
34.4346
1094.06
729.283
8.20618
942.786
700.799
-58.4355
835.898
531.048
-2.70386
793.104
-222.177
-6.01618
1456.23
-996.348
-41.2234
2244.52
-1474.99
-16.6378
2552.34
-1177.95
246.212
1362.88
167.266
1224.51
1097.42
-2.96574
474.034
1296.19
-14.4925
1081.73
1385.02
-32.1398
1393.86
1309.31
-49.1741
1590.02
1136.58
-41.0801
1506.01
970.257
1.1006
1289.93
832.586
57.7798
1085.94
740.671
31.0013
913.414
729.81
-82.2336
793.986
640.697
-55.3535
739.349
-90.026
9.01417
1348.4
-941.88
25.8443
2173.46
-1439.5
-0.41503
2522.52
-1175.61
324.312
1427.67
238.714
1262.58
1098.29
-3.74677
474.02
1294.84
-9.53579
1083.61
1379.9
-30.5536
1397.68
1301.63
-49.2052
1595.31
1128.5
-39.0846
1511.13
968.193
1.73603
1297.51
844.937
64.8662
1093.8
764.301
56.5686
901.431
751.373
-84.5598
743.155
699.504
-161.613
700.394
-4.513
-51.3777
1329.53
-930.318
102.998
2143.87
-1454.09
55.4349
2483.66
-1211.15
367.89
1488.48
213.93
1322.95
1097.25
-3.26442
474.263
1291.06
-1.9271
1084.57
1373.99
-26.514
1399.22
1297.43
-48.2237
1597.96
1127.38
-36.3697
1514.28
970.552
-2.00516
1302.73
864.047
53.1288
1096.36
800.147
75.7705
889.59
724.319
-32.2712
738.1
480.505
-205.174
821.051
-249.975
-161.173
1468.18
-1013.99
77.2444
2168.87
-1435.96
48.3629
2429.72
-1230.95
343.758
1652.14
110.001
1425.82
1096.32
-2.50701
474.712
1288.34
6.06818
1081.98
1369.59
-18.5749
1395.79
1292.75
-42.3297
1599.3
1123.78
-31.302
1520.42
964.845
-5.42292
1311.91
862.47
31.2457
1106.96
824.041
70.3938
889.362
710.485
45.4866
735.072
165.672
-72.5775
973.057
-598.114
-175.647
1721.17
-1092.83
-56.6165
2223.99
-1412.05
-11.7215
2363.15
-1214.85
263.603
1764.99
30.8698
1452.83
1093.57
-0.0726834
475.371
1284.77
10.7562
1075.67
1366.95
-8.88684
1385.73
1289.57
-29.2555
1595.7
1120.81
-22.0024
1525.41
960.037
-4.64714
1318.21
843.573
15.5491
1117.79
804.955
43.2864
917.824
771.052
67.9334
720.913
267.613
96.9228
873.417
-562.722
-47.9261
1668.64
-1077.66
-134.777
2217.15
-1368.6
-69.0794
2328.41
-1198.52
167.419
1846.66
-5.52608
1451.3
1090.54
2.51222
476.502
1283.6
5.78366
1065.54
1369.48
-0.47226
1367.54
1291.37
-6.82822
1585.02
1118.69
-3.61975
1528.15
955.948
1.66302
1326.55
831.49
6.67153
1125.38
771.649
15.8693
941.376
789.933
29.9235
755.929
680.679
42.4155
724.258
-102.828
-3.60555
1288.37
-972.643
-29.9297
2101.59
-1334.93
-52.5258
2319.46
-1179.92
60.4641
1882.74
-6.54767
1437.5
1089.27
4.70277
476.628
1283
-3.84779
1060.74
1371.22
5.51796
1358.97
1294.06
17.6271
1578.57
1119.48
18.7444
1526.66
955.843
10.73
1328.43
826.086
3.51299
1129.85
751.148
-0.750668
950.641