/*--------------------------------*- C++ -*----------------------------------*\
| =========                 |                                                 |
| \\      /  F ield         | OpenFOAM: The Open Source CFD Toolbox           |
|  \\    /   O peration     | Version:  4.1                                   |
|   \\  /    A nd           | Web:      www.OpenFOAM.org                      |
|    \\/     M anipulation  |                                                 |
\*---------------------------------------------------------------------------*/
FoamFile
{
    version     2.0;
    format      ascii;
    class       volVectorField;
    location    "21";
    object      U;
}
// * * * * * * * * * * * * * * * * * * * * * * * * * * * * * * * * * * * * * //

dimensions      [0 1 -1 0 0 0 0];

internalField   nonuniform List<vector> 
6750
(
(3.97975 -0.00976539 17.652)
(0.337682 -0.0359576 15.9411)
(1.79696 -0.0192528 12.4834)
(0.71455 0.0113279 10.9688)
(0.990393 0.0419496 9.72524)
(0.541694 0.0563721 7.65728)
(0.30253 0.0816124 7.69597)
(0.10746 0.0472795 5.65725)
(-0.223363 0.572088 0.0506818)
(-1.45644 0.291679 -1.75398)
(-0.493874 -0.203573 1.76215)
(-0.187682 -0.0797504 6.16165)
(-2.19175 -0.0222069 12.102)
(0.168901 -0.0462502 16.2384)
(-5.13786 -0.00151543 20.5036)
(3.96554 -0.0187572 17.6203)
(0.33432 -0.0672219 16.0141)
(1.78143 -0.0317459 12.783)
(0.720929 0.0242786 11.3083)
(0.992412 0.0754793 9.87259)
(0.559221 0.103338 7.6538)
(0.315631 0.171871 7.21864)
(0.119613 0.199858 5.24423)
(-0.348216 1.06975 -0.0800193)
(-1.32277 -0.37147 -0.66617)
(-1.06778 -0.643313 1.63588)
(-0.176456 0.0778897 5.61175)
(-2.16248 -0.0271694 12.3363)
(0.174162 -0.0748904 16.1783)
(-5.18065 0.0037611 20.2539)
(3.95164 -0.0204774 17.5983)
(0.332087 -0.0716538 16.1173)
(1.77274 -0.0289198 13.0286)
(0.730135 0.0290536 11.5061)
(1.00154 0.0746721 9.89167)
(0.575006 0.0989723 7.66982)
(0.366933 0.169058 6.60832)
(0.206529 0.215792 5.14583)
(0.09703 1.15793 2.37126)
(0.889408 0.393622 -1.55802)
(-2.06994 -0.61196 -1.24187)
(-0.208856 -0.323065 5.21253)
(-2.21973 -0.0242473 12.3535)
(0.17015 -0.0657236 16.0548)
(-5.2921 -0.00151077 19.7712)
(3.944 -0.0221491 17.5241)
(0.330415 -0.0821029 16.1911)
(1.77337 -0.0301117 13.2557)
(0.745101 0.0315832 11.6854)
(1.0135 0.0776655 9.89104)
(0.586153 0.0959404 7.61788)
(0.382908 0.154298 6.37395)
(0.315758 0.0722055 5.20907)
(0.491151 0.547112 2.82357)
(2.83428 0.283435 0.298399)
(-0.380541 0.427352 -3.00842)
(-0.200966 -0.352973 6.14933)
(-2.14757 -0.0368816 12.3473)
(0.178173 -0.0452861 16.2999)
(-5.23512 -0.00831053 19.9293)
(3.94739 -0.0196084 17.3993)
(0.328233 -0.0824754 16.2979)
(1.77097 -0.027379 13.514)
(0.756593 0.0289054 11.8716)
(1.02145 0.0669802 9.89057)
(0.597252 0.0762034 7.54707)
(0.354901 0.116285 6.27384)
(0.287979 -0.119817 4.9689)
(-0.540788 -0.146777 -2.17945)
(-1.71313 0.454478 -1.93623)
(-0.592683 0.241131 1.70286)
(-0.141378 -0.119809 8.73782)
(-2.1784 -0.000100657 12.2535)
(0.186571 -0.0378069 16.3888)
(-5.21194 -0.00328317 20.0065)
(3.96888 -0.0138956 17.2005)
(0.325364 -0.0726546 16.3949)
(1.76536 -0.0234076 13.7854)
(0.76379 0.0225953 12.075)
(1.02326 0.0534747 9.92075)
(0.597194 0.079159 7.52765)
(0.329963 0.137297 5.83857)
(0.0871094 0.166423 3.06234)
(-1.63057 -0.188375 -0.603386)
(-0.788526 -0.32754 0.823944)
(-0.754866 -0.160042 2.75672)
(-0.075421 0.164919 7.85218)
(-2.1574 0.0521292 12.2066)
(0.178455 -0.028374 16.5278)
(-5.20011 0.000486273 20.0032)
(4.01611 -0.00463758 16.9204)
(0.322883 -0.0403484 16.4221)
(1.75962 -0.0120271 14.0054)
(0.766268 0.0127499 12.2829)
(1.02626 0.0309302 10.0053)
(0.612523 0.0566677 7.6174)
(0.44784 0.122569 5.17936)
(0.269543 0.239419 3.77278)
(0.61781 0.313074 -0.0477969)
(-0.297019 -0.18894 -3.80482)
(-1.93189 -0.659638 -2.19155)
(-0.226085 0.0722248 5.90817)
(-2.24138 0.131662 12.2954)
(0.162438 -0.034622 16.5394)
(-5.24201 0.00918053 19.8389)
(4.04001 0.00515903 16.8028)
(0.322284 0.00888486 16.3901)
(1.76141 0.00636171 14.0391)
(0.766977 0.00431772 12.3419)
(1.02494 0.00528564 10.0356)
(0.607337 0.00804602 7.71378)
(0.460412 0.00751767 4.90363)
(0.289954 -0.182022 3.09457)
(0.591127 -0.209724 1.28891)
(1.02497 -0.396706 -2.34928)
(-1.91977 -0.0935089 -2.94835)
(-0.930276 -0.0345583 4.33335)
(-2.15952 0.0118371 12.2227)
(0.112873 -0.00550493 16.4375)
(-5.32041 -0.00314474 19.4735)
(4.00628 0.0140174 16.9911)
(0.323027 0.0541867 16.4124)
(1.76149 0.0237905 13.9659)
(0.766649 -0.00356474 12.251)
(1.02584 -0.0179229 10.0096)
(0.610344 -0.0310774 7.64103)
(0.405012 -0.0811447 4.99084)
(0.223807 -0.230373 3.0367)
(-1.31423 -0.190053 -2.3027)
(-2.80417 0.276557 -1.39992)
(-1.45704 0.240132 1.74721)
(-0.359484 -0.0735578 5.19717)
(-2.20283 -0.12906 12.343)
(0.15449 0.0283713 16.5914)
(-5.22725 -0.0161729 19.882)
(3.96656 0.0214939 17.2595)
(0.325758 0.0815196 16.3731)
(1.76771 0.0338857 13.7358)
(0.764593 -0.0127326 12.0395)
(1.02561 -0.0394535 9.93339)
(0.606778 -0.0567549 7.50733)
(0.347271 -0.117963 5.57742)
(0.194029 0.0768588 3.48847)
(-1.08407 0.274951 -0.777434)
(-0.807337 0.0799302 1.5683)
(-0.66677 -0.00941493 3.9588)
(-0.123263 -0.0223026 7.68066)
(-2.14363 -0.0654637 12.234)
(0.172894 0.025305 16.5645)
(-5.17598 -0.00756717 20.0733)
(3.95037 0.0255351 17.4507)
(0.328867 0.0889302 16.2767)
(1.77369 0.0368939 13.4613)
(0.75731 -0.0191215 11.8337)
(1.02523 -0.0542909 9.88018)
(0.601038 -0.0652394 7.49843)
(0.36515 -0.116817 6.20393)
(0.251576 0.101818 4.88512)
(0.14422 0.418971 -1.70179)
(-1.63622 -0.284884 -2.2245)
(-0.89376 -0.381345 1.16515)
(-0.150326 0.230605 8.84089)
(-2.18447 -0.00637008 12.3261)
(0.178115 0.0340519 16.4704)
(-5.19086 -0.00250344 20.0515)
(3.95142 0.0266432 17.5668)
(0.33141 0.0865739 16.1701)
(1.7773 0.0385402 13.1988)
(0.746406 -0.0221944 11.6427)
(1.01885 -0.0654395 9.86263)
(0.588962 -0.08287 7.56044)
(0.369302 -0.130431 6.40361)
(0.285346 -0.0985377 5.22923)
(0.456194 -0.27393 2.84335)
(2.85018 -0.0889169 0.0693274)
(-0.947061 -0.594506 -3.01448)
(-0.198112 0.355098 6.76507)
(-2.16228 0.0341944 12.4411)
(0.169515 0.040444 16.4034)
(-5.21225 0.00374349 19.971)
(3.96245 0.023659 17.6339)
(0.33352 0.0747426 16.0987)
(1.77773 0.0358378 12.9709)
(0.731958 -0.0211224 11.4607)
(1.00821 -0.0645009 9.85183)
(0.577564 -0.0877234 7.64308)
(0.356961 -0.146331 6.55021)
(0.210498 -0.250447 5.17489)
(-0.0559365 -0.948424 2.19084)
(1.49281 -0.0229094 -1.75057)
(-1.94721 0.530066 -1.17062)
(-0.211773 0.319032 5.34311)
(-2.22896 0.028759 12.4662)
(0.158812 0.0639515 16.1669)
(-5.26532 -0.00139675 19.8168)
(3.97874 0.0210305 17.6503)
(0.336147 0.0693801 15.9974)
(1.78738 0.0376599 12.7248)
(0.723437 -0.0171713 11.2587)
(0.998889 -0.0656769 9.83119)
(0.56202 -0.0888481 7.63703)
(0.289322 -0.146351 7.11771)
(0.0958903 -0.169232 5.13245)
(-0.97635 -1.15777 -0.695544)
(-1.63794 0.239433 -1.41807)
(-0.783601 0.584013 1.28816)
(-0.197281 0.0105645 5.60812)
(-2.17937 0.0322613 12.4477)
(0.161351 0.0731648 16.2848)
(-5.15579 -0.00614487 20.2965)
(3.99485 0.0107843 17.6776)
(0.339978 0.0369117 15.9284)
(1.80365 0.0222758 12.4292)
(0.718036 -0.00745895 10.9189)
(0.998969 -0.0365073 9.6836)
(0.550144 -0.0460465 7.64199)
(0.303688 -0.0639953 7.61498)
(0.105317 0.0405358 5.71288)
(-0.423337 -0.576757 0.109882)
(-2.12046 -0.568835 -2.70342)
(-0.725116 -0.0686481 0.754308)
(-0.206692 0.143136 6.10507)
(-2.22425 0.0258711 12.2128)
(0.152482 0.0426496 16.3397)
(-5.1104 5.52111e-05 20.5481)
(11.0402 -0.0251958 17.2091)
(2.13698 -0.0961129 16.4313)
(4.98906 -0.0782508 13.0639)
(2.68263 0.0121763 11.2635)
(2.87205 0.130619 10.0116)
(1.8912 0.202961 8.15135)
(0.911314 0.313773 7.93394)
(0.411274 0.325542 6.01071)
(-2.18446 0.611099 0.448735)
(-4.26762 -0.333151 -0.610958)
(-3.00254 -0.566043 2.35254)
(-2.04522 -0.330005 6.75201)
(-5.56184 -0.0595299 13.0958)
(-0.168738 -0.101252 16.6874)
(-13.9217 0.00913978 20.8744)
(11.0042 -0.0480388 17.1878)
(2.09962 -0.171612 16.4721)
(4.96332 -0.125659 13.3078)
(2.6935 0.0361455 11.5906)
(2.88858 0.226492 10.1951)
(1.94721 0.343374 8.1925)
(0.9833 0.593611 7.56729)
(0.477675 0.808068 5.679)
(-2.4877 1.13315 0.188894)
(-4.19348 -0.932611 -0.874013)
(-3.64226 -1.57984 1.38465)
(-2.18691 -0.59426 6.30313)
(-5.47304 -0.0631031 13.2765)
(-0.169439 -0.155592 16.5933)
(-14.0036 0.0369678 20.6522)
(10.9736 -0.0517375 17.1728)
(2.0696 -0.178804 16.5501)
(4.94477 -0.11682 13.5252)
(2.70896 0.0522915 11.7988)
(2.9202 0.222771 10.2465)
(2.01344 0.327255 8.22886)
(1.19205 0.565473 7.06352)
(0.9404 0.893098 5.70608)
(-0.665274 1.59312 2.50369)
(0.759551 -0.126655 -0.822677)
(-3.16908 -0.841976 -1.37927)
(-2.56963 -0.994791 5.89806)
(-5.46699 -0.0585769 13.2812)
(-0.236291 -0.130991 16.4313)
(-14.215 0.00890613 20.2128)
(10.9519 -0.0548043 17.1071)
(2.04655 -0.205687 16.595)
(4.94735 -0.129703 13.7222)
(2.75193 0.0585958 11.9875)
(2.96486 0.23252 10.2787)
(2.05444 0.320595 8.20593)
(1.30058 0.495366 6.82255)
(0.992657 0.716543 5.71649)
(1.10303 0.881753 3.56195)
(1.50221 -0.685504 0.00496792)
(-1.73361 0.0961266 -1.57573)
(-2.36064 -0.507761 6.61103)
(-5.34112 -0.156366 13.231)
(-0.140407 -0.0704056 16.6593)
(-14.1134 -0.025196 20.3591)
(10.9538 -0.0463873 16.9887)
(2.03166 -0.203402 16.6627)
(4.94115 -0.124565 13.9529)
(2.78048 0.0547258 12.1889)
(2.99309 0.201283 10.3112)
(2.10382 0.251593 8.15078)
(1.31871 0.399988 6.71212)
(0.978919 0.110237 5.65187)
(0.637061 0.0777596 1.22674)
(-3.02767 0.268503 -1.25376)
(-2.46027 0.867473 2.40899)
(-1.68621 -0.206877 8.69568)
(-5.44777 -0.102813 13.0637)
(-0.0746805 -0.0541554 16.7601)
(-14.0817 -0.0140694 20.4404)
(10.9918 -0.0285801 16.7949)
(2.03243 -0.177798 16.7088)
(4.92793 -0.113221 14.1901)
(2.7937 0.0422874 12.4056)
(3.00027 0.156934 10.3684)
(2.10934 0.233354 8.14096)
(1.24319 0.423095 6.39058)
(0.479915 0.24947 4.0042)
(-2.99801 0.0215479 -0.397051)
(-3.88825 -0.440529 0.903705)
(-2.84077 -0.44891 3.47534)
(-1.64978 0.112168 7.96327)
(-5.41421 0.0681628 13.0176)
(-0.056016 -0.060464 16.881)
(-14.0595 0.00247718 20.4272)
(11.0814 -0.00343947 16.5206)
(2.06409 -0.0973255 16.6846)
(4.91454 -0.0631471 14.3721)
(2.79162 0.0249612 12.6176)
(3.00679 0.0878474 10.4692)
(2.13768 0.160059 8.24046)
(1.48958 0.365567 5.90927)
(0.986962 0.519205 4.38562)
(-0.100409 0.598311 0.419942)
(-0.860106 0.157263 -2.05832)
(-3.22183 -0.956574 -1.24768)
(-2.36767 -0.434031 6.33764)
(-5.47268 0.121284 13.2493)
(-0.138911 -0.0802816 16.8742)
(-14.1338 0.02885 20.2763)
(11.1283 0.0159891 16.4077)
(2.08652 0.0223071 16.6397)
(4.9183 0.022834 14.3925)
(2.79268 0.0146119 12.6732)
(3.00363 0.0159192 10.5005)
(2.11526 0.0308389 8.32714)
(1.55183 0.0681791 5.7224)
(1.09438 -0.0895476 3.86041)
(1.12687 -0.157509 1.93515)
(0.826977 -0.68355 -1.34922)
(-2.35718 -0.16373 -2.97373)
(-3.5877 0.165627 4.27212)
(-5.30583 -0.0337727 13.0735)
(-0.221815 -0.0141061 16.7445)
(-14.2678 -0.0114438 19.9247)
(11.0658 0.0326305 16.5931)
(2.0571 0.132778 16.6872)
(4.92067 0.10184 14.338)
(2.79515 0.00506804 12.5837)
(3.0088 -0.0495415 10.468)
(2.13432 -0.0844932 8.26725)
(1.48755 -0.240461 5.78397)
(0.989059 -0.517419 3.94645)
(-1.1355 -0.424264 -0.601195)
(-3.98931 0.262595 -2.23215)
(-3.88665 1.08944 0.315246)
(-2.38507 0.522676 5.49926)
(-5.4479 -0.186448 13.2794)
(-0.140418 0.0560557 16.9323)
(-14.1056 -0.0574732 20.314)
(10.9919 0.051658 16.8553)
(2.03379 0.201822 16.6986)
(4.93604 0.143999 14.1458)
(2.79899 -0.0110244 12.3668)
(3.00758 -0.112467 10.3754)
(2.13077 -0.172566 8.13412)
(1.27542 -0.361576 6.17873)
(0.578761 -0.0642079 4.10831)
(-2.90078 0.226232 -0.190611)
(-4.17006 0.252762 1.4342)
(-2.95749 0.155169 4.19082)
(-1.53303 0.00789269 7.7195)
(-5.39752 -0.133085 13.0221)
(-0.0271524 0.0405266 16.9164)
(-14.0066 -0.0351951 20.4937)
(10.9652 0.0637554 17.0395)
(2.03901 0.221459 16.6517)
(4.95062 0.151616 13.9065)
(2.78705 -0.0235169 12.1484)
(3.00355 -0.157005 10.3006)
(2.12646 -0.204414 8.1106)
(1.29666 -0.341276 6.65965)
(0.895937 0.0744061 5.49667)
(0.233604 0.391608 0.78868)
(-3.07086 0.103337 -0.8777)
(-2.8528 -0.703742 2.18151)
(-1.59633 0.276737 8.76126)
(-5.45338 0.0604326 13.1137)
(-0.0460999 0.0329743 16.8268)
(-14.028 -0.0139217 20.4786)
(10.9727 0.0678692 17.1474)
(2.05948 0.218513 16.5837)
(4.96005 0.152783 13.6725)
(2.76287 -0.0280863 11.9431)
(2.98357 -0.19016 10.2536)
(2.08686 -0.261781 8.15962)
(1.29499 -0.382819 6.83884)
(0.966443 -0.445256 5.73521)
(1.2013 -0.273396 3.69127)
(0.882198 0.703868 -0.378705)
(-2.07947 -0.43618 -1.67988)
(-2.16409 0.533422 6.97867)
(-5.35374 0.13086 13.285)
(-0.0998982 0.0408704 16.74)
(-14.0515 0.00604376 20.3953)
(11.0017 0.0608797 17.2043)
(2.08748 0.187759 16.5408)
(4.96052 0.135426 13.4758)
(2.72353 -0.0263568 11.7533)
(2.94593 -0.186862 10.2119)
(2.05177 -0.274457 8.21347)
(1.24072 -0.450458 7.01541)
(0.997919 -0.677296 5.73929)
(-0.411641 -0.954512 2.73396)
(0.747269 0.561549 -0.839479)
(-3.63146 0.588384 -1.01814)
(-2.38958 1.00813 6.04182)
(-5.49338 0.0614795 13.3665)
(-0.196318 0.104266 16.5192)
(-14.1423 -0.0176285 20.2529)
(11.0372 0.0546185 17.2125)
(2.12131 0.17801 16.4645)
(4.98153 0.141589 13.2587)
(2.71247 -0.0125616 11.5422)
(2.91811 -0.193063 10.1595)
(1.9981 -0.291078 8.1904)
(1.05843 -0.501273 7.49523)
(0.608024 -0.572865 5.75039)
(-2.18795 -0.759948 0.164935)
(-3.54389 0.990254 -0.911913)
(-3.58784 1.0487 1.3769)
(-2.05569 0.394977 6.34188)
(-5.50019 0.0846579 13.3636)
(-0.140529 0.121886 16.6812)
(-13.9316 -0.044459 20.6882)
(11.0774 0.0282095 17.2282)
(2.16232 0.0991 16.4276)
(5.00949 0.0866598 13.0202)
(2.70591 0.000984107 11.2168)
(2.90715 -0.1119 9.97702)
(1.95693 -0.172083 8.15234)
(1.02067 -0.264579 7.88258)
(0.539774 -0.154711 6.18191)
(-1.79226 -0.494528 0.667859)
(-4.17425 0.402812 -1.32423)
(-3.11892 0.024526 1.47518)
(-2.06029 0.21127 6.63338)
(-5.56926 0.0771239 13.1734)
(-0.140999 0.0749981 16.7626)
(-13.8384 -0.0144267 20.9115)
(16.3215 -0.0345963 14.965)
(5.86434 -0.121307 17.3724)
(8.42592 -0.143295 14.2951)
(5.73571 -0.0454609 12.1497)
(4.98621 0.167888 10.5872)
(3.85626 0.32436 9.11441)
(2.36881 0.534243 8.54621)
(1.74548 0.656597 7.44422)
(-1.2203 0.817206 3.25124)
(-5.82338 0.25407 -0.0349432)
(-4.98092 -0.377946 2.83666)
(-3.55068 -0.541709 7.90886)
(-7.6762 -0.164439 13.8269)
(-0.663371 -0.0957568 17.4004)
(-21.2039 0.0244371 20.7657)
(16.2891 -0.064843 14.9751)
(5.76767 -0.205993 17.3843)
(8.37435 -0.226285 14.4425)
(5.72731 -0.0471199 12.4213)
(5.01244 0.287644 10.804)
(3.92149 0.518805 9.20685)
(2.45476 0.8883 8.34913)
(1.76019 1.18247 7.21913)
(-1.56912 1.48316 2.7282)
(-5.45915 -0.334396 -0.677063)
(-4.65827 -1.5352 1.63102)
(-3.65885 -1.29017 7.28953)
(-7.5666 -0.283999 13.91)
(-0.677612 -0.122432 17.3252)
(-21.2829 0.0694324 20.6033)
(16.2676 -0.0678984 14.9796)
(5.69451 -0.207275 17.4307)
(8.32917 -0.217455 14.595)
(5.71534 -0.0197665 12.6203)
(5.04638 0.289747 10.9009)
(4.00984 0.498133 9.2667)
(2.76357 0.831922 8.03009)
(2.3174 1.30385 6.9274)
(0.310309 1.55425 4.21936)
(0.581195 -0.121248 1.05188)
(-2.43752 -0.857257 -1.13477)
(-3.88473 -1.09203 6.07519)
(-7.49876 -0.224837 13.7464)
(-0.850006 -0.105913 17.1831)
(-21.4919 0.0134658 20.2486)
(16.2451 -0.0691364 14.9372)
(5.63059 -0.235207 17.4383)
(8.30816 -0.252805 14.7272)
(5.76271 -0.021466 12.8022)
(5.1212 0.306258 10.9799)
(4.08926 0.495607 9.27753)
(2.96355 0.733607 7.83723)
(2.32464 1.20246 6.70224)
(1.99857 0.836089 5.03978)
(1.42288 -1.27598 1.14871)
(-2.23221 -0.316703 -0.77519)
(-3.79093 0.129956 6.76964)
(-7.40028 -0.196467 13.8149)
(-0.642731 -0.0504133 17.4286)
(-21.4011 -0.0257373 20.4057)
(16.2424 -0.0534573 14.8352)
(5.59485 -0.223199 17.4456)
(8.28185 -0.250818 14.8897)
(5.78175 -0.0194738 13.0064)
(5.15868 0.26507 11.0689)
(4.17342 0.399306 9.24825)
(3.02617 0.625897 7.7172)
(2.22432 0.739137 6.63208)
(2.24301 0.361992 4.30949)
(-2.79288 -0.326886 -0.0940632)
(-4.47115 1.32733 2.90405)
(-3.12404 0.321558 9.04843)
(-7.55084 -0.262108 13.74)
(-0.638442 -0.0296428 17.6072)
(-21.3778 -0.0235314 20.4819)
(16.2629 -0.0228491 14.6522)
(5.60577 -0.188551 17.4072)
(8.26152 -0.23517 15.0471)
(5.78095 -0.0254881 13.2222)
(5.17024 0.199329 11.176)
(4.19002 0.341091 9.26597)
(3.02119 0.611878 7.54106)
(1.96572 0.555638 6.07881)
(-0.0561793 0.663959 2.54979)
(-5.12151 -0.374123 1.08419)
(-4.96409 -0.504183 4.83205)
(-3.40535 -0.0402893 9.04461)
(-7.51527 -0.0719438 13.7464)
(-0.53236 -0.057209 17.7274)
(-21.3596 0.00150426 20.4773)
(16.32 0.0118498 14.3845)
(5.70348 -0.097183 17.2904)
(8.2657 -0.136484 15.1489)
(5.76251 -0.0134506 13.4195)
(5.16644 0.105758 11.3036)
(4.17971 0.206108 9.37232)
(3.22674 0.471305 7.31048)
(2.31541 0.480887 5.80006)
(1.34908 0.789982 3.14602)
(-1.34295 0.910979 -0.513457)
(-4.32289 -0.292215 0.394499)
(-4.09582 -0.912578 7.16499)
(-7.51723 -0.527146 13.9241)
(-0.738387 -0.023584 17.7333)
(-21.4314 -0.0136024 20.3421)
(16.3519 0.0227957 14.2724)
(5.76992 0.0254335 17.2195)
(8.28577 0.0381137 15.1466)
(5.76531 0.0277688 13.4636)
(5.1632 0.0230705 11.3362)
(4.12709 0.0382176 9.44194)
(3.23461 0.11036 7.26089)
(2.47773 -0.0319893 5.39467)
(1.73911 -0.0298863 3.5502)
(1.23893 -0.296745 0.239451)
(-1.53591 0.0853415 -2.15013)
(-2.65394 0.269492 3.03633)
(-7.67417 -0.16504 13.1635)
(-0.313658 -0.00317602 17.4899)
(-21.606 -0.0365758 20.1145)
(16.3158 0.0323688 14.4537)
(5.6882 0.140542 17.3184)
(8.27216 0.197118 15.1292)
(5.77236 0.065252 13.3848)
(5.17524 -0.0508357 11.2894)
(4.16872 -0.110286 9.3937)
(3.21983 -0.300465 7.27221)
(2.41312 -0.51129 5.52865)
(0.585556 -0.577532 2.57718)
(-3.3998 -0.492961 -0.621457)
(-5.16014 0.757726 0.919466)
(-3.24176 0.971093 6.17127)
(-7.61986 0.352291 14.016)
(-0.60801 -0.00803234 17.7602)
(-21.4061 -0.0479383 20.3922)
(16.272 0.0586211 14.7072)
(5.61204 0.221848 17.4194)
(8.27711 0.278892 15.0169)
(5.79592 0.0745199 13.1808)
(5.18443 -0.131542 11.1665)
(4.20598 -0.253481 9.27106)
(3.03742 -0.506291 7.42371)
(1.96739 -0.376531 5.94006)
(-0.895804 -0.114515 2.24147)
(-5.43327 0.0282804 1.66285)
(-5.06155 -0.2704 5.24501)
(-3.0066 -0.152714 8.87079)
(-7.53472 0.0530507 13.7642)
(-0.379661 0.00476752 17.7388)
(-21.3125 -0.0504547 20.5739)
(16.2598 0.0790723 14.8754)
(5.61615 0.249941 17.4521)
(8.30352 0.287453 14.858)
(5.80139 0.0669841 12.9645)
(5.1766 -0.194297 11.0496)
(4.21361 -0.321447 9.21876)
(3.00969 -0.514632 7.67603)
(2.18377 -0.404316 6.55633)
(1.86112 0.126933 4.04399)
(-2.7217 0.47266 -0.136638)
(-4.23419 -1.30876 2.40151)
(-2.94872 -0.37654 9.04037)
(-7.57079 0.225518 13.8225)
(-0.505286 -0.0203869 17.6467)
(-21.3266 -0.0189104 20.5573)
(16.27 0.0884487 14.9627)
(5.66468 0.25571 17.4413)
(8.3366 0.282113 14.6938)
(5.79203 0.0669626 12.7579)
(5.15129 -0.239398 10.9495)
(4.15254 -0.407501 9.2359)
(2.96942 -0.580796 7.82072)
(2.33486 -0.87143 6.67793)
(2.11382 -0.402989 5.1586)
(1.30495 1.05778 1.06654)
(-2.27282 -0.320615 -0.910397)
(-3.47398 -0.0895718 6.97516)
(-7.41675 0.186114 13.9123)
(-0.510704 -0.00860403 17.4814)
(-21.3418 -0.0137061 20.4858)
(16.2984 0.081169 14.9925)
(5.7395 0.222144 17.4327)
(8.36398 0.240144 14.5629)
(5.75258 0.0583885 12.577)
(5.08774 -0.23323 10.8614)
(4.08431 -0.418045 9.24448)
(2.84518 -0.668754 7.98033)
(2.42601 -1.01875 6.84827)
(0.603549 -0.984428 4.42129)
(0.583099 0.279517 0.9602)
(-3.73388 0.419457 -0.419766)
(-3.70543 1.05207 6.4485)
(-7.51384 0.214545 13.8788)
(-0.675847 0.056114 17.2248)
(-21.4216 -0.0461279 20.3464)
(16.3239 0.0744728 14.9783)
(5.82036 0.217197 17.3858)
(8.41372 0.245244 14.4119)
(5.77237 0.0823994 12.3772)
(5.0626 -0.235672 10.762)
(4.01671 -0.442541 9.19265)
(2.59248 -0.755963 8.27965)
(2.00124 -0.908731 7.16179)
(-1.00857 -0.968805 2.99706)
(-4.76804 0.660691 -0.0710389)
(-5.24017 0.85458 2.2118)
(-3.49721 0.673702 7.58637)
(-7.56827 0.249661 14.0111)
(-0.490716 0.0649411 17.3603)
(-21.2071 -0.102679 20.6933)
(16.3597 0.0391025 14.96)
(5.92404 0.1268 17.3754)
(8.46973 0.153586 14.2701)
(5.78871 0.0656135 12.11)
(5.04476 -0.137988 10.5456)
(3.96976 -0.280064 9.09948)
(2.54334 -0.464935 8.48466)
(2.01117 -0.498828 7.41227)
(-0.443833 -0.542517 3.6552)
(-4.92693 0.248865 -0.438058)
(-4.73544 -0.198785 2.02079)
(-3.39032 0.0775699 7.64091)
(-7.63417 0.137853 13.8764)
(-0.418236 0.0551512 17.4105)
(-21.1159 -0.0459607 20.8678)
(18.9796 -0.0300269 10.5541)
(9.87698 -0.111711 17.3244)
(12.0368 -0.169813 15.9724)
(9.81672 -0.135915 13.9888)
(7.80437 0.0883307 11.783)
(6.38912 0.298987 10.2434)
(4.83767 0.541677 9.29017)
(4.08384 0.763196 8.32191)
(2.36015 0.908514 6.66328)
(-2.93141 0.376704 2.89704)
(-4.88166 -0.0805545 3.05567)
(-3.58634 -0.402092 8.94701)
(-9.56481 -0.305458 15.5356)
(-3.08814 0.0558083 19.4289)
(-26.1901 0.104013 19.5589)
(18.9818 -0.0551495 10.5988)
(9.76259 -0.179422 17.3532)
(11.9455 -0.265224 16.0416)
(9.75668 -0.186872 14.1612)
(7.80161 0.169307 11.9794)
(6.43221 0.474567 10.3763)
(4.8912 0.840415 9.28226)
(4.04472 1.18096 8.27742)
(2.10471 1.60968 6.30174)
(-2.64124 0.435524 2.39385)
(-3.90623 -0.755447 2.03378)
(-3.24422 -1.29124 8.14796)
(-9.49771 -0.730009 15.497)
(-3.08036 0.15462 19.4111)
(-26.273 0.245303 19.4595)
(18.9895 -0.0565046 10.6226)
(9.68552 -0.165305 17.3936)
(11.8705 -0.259331 16.1289)
(9.69391 -0.157452 14.3108)
(7.7877 0.187058 12.0985)
(6.48327 0.463378 10.4571)
(5.13069 0.789658 9.16475)
(4.43376 1.24333 7.98224)
(3.02941 1.44527 6.30214)
(2.38292 -0.0953308 4.03035)
(1.14744 -0.570187 1.02583)
(-1.46286 -0.603402 5.58811)
(-9.52709 -0.4527 15.1763)
(-3.4404 0.169752 19.3151)
(-26.3682 0.16987 19.1276)
(18.9867 -0.0549931 10.6145)
(9.60278 -0.170202 17.3909)
(11.8079 -0.304366 16.1914)
(9.69984 -0.178413 14.4467)
(7.85233 0.197102 12.2074)
(6.58369 0.475143 10.493)
(5.32187 0.736877 9.05524)
(4.4878 1.14972 7.78172)
(3.70204 0.905311 6.51447)
(3.06782 -1.15267 3.79294)
(-0.258398 -1.14635 1.15955)
(-2.15857 0.725685 6.41181)
(-9.43743 0.11293 15.3432)
(-3.10162 0.19374 19.5206)
(-26.3748 0.0789854 19.2779)
(18.9848 -0.0363634 10.5475)
(9.55446 -0.136396 17.3534)
(11.7551 -0.299721 16.265)
(9.67824 -0.168538 14.6091)
(7.86312 0.164402 12.3386)
(6.66011 0.394771 10.5141)
(5.38587 0.633762 8.98259)
(4.42318 0.89658 7.71664)
(3.90175 0.693463 6.41539)
(0.786758 -0.729095 2.93886)
(-4.92117 0.525078 4.12147)
(-3.35385 0.836901 9.9813)
(-9.4658 -0.123022 15.4404)
(-3.12669 0.174922 19.7114)
(-26.3766 0.0180434 19.3055)
(18.9749 -0.00271116 10.4102)
(9.55167 -0.0928642 17.2371)
(11.7313 -0.27756 16.3102)
(9.65538 -0.160252 14.775)
(7.85588 0.108326 12.4797)
(6.66319 0.321562 10.5807)
(5.41998 0.578566 8.93451)
(4.35195 0.69266 7.60301)
(3.44906 0.967255 5.83665)
(-0.918963 0.37893 2.85822)
(-5.47573 -0.933411 6.06)
(-4.07468 -0.525329 10.7254)
(-9.33143 -0.238081 15.4772)
(-2.90786 0.0879327 19.8179)
(-26.4058 0.0113416 19.319)
(18.9605 0.0266209 10.1997)
(9.64665 -0.0292784 17.0179)
(11.7744 -0.158757 16.2908)
(9.64537 -0.0905582 14.9129)
(7.82994 0.050692 12.6198)
(6.60404 0.17514 10.71)
(5.50046 0.397058 8.91765)
(4.54509 0.417788 7.38412)
(3.72378 0.70632 5.7467)
(1.92655 1.2704 3.26084)
(-1.88899 1.12422 1.36497)
(-3.21452 -0.957152 7.24083)
(-9.29863 -1.12993 15.3478)
(-3.10563 0.093328 19.8108)
(-26.4622 -0.0535839 19.1855)
(18.9544 0.0209136 10.1068)
(9.71611 0.0165651 16.9085)
(11.821 0.039397 16.2507)
(9.66469 0.0396697 14.9347)
(7.83582 0.030024 12.6509)
(6.54056 0.0349116 10.7715)
(5.44345 0.0930342 8.9616)
(4.61947 0.008382 7.24514)
(3.42542 0.0642275 5.67257)
(2.68623 -0.210969 3.56401)
(1.07943 -0.148159 1.23803)
(2.44785 0.436841 2.04935)
(-9.5439 -0.0996667 14.2126)
(-2.37201 -0.000588525 19.5882)
(-26.6473 -0.0430904 19.1191)
(18.9715 0.0186061 10.2472)
(9.63828 0.065155 17.0689)
(11.7773 0.221925 16.2966)
(9.65444 0.157741 14.8877)
(7.84835 0.0137918 12.5964)
(6.59379 -0.0838419 10.7225)
(5.47904 -0.240222 8.92825)
(4.62975 -0.391606 7.27739)
(3.17496 -0.485451 5.67229)
(0.774369 -1.07801 2.858)
(-4.02924 -0.452965 2.18365)
(-2.55019 1.06063 6.96063)
(-9.4647 0.982859 15.5339)
(-2.91831 -0.135709 19.8213)
(-26.4685 -0.011679 19.2737)
(18.9916 0.0417795 10.4446)
(9.56733 0.129083 17.2671)
(11.7527 0.323162 16.3033)
(9.67748 0.216565 14.7422)
(7.87847 -0.0329481 12.4568)
(6.67473 -0.225695 10.5916)
(5.43879 -0.461687 8.89689)
(4.36393 -0.537728 7.50792)
(2.86741 -0.51345 5.70481)
(-1.57381 -0.10141 3.0204)
(-5.69503 0.0438655 6.50079)
(-3.59955 -0.118753 10.7035)
(-9.35934 0.218433 15.4952)
(-2.67468 -0.165429 19.829)
(-26.4167 -0.0543857 19.4688)
(19.0018 0.0626121 10.5652)
(9.58455 0.169484 17.3691)
(11.7889 0.337288 16.2538)
(9.71021 0.220626 14.5764)
(7.88933 -0.0860361 12.3131)
(6.70233 -0.306737 10.4983)
(5.40116 -0.51955 8.95013)
(4.44399 -0.649995 7.68476)
(3.71969 -0.379461 6.40741)
(1.13257 0.941965 2.95629)
(-4.36333 -0.630142 3.67272)
(-3.12247 -1.01171 9.86785)
(-9.48248 0.120027 15.5243)
(-2.92823 -0.248457 19.7348)
(-26.3797 -0.0587859 19.4368)
(19.0047 0.0742031 10.6158)
(9.64496 0.199482 17.3966)
(11.8513 0.33365 16.1771)
(9.74498 0.225503 14.4135)
(7.89171 -0.12386 12.1767)
(6.65414 -0.386359 10.4598)
(5.35333 -0.60154 9.02034)
(4.52798 -0.909819 7.75526)
(3.74086 -0.711419 6.55308)
(3.14674 1.07103 3.80454)
(-0.225604 0.595956 1.16422)
(-2.0066 -0.928358 6.67291)
(-9.41312 -0.0847467 15.4607)
(-2.9325 -0.273994 19.5522)
(-26.3627 -0.128884 19.4075)
(19.0088 0.0692407 10.6096)
(9.73822 0.187933 17.3917)
(11.9223 0.281252 16.1139)
(9.7501 0.196798 14.28)
(7.84006 -0.126201 12.0613)
(6.56665 -0.385351 10.4277)
(5.21754 -0.647405 9.11717)
(4.54842 -1.02194 7.90568)
(3.19407 -1.1383 6.33279)
(2.41715 0.205584 4.03033)
(0.0808777 0.194406 1.18346)
(-1.67082 0.324825 6.04792)
(-9.45346 0.39878 15.2894)
(-3.18631 -0.231999 19.3366)
(-26.361 -0.229212 19.2991)
(19.0019 0.0643502 10.5754)
(9.82207 0.197732 17.3463)
(12.0026 0.282978 16.0266)
(9.82182 0.221921 14.1321)
(7.8655 -0.11487 11.9394)
(6.53371 -0.400863 10.3478)
(5.02084 -0.717991 9.21962)
(4.26544 -0.99435 8.16573)
(2.46878 -1.28197 6.33352)
(-1.83043 0.0927684 2.87648)
(-4.09516 0.617483 2.53851)
(-3.14429 0.670807 8.46663)
(-9.39644 0.576333 15.5457)
(-2.74226 -0.217009 19.4182)
(-26.262 -0.309424 19.6404)
(19.0013 0.0342952 10.5217)
(9.94287 0.120874 17.3143)
(12.0988 0.179424 15.9599)
(9.89056 0.156094 13.9645)
(7.87892 -0.0573567 11.7432)
(6.50358 -0.254706 10.2117)
(4.99687 -0.477543 9.21735)
(4.34434 -0.673677 8.1771)
(2.85623 -0.740824 6.71093)
(-1.74794 0.162152 3.04783)
(-4.29525 0.109883 2.66589)
(-3.07618 -0.0369404 8.66086)
(-9.45362 0.206531 15.5565)
(-2.64821 -0.0974719 19.4335)
(-26.1761 -0.139842 19.7746)
(20.4471 -0.0174885 6.79523)
(12.0106 -0.0912264 15.5684)
(14.4368 -0.156771 16.8606)
(13.6838 -0.193045 16.1751)
(11.1 -0.0575663 13.7864)
(9.23211 0.133877 11.7061)
(7.6194 0.371392 10.2162)
(6.5721 0.572914 9.02324)
(5.10215 0.538482 8.57356)
(3.38687 0.272305 6.6658)
(0.335204 0.0288309 5.24044)
(-3.87537 -0.177939 12.3609)
(-12.4443 -0.286817 20.0198)
(-7.42015 0.318875 20.08)
(-28.6147 0.187385 16.5777)
(20.4699 -0.0314144 6.83344)
(11.9352 -0.136317 15.6273)
(14.3405 -0.239109 16.9108)
(13.5798 -0.275203 16.2665)
(11.0384 -0.0507217 13.912)
(9.22931 0.235813 11.8257)
(7.6431 0.593292 10.3079)
(6.57272 0.890167 9.04235)
(5.15667 0.847872 8.25169)
(3.77381 0.28388 6.41226)
(1.87252 -0.0785012 4.68242)
(-3.23792 -0.579462 11.4597)
(-12.4454 -0.755784 19.9239)
(-7.34994 0.600278 20.2506)
(-28.7504 0.416854 16.6997)
(20.4905 -0.0326016 6.85255)
(11.8971 -0.106398 15.6691)
(14.2717 -0.227769 16.9685)
(13.4875 -0.24938 16.3635)
(10.9682 -0.0203378 14.0194)
(9.20397 0.24265 11.9075)
(7.72831 0.58561 10.3221)
(6.78611 0.939445 9.0001)
(5.57746 0.739115 7.97608)
(5.26116 -0.398813 6.10427)
(5.89293 -0.115851 4.01023)
(-0.977212 0.248192 9.8995)
(-12.6821 -0.480802 19.8146)
(-7.64536 0.516957 20.1808)
(-28.7395 0.316189 16.6819)
(20.5042 -0.0316555 6.86423)
(11.8345 -0.0844376 15.6762)
(14.1942 -0.256061 16.9938)
(13.4399 -0.282648 16.443)
(10.9879 -0.0262236 14.1171)
(9.27708 0.25685 11.9539)
(7.82899 0.559043 10.2914)
(6.93327 0.882207 8.96875)
(5.93875 0.626536 7.96307)
(5.60814 -1.0026 5.73034)
(4.17326 -0.864556 3.68303)
(-2.33659 0.887647 11.005)
(-12.3509 0.216042 20.0344)
(-7.22245 0.448301 20.7149)
(-28.9058 0.153353 17.0772)
(20.5087 -0.0185059 6.84473)
(11.7915 -0.0315869 15.6262)
(14.136 -0.232704 16.9991)
(13.3859 -0.265097 16.5393)
(10.9533 -0.0311724 14.2422)
(9.30249 0.220655 12.0255)
(7.84014 0.442717 10.3074)
(6.91615 0.708578 8.97493)
(6.11044 0.704237 7.82531)
(5.28156 -0.805926 5.45227)
(-2.28992 -0.430471 6.90215)
(-4.69901 0.839455 14.2562)
(-12.1524 -0.00168477 19.8848)
(-7.18389 0.412108 21.1633)
(-28.9945 0.0477428 17.1469)
(20.495 0.00548063 6.79438)
(11.7574 0.0162951 15.4899)
(14.1062 -0.197783 16.9434)
(13.3587 -0.242761 16.6173)
(10.9133 -0.0531543 14.3682)
(9.2801 0.172642 12.1318)
(7.86432 0.360346 10.3346)
(6.84154 0.533101 8.95526)
(5.98685 0.801543 7.7725)
(5.14718 0.940909 5.40519)
(-2.5816 -0.888565 7.84589)
(-5.32935 -0.85571 14.7644)
(-11.9842 -0.390893 19.8299)
(-6.97678 0.274333 21.5118)
(-29.0875 0.00345622 17.2011)
(20.4619 0.0231125 6.71309)
(11.7761 0.0443511 15.2506)
(14.1504 -0.0998694 16.7992)
(13.3879 -0.133741 16.6513)
(10.8819 -0.036575 14.4821)
(9.19922 0.0900527 12.2761)
(7.8652 0.217543 10.4167)
(6.89904 0.274609 8.90006)
(5.89035 0.463138 7.80382)
(5.62664 1.16727 6.14676)
(5.08057 1.08838 3.69762)
(-2.52692 -0.57983 10.5088)
(-11.9594 -1.11197 19.6885)
(-6.99121 0.21309 21.5688)
(-29.1174 -0.0457464 17.0645)
(20.4456 0.0171285 6.67586)
(11.7994 0.00662649 15.1334)
(14.1916 0.0270198 16.7125)
(13.4279 0.040681 16.6347)
(10.9025 0.038289 14.5001)
(9.15265 0.0348522 12.3276)
(7.81727 0.0495918 10.4812)
(6.86557 0.013775 8.92292)
(5.5238 0.0959921 7.85624)
(5.01329 -0.131645 6.54454)
(6.52049 -0.357843 3.6669)
(3.16771 0.265762 6.65446)
(-12.2463 0.0422841 19.0874)
(-6.54333 -0.0257791 21.4693)
(-29.2209 -0.018723 17.0618)
(20.4771 0.0157387 6.72944)
(11.7818 -0.0190153 15.299)
(14.1499 0.148476 16.8292)
(13.3881 0.199605 16.646)
(10.8955 0.109495 14.4571)
(9.19503 -0.00885044 12.2802)
(7.86572 -0.120766 10.4331)
(6.92789 -0.232348 8.88783)
(5.4834 -0.246328 7.87968)
(5.24828 -1.04068 6.08767)
(2.50602 -0.924206 4.40451)