/*--------------------------------*- C++ -*----------------------------------*\
| =========                 |                                                 |
| \\      /  F ield         | OpenFOAM: The Open Source CFD Toolbox           |
|  \\    /   O peration     | Version:  4.1                                   |
|   \\  /    A nd           | Web:      www.OpenFOAM.org                      |
|    \\/     M anipulation  |                                                 |
\*---------------------------------------------------------------------------*/
FoamFile
{
    version     2.0;
    format      ascii;
    class       volScalarField;
    location    "2";
    object      epsilon;
}
// * * * * * * * * * * * * * * * * * * * * * * * * * * * * * * * * * * * * * //

dimensions      [0 2 -3 0 0 0 0];

internalField   nonuniform List<scalar> 
204246
(
1.45118
1.4904
1.50023
1.50745
1.52375
1.52651
1.53601
1.53721
1.53983
1.53872
1.53877
1.53569
1.53414
1.53201
1.53187
1.53169
1.53275
1.52761
1.53151
1.53428
1.53582
1.54035
1.54184
1.54481
1.54523
1.54476
1.54365
1.54161
1.54052
1.53909
1.53682
1.53495
1.53364
1.5334
1.53317
1.53458
1.53111
1.53558
1.54045
1.5423
1.5465
1.54829
1.54861
1.54797
1.5458
1.5449
1.5433
1.54133
1.53952
1.53601
1.53473
1.53434
1.53507
1.53144
1.53571
1.54007
1.54168
1.54546
1.54753
1.54991
1.5507
1.54975
1.55019
1.54943
1.54858
1.54724
1.54476
1.54321
1.53951
1.53757
1.52993
1.53186
1.53351
1.53447
1.53813
1.54027
1.54578
1.54834
1.5499
1.55069
1.54912
1.5478
1.54601
1.54252
1.54072
1.53634
1.53424
1.52645
1.52843
1.53012
1.53115
1.53507
1.5373
1.54266
1.5462
1.5481
1.54806
1.54683
1.54575
1.54429
1.54143
1.53982
1.53667
1.53549
1.53563
1.5358
1.53293
1.53676
1.54027
1.54231
1.54696
1.55038
1.55247
1.55188
1.55166
1.54938
1.54801
1.54794
1.54834
1.54974
1.55095
1.5532
1.55742
1.55606
1.56634
1.5741
1.58008
1.59336
1.60124
1.61426
1.6225
1.6346
1.64488
1.65942
1.67609
1.69793
1.72639
1.76277
1.81318
1.88056
1.97601
2.12909
2.32153
2.48899
2.51847
2.50588
2.34591
2.05042
1.76002
1.62081
1.5078
1.32288
1.1389
1.05336
1.00332
0.93835
0.851614
0.770229
0.699876
0.628212
0.562338
0.506545
0.462026
0.422427
0.382879
0.349728
0.318056
0.293953
0.2626
0.240651
0.214381
0.201047
0.177907
0.167186
0.148332
0.1396
0.123527
0.116509
0.103908
0.0979621
0.0878194
0.0828635
0.0744546
0.0701384
0.0639345
0.0606952
0.0554482
0.05252
0.0493805
0.0473413
0.0451365
0.0437067
0.0430382
0.116509
0.113177
0.113104
0.118062
0.124629
0.124801
0.131836
0.13136
0.136876
0.135446
0.138524
0.135953
0.138394
0.134498
0.138625
0.1351
0.140139
0.13819
0.138573
0.144363
0.141671
0.148155
0.14543
0.150281
0.147772
0.150704
0.147362
0.149825
0.143892
0.146824
0.140067
0.142785
0.137616
0.141854
0.138329
0.143276
0.142674
0.142998
0.149922
0.147263
0.152794
0.150317
0.153162
0.149509
0.151862
0.145421
0.148228
0.140849
0.143273
0.136952
0.140102
0.137699
0.142078
0.141492
0.141591
0.148608
0.146051
0.152079
0.150085
0.153465
0.150183
0.152831
0.147474
0.150767
0.145052
0.148141
0.141658
0.143685
0.137759
0.139472
0.136739
0.135525
0.140423
0.139212
0.146634
0.14605
0.154051
0.152711
0.156392
0.150972
0.15404
0.146677
0.149228
0.141401
0.143076
0.137068
0.139136
0.136862
0.135844
0.141034
0.139911
0.147714
0.147326
0.154607
0.15137
0.155315
0.149612
0.152714
0.145988
0.148777
0.141763
0.143843
0.139883
0.142983
0.14074
0.145461
0.143403
0.145274
0.151643
0.150689
0.156531
0.152811
0.156739
0.151471
0.154859
0.149045
0.151815
0.147326
0.150957
0.14764
0.152386
0.149734
0.157739
0.156836
0.160487
0.171234
0.170877
0.18517
0.185321
0.203059
0.204324
0.225761
0.229421
0.26082
0.270605
0.319998
0.340182
0.413433
0.457635
0.581402
0.695665
0.926764
1.24956
1.62832
1.76019
1.74913
1.50866
1.00412
0.576283
0.397866
0.319549
0.259537
0.22391
0.175557
0.15964
0.136781
0.131724
0.119852
0.115725
0.115718
0.108169
0.106877
0.0972942
0.0949091
0.0874063
0.0858649
0.081385
0.0805896
0.076979
0.0763737
0.0736185
0.0731706
0.0714265
0.0712206
0.0703063
0.0703268
0.0699809
0.0699228
0.0705126
0.0706192
0.0717831
0.0721501
0.0736952
0.0743663
0.0766864
0.0780112
0.0815088
0.0836328
0.0893401
0.0941763
0.104734
0.110343
0.11235
0.00162057
0.0134665
0.0136894
0.0136325
0.0139625
0.0139086
0.0142138
0.0141829
0.0144538
0.0143773
0.0145929
0.0144183
0.0145736
0.0143145
0.0146125
0.0143564
0.0146953
0.014573
0.0146034
0.0149527
0.0148896
0.0153804
0.0152525
0.0156211
0.0154014
0.0156135
0.0153118
0.0154656
0.0149922
0.0151544
0.0146541
0.0148923
0.0145347
0.0148679
0.0146087
0.0149532
0.0148805
0.0150144
0.0155366
0.0154229
0.0158376
0.0156009
0.0158075
0.0154806
0.0156489
0.0151333
0.0153303
0.0147567
0.0149281
0.0144958
0.0147349
0.014545
0.0148261
0.0147532
0.0148229
0.0152922
0.015151
0.0156202
0.0154865
0.0158038
0.0155609
0.0157854
0.0153946
0.0156373
0.0151658
0.0153827
0.0148729
0.0150106
0.0145424
0.0146599
0.0144155
0.0143098
0.0146179
0.0146129
0.0151265
0.0152398
0.0159571
0.0158568
0.0161003
0.015656
0.0158563
0.0152611
0.015446
0.0148303
0.0149446
0.0144932
0.014639
0.0144378
0.0143751
0.0147296
0.0147239
0.0153089
0.0154238
0.0160138
0.0157553
0.0160209
0.0155207
0.0157446
0.0151771
0.0153687
0.0148186
0.0149688
0.0146731
0.0149025
0.0147199
0.0150157
0.0148817
0.0150991
0.0155546
0.0156018
0.0161164
0.0158261
0.0161358
0.0156627
0.015904
0.0153702
0.0155338
0.0151803
0.0154726
0.0152279
0.0156212
0.0154305
0.0160177
0.0159613
0.0164762
0.0174887
0.0176626
0.0194083
0.0196765
0.0218677
0.0223313
0.0256329
0.0267972
0.0323418
0.0356795
0.0458576
0.0543126
0.0744679
0.0973969
0.146607
0.220759
0.367241
0.62559
1.05883
1.41341
1.46026
1.27863
0.753452
0.264799
0.112278
0.0676685
0.0522182
0.0465674
0.0426722
0.0411551
0.0380893
0.0372947
0.0365677
0.0365749
0.0372808
0.0372326
0.0373386
0.0365956
0.0360309
0.0350607
0.0350608
0.034986
0.0355484
0.0359652
0.036562
0.0364805
0.0365438
0.036364
0.036531
0.0364772
0.0369117
0.0369738
0.037588
0.038518
0.0390337
0.0406499
0.0413567
0.0437832
0.044876
0.0483814
0.050253
0.0554575
0.0581084
0.0649746
0.0682512
0.0723133
0.0729389
0.0725774
0.0122783
0.0122559
0.0121713
0.0121448
0.0121375
0.012125
0.0121244
0.0121154
0.0121164
0.012114
0.012118
0.0121166
0.01212
0.0121173
0.012117
0.0121176
0.0121201
0.0121191
0.0121192
0.012119
0.0121205
0.0121287
0.012126
0.0121347
0.0121313
0.0121381
0.0121325
0.0121381
0.0121301
0.0121367
0.0121289
0.0121354
0.012129
0.0121359
0.0121305
0.0121365
0.012134
0.0121369
0.012148
0.0121449
0.0121549
0.0121487
0.0121542
0.0121459
0.01215
0.0121373
0.0121416
0.0121273
0.0121295
0.0121195
0.0121238
0.0121198
0.0121247
0.0121215
0.0121219
0.0121351
0.0121392
0.0121535
0.0121501
0.0121575
0.0121504
0.0121555
0.0121442
0.0121497
0.0121368
0.0121411
0.0121271
0.0121291
0.0121172
0.0121183
0.0121127
0.0121097
0.01211
0.0121117
0.0121211
0.0121299
0.0121546
0.012156
0.0121633
0.0121512
0.0121564
0.0121407
0.0121447
0.012128
0.0121291
0.0121179
0.0121199
0.0121156
0.012114
0.0121178
0.0121192
0.0121315
0.0121412
0.0121633
0.0121606
0.0121693
0.0121562
0.0121619
0.0121469
0.0121508
0.0121361
0.0121382
0.0121301
0.0121336
0.0121285
0.012133
0.0121291
0.0121343
0.0121461
0.0121501
0.0121632
0.0121558
0.0121644
0.0121514
0.0121576
0.0121439
0.0121478
0.0121356
0.0121386
0.0121313
0.0121392
0.0121339
0.0121464
0.0121448
0.0121608
0.012205
0.0122298
0.0123368
0.0123826
0.0125404
0.0125948
0.0128507
0.01301
0.0135572
0.0141003
0.0154577
0.0172169
0.0211459
0.0276451
0.0421294
0.0705634
0.131495
0.256427
0.495417
0.908502
1.22467
1.25526
1.01811
0.50512
0.166367
0.0670513
0.0354299
0.0255124
0.0225138
0.0218027
0.0216673
0.0219897
0.0227139
0.0236976
0.0240302
0.0240057
0.0238152
0.0230796
0.0225769
0.0224174
0.0224599
0.0224996
0.022535
0.0224314
0.0223374
0.0222013
0.0222089
0.0221956
0.0223402
0.0225682
0.0230114
0.0233995
0.0239614
0.0245287
0.0253559
0.0263222
0.0275867
0.0290745
0.0308349
0.0330902
0.035949
0.0393743
0.0436324
0.0486324
0.0545939
0.0605556
0.0649774
0.0667285
0.012364
0.0122702
0.0122099
0.0121814
0.0121576
0.0121426
0.0121354
0.0121266
0.0121229
0.0121199
0.0121181
0.0121152
0.0121135
0.0121123
0.0121122
0.0121117
0.0121112
0.0121109
0.0121099
0.0121107
0.0121155
0.0121192
0.0121199
0.0121197
0.0121189
0.0121189
0.0121177
0.0121166
0.0121163
0.0121151
0.0121148
0.0121147
0.0121135
0.0121138
0.0121137
0.0121124
0.0121125
0.0121121
0.0121119
0.0121149
0.0121192
0.0121199
0.0121197
0.0121192
0.0121191
0.0121177
0.0121177
0.0121164
0.0121154
0.0121154
0.0121146
0.012114
0.0121139
0.0121126
0.0121126
0.0121124
0.0121108
0.0121108
0.0121098
0.0121089
0.0121089
0.0121089
0.0121079
0.012108
0.0121077
0.0121073
0.0121088
0.0121153
0.0121204
0.012121
0.0121207
0.0121198
0.0121196
0.012119
0.0121177
0.0121177
0.0121173
0.0121156
0.0121157
0.0121146
0.0121134
0.0121134
0.0121127
0.0121111
0.0121111
0.0121099
0.0121086
0.0121085
0.0121072
0.0121061
0.0121059
0.0121059
0.0121054
0.0121048
0.0121049
0.0121041
0.012104
0.0121078
0.0121136
0.0121162
0.012117
0.012117
0.0121169
0.0121175
0.0121175
0.0121167
0.0121168
0.0121163
0.0121161
0.012119
0.0121238
0.0121246
0.0121248
0.0121248
0.0121241
0.0121236
0.0121236
0.012122
0.012122
0.0121212
0.0121202
0.0121202
0.0121196
0.0121195
0.0121194
0.0121194
0.0121188
0.0121185
0.0121204
0.012127
0.0121308
0.0121418
0.0121597
0.0122086
0.0122913
0.0124771
0.0128136
0.0135759
0.0151746
0.0189987
0.0277664
0.0482909
0.0950912
0.194122
0.390267
0.716641
1.00343
1.03091
0.870921
0.527205
0.179827
0.0632143
0.0303172
0.0218931
0.0198336
0.0195527
0.01971
0.0203731
0.0206166
0.0206025
0.0201255
0.0194331
0.0191739
0.0191587
0.0191823
0.0193502
0.0194994
0.0195646
0.0195519
0.0195667
0.0195624
0.0197022
0.0199377
0.020465
0.0210795
0.0219905
0.0229375
0.0242074
0.025636
0.0275005
0.0298658
0.0328003
0.0363222
0.0403965
0.0452557
0.0510079
0.0574815
0.0647512
0.072439
0.0810812
0.0886918
0.0950633
0.0975163
0.0123342
0.0122699
0.0121981
0.0121703
0.0121434
0.0121321
0.0121239
0.0121191
0.0121157
0.0121128
0.012112
0.0121116
0.0121095
0.0121084
0.0121084
0.012107
0.0121056
0.0121056
0.0121042
0.012103
0.012103
0.0121023
0.0121017
0.0121014
0.0121014
0.0121011
0.0121008
0.0121042
0.012112
0.0121145
0.0121141
0.0121141
0.0121134
0.0121118
0.0121118
0.0121107
0.0121095
0.0121095
0.0121084
0.0121072
0.0121072
0.0121059
0.0121048
0.0121047
0.0121042
0.0121039
0.0121036
0.0121032
0.0121026
0.0121017
0.0121037
0.0121098
0.0121121
0.0121124
0.0121116
0.0121117
0.0121116
0.0121104
0.0121104
0.0121091
0.0121079
0.0121079
0.0121078
0.0121074
0.0121072
0.012107
0.0121064
0.012107
0.0121115
0.012114
0.0121149
0.0121151
0.0121151
0.0121151
0.0121132
0.0121132
0.0121125
0.0121111
0.0121109
0.0121104
0.0121101
0.0121101
0.0121098
0.0121093
0.0121103
0.012114
0.0121149
0.0121149
0.0121146
0.0121138
0.0121138
0.012113
0.0121117
0.0121117
0.0121112
0.0121109
0.0121107
0.0121091
0.0121091
0.0121086
0.0121075
0.0121074
0.0121075
0.0121071
0.0121072
0.0121069
0.0121067
0.0121089
0.0121139
0.0121149
0.0121146
0.0121146
0.0121145
0.0121139
0.0121143
0.0121141
0.0121136
0.0121135
0.0121126
0.0121129
0.0121175
0.0121232
0.0121257
0.0121275
0.0121303
0.012134
0.0121385
0.0121408
0.0121414
0.0121413
0.0121412
0.0121434
0.012151
0.012167
0.0121946
0.0122391
0.0123158
0.0124798
0.0128607
0.0138183
0.0162019
0.0221468
0.036746
0.0701718
0.142733
0.279766
0.505306
0.739099
0.787464
0.691706
0.502611
0.26554
0.0941068
0.0398584
0.023782
0.0189692
0.0173567
0.0167451
0.0164576
0.0162818
0.0160453
0.0159369
0.0159167
0.015973
0.0160298
0.0161246
0.0162047
0.0162811
0.0163063
0.0164161
0.0166448
0.0169832
0.017355
0.0179059
0.0187857
0.0200981
0.0218703
0.0241081
0.0268846
0.0308398
0.0358617
0.0425604
0.0499382
0.0591587
0.0689767
0.0814352
0.0938978
0.108629
0.121418
0.136004
0.146192
0.154717
0.157665
0.01237
0.0122731
0.0122251
0.0121917
0.0121641
0.0121473
0.0121381
0.0121289
0.0121235
0.0121188
0.0121149
0.0121126
0.0121115
0.0121104
0.012108
0.0121058
0.0121051
0.0121046
0.0121027
0.0121015
0.0121011
0.0121009
0.0121007
0.0121005
0.0121003
0.0121003
0.0121045
0.0121134
0.0121174
0.0121178
0.0121179
0.0121179
0.0121162
0.0121162
0.0121157
0.012114
0.012114
0.0121134
0.0121117
0.0121117
0.0121105
0.0121091
0.012109
0.0121076
0.012107
0.0121069
0.0121062
0.0121061
0.0121061
0.0121057
0.0121055
0.0121094
0.0121166
0.0121184
0.0121187
0.0121179
0.0121169
0.0121168
0.0121167
0.0121164
0.0121161
0.0121161
0.0121157
0.0121157
0.0121194
0.0121222
0.0121222
0.0121214
0.0121214
0.0121206
0.0121196
0.0121191
0.0121192
0.0121186
0.0121181
0.0121186
0.0121185
0.0121176
0.0121179
0.0121178
0.0121161
0.0121162
0.012116
0.0121142
0.0121142
0.0121131
0.0121118
0.0121118
0.0121108
0.0121101
0.01211
0.01211
0.0121093
0.0121094
0.012109
0.0121087
0.0121114
0.012117
0.0121185
0.0121183
0.012118
0.0121179
0.0121168
0.0121158
0.0121152
0.0121136
0.0121137
0.0121129
0.0121112
0.0121112
0.012111
0.0121102
0.0121101
0.0121096
0.0121093
0.0121089
0.0121104
0.0121177
0.0121235
0.0121243
0.0121237
0.0121237
0.0121231
0.012122
0.0121219
0.0121214
0.0121214
0.0121211
0.0121204
0.0121201
0.0121192
0.0121206
0.0121261
0.0121359
0.0121521
0.0121762
0.0122078
0.0122623
0.0123733
0.0126361
0.0132743
0.0148805
0.0189455
0.0287286
0.0513742
0.098029
0.184518
0.313277
0.46317
0.514443
0.477126
0.350681
0.202741
0.0776426
0.0336957
0.0212307
0.0175238
0.0163926
0.0160655
0.0160135
0.0160759
0.0161407
0.0161048
0.015862
0.0155429
0.0154701
0.0154662
0.0155678
0.0158282
0.0163265
0.0170295
0.0179657
0.0191388
0.0207418
0.0231558
0.0266474
0.0314369
0.0373162
0.0440552
0.0527005
0.0627583
0.0757974
0.0893849
0.105666
0.121233
0.140496
0.158351
0.179198
0.195639
0.214753
0.227005
0.237202
0.240455
0.0123666
0.0122719
0.0122324
0.0121924
0.0121637
0.0121504
0.0121392
0.0121347
0.0121294
0.0121278
0.0121275
0.0121256
0.0121243
0.0121243
0.0121239
0.0121222
0.0121225
0.0121223
0.0121212
0.012121
0.0121202
0.0121202
0.012119
0.0121178
0.0121175
0.0121159
0.0121153
0.0121144
0.0121131
0.0121131
0.0121121
0.0121106
0.0121106
0.0121098
0.0121086
0.0121082
0.0121081
0.0121078
0.0121077
0.0121074
0.0121068
0.0121086
0.0121126
0.0121131
0.0121132
0.0121131
0.0121129
0.0121129
0.0121118
0.0121116
0.0121116
0.0121109
0.0121109
0.0121106
0.0121105
0.0121142
0.0121209
0.0121237
0.0121245
0.012125
0.0121252
0.0121252
0.0121252
0.0121234
0.0121234
0.0121233
0.0121214
0.0121215
0.0121213
0.0121193
0.0121194
0.0121193
0.0121174
0.0121174
0.0121174
0.0121154
0.0121153
0.0121149
0.012113
0.012113
0.0121125
0.0121107
0.0121107
0.0121104
0.0121096
0.0121094
0.0121084
0.0121083
0.0121084
0.0121082
0.012108
0.0121086
0.0121133
0.0121188
0.0121196
0.0121197
0.0121198
0.0121196
0.0121196
0.0121184
0.0121186
0.0121184
0.0121167
0.0121169
0.0121172
0.0121173
0.0121171
0.0121154
0.0121154
0.0121152
0.0121134
0.0121135
0.0121128
0.0121114
0.0121114
0.012111
0.0121104
0.0121103
0.0121101
0.0121097
0.0121089
0.0121103
0.012117
0.0121252
0.0121285
0.0121292
0.012129
0.0121289
0.0121288
0.0121286
0.0121278
0.0121269
0.0121291
0.012136
0.0121476
0.0121656
0.0121908
0.0122242
0.0122765
0.0123715
0.0125698
0.0130163
0.0141006
0.0167101
0.0229529
0.036584
0.0641842
0.111064
0.179666
0.248398
0.275317
0.267705
0.211022
0.130433
0.066048
0.0350405
0.0234663
0.0185351
0.0164513
0.0156206
0.0152619
0.0150557
0.0148536
0.0146192
0.0145299
0.0145238
0.0146137
0.014914
0.0155142
0.0164852
0.0179991
0.0201268
0.0230586
0.026837
0.0321922
0.0393763
0.049344
0.0612618
0.0746355
0.0904284
0.107928
0.129845
0.152473
0.17819
0.201098
0.227854
0.251497
0.278268
0.297564
0.319894
0.332628
0.343655
0.346897
0.0123535
0.012272
0.012235
0.0121964
0.0121689
0.0121556
0.0121403
0.0121338
0.0121249
0.0121213
0.0121174
0.0121153
0.0121131
0.0121103
0.0121086
0.0121082
0.012107
0.0121061
0.0121056
0.0121054
0.0121049
0.0121053
0.0121106
0.0121191
0.0121213
0.0121212
0.0121203
0.0121207
0.0121204
0.0121191
0.0121192
0.012119
0.0121169
0.012117
0.0121166
0.0121147
0.0121147
0.0121145
0.0121125
0.0121127
0.0121127
0.0121107
0.0121107
0.0121104
0.0121085
0.0121085
0.0121075
0.0121061
0.0121061
0.0121057
0.012105
0.0121051
0.0121047
0.0121042
0.012106
0.0121135
0.0121199
0.0121208
0.0121209
0.0121204
0.0121189
0.0121189
0.0121172
0.0121164
0.0121164
0.012115
0.0121143
0.0121143
0.012114
0.0121135
0.0121135
0.012113
0.0121129
0.0121163
0.0121207
0.0121215
0.0121213
0.0121213
0.0121206
0.0121206
0.0121203
0.0121187
0.0121187
0.0121177
0.0121162
0.012116
0.0121143
0.0121137
0.012113
0.0121114
0.0121113
0.0121109
0.0121099
0.0121099
0.012109
0.0121091
0.0121087
0.0121087
0.0121123
0.0121168
0.0121174
0.0121175
0.0121172
0.0121172
0.0121168
0.0121165
0.0121164
0.0121161
0.0121177
0.0121221
0.0121236
0.0121242
0.0121247
0.0121251
0.0121251
0.0121252
0.0121241
0.0121244
0.0121243
0.0121229
0.0121229
0.0121221
0.0121208
0.0121208
0.0121207
0.0121206
0.0121202
0.0121201
0.0121197
0.0121205
0.0121224
0.012123
0.0121233
0.0121242
0.0121282
0.0121373
0.0121526
0.0121752
0.0122077
0.012261
0.0123496
0.01251
0.012835
0.0135379
0.0151577
0.0187413
0.0263769
0.0405506
0.064149
0.0954251
0.122291
0.128323
0.127929
0.109096
0.0740461
0.0413548
0.0269177
0.0209952
0.0182474
0.0165857
0.0154915
0.0151232
0.015044
0.0150425
0.0151058
0.0152491
0.0155443
0.0161793
0.0174613
0.0196221
0.0230131
0.0278134
0.0343524
0.0423674
0.0528391
0.0661846
0.0844162
0.105928
0.129223
0.154904
0.181135
0.212745
0.243954
0.278598
0.306919
0.338337
0.363852
0.393014
0.411377
0.433172
0.443425
0.4533
0.455958
0.0123492
0.0122753
0.0122411
0.0121994
0.0121745
0.0121579
0.0121409
0.0121334
0.0121268
0.0121212
0.0121188
0.012117
0.0121167
0.012115
0.0121136
0.0121136
0.0121121
0.0121107
0.0121105
0.0121088
0.012108
0.0121074
0.0121057
0.0121055
0.0121049
0.0121035
0.0121036
0.012103
0.0121021
0.012102
0.012102
0.0121017
0.0121014
0.0121044
0.0121131
0.012117
0.0121177
0.0121172
0.0121163
0.0121163
0.0121148
0.0121147
0.0121145
0.0121136
0.0121136
0.0121128
0.0121123
0.0121122
0.0121118
0.0121116
0.0121109
0.0121124
0.012118
0.0121197
0.0121196
0.0121193
0.0121191
0.0121176
0.012117
0.0121165
0.0121154
0.0121154
0.0121153
0.0121137
0.0121138
0.0121134
0.012112
0.012112
0.0121115
0.0121113
0.012111
0.0121114
0.0121153
0.0121191
0.0121197
0.0121195
0.0121193
0.0121186
0.0121183
0.0121177
0.0121164
0.0121165
0.0121164
0.0121146
0.0121147
0.0121145
0.0121127
0.0121127
0.0121126
0.0121123
0.0121122
0.0121109
0.0121109
0.01211
0.0121085
0.0121086
0.0121075
0.0121062
0.0121064
0.0121065
0.0121054
0.0121054
0.0121048
0.0121046
0.0121082
0.0121167
0.0121247
0.0121283
0.0121316
0.0121327
0.0121328
0.0121317
0.0121318
0.0121311
0.0121295
0.0121295
0.0121286
0.0121278
0.0121278
0.0121271
0.0121272
0.0121271
0.0121264
0.0121263
0.0121259
0.0121259
0.0121257
0.0121252
0.0121249
0.0121241
0.0121255
0.0121303
0.0121348
0.0121369
0.0121402
0.0121456
0.0121559
0.0121731
0.0122
0.0122397
0.012301
0.0123925
0.0125362
0.0127835
0.0132627
0.0142232
0.0162154
0.0200249
0.0268617
0.0370125
0.0501149
0.0583581
0.0603379
0.0585448
0.0537685
0.0408578
0.0288344
0.0243039
0.0226862
0.0212497
0.0183087
0.0159641
0.0154652
0.0153971
0.0155021
0.015941
0.0169153
0.0185879
0.0213935
0.0256965
0.0323882
0.0418003
0.054711
0.0701765
0.0891731
0.111204
0.140035
0.173443
0.209264
0.245827
0.279287
0.316436
0.351536
0.389625
0.417899
0.447099
0.46762
0.492002
0.504628
0.519913
0.526732
0.532544
0.534147
0.0123376
0.0122713
0.0122379
0.0121974
0.0121731
0.0121538
0.012138
0.0121313
0.0121262
0.012123
0.012121
0.012119
0.0121182
0.0121173
0.0121157
0.0121152
0.0121148
0.0121121
0.0121114
0.0121114
0.0121097
0.0121086
0.0121085
0.0121073
0.0121064
0.0121065
0.0121062
0.0121051
0.012105
0.0121045
0.0121051
0.0121111
0.0121221
0.0121252
0.0121258
0.0121259
0.0121246
0.0121246
0.012124
0.0121223
0.0121224
0.0121218
0.0121201
0.0121201
0.0121187
0.0121176
0.0121174
0.0121157
0.0121152
0.0121149
0.0121144
0.0121141
0.0121139
0.0121137
0.0121132
0.0121156
0.0121209
0.0121224
0.0121221
0.0121222
0.0121219
0.0121201
0.0121201
0.0121192
0.0121178
0.0121177
0.0121165
0.0121153
0.0121153
0.0121138
0.0121129
0.0121128
0.0121114
0.0121104
0.0121104
0.0121094
0.0121087
0.0121086
0.0121086
0.0121083
0.0121079
0.0121097
0.0121168
0.0121194
0.0121197
0.0121197
0.0121189
0.0121188
0.0121187
0.0121171
0.0121171
0.0121172
0.0121155
0.0121155
0.0121154
0.0121134
0.0121134
0.0121131
0.0121113
0.0121113
0.0121107
0.012109
0.012109
0.012108
0.0121066
0.0121065
0.0121058
0.0121052
0.012105
0.0121045
0.0121044
0.0121037
0.0121048
0.0121107
0.0121208
0.0121287
0.0121324
0.0121349
0.0121376
0.0121388
0.0121391
0.0121391
0.012139
0.0121373
0.0121374
0.0121366
0.0121361
0.0121362
0.0121362
0.0121355
0.0121351
0.0121357
0.0121361
0.0121361
0.012136
0.0121376
0.0121441
0.0121565
0.0121749
0.012202
0.0122444
0.0123041
0.0123888
0.0125106
0.0127056
0.0130237
0.0135975
0.0146177
0.0164529
0.0193422
0.0235397
0.0281169
0.0308607
0.0312116
0.0307122
0.0286113
0.0253621
0.0225749
0.0218699
0.0215919
0.0208333
0.0185514
0.0170959
0.0169027
0.0171778
0.0183187
0.0207181
0.0244403
0.0300589
0.0380366
0.0498909
0.0662857
0.0888363
0.115634
0.146628
0.178911
0.217467
0.260292
0.305769
0.349588
0.384808
0.418829
0.447468
0.478734
0.498563
0.51812
0.5295
0.544979
0.552097
0.561232
0.565302
0.568536
0.569509
0.0123455
0.012285
0.0122517
0.0122207
0.0121886
0.0121702
0.0121529
0.0121404
0.0121346
0.0121274
0.0121248
0.0121214
0.0121198
0.0121192
0.0121184
0.0121174
0.0121172
0.012117
0.0121168
0.0121166
0.0121176
0.0121187
0.012119
0.012119
0.0121181
0.0121179
0.0121175
0.0121177
0.0121204
0.0121221
0.0121223
0.0121223
0.012122
0.0121209
0.0121209
0.0121202
0.0121188
0.0121188
0.0121176
0.0121163
0.0121163
0.0121142
0.0121133
0.0121133
0.0121117
0.0121107
0.0121107
0.01211
0.012109
0.0121091
0.0121087
0.0121081
0.012108
0.0121079
0.0121076
0.012107
0.0121081
0.0121129
0.0121145
0.0121146
0.0121145
0.0121143
0.0121145
0.0121141
0.0121141
0.0121171
0.0121193
0.0121192
0.0121193
0.0121188
0.0121175
0.0121176
0.0121171
0.0121159
0.0121159
0.0121151
0.012114
0.0121139
0.0121126
0.0121117
0.0121116
0.0121114
0.012111
0.0121111
0.0121108
0.0121102
0.0121117
0.0121167
0.0121189
0.0121189
0.0121189
0.0121187
0.012117
0.012117
0.0121159
0.0121144
0.0121144
0.0121138
0.0121122
0.0121121
0.0121115
0.01211
0.0121099
0.0121091
0.0121089
0.0121086
0.0121084
0.012108
0.0121071
0.0121089
0.0121156
0.0121185
0.0121184
0.0121178
0.0121178
0.0121178
0.0121171
0.0121168
0.0121173
0.0121174
0.0121161
0.0121161
0.012116
0.0121149
0.0121149
0.0121149
0.012114
0.0121135
0.0121134
0.0121132
0.0121127
0.0121125
0.0121121
0.0121136
0.01212
0.0121315
0.0121446
0.0121576
0.0121708
0.0121885
0.0122166
0.0122597
0.0123189
0.0124032
0.0125235
0.012693
0.0129418
0.0133058
0.0138689
0.014707
0.015939
0.0174455
0.0190993
0.0198156
0.0199605
0.019643
0.0190052
0.0186606
0.0189729
0.0203482
0.0218417
0.0220959
0.0208454
0.0199032
0.0201663
0.0223283
0.0272015
0.0345845
0.0448637
0.0585473
0.0778756
0.103624
0.138268
0.178933
0.224192
0.266381
0.309234
0.351491
0.395998
0.437448
0.46569
0.487034
0.502464
0.522066
0.535368
0.549807
0.557718
0.568935
0.574231
0.581061
0.584193
0.586528
0.587244
0.0123277
0.0122785
0.0122415
0.0122165
0.0121871
0.0121665
0.0121518
0.0121388
0.0121332
0.0121264
0.0121229
0.0121181
0.0121162
0.0121143
0.0121131
0.01211
0.012109
0.012109
0.0121081
0.0121062
0.0121059
0.0121055
0.0121056
0.0121052
0.0121049
0.0121083
0.0121186
0.0121225
0.0121225
0.0121225
0.012122
0.0121209
0.0121209
0.0121201
0.0121185
0.0121185
0.0121178
0.0121162
0.0121162
0.0121151
0.0121136
0.0121136
0.0121129
0.0121124
0.0121121
0.0121119
0.0121114
0.0121117
0.0121146
0.0121162
0.0121159
0.0121159
0.0121154
0.012114
0.012114
0.0121124
0.0121115
0.0121113
0.0121105
0.0121103
0.01211
0.0121099
0.0121096
0.0121092
0.0121118
0.0121172
0.0121187
0.0121186
0.0121174
0.0121174
0.012116
0.0121153
0.0121152
0.0121151
0.0121148
0.0121143
0.012116
0.0121207
0.012122
0.0121217
0.0121204
0.0121204
0.0121201
0.0121186
0.0121186
0.0121176
0.0121162
0.0121162
0.0121145
0.0121134
0.0121133
0.0121126
0.0121115
0.0121111
0.0121112
0.0121109
0.0121109
0.0121106
0.0121104
0.0121134
0.0121214
0.0121251
0.0121257
0.0121258
0.0121249
0.0121252
0.0121252
0.0121238
0.0121238
0.0121237
0.0121218
0.0121218
0.0121216
0.0121198
0.0121199
0.0121193
0.0121178
0.0121179
0.0121173
0.0121165
0.0121167
0.0121163
0.0121163
0.0121159
0.0121156
0.0121189
0.0121229
0.0121237
0.0121236
0.0121226
0.0121225
0.0121215
0.0121217
0.0121242
0.0121282
0.0121351
0.0121453
0.0121548
0.0121641
0.0121753
0.0121939
0.0122223
0.0122653
0.0123241
0.0124096
0.0125261
0.0126865
0.0128901
0.0131622
0.0134973
0.0139364
0.0144493
0.0150415
0.0155439
0.0158293
0.0158752
0.0158771
0.0158987
0.0162612
0.017326
0.0194428
0.0221696
0.0237307
0.0239962
0.0243946
0.0274906
0.035317
0.0482331
0.0665202
0.0896211
0.118898
0.154543
0.199855
0.251712
0.308206
0.35691
0.397212
0.426533
0.45507
0.482337
0.502302
0.517823
0.528107
0.541691
0.553095
0.566431
0.574625
0.585775
0.59258
0.600185
0.603834
0.606579
0.60733
0.0123484
0.0123061
0.0122598
0.0122369
0.0122064
0.0121809
0.0121687
0.0121532
0.0121469
0.0121394
0.012136
0.0121318
0.0121303
0.0121277
0.0121258
0.0121244
0.0121242
0.0121217
0.0121206
0.0121205
0.0121189
0.0121175
0.0121175
0.0121166
0.0121156
0.0121156
0.0121152
0.0121148
0.0121166
0.012121
0.0121226
0.0121228
0.0121228
0.0121227
0.012121
0.0121211
0.0121205
0.0121189
0.0121189
0.0121176
0.0121163
0.0121163
0.0121147
0.0121135
0.0121133
0.0121128
0.0121126
0.0121121
0.012112
0.0121115
0.0121119
0.0121164
0.01212
0.0121202
0.0121194
0.0121194
0.0121184
0.0121171
0.012117
0.0121153
0.0121146
0.0121145
0.0121129
0.0121125
0.0121124
0.0121118
0.0121119
0.0121115
0.0121114
0.0121146
0.0121186
0.0121196
0.0121197
0.0121197
0.0121192
0.0121178
0.0121177
0.0121158
0.0121152
0.0121149
0.0121138
0.0121134
0.0121128
0.0121127
0.0121125
0.0121121
0.0121118
0.0121112
0.0121124
0.012117
0.0121182
0.0121185
0.0121184
0.0121169
0.0121169
0.0121158
0.0121145
0.0121145
0.0121132
0.0121121
0.0121119
0.0121116
0.0121116
0.0121111
0.0121112
0.0121147
0.0121182
0.012119
0.0121193
0.0121191
0.0121187
0.0121196
0.0121222
0.0121226
0.0121226
0.0121221
0.0121215
0.0121217
0.0121216
0.0121205
0.0121205
0.0121203
0.0121198
0.0121196
0.0121181
0.0121182
0.012118
0.0121166
0.0121166
0.0121164
0.0121155
0.0121154
0.0121155
0.0121155
0.0121154
0.0121183
0.0121257
0.0121372
0.0121503
0.0121644
0.01218
0.0122024
0.0122332
0.0122785
0.012343
0.0124305
0.012547
0.0126985
0.012885
0.0131012
0.0133522
0.0136159
0.0139004
0.0141519
0.0143726
0.0144832
0.0145698
0.0146294
0.0148358
0.0153555
0.0165609
0.018914
0.0223598
0.0263942
0.0306902
0.0359746
0.045906
0.0645092
0.0929218
0.129111
0.171086
0.216432
0.26756
0.321766
0.378928
0.426286
0.458995
0.474056
0.485327
0.500258
0.517863
0.533451
0.543856
0.556542
0.57026
0.587225
0.600198
0.614992
0.626007
0.636595
0.641979
0.64601
0.647063
0.0123089
0.0122791
0.0122416
0.0122229
0.0121943
0.0121714
0.012154
0.0121403
0.0121298
0.0121245
0.0121208
0.0121192
0.0121174
0.0121154
0.0121154
0.0121149
0.0121134
0.0121134
0.0121123
0.0121112
0.012111
0.0121108
0.0121107
0.0121102
0.01211
0.0121092
0.0121097
0.0121132
0.0121154
0.0121154
0.0121154
0.0121151
0.012114
0.0121141
0.0121136
0.0121138
0.0121138
0.0121123
0.0121126
0.0121126
0.012112
0.0121123
0.0121123
0.0121115
0.0121114
0.0121113
0.0121112
0.0121109
0.0121104
0.0121122
0.0121167
0.012118
0.0121175
0.012117
0.0121166
0.0121153
0.012115
0.0121146
0.0121131
0.0121131
0.0121121
0.0121109
0.0121106
0.0121093
0.012109
0.0121087
0.0121072
0.0121072
0.0121065
0.0121052
0.0121051
0.0121045
0.0121044
0.0121033
0.0121021
0.0121038
0.0121091
0.0121116
0.0121122
0.0121123
0.0121115
0.0121115
0.0121097
0.0121088
0.0121087
0.0121085
0.0121082
0.0121082
0.0121078
0.0121074
0.0121101
0.0121144
0.0121149
0.012115
0.0121149
0.0121131
0.0121131
0.0121124
0.0121108
0.0121108
0.0121097
0.0121084
0.0121084
0.0121075
0.0121069
0.0121068
0.0121065
0.0121064
0.0121057
0.0121061
0.0121094
0.012112
0.012113
0.0121139
0.0121142
0.0121144
0.0121143
0.0121126
0.0121126
0.0121122
0.0121107
0.0121106
0.0121106
0.0121104
0.0121103
0.0121096
0.01211
0.01211
0.0121096
0.0121096
0.0121091
0.0121092
0.0121091
0.0121089
0.0121105
0.0121168
0.012129
0.0121438
0.0121578
0.0121696
0.0121824
0.0121995
0.0122275
0.0122659
0.0123178
0.0123844
0.0124753
0.0125903
0.0127371
0.0129103
0.0131099
0.0133214
0.013543
0.0137554
0.0139506
0.0140959
0.0142093
0.0142954
0.014398
0.0146156
0.0151398
0.0163355
0.0187419
0.0232218
0.0298486
0.0388847
0.0519103
0.0742132
0.111151
0.162635
0.22337
0.28412
0.339558
0.386049
0.428819
0.463141
0.487923
0.498943
0.50473
0.512853
0.528481
0.54776
0.564517
0.582255
0.601289
0.624371
0.644152
0.664438
0.680589
0.695635
0.703325
0.708925
0.710449
0.0123287
0.0122994
0.0122701
0.012242
0.0122223
0.0121919
0.0121794
0.0121599
0.0121509
0.0121395
0.0121341
0.0121265
0.0121231
0.0121183
0.0121162
0.0121139
0.0121132
0.0121107
0.0121099
0.0121098
0.0121094
0.012109
0.0121085
0.0121079
0.0121108
0.0121168
0.0121185
0.0121183
0.0121174
0.0121174
0.0121159
0.0121149
0.0121143
0.0121128
0.0121126
0.012112
0.0121106
0.0121106
0.0121104
0.0121093
0.0121095
0.0121094
0.0121084
0.0121082
0.0121077
0.0121083
0.0121142
0.01212
0.0121212
0.012121
0.012121
0.0121207
0.012119
0.0121191
0.0121178
0.0121167
0.0121166
0.0121147
0.0121138
0.0121138
0.0121137
0.0121137
0.0121134
0.0121135
0.0121149
0.0121157
0.0121158
0.0121148
0.0121148
0.0121145
0.012114
0.0121139
0.0121138
0.0121135
0.0121131
0.0121152
0.0121226
0.012126
0.012126
0.012126
0.0121254
0.0121248
0.0121246
0.0121238
0.0121235
0.0121234
0.0121219
0.012122
0.0121215
0.0121201
0.0121201
0.0121192
0.0121178
0.0121178
0.012116
0.0121148
0.0121148
0.0121134
0.0121118
0.0121118
0.0121114
0.0121111
0.012111
0.0121104
0.0121104
0.0121102
0.0121099
0.0121093
0.0121108
0.0121167
0.0121196
0.0121196
0.0121196
0.0121184
0.0121173
0.0121171
0.0121165
0.0121162
0.0121154
0.0121149
0.0121142
0.0121128
0.0121128
0.0121125
0.0121109