/*--------------------------------*- C++ -*----------------------------------*\
| =========                 |                                                 |
| \\      /  F ield         | OpenFOAM: The Open Source CFD Toolbox           |
|  \\    /   O peration     | Version:  4.1                                   |
|   \\  /    A nd           | Web:      www.OpenFOAM.org                      |
|    \\/     M anipulation  |                                                 |
\*---------------------------------------------------------------------------*/
FoamFile
{
    version     2.0;
    format      ascii;
    class       volScalarField;
    location    "2";
    object      k;
}
// * * * * * * * * * * * * * * * * * * * * * * * * * * * * * * * * * * * * * //

dimensions      [0 2 -2 0 0 0 0];

internalField   nonuniform List<scalar> 
204246
(
1.35263
1.37148
1.38058
1.38192
1.39494
1.39395
1.40186
1.40033
1.40406
1.40113
1.40337
1.39923
1.40096
1.39656
1.39966
1.39645
1.40026
1.39715
1.39639
1.40126
1.39907
1.40501
1.40324
1.40718
1.40514
1.40705
1.40412
1.40556
1.40171
1.40399
1.39943
1.40145
1.39758
1.40063
1.39785
1.40096
1.39933
1.39893
1.40508
1.40354
1.40829
1.40707
1.4094
1.40675
1.40811
1.40437
1.40655
1.40217
1.40423
1.39943
1.40093
1.39855
1.40125
1.39952
1.399
1.40483
1.40314
1.40766
1.40669
1.41028
1.40848
1.41056
1.40763
1.41032
1.40662
1.40897
1.40474
1.40601
1.40151
1.40256
1.39848
1.39705
1.40032
1.39872
1.40323
1.40234
1.4079
1.4072
1.41068
1.40792
1.4101
1.40611
1.40818
1.40335
1.40447
1.39957
1.40052
1.39637
1.39497
1.39826
1.39671
1.40138
1.40054
1.40646
1.40541
1.40957
1.40632
1.40872
1.40489
1.40716
1.40271
1.40394
1.39987
1.40143
1.39934
1.40216
1.39998
1.40012
1.40452
1.40356
1.40906
1.40794
1.41223
1.40891
1.4113
1.40737
1.4093
1.40662
1.40961
1.40779
1.41125
1.40994
1.41528
1.41444
1.41814
1.42556
1.42654
1.43733
1.43933
1.44988
1.45205
1.46209
1.46553
1.47714
1.48438
1.50048
1.51476
1.53953
1.56667
1.60971
1.6658
1.75002
1.8592
1.93546
1.95102
1.93649
1.84734
1.67964
1.52412
1.44526
1.37606
1.25416
1.14147
1.08725
1.05466
1.004
0.941854
0.880842
0.824607
0.768369
0.712606
0.666767
0.626341
0.591103
0.552417
0.521442
0.488667
0.464326
0.429554
0.406277
0.375711
0.360644
0.331854
0.319035
0.294065
0.282973
0.260847
0.250421
0.232513
0.223153
0.207909
0.199617
0.186246
0.178718
0.168416
0.162315
0.153116
0.147513
0.141925
0.137716
0.133664
0.130647
0.129577
0.0438318
0.183573
0.185942
0.19448
0.20254
0.204129
0.21241
0.21237
0.21868
0.217442
0.220267
0.21756
0.219655
0.215946
0.220046
0.216893
0.222382
0.220366
0.220843
0.227247
0.225018
0.232176
0.229892
0.234945
0.232545
0.235057
0.23167
0.233759
0.227599
0.230113
0.223009
0.22534
0.220146
0.22415
0.220939
0.226337
0.225669
0.226654
0.234251
0.23214
0.238096
0.235913
0.238517
0.234701
0.236622
0.229843
0.232165
0.224374
0.226354
0.219463
0.222104
0.219777
0.224477
0.223844
0.224447
0.232259
0.23031
0.237084
0.235566
0.23905
0.235933
0.238269
0.232969
0.235895
0.230046
0.232736
0.225905
0.227467
0.220803
0.221835
0.21862
0.217459
0.22273
0.221934
0.230443
0.230437
0.239486
0.238611
0.2426
0.237336
0.239944
0.232108
0.234075
0.225456
0.226603
0.219573
0.220856
0.21825
0.21729
0.22297
0.222297
0.23109
0.231158
0.239555
0.237273
0.241214
0.235648
0.23831
0.231294
0.233636
0.226214
0.22782
0.223226
0.225966
0.223876
0.228788
0.227048
0.229581
0.236356
0.235761
0.242268
0.239197
0.242936
0.238002
0.241076
0.235288
0.237609
0.2326
0.235687
0.232584
0.237346
0.235171
0.243905
0.243635
0.249665
0.261866
0.263042
0.279492
0.281281
0.300404
0.303324
0.326814
0.332675
0.367777
0.380816
0.43495
0.459275
0.537464
0.5876
0.715647
0.834116
1.06233
1.35615
1.61978
1.68186
1.64641
1.41259
0.99377
0.617131
0.447656
0.372615
0.315092
0.277779
0.219631
0.198793
0.171895
0.165281
0.151804
0.14703
0.146902
0.136476
0.134148
0.120055
0.116307
0.105401
0.10314
0.0965023
0.0952957
0.0892962
0.0881539
0.0830808
0.0821262
0.0786253
0.0780249
0.0756205
0.0752528
0.0735828
0.0729456
0.0726658
0.0722123
0.0725916
0.0725001
0.073142
0.0734724
0.0751797
0.076514
0.0793445
0.0813971
0.0858341
0.089854
0.0973123
0.101746
0.103593
0.0205121
0.0253449
0.025748
0.0258097
0.0263674
0.0263898
0.026923
0.0268999
0.0274103
0.0272868
0.0276302
0.0273078
0.0275464
0.0271207
0.027591
0.0271917
0.0277435
0.027557
0.0276267
0.0282608
0.0281596
0.029018
0.028818
0.0294001
0.0290515
0.0293621
0.0288823
0.0291134
0.0283345
0.0285826
0.0277147
0.0280544
0.0274849
0.0280148
0.0276311
0.0281964
0.0280992
0.0283857
0.0292641
0.0290975
0.0297784
0.0294143
0.0297099
0.0291819
0.0294267
0.0285782
0.0288757
0.0279233
0.0281714
0.0274205
0.0277876
0.0274964
0.0279549
0.0278539
0.0280225
0.0288092
0.0286008
0.029401
0.0292216
0.029744
0.0293571
0.0296841
0.0290588
0.0294173
0.028655
0.0289835
0.0281357
0.0283385
0.0275366
0.0276808
0.0272634
0.0271004
0.0276204
0.0276323
0.0285403
0.0287937
0.0299878
0.029853
0.0302312
0.0295295
0.0298198
0.0288317
0.0290976
0.0280647
0.028226
0.0274232
0.0276137
0.0272862
0.0272051
0.0277974
0.0278154
0.0288481
0.0290824
0.0300563
0.029679
0.0300899
0.029294
0.0296263
0.0286944
0.028978
0.0280495
0.0282602
0.0277375
0.0280926
0.0278246
0.028309
0.0281172
0.0285262
0.029296
0.0294134
0.0302585
0.0298276
0.0302895
0.0295534
0.0299233
0.0290566
0.0292899
0.0286692
0.0291122
0.0287365
0.0293673
0.0290882
0.0300866
0.0300343
0.0310092
0.0326828
0.0331222
0.036036
0.0365857
0.0401739
0.0410555
0.0463679
0.0483904
0.0571308
0.0625316
0.078108
0.0909714
0.12043
0.152875
0.219801
0.315162
0.493644
0.784053
1.22928
1.51443
1.54322
1.36148
0.86396
0.331138
0.146519
0.0914664
0.0719867
0.0645746
0.0592463
0.0570162
0.0531602
0.0521887
0.0513102
0.0512992
0.0520185
0.0518906
0.0520149
0.0511587
0.0506437
0.0497627
0.0498308
0.0498023
0.0505769
0.0512519
0.0523494
0.0524448
0.0526164
0.0525047
0.0527933
0.0528065
0.0534891
0.0537024
0.0546301
0.0557411
0.0566693
0.0585422
0.0597074
0.0626805
0.0643242
0.0685211
0.0712194
0.0771585
0.080943
0.088526
0.0928113
0.0978001
0.0991412
0.0993478
0.0226283
0.0227225
0.0226135
0.0225769
0.0225705
0.0225496
0.0225513
0.0225416
0.0225469
0.0225414
0.0225492
0.0225451
0.0225518
0.0225491
0.0225554
0.0225496
0.0225516
0.0225505
0.0225533
0.0225625
0.0225629
0.022577
0.022571
0.0225875
0.0225801
0.0225947
0.0225882
0.0226033
0.0225894
0.0226024
0.0225837
0.0225924
0.0225757
0.0225868
0.0225741
0.0225861
0.0225823
0.0225857
0.0226079
0.0226037
0.0226245
0.0226128
0.0226237
0.0226077
0.0226161
0.0225921
0.0226014
0.0225754
0.0225813
0.0225614
0.0225704
0.0225625
0.0225731
0.0225714
0.0225813
0.0226113
0.0226095
0.0226303
0.0226207
0.0226331
0.0226185
0.0226282
0.0226059
0.0226169
0.0225923
0.0226014
0.0225756
0.0225807
0.0225577
0.0225595
0.0225456
0.0225389
0.0225424
0.022547
0.0225683
0.0225868
0.0226324
0.0226327
0.0226452
0.0226204
0.02263
0.0225978
0.0226052
0.0225714
0.0225747
0.0225563
0.022563
0.0225558
0.0225542
0.0225682
0.0225739
0.0226028
0.0226193
0.0226499
0.0226373
0.0226514
0.0226258
0.0226373
0.0226086
0.0226172
0.0225895
0.0225943
0.0225783
0.0225859
0.0225763
0.0225864
0.0225793
0.0225887
0.0226101
0.0226172
0.0226438
0.0226292
0.0226453
0.0226199
0.0226323
0.0226056
0.0226139
0.0225892
0.0225935
0.0225767
0.0225924
0.022583
0.0226111
0.0226101
0.0226466
0.0227341
0.0227837
0.0229888
0.0230652
0.0233507
0.02345
0.0239177
0.0242022
0.0251747
0.0261143
0.0284446
0.0313702
0.037772
0.0479089
0.0697272
0.11034
0.193215
0.353237
0.640798
1.10079
1.37183
1.38593
1.14388
0.616753
0.217736
0.0937215
0.0531625
0.0400862
0.0360758
0.0350874
0.0348908
0.0352033
0.0359644
0.0370436
0.0374109
0.0373806
0.0371546
0.0363094
0.0357201
0.0355326
0.0355787
0.0356246
0.0356686
0.0355572
0.0354711
0.0353821
0.035431
0.0354665
0.0357691
0.03619
0.0368692
0.0374774
0.038292
0.0391549
0.040473
0.0420378
0.0441295
0.0465444
0.0495319
0.0531898
0.0579129
0.0633262
0.0700929
0.0774947
0.0862997
0.0944243
0.101271
0.10395
0.0228934
0.0227399
0.0226641
0.0226264
0.0225946
0.0225746
0.0225651
0.0225539
0.022548
0.0225426
0.0225387
0.0225355
0.0225344
0.022534
0.0225332
0.0225312
0.0225312
0.0225307
0.0225303
0.022534
0.0225418
0.0225442
0.022544
0.0225441
0.0225433
0.0225427
0.0225426
0.0225416
0.0225398
0.0225396
0.0225374
0.0225373
0.0225367
0.0225367
0.0225361
0.0225353
0.0225352
0.0225342
0.0225343
0.0225364
0.0225384
0.0225392
0.02254
0.02254
0.02254
0.022538
0.0225384
0.0225379
0.0225366
0.0225366
0.0225365
0.0225341
0.0225341
0.0225337
0.0225313
0.0225314
0.0225299
0.0225287
0.0225287
0.0225273
0.0225261
0.0225265
0.0225263
0.0225257
0.0225266
0.0225347
0.022544
0.0225456
0.0225456
0.0225441
0.0225432
0.0225431
0.022541
0.0225404
0.0225404
0.0225376
0.0225371
0.022537
0.0225355
0.0225339
0.0225339
0.022531
0.0225305
0.0225304
0.0225285
0.0225267
0.0225266
0.0225264
0.0225243
0.0225236
0.0225236
0.0225232
0.022521
0.0225211
0.0225206
0.0225205
0.0225201
0.0225195
0.0225216
0.0225333
0.0225425
0.0225438
0.0225438
0.0225434
0.0225431
0.022546
0.0225489
0.0225496
0.0225499
0.0225499
0.0225498
0.0225474
0.0225475
0.0225462
0.0225454
0.0225454
0.0225455
0.0225429
0.0225429
0.0225417
0.0225407
0.0225406
0.0225406
0.02254
0.0225395
0.0225396
0.0225392
0.0225405
0.0225441
0.0225557
0.0225657
0.0225902
0.0226237
0.0227164
0.0228627
0.0231881
0.0237623
0.0250371
0.027622
0.0336292
0.0468623
0.0766544
0.141695
0.273189
0.522194
0.916416
1.19177
1.20281
1.03623
0.663145
0.245595
0.0913928
0.0472779
0.0357192
0.0328084
0.0323692
0.0324845
0.0331674
0.0334538
0.0334359
0.0328673
0.0320086
0.0316688
0.0316429
0.0316561
0.0318246
0.0320123
0.0321637
0.0321797
0.0322448
0.0322932
0.0326129
0.0330518
0.0339246
0.0349428
0.0364241
0.0380232
0.0401039
0.0424787
0.0457562
0.0499278
0.0553724
0.0617949
0.0696137
0.0786665
0.0898427
0.102002
0.116174
0.130237
0.14622
0.159176
0.170676
0.174915
0.022818
0.0227407
0.0226464
0.0226105
0.0225748
0.0225594
0.0225473
0.0225406
0.0225348
0.0225308
0.0225294
0.0225284
0.0225257
0.0225244
0.0225244
0.0225225
0.0225214
0.0225215
0.02252
0.022519
0.0225191
0.022519
0.0225178
0.0225176
0.0225171
0.0225177
0.0225222
0.0225249
0.0225249
0.0225245
0.022524
0.0225234
0.0225229
0.022522
0.0225214
0.0225202
0.0225188
0.0225182
0.0225168
0.0225153
0.0225145
0.0225128
0.0225108
0.0225093
0.0225076
0.0225068
0.0225043
0.0225027
0.0225027
0.0225021
0.0225021
0.0225013
0.0225007
0.0225044
0.0225173
0.02253
0.0225325
0.0225328
0.0225325
0.0225305
0.0225305
0.0225297
0.0225285
0.0225283
0.022528
0.0225275
0.0225272
0.0225278
0.022531
0.0225317
0.0225319
0.0225318
0.0225306
0.0225306
0.0225297
0.0225283
0.0225281
0.0225274
0.0225269
0.0225263
0.0225263
0.0225258
0.0225258
0.0225278
0.0225294
0.0225294
0.0225294
0.0225293
0.0225276
0.0225276
0.0225271
0.0225253
0.0225254
0.022524
0.0225228
0.0225228
0.0225229
0.0225215
0.0225215
0.0225225
0.0225233
0.0225231
0.0225225
0.0225225
0.0225222
0.0225217
0.0225216
0.0225212
0.0225201
0.022519
0.0225185
0.0225178
0.0225172
0.0225171
0.0225168
0.022516
0.0225158
0.022515
0.0225157
0.0225217
0.0225332
0.0225456
0.0225546
0.0225597
0.0225632
0.022567
0.0225736
0.022577
0.0225771
0.0225767
0.0225776
0.0225817
0.0225925
0.022614
0.0226517
0.0227187
0.0228431
0.0231148
0.0237352
0.0252652
0.0289757
0.0379782
0.0594097
0.106856
0.206456
0.388596
0.681257
0.943468
0.981013
0.870121
0.648338
0.357184
0.131735
0.0595816
0.0381358
0.0317043
0.0295352
0.0287117
0.0283272
0.0281012
0.0278068
0.0276697
0.0276441
0.0277156
0.0277958
0.0279354
0.0280695
0.0282263
0.0283306
0.0285646
0.028975
0.0295604
0.0302851
0.0313594
0.0330646
0.035541
0.039003
0.0435023
0.0492103
0.0571327
0.066951
0.0798596
0.0940016
0.111643
0.130207
0.153641
0.176633
0.203775
0.22671
0.253059
0.270893
0.286454
0.291657
0.0228709
0.0227452
0.0226827
0.0226374
0.0226006
0.0225773
0.0225637
0.0225497
0.0225422
0.022535
0.0225301
0.0225243
0.0225219
0.0225206
0.022519
0.0225167
0.0225158
0.0225155
0.0225133
0.0225123
0.0225122
0.022512
0.0225117
0.0225111
0.0225144
0.0225262
0.0225362
0.0225375
0.0225365
0.0225355
0.022535
0.0225333
0.0225329
0.0225318
0.0225302
0.0225302
0.0225292
0.0225277
0.0225278
0.0225269
0.0225253
0.0225253
0.0225243
0.0225229
0.0225229
0.0225226
0.022521
0.022521
0.0225207
0.0225207
0.0225203
0.0225199
0.0225232
0.0225356
0.0225447
0.0225459
0.0225462
0.0225456
0.0225446
0.0225445
0.0225441
0.0225442
0.0225438
0.0225439
0.0225464
0.0225466
0.0225466
0.0225459
0.0225451
0.022545
0.0225442
0.0225437
0.0225421
0.0225405
0.0225404
0.022538
0.0225368
0.0225367
0.0225354
0.022535
0.0225349
0.0225337
0.0225339
0.0225338
0.022532
0.0225321
0.0225316
0.02253
0.02253
0.0225287
0.0225274
0.0225273
0.022527
0.0225264
0.0225261
0.0225275
0.0225346
0.0225398
0.0225404
0.0225399
0.0225394
0.0225388
0.0225372
0.0225372
0.0225371
0.0225352
0.0225347
0.0225346
0.0225327
0.0225319
0.0225319
0.0225315
0.0225303
0.0225304
0.0225299
0.02253
0.0225347
0.0225447
0.0225487
0.0225495
0.0225498
0.0225497
0.0225481
0.0225482
0.0225479
0.0225474
0.0225472
0.0225473
0.0225471
0.0225469
0.0225486
0.0225572
0.0225733
0.0225964
0.0226207
0.0226474
0.0226837
0.0227599
0.0229317
0.0233434
0.0243412
0.0268298
0.0330241
0.0475968
0.0805271
0.14672
0.266713
0.442307
0.638409
0.694656
0.639856
0.481012
0.288964
0.11556
0.0526293
0.0350103
0.0298296
0.0282782
0.027835
0.0277615
0.0278253
0.0278978
0.0278517
0.0275549
0.027233
0.0271822
0.02721
0.0274472
0.0279679
0.0288707
0.0301468
0.0318848
0.0342195
0.0374681
0.0423471
0.049191
0.0585893
0.0700712
0.0833871
0.100441
0.12027
0.145867
0.17254
0.204409
0.234767
0.272159
0.306372
0.346441
0.377338
0.413609
0.436119
0.455699
0.461748
0.0228662
0.0227449
0.0226937
0.0226415
0.0226019
0.0225833
0.0225665
0.0225601
0.0225541
0.0225504
0.0225477
0.0225467
0.0225458
0.0225437
0.0225438
0.0225431
0.0225414
0.0225414
0.0225403
0.0225389
0.0225386
0.0225369
0.0225363
0.0225356
0.0225341
0.0225341
0.0225334
0.0225318
0.0225319
0.0225308
0.0225294
0.0225294
0.0225278
0.0225266
0.0225266
0.0225255
0.0225251
0.0225246
0.0225246
0.0225242
0.0225238
0.0225265
0.0225334
0.0225353
0.0225355
0.0225346
0.0225333
0.0225334
0.0225333
0.0225327
0.0225327
0.0225323
0.0225321
0.0225353
0.0225402
0.0225411
0.0225407
0.0225398
0.0225388
0.0225379
0.0225372
0.0225367
0.022536
0.0225354
0.022534
0.0225324
0.0225302
0.0225281
0.0225267
0.0225262
0.0225238
0.0225226
0.0225225
0.0225203
0.0225191
0.0225191
0.0225178
0.022516
0.022516
0.0225151
0.0225138
0.0225138
0.0225129
0.0225122
0.0225119
0.0225119
0.0225114
0.0225114
0.022517
0.0225324
0.0225419
0.0225431
0.0225424
0.0225399
0.0225358
0.0225317
0.0225297
0.0225282
0.0225275
0.0225275
0.0225275
0.022527
0.0225269
0.0225303
0.0225366
0.0225378
0.0225381
0.022538
0.0225361
0.0225361
0.0225347
0.0225337
0.0225337
0.0225331
0.0225322
0.0225323
0.0225324
0.0225317
0.0225315
0.0225305
0.0225307
0.0225347
0.0225412
0.0225461
0.0225523
0.0225569
0.0225577
0.0225576
0.0225567
0.0225565
0.0225562
0.0225568
0.0225626
0.0225759
0.0225966
0.0226217
0.0226522
0.0226945
0.0227663
0.0229067
0.0232073
0.0238968
0.0255744
0.0295832
0.039049
0.0593933
0.0999286
0.167828
0.265865
0.36566
0.406469
0.392326
0.309553
0.195937
0.100147
0.0538194
0.037486
0.0309624
0.0283124
0.0272728
0.0268256
0.0265644
0.026293
0.0260572
0.026001
0.0260282
0.0262712
0.0269124
0.0281252
0.0300644
0.0330685
0.0372667
0.0431161
0.0507295
0.0615998
0.0760964
0.0961335
0.120001
0.146821
0.178591
0.213743
0.257691
0.30267
0.353837
0.39922
0.45241
0.498738
0.551575
0.588583
0.632796
0.657742
0.680427
0.68688
0.0228447
0.0227383
0.02269
0.0226398
0.022603
0.0225854
0.0225649
0.0225561
0.0225443
0.0225394
0.0225339
0.0225304
0.0225273
0.0225259
0.0225246
0.0225236
0.022522
0.0225219
0.0225213
0.0225208
0.0225239
0.0225333
0.0225363
0.0225363
0.0225354
0.0225345
0.0225344
0.0225335
0.0225319
0.0225318
0.0225301
0.0225289
0.022529
0.0225276
0.0225261
0.0225261
0.0225252
0.0225236
0.0225238
0.0225237
0.022522
0.0225221
0.022522
0.0225197
0.0225197
0.0225191
0.0225174
0.0225175
0.0225168
0.0225159
0.0225161
0.0225157
0.0225151
0.0225172
0.0225273
0.0225394
0.0225415
0.0225416
0.0225413
0.0225405
0.0225406
0.0225403
0.022539
0.0225395
0.0225395
0.0225382
0.0225382
0.0225376
0.0225368
0.0225368
0.0225366
0.0225364
0.022536
0.0225351
0.0225335
0.0225323
0.0225317
0.0225292
0.022528
0.022528
0.0225256
0.0225248
0.0225248
0.0225233
0.0225219
0.0225219
0.022521
0.0225195
0.0225195
0.0225189
0.0225173
0.0225172
0.0225166
0.0225163
0.0225155
0.0225156
0.0225151
0.0225151
0.0225196
0.0225323
0.0225401
0.0225414
0.0225411
0.0225406
0.0225417
0.0225487
0.0225547
0.0225554
0.0225546
0.0225546
0.0225543
0.0225526
0.0225526
0.0225524
0.0225501
0.0225501
0.0225494
0.0225477
0.0225477
0.0225471
0.0225451
0.0225452
0.0225439
0.0225427
0.0225428
0.0225419
0.0225418
0.0225417
0.0225401
0.0225401
0.0225391
0.0225388
0.0225404
0.0225437
0.0225516
0.0225678
0.022592
0.0226254
0.0226718
0.0227492
0.0228789
0.0231157
0.0236058
0.0246858
0.0271896
0.0327187
0.0444201
0.0659933
0.101722
0.14915
0.192338
0.203102
0.203004
0.172283
0.117264
0.0660484
0.0431605
0.0343058
0.0304042
0.0283583
0.0271986
0.0267799
0.0267009
0.0267205
0.0268991
0.0272873
0.0280449
0.0294811
0.0321586
0.0365204
0.0433468
0.0529688
0.0661653
0.082479
0.10407
0.131555
0.169003
0.212949
0.26048
0.312808
0.366227
0.430463
0.493501
0.563324
0.62096
0.686148
0.737184
0.794623
0.827363
0.864142
0.880119
0.894019
0.897627
0.0228419
0.0227438
0.0226987
0.0226435
0.0226109
0.0225894
0.0225659
0.0225553
0.0225469
0.0225405
0.0225377
0.0225332
0.0225317
0.0225312
0.0225282
0.0225267
0.0225267
0.0225256
0.0225231
0.0225228
0.0225227
0.0225204
0.0225196
0.0225195
0.022518
0.0225169
0.0225169
0.0225164
0.0225155
0.0225154
0.0225149
0.0225162
0.0225212
0.0225232
0.0225232
0.0225233
0.0225228
0.0225215
0.0225215
0.02252
0.0225189
0.0225188
0.0225164
0.022516
0.022516
0.0225159
0.0225157
0.0225152
0.0225156
0.0225224
0.0225318
0.0225339
0.0225337
0.0225331
0.0225318
0.0225314
0.0225305
0.0225281
0.0225275
0.0225273
0.0225252
0.0225234
0.0225232
0.0225225
0.0225211
0.022521
0.0225205
0.0225202
0.0225197
0.0225208
0.0225284
0.0225386
0.0225405
0.0225404
0.0225399
0.0225394
0.0225389
0.0225375
0.0225372
0.0225359
0.0225337
0.0225334
0.0225323
0.0225307
0.0225306
0.0225301
0.0225285
0.0225285
0.022528
0.0225264
0.0225264
0.0225253
0.0225241
0.0225241
0.0225232
0.022522
0.0225216
0.0225217
0.0225218
0.0225211
0.0225211
0.0225207
0.0225206
0.0225259
0.02254
0.0225532
0.0225566
0.0225577
0.0225582
0.0225585
0.0225587
0.0225587
0.0225587
0.0225564
0.0225564
0.0225563
0.0225546
0.0225549
0.0225548
0.0225531
0.0225531
0.0225531
0.0225514
0.0225516
0.0225515
0.0225507
0.0225506
0.0225501
0.0225499
0.0225493
0.0225489
0.0225476
0.0225494
0.0225586
0.0225731
0.0225855
0.0226005
0.0226256
0.0226646
0.0227185
0.0228045
0.0229332
0.0231387
0.0235014
0.0242255
0.0257067
0.0288145
0.0347933
0.0455588
0.0616552
0.082806
0.0971904
0.100825
0.0983315
0.0901399
0.0677604
0.0471185
0.0389331
0.0359641
0.0339716
0.030664
0.0280833
0.0275821
0.0275533
0.0279149
0.028981
0.0311021
0.0345933
0.0403602
0.0491791
0.0629099
0.0822401
0.108799
0.140707
0.18014
0.226081
0.286139
0.35532
0.429005
0.50402
0.572639
0.649843
0.721678
0.796062
0.842383
0.884588
0.907712
0.93428
0.946076
0.96075
0.967072
0.972029
0.973428
0.0228314
0.0227435
0.0226991
0.0226441
0.0226118
0.0225862
0.0225634
0.0225542
0.0225474
0.0225426
0.0225402
0.0225378
0.0225352
0.0225336
0.0225326
0.0225311
0.02253
0.022528
0.0225275
0.022527
0.0225249
0.0225244
0.0225243
0.0225221
0.0225216
0.0225214
0.0225211
0.022521
0.0225206
0.0225207
0.0225274
0.0225433
0.0225526
0.0225539
0.022554
0.022554
0.0225534
0.0225518
0.0225517
0.0225507
0.0225493
0.0225493
0.0225483
0.0225471
0.0225472
0.0225469
0.0225453
0.0225455
0.0225453
0.0225445
0.0225443
0.0225436
0.0225436
0.0225425
0.0225412
0.0225407
0.0225389
0.0225384
0.0225376
0.0225361
0.022536
0.0225344
0.0225332
0.0225332
0.0225315
0.0225303
0.0225304
0.0225295
0.0225295
0.0225289
0.0225278
0.0225277
0.0225265
0.0225254
0.0225253
0.0225241
0.0225231
0.0225228
0.0225229
0.0225226
0.0225221
0.0225238
0.0225321
0.0225397
0.022541
0.0225404
0.0225395
0.0225393
0.0225372
0.0225367
0.0225366
0.022534
0.0225334
0.0225333
0.0225313
0.0225306
0.0225306
0.0225289
0.022528
0.022528
0.0225269
0.0225257
0.0225257
0.0225249
0.0225236
0.0225236
0.022522
0.0225212
0.0225213
0.0225214
0.0225209
0.0225207
0.0225249
0.022536
0.0225529
0.0225635
0.0225674
0.0225692
0.022571
0.0225729
0.0225741
0.0225741
0.0225741
0.0225735
0.0225727
0.022573
0.0225732
0.0225733
0.0225722
0.0225723
0.0225719
0.0225712
0.0225719
0.0225726
0.0225737
0.022577
0.0225864
0.0226016
0.0226232
0.0226564
0.0227121
0.0227955
0.0229182
0.0230932
0.0233738
0.0238439
0.0247174
0.026311
0.0292327
0.033911
0.0408148
0.0485778
0.0535387
0.0542633
0.0534889
0.0499764
0.0436002
0.0372272
0.035346
0.0346584
0.0337729
0.0313327
0.0301684
0.0301238
0.0310679
0.0337411
0.0387688
0.0463797
0.0578846
0.0744074
0.0991668
0.133558
0.180781
0.236737
0.301442
0.368968
0.44968
0.538856
0.633063
0.72361
0.79035
0.844013
0.879129
0.914945
0.931827
0.951228
0.96071
0.974327
0.980386
0.988038
0.991461
0.993955
0.994787
0.0228433
0.0227623
0.0227187
0.0226756
0.0226334
0.0226084
0.0225843
0.0225672
0.022559
0.0225495
0.0225462
0.0225438
0.0225424
0.0225408
0.0225393
0.022538
0.0225378
0.0225368
0.0225367
0.0225364
0.0225361
0.0225383
0.0225414
0.0225415
0.0225413
0.0225433
0.0225463
0.0225465
0.0225465
0.0225458
0.0225449
0.0225449
0.0225432
0.0225421
0.022542
0.0225402
0.0225395
0.0225391
0.0225371
0.0225364
0.0225359
0.0225331
0.022532
0.0225316
0.0225313
0.0225297
0.022528
0.0225276
0.0225275
0.022525
0.0225242
0.0225245
0.0225245
0.0225237
0.0225236
0.0225231
0.0225232
0.0225283
0.022537
0.0225392
0.0225391
0.0225385
0.0225391
0.0225433
0.0225451
0.022545
0.0225439
0.0225434
0.022543
0.0225416
0.0225416
0.0225409
0.0225395
0.0225395
0.0225377
0.0225367
0.0225367
0.0225351
0.0225338
0.0225339
0.0225336
0.0225325
0.0225326
0.0225325
0.022532
0.0225332
0.0225335
0.0225337
0.0225337
0.0225322
0.0225323
0.0225321
0.0225305
0.0225305
0.0225298
0.0225283
0.0225283
0.0225272
0.0225258
0.0225258
0.0225245
0.0225234
0.0225234
0.0225223
0.0225221
0.0225221
0.0225214
0.0225214
0.0225211
0.0225208
0.0225238
0.0225341
0.0225403
0.0225412
0.0225414
0.0225412
0.0225396
0.0225396
0.0225392
0.0225373
0.0225378
0.0225376
0.0225356
0.0225356
0.0225346
0.0225335
0.0225335
0.0225334
0.0225331
0.022533
0.0225324
0.022533
0.0225351
0.0225442
0.0225594
0.0225779
0.0225932
0.022606
0.0226193
0.0226424
0.022681
0.0227393
0.0228218
0.0229411
0.0231105
0.0233491
0.0237047
0.0242412
0.0251021
0.026431
0.0284453
0.030984
0.0338588
0.0351944
0.0354717
0.03492
0.0336071
0.0323236
0.0322434
0.033284
0.0351685
0.0357396
0.0350519
0.0347129
0.0362441
0.0416866
0.0520089
0.0670699
0.0881989
0.116798
0.157529
0.212134
0.285483
0.371024
0.465242
0.55233
0.640232
0.724635
0.806092
0.867644
0.896941
0.915942
0.928906
0.947236
0.957762
0.970515
0.976842
0.986801
0.991474
0.997003
0.999682
1.0014
1.002
0.0228221
0.0227564
0.0227069
0.0226717
0.0226319
0.0226041
0.0225842
0.0225667
0.0225587
0.0225492
0.0225448
0.0225389
0.0225361
0.022533
0.0225319
0.0225299
0.0225263
0.0225253
0.0225247
0.0225235
0.022523
0.0225226
0.0225224
0.0225219
0.0225227
0.02253
0.0225429
0.0225464
0.0225464
0.0225461
0.0225451
0.0225444
0.0225436
0.0225422
0.0225422
0.0225405
0.022539
0.0225389
0.0225378
0.0225354
0.0225347
0.0225347
0.0225343
0.0225334
0.0225333
0.0225328
0.0225332
0.0225364
0.0225379
0.0225378
0.0225377
0.0225364
0.0225354
0.0225348
0.0225332
0.0225331
0.0225325
0.0225307
0.0225307
0.0225304
0.0225294
0.0225292
0.0225285
0.0225283
0.0225276
0.0225284
0.0225353
0.022542
0.0225427
0.0225427
0.0225427
0.0225421
0.0225418
0.0225418
0.0225414
0.0225414
0.0225435
0.0225445
0.0225438
0.0225438
0.0225438
0.0225424
0.0225424
0.0225419
0.0225403
0.0225402
0.0225385
0.0225375
0.0225373
0.0225349
0.022534
0.022534
0.0225331
0.0225323
0.0225324
0.0225321
0.0225319
0.0225348
0.0225447
0.0225505
0.022551
0.0225506
0.0225495
0.0225486
0.0225479
0.0225463
0.0225461
0.0225446
0.0225432
0.0225431
0.022541
0.0225401
0.0225398
0.0225382
0.0225376
0.0225372
0.0225365
0.0225365
0.0225346
0.0225338
0.0225338
0.0225316
0.0225308
0.0225308
0.0225285
0.0225273
0.0225272
0.0225266
0.0225262
0.0225259
0.0225255
0.0225287
0.0225385
0.0225526
0.022567
0.0225759
0.0225807
0.0225882
0.0226012
0.0226214
0.0226513
0.0226928
0.0227524
0.0228355
0.0229555
0.0231187
0.0233411
0.0236242
0.0240101
0.024501
0.0251703
0.0259878
0.0269742
0.0278615
0.0283563
0.0284138
0.0283324
0.0282231
0.0284516
0.0295648
0.0319634
0.0351231
0.0381608
0.0409563
0.0442597
0.0522741
0.0686327
0.0950782
0.132755
0.180991
0.242449
0.318245
0.414706
0.523833
0.639567
0.735386
0.80791
0.849676
0.881227
0.90718
0.924543
0.937682
0.944637
0.955956
0.965912
0.976997
0.982813
0.9915
0.996554
1.00121
1.00384
1.00534
1.00582
0.02285
0.0227935
0.0227323
0.0227008
0.0226601
0.0226243
0.0226073
0.0225852
0.0225763
0.0225657
0.0225612
0.0225553
0.0225531
0.0225496
0.0225482
0.0225468
0.0225466
0.0225439
0.0225431
0.0225429
0.0225409
0.0225403
0.02254
0.0225391
0.0225391
0.0225386
0.0225388
0.0225438
0.0225471
0.0225478
0.0225476
0.0225468
0.0225468
0.0225462
0.0225446
0.0225445
0.0225427
0.0225419
0.0225417
0.0225391
0.0225386
0.0225383
0.0225377
0.0225366
0.0225359
0.0225356
0.0225353
0.022536
0.0225386
0.0225386
0.0225381
0.022538
0.0225361
0.0225352
0.0225352
0.0225333
0.0225326
0.0225325
0.02253
0.0225292
0.0225292
0.0225279
0.0225268
0.0225266
0.0225262
0.022526
0.0225255
0.0225275
0.0225358
0.0225426
0.0225435
0.0225433
0.0225433
0.022543
0.0225422
0.0225413
0.0225408
0.0225389
0.022539
0.0225379
0.0225365
0.0225365
0.0225359
0.0225347
0.0225346
0.0225343
0.0225342
0.0225336
0.0225343
0.0225396
0.022543
0.022543
0.0225425
0.0225422
0.0225406
0.0225397
0.022539
0.0225373
0.0225372
0.0225363
0.0225349
0.0225349
0.0225342
0.0225342
0.0225336
0.0225332
0.0225354
0.0225405
0.0225435
0.0225461
0.0225477
0.0225478
0.0225469
0.022546
0.0225455
0.0225443
0.0225442
0.022543
0.0225415
0.0225414
0.0225397
0.0225378
0.0225378
0.0225376
0.0225351
0.0225344
0.0225344
0.0225326
0.022531
0.0225311
0.0225309
0.0225301
0.02253
0.0225306
0.0225354
0.0225473
0.0225644
0.0225849
0.0226052
0.0226239
0.022644
0.022672
0.022711
0.0227714
0.0228582
0.0229791
0.0231426
0.0233543
0.0236122
0.0239117
0.0242623
0.02464
0.0250628
0.0254537
0.0258067
0.0259876
0.0261135
0.026174
0.0263951
0.0269924
0.0284372
0.0313304
0.0360524
0.042591
0.0514009
0.064851
0.0884249
0.128432
0.187046
0.261169
0.34828
0.444071
0.551798
0.663358
0.77679
0.85264
0.883947
0.898092
0.906303
0.917722
0.931924
0.943949
0.950475
0.958734
0.969217
0.979691
0.987219
0.996454
1.00451
1.01018
1.01389
1.0161
1.01675
0.0228009
0.0227593
0.0227091
0.0226832
0.0226421
0.0226075
0.02258
0.0225548
0.0225363
0.0225275
0.0225197
0.0225155
0.0225136
0.0225125
0.0225113
0.0225123
0.0225181
0.0225197
0.0225196
0.0225194
0.0225181
0.0225175
0.0225172
0.0225163
0.0225153
0.0225138
0.022513
0.0225105
0.0225095
0.0225093
0.0225088
0.0225078
0.0225076
0.0225077
0.0225069
0.0225069
0.0225065
0.0225065
0.0225124
0.0225257
0.0225303
0.0225305
0.0225304
0.0225302
0.0225301
0.0225296
0.0225291
0.0225278
0.0225264
0.0225253
0.0225235
0.0225206
0.022518
0.022517
0.0225162
0.0225144
0.0225138
0.0225129
0.0225113
0.022511
0.0225101
0.0225089
0.0225086
0.0225076
0.0225069
0.0225062
0.0225044
0.022504
0.0225036
0.0225015
0.0225009
0.0225009
0.0225002
0.0224989
0.0224989
0.0224982
0.0224977
0.0225026
0.0225175
0.0225279
0.0225296
0.0225297
0.0225297
0.0225292
0.022528
0.0225279
0.0225275
0.0225274
0.0225271
0.0225267
0.0225299
0.0225349
0.0225361
0.0225359
0.0225348
0.0225348
0.0225335
0.0225322
0.0225322
0.0225307
0.0225298
0.0225299
0.0225287
0.0225281
0.022528
0.0225272
0.0225278
0.0225299
0.0225305
0.0225305
0.0225299
0.0225299
0.0225298
0.0225283
0.0225287
0.0225284
0.0225266
0.0225266
0.0225259
0.0225254
0.0225255
0.0225255
0.0225252
0.0225243
0.0225244
0.0225244
0.0225236
0.0225232
0.0225232
0.0225231
0.0225226
0.0225225
0.0225224
0.022525
0.0225336
0.0225494
0.0225719
0.0225962
0.0226182
0.0226358
0.0226513
0.0226697
0.0227023
0.0227507
0.0228187
0.0229083
0.0230342
0.023196
0.0234019
0.0236415
0.023914
0.0242005
0.0245025
0.0247949
0.0250683
0.025274
0.0254387
0.0255596
0.0256956
0.0259696
0.026636
0.0281929
0.0314231
0.0378287
0.0485775
0.0656941
0.0941233
0.143341
0.221238
0.327736
0.452574
0.577073
0.68839
0.77908
0.857879
0.897317
0.911884
0.917482
0.919969
0.924476
0.934366
0.945465
0.953254
0.962516
0.975389
0.98939
1.00214
1.01506
1.02726
1.03658
1.04186
1.0456
1.04667
0.0228311
0.0227888
0.0227522
0.0227125
0.0226869
0.0226462
0.0226289
0.0226007
0.0225872
0.0225711
0.0225634
0.0225523
0.0225471
0.0225394
0.0225358
0.0225304
0.0225279
0.0225261
0.0225255
0.0225247
0.0225245
0.0225238
0.0225244
0.02253
0.0225364
0.0225375
0.0225368
0.0225355
0.0225355
0.0225336
0.0225328
0.0225327
0.0225307
0.0225301
0.0225299
0.0225273
0.0225264
0.0225263
0.0225263
0.0225257
0.0225253
0.0225253
0.0225244
0.0225242
0.0225237
0.0225241
0.0225303
0.0225425
0.022546
0.0225462
0.0225455
0.0225454
0.0225449
0.0225437
0.0225437
0.0225421
0.0225413
0.0225407
0.0225387
0.0225381
0.0225371
0.0225349
0.0225345
0.0225335
0.0225308
0.0225299
0.0225298
0.0225277
0.022527
0.0225268
0.0225267
0.0225264
0.0225261
0.0225255
0.0225266
0.0225348
0.022548
0.0225516
0.0225519
0.0225509
0.0225495
0.0225492
0.0225478
0.0225472
0.0225465
0.022545
0.022545
0.0225444
0.0225427
0.0225426
0.0225412
0.0225399
0.0225399
0.0225383
0.0225365
0.0225365
0.0225349
0.0225333
0.0225334
0.0225331
0.0225309
0.0225306
0.0225305
0.02253
0.0225299
0.0225293
0.0225296
0.0225295
0.022529
0.0225289
0.0225287
0.0225285
0.0225283
0.0225282
0.022528
0.0225273
0.0225264
0.0225251
0.0225235
0.0225228
0.0225222
0.0225199
0.0225192
0.0225191
0.0225172
0.0225166
0.0225166
0.0225146
0.0225141
0.0225142
0.0225143
0.0225134
0.0225134
0.0225131
0.0225132