/*--------------------------------*- C++ -*----------------------------------*\
| =========                 |                                                 |
| \\      /  F ield         | OpenFOAM: The Open Source CFD Toolbox           |
|  \\    /   O peration     | Version:  4.1                                   |
|   \\  /    A nd           | Web:      www.OpenFOAM.org                      |
|    \\/     M anipulation  |                                                 |
\*---------------------------------------------------------------------------*/
FoamFile
{
    version     2.0;
    format      ascii;
    class       volScalarField;
    location    "2";
    object      p;
}
// * * * * * * * * * * * * * * * * * * * * * * * * * * * * * * * * * * * * * //

dimensions      [0 2 -2 0 0 0 0];

internalField   nonuniform List<scalar> 
204246
(
-50.4155
-61.2461
-60.0222
-58.6038
-57.4568
-56.3603
-55.3956
-54.5551
-53.9587
-53.3119
-52.867
-52.3838
-51.9837
-51.5698
-51.2948
-51.1705
-51.3231
-51.3018
-50.9066
-50.7893
-50.6366
-50.5251
-50.3878
-50.278
-50.1648
-50.1001
-50.031
-49.9914
-49.9164
-49.8564
-49.738
-49.6212
-49.464
-49.3873
-49.401
-49.6162
-49.7656
-49.4819
-49.4824
-49.4157
-49.3715
-49.2979
-49.2446
-49.1788
-49.1631
-49.1188
-49.0937
-49.0173
-48.927
-48.7789
-48.6805
-48.6881
-48.9054
-49.0793
-48.8142
-48.8295
-48.7557
-48.6993
-48.6217
-48.575
-48.5187
-48.5053
-48.4642
-48.4442
-48.37
-48.2824
-48.1268
-48.0251
-48.0332
-48.2336
-48.4092
-48.1965
-48.1823
-48.093
-48.0279
-47.9618
-47.9272
-47.879
-47.8529
-47.7937
-47.7712
-47.7065
-47.6237
-47.4762
-47.3683
-47.3583
-47.5581
-47.746
-47.5284
-47.5042
-47.429
-47.3879
-47.3352
-47.298
-47.2289
-47.1903
-47.1179
-47.094
-47.0647
-47.0557
-46.9737
-46.8549
-46.6965
-46.6295
-46.6838
-46.8921
-46.9674
-46.7611
-46.7503
-46.6843
-46.6161
-46.5245
-46.4874
-46.4315
-46.4059
-46.3506
-46.306
-46.2128
-46.1002
-45.9296
-45.8158
-45.7701
-45.9434
-45.9616
-45.7183
-45.7089
-45.4206
-45.4005
-45.1196
-44.9272
-44.6927
-44.4379
-44.1222
-43.7754
-43.3413
-42.8322
-42.2317
-41.6777
-41.1448
-40.692
-40.3537
-40.2438
-40.6687
-41.9124
-44.5873
-49.1183
-55.7682
-64.4801
-74.3785
-81.3091
-85.1701
-88.965
-91.7623
-93.6263
-94.7406
-95.747
-96.8387
-97.5744
-97.7014
-98.0899
-97.2674
-97.6072
-96.8974
-96.1344
-95.3369
-94.2995
-92.8447
-91.2097
-89.374
-87.3041
-84.6355
-81.4047
-77.3913
-73.0916
-68.1088
-62.5931
-56.1989
-48.8725
-40.7045
-31.1486
-20.1755
-7.53333
6.76863
23.0985
41.5503
62.2809
85.2118
111.019
140.445
179.335
238.319
331.757
457.14
-64.107
-61.6635
-60.5511
-59.3606
-58.1006
-56.9582
-55.9572
-55.1015
-54.3982
-53.7927
-53.2442
-52.7333
-52.2689
-51.8668
-51.5803
-51.4077
-51.3193
-51.2189
-51.0948
-50.9583
-50.8073
-50.6606
-50.5317
-50.4262
-50.3301
-50.2591
-50.1808
-50.127
-50.0518
-49.9897
-49.8926
-49.7744
-49.6451
-49.5517
-49.5224
-49.6538
-49.7063
-49.6533
-49.5867
-49.5449
-49.5024
-49.4486
-49.395
-49.334
-49.289
-49.2362
-49.2262
-49.1573
-49.0755
-48.9519
-48.8659
-48.8325
-48.9595
-49.0155
-48.9751
-48.9204
-48.878
-48.8308
-48.7704
-48.725
-48.6722
-48.6282
-48.5677
-48.5599
-48.4975
-48.4439
-48.3118
-48.2163
-48.1888
-48.2817
-48.3492
-48.3368
-48.292
-48.235
-48.1785
-48.1383
-48.0854
-48.0388
-47.9807
-47.9282
-47.8997
-47.8407
-47.7593
-47.6408
-47.5545
-47.5253
-47.6248
-47.6961
-47.6751
-47.6277
-47.5882
-47.5483
-47.5043
-47.4307
-47.3664
-47.3136
-47.254
-47.2076
-47.1571
-47.1692
-47.1164
-47.0324
-46.9102
-46.8327
-46.807
-46.9114
-46.9531
-46.9446
-46.9041
-46.8448
-46.7548
-46.6804
-46.6225
-46.5725
-46.5241
-46.4724
-46.4423
-46.3882
-46.3041
-46.1726
-46.076
-46.0335
-46.0192
-45.9866
-45.9364
-45.8351
-45.6949
-45.5649
-45.4043
-45.239
-45.0675
-44.8668
-44.6285
-44.3632
-44.0097
-43.5944
-43.1502
-42.6901
-42.1249
-41.4828
-40.7858
-40.1944
-39.9465
-40.1728
-41.3134
-44.7229
-51.4147
-61.9103
-73.5514
-80.724
-85.1557
-88.7422
-91.5081
-93.5145
-94.8771
-96.0314
-96.6722
-97.3306
-97.9728
-98.2136
-98.7044
-98.6357
-98.4064
-97.9854
-97.3358
-96.7525
-95.9462
-94.6814
-93.3355
-91.8012
-89.873
-87.5117
-84.3869
-80.8356
-76.597
-71.7231
-66.1261
-59.8104
-52.6994
-44.5758
-35.2945
-24.6685
-12.6239
1.14995
16.715
34.1489
53.1371
73.6649
95.6877
121.116
156.89
223.079
321.16
-71.4262
-65.488
-61.9181
-59.747
-58.1255
-56.9383
-55.926
-55.1086
-54.3833
-53.7836
-53.2376
-52.7643
-52.3187
-51.9477
-51.6316
-51.4257
-51.2676
-51.161
-51.0594
-50.9274
-50.7648
-50.5985
-50.435
-50.2946
-50.1715
-50.0771
-50.0128
-49.9671
-49.9222
-49.8621
-49.7903
-49.7059
-49.6205
-49.5444
-49.4889
-49.4585
-49.4617
-49.4539
-49.4301
-49.3875
-49.3436
-49.2778
-49.2251
-49.1773
-49.1349
-49.1016
-49.0663
-49.0245
-48.9567
-48.8857
-48.8238
-48.7828
-48.7604
-48.775
-48.7857
-48.7691
-48.7168
-48.6725
-48.6079
-48.5563
-48.5104
-48.4705
-48.4391
-48.4066
-48.3668
-48.3074
-48.2335
-48.1759
-48.1457
-48.1147
-48.1102
-48.118
-48.091
-48.0365
-47.9931
-47.9339
-47.9082
-47.8573
-47.8153
-47.7807
-47.7585
-47.7125
-47.638
-47.5677
-47.5061
-47.4732
-47.439
-47.4339
-47.4305
-47.4017
-47.3571
-47.3435
-47.3008
-47.2768
-47.2251
-47.1861
-47.146
-47.1045
-47.0565
-46.9984
-46.9429
-46.8878
-46.8359
-46.7708
-46.7253
-46.7074
-46.6891
-46.6725
-46.6725
-46.6475
-46.6121
-46.5546
-46.5031
-46.4467
-46.3937
-46.3335
-46.2689
-46.2003
-46.1185
-46.0399
-45.9838
-45.9473
-45.9095
-45.8521
-45.7688
-45.6957
-45.602
-45.4417
-45.2766
-45.1071
-44.9341
-44.7363
-44.5055
-44.2218
-43.8922
-43.5307
-43.1669
-42.7679
-42.33
-41.8676
-41.4703
-41.1902
-41.089
-41.5609
-43.2252
-47.2001
-53.5839
-61.6495
-71.1915
-79.2859
-84.4872
-87.9333
-90.6794
-92.9146
-94.6632
-95.3921
-95.9552
-96.6846
-97.0268
-97.3276
-97.3777
-97.3434
-97.1957
-96.3513
-95.5229
-94.4942
-93.2782
-92.0474
-90.4556
-88.469
-86.2732
-83.741
-80.8229
-77.3671
-73.3464
-68.6491
-63.2234
-57.0604
-50.0257
-42.0512
-32.9445
-22.5943
-10.8645
2.33934
17.3196
34.0883
52.533
71.985
92.4573
114.37
143.498
186.911
244.334
-72.6602
-67.4872
-63.672
-60.8767
-58.8706
-57.3917
-56.2465
-55.3355
-54.5802
-53.9422
-53.388
-52.8967
-52.4656
-52.1007
-51.8099
-51.5835
-51.416
-51.2802
-51.151
-51.0287
-50.8978
-50.7854
-50.6792
-50.5812
-50.488
-50.4133
-50.34
-50.2682
-50.1858
-50.0965
-50.0005
-49.9197
-49.8536
-49.8021
-49.7772
-49.7948
-49.7705
-49.7202
-49.6753
-49.6572
-49.6195
-49.5811
-49.5407
-49.5013
-49.4444
-49.3826
-49.3198
-49.2558
-49.2054
-49.155
-49.1194
-49.0916
-49.1078
-49.0904
-49.0451
-49.0057
-48.989
-48.9484
-48.912
-48.8718
-48.8371
-48.7762
-48.7239
-48.6692
-48.6044
-48.5419
-48.4886
-48.4684
-48.4514
-48.4604
-48.449
-48.4123
-48.3997
-48.367
-48.3179
-48.2942
-48.2303
-48.199
-48.1373
-48.0746
-48.0041
-47.9474
-47.9013
-47.8459
-47.811
-47.783
-47.8045
-47.7993
-47.7534
-47.7582
-47.7194
-47.6713
-47.6525
-47.5754
-47.518
-47.4535
-47.4053
-47.3564
-47.298
-47.2551
-47.2079
-47.1764
-47.1281
-47.0879
-47.0596
-47.0764
-47.0858
-47.0568
-47.0053
-46.9689
-46.8981
-46.8316
-46.7616
-46.7235
-46.6839
-46.6291
-46.5762
-46.5325
-46.4749
-46.4016
-46.3391
-46.2962
-46.2353
-46.181
-46.1626
-46.0374
-45.9126
-45.8167
-45.6693
-45.5377
-45.3948
-45.2244
-45.0073
-44.7568
-44.4711
-44.1657
-43.8258
-43.4439
-43.0163
-42.6002
-42.2681
-42.0269
-42.0267
-42.5849
-44.1275
-47.6838
-54.3274
-63.1919
-72.535
-80.3019
-85.7415
-89.3765
-91.49
-93.8837
-95.5355
-96.5517
-97.1397
-97.7777
-98.2723
-98.8683
-99.3194
-99.5128
-99.5339
-99.7611
-99.3475
-99.1075
-98.6607
-98.0792
-97.2185
-95.9855
-94.2468
-92.0899
-89.525
-86.4991
-82.9051
-78.7568
-73.927
-68.3803
-62.0024
-54.7024
-46.4455
-37.0818
-26.5284
-14.7443
-1.65655
12.804
28.5309
45.5446
64.2132
86.3101
114.488
149.865
188.547
-69.9768
-66.3533
-63.2128
-60.7218
-58.8086
-57.2955
-56.1186
-55.1769
-54.405
-53.7683
-53.2279
-52.7709
-52.3689
-52.0173
-51.7105
-51.468
-51.2657
-51.1138
-50.9819
-50.8505
-50.7222
-50.5828
-50.4158
-50.2582
-50.1122
-49.9982
-49.9324
-49.8965
-49.8703
-49.8201
-49.754
-49.6788
-49.6101
-49.5367
-49.4628
-49.3912
-49.3706
-49.3535
-49.3375
-49.2882
-49.2521
-49.2003
-49.1374
-49.0832
-49.071
-49.0571
-49.027
-48.978
-48.9064
-48.851
-48.7999
-48.7526
-48.6854
-48.6773
-48.6846
-48.676
-48.6296
-48.5934
-48.5415
-48.4913
-48.4372
-48.4094
-48.3875
-48.3709
-48.3271
-48.2537
-48.1912
-48.1382
-48.1081
-48.0308
-48.0038
-48.0068
-47.9698
-47.9351
-47.9092
-47.8418
-47.8209
-47.7564
-47.7539
-47.736
-47.7143
-47.6657
-47.5889
-47.525
-47.4598
-47.4304
-47.3542
-47.3219
-47.3173
-47.285
-47.252
-47.2368
-47.1917
-47.1957
-47.1543
-47.137
-47.0929
-47.058
-47.0246
-46.9644
-46.8992
-46.8229
-46.7807
-46.7344
-46.6913
-46.629
-46.5881
-46.5609
-46.5592
-46.526
-46.5243
-46.5001
-46.4799
-46.4246
-46.3844
-46.2859
-46.2285
-46.1389
-46.0758
-46.0299
-45.9766
-45.9197
-45.8816
-45.8199
-45.7114
-45.7087
-45.6706
-45.5561
-45.4422
-45.3063
-45.1865
-45.0647
-44.9169
-44.7187
-44.5169
-44.3241
-44.1139
-43.8747
-43.6602
-43.4262
-43.1679
-43.004
-43.081
-43.6181
-44.9592
-47.7877
-52.8754
-60.1958
-68.6659
-76.867
-83.2262
-87.0316
-89.9735
-92.3896
-93.8755
-94.9562
-95.9747
-96.4862
-96.4929
-96.669
-97.1709
-97.2616
-97.1191
-96.5455
-96.2429
-95.3578
-94.3099
-93.3876
-92.3667
-91.2004
-89.7604
-88.0786
-86.0973
-83.7204
-80.8161
-77.2754
-73.1516
-68.4849
-63.0506
-56.6444
-49.2173
-40.7069
-31.0257
-20.3287
-8.72718
3.64145
16.8021
30.8041
46.3615
65.0871
88.6243
117.012
145.179
-66.5338
-64.0901
-61.938
-60.0628
-58.4403
-57.0976
-56.0331
-55.1266
-54.3817
-53.757
-53.2402
-52.8056
-52.4358
-52.1092
-51.8378
-51.6117
-51.4241
-51.2639
-51.1338
-51.0548
-50.9323
-50.8421
-50.7474
-50.684
-50.6077
-50.5318
-50.4527
-50.377
-50.3027
-50.2236
-50.1365
-50.0608
-49.9977
-49.9559
-49.9297
-49.9386
-49.8948
-49.8359
-49.7841
-49.7675
-49.7286
-49.697
-49.6674
-49.6276
-49.5593
-49.5034
-49.4476
-49.3915
-49.3528
-49.3077
-49.2787
-49.2445
-49.2559
-49.2188
-49.1582
-49.1079
-49.0953
-49.0555
-49.0278
-48.9956
-48.974
-48.9087
-48.8471
-48.7826
-48.7293
-48.6944
-48.6552
-48.6349
-48.6047
-48.6216
-48.5905
-48.5187
-48.5161
-48.4871
-48.4415
-48.4353
-48.3712
-48.3399
-48.2569
-48.1948
-48.1292
-48.0796
-48.052
-48.0154
-47.9928
-47.9449
-47.9652
-47.9479
-47.8823
-47.8785
-47.8363
-47.7908
-47.7777
-47.7008
-47.6547
-47.5899
-47.5386
-47.4711
-47.4168
-47.3838
-47.355
-47.3474
-47.2944
-47.2508
-47.2081
-47.2246
-47.225
-47.1946
-47.1289
-47.0965
-47.0088
-46.9419
-46.8835
-46.8649
-46.835
-46.7768
-46.7239
-46.6907
-46.6476
-46.596
-46.5563
-46.5144
-46.4382
-46.359
-46.2746
-46.1936
-46.1019
-46.0331
-45.9131
-45.7991
-45.6719
-45.5352
-45.3659
-45.176
-44.9701
-44.7708
-44.5644
-44.3642
-44.1902
-44.0476
-43.9342
-43.9
-44.0919
-44.701
-45.9707
-48.353
-52.4098
-58.4312
-66.0601
-74.2529
-81.4719
-86.8844
-90.8948
-93.9981
-95.8409
-96.7214
-97.6798
-98.2978
-98.8155
-99.3499
-99.8317
-100.126
-100.66
-100.835
-100.762
-100.883
-100.64
-100.276
-99.4874
-98.5232
-97.1001
-95.304
-93.186
-90.7399
-87.8412
-84.4322
-80.4851
-76.0944
-71.0983
-65.2045
-58.2776
-50.3132
-41.3255
-31.4215
-20.7675
-9.41225
2.65826
15.4916
29.545
46.0729
65.7651
88.5613
110.131
-62.3155
-60.8446
-59.5767
-58.4289
-57.2272
-56.2174
-55.3612
-54.5875
-53.9248
-53.3526
-52.8698
-52.4649
-52.1322
-51.862
-51.6198
-51.3878
-51.157
-50.9677
-50.828
-50.7131
-50.633
-50.5328
-50.3921
-50.2162
-50.0533
-49.9164
-49.8533
-49.8002
-49.7966
-49.7668
-49.7202
-49.6568
-49.5891
-49.5135
-49.4359
-49.3347
-49.3014
-49.2975
-49.283
-49.228
-49.1932
-49.1421
-49.0843
-49.0465
-49.0379
-49.0116
-48.9887
-48.9498
-48.8847
-48.8339
-48.7777
-48.7305
-48.6475
-48.6298
-48.6346
-48.625
-48.5725
-48.5377
-48.4858
-48.4324
-48.3667
-48.3491
-48.3415
-48.3296
-48.2951
-48.2298
-48.1684
-48.1069
-48.0789
-47.9901
-47.9475
-47.9494
-47.9075
-47.8716
-47.8495
-47.7725
-47.7582
-47.701
-47.7107
-47.6981
-47.6826
-47.6369
-47.5582
-47.4965
-47.4309
-47.4024
-47.3008
-47.2518
-47.2634
-47.2304
-47.193
-47.1755
-47.1218
-47.1403
-47.1051
-47.0906
-47.0537
-47.0435
-46.9987
-46.9296
-46.8616
-46.7802
-46.7512
-46.7055
-46.6783
-46.598
-46.5398
-46.5043
-46.4989
-46.4549
-46.4825
-46.4488
-46.4436
-46.397
-46.3732
-46.2939
-46.2243
-46.1453
-46.0562
-46.0044
-45.9647
-45.9365
-45.9534
-45.9106
-45.8414
-45.7914
-45.7705
-45.7016
-45.6454
-45.5589
-45.4762
-45.3863
-45.2932
-45.1844
-45.0868
-44.9937
-44.9003
-44.7961
-44.6979
-44.6323
-44.619
-44.6917
-44.9481
-45.5623
-46.7342
-48.7523
-51.9847
-56.7368
-62.9271
-69.9859
-76.8843
-82.7588
-87.2818
-90.731
-93.2453
-95.3408
-96.6192
-96.7953
-97.1371
-96.8805
-96.7969
-97.2892
-97.1677
-97.1826
-96.9506
-96.5314
-96.1295
-95.6129
-95.3048
-94.7487
-94.1443
-93.1523
-91.9025
-90.34
-88.3459
-85.8195
-82.6817
-79.0407
-74.8385
-69.8358
-63.8873
-57.0673
-49.4364
-40.9081
-31.5665
-21.5188
-10.7397
0.896761
13.6805
28.358
45.1791
63.9318
81.1247
-57.7295
-57.307
-56.8475
-56.3712
-55.73
-55.1217
-54.5692
-54.0158
-53.5074
-53.0446
-52.6524
-52.3176
-52.0512
-51.8275
-51.6285
-51.4412
-51.2846
-51.1481
-51.0295
-50.9472
-50.8665
-50.8163
-50.7519
-50.7409
-50.6708
-50.6123
-50.5307
-50.45
-50.3727
-50.3008
-50.2246
-50.1568
-50.0975
-50.0588
-50.0296
-50.0485
-50.0037
-49.9325
-49.8768
-49.8605
-49.8229
-49.7975
-49.7686
-49.725
-49.6591
-49.5996
-49.5429
-49.4962
-49.4678
-49.422
-49.3873
-49.3519
-49.3677
-49.3259
-49.2617
-49.208
-49.1961
-49.156
-49.1305
-49.1006
-49.0839
-49.0112
-48.9406
-48.877
-48.8315
-48.8067
-48.774
-48.7537
-48.7171
-48.7499
-48.7235
-48.6366
-48.6254
-48.5945
-48.5451
-48.5483
-48.477
-48.4409
-48.3602
-48.2908
-48.2242
-48.1831
-48.1651
-48.1342
-48.1179
-48.0685
-48.093
-48.0702
-47.9923
-47.9732
-47.9464
-47.8952
-47.8813
-47.7929
-47.7572
-47.6951
-47.658
-47.5738
-47.5311
-47.5031
-47.4744
-47.4692
-47.4105
-47.3722
-47.3084
-47.3248
-47.3391
-47.2873
-47.2265
-47.2104
-47.1125
-47.0689
-46.9956
-46.9554
-46.9187
-46.8937
-46.8539
-46.8241
-46.7969
-46.7579
-46.7081
-46.6375
-46.5791
-46.5344
-46.4717
-46.3671
-46.2618
-46.2234
-46.1433
-46.0604
-45.9607
-45.8477
-45.7012
-45.5587
-45.4299
-45.3312
-45.2515
-45.1839
-45.1272
-45.1308
-45.205
-45.3552
-45.6554
-46.2337
-47.2719
-48.9851
-51.607
-55.3706
-60.3623
-66.3342
-72.7177
-78.8873
-84.3954
-89.0889
-92.8885
-95.94
-97.7975
-99.3537
-99.7316
-99.8535
-100.118
-100.441
-100.717
-100.994
-101.463
-101.503
-101.363
-101.206
-100.671
-99.9725
-99.0963
-97.9053
-96.3269
-94.6151
-92.7313
-90.495
-87.6841
-84.2766
-80.3122
-75.6889
-70.3138
-64.2734
-57.5629
-50.0495
-41.8155
-32.9732
-23.3909
-12.8857
-1.29277
11.7481
26.3681
42.249
56.4586
-53.1729
-53.5027
-53.7151
-53.8363
-53.7179
-53.5135
-53.2885
-53.0023
-52.6691
-52.3217
-52.0179
-51.7939
-51.5838
-51.4141
-51.2456
-51.0699
-50.8996
-50.7549
-50.6523
-50.564
-50.4915
-50.4111
-50.2983
-50.16
-50.0053
-49.848
-49.7893
-49.736
-49.7388
-49.7189
-49.6848
-49.6289
-49.5707
-49.4987
-49.4168
-49.3019
-49.2682
-49.2691
-49.2541
-49.197
-49.1652
-49.1079
-49.0457
-48.9942
-48.9866
-48.9869
-48.9717
-48.9415
-48.8801
-48.8292
-48.7701
-48.7217
-48.6312
-48.6116
-48.618
-48.6072
-48.5487
-48.5209
-48.4675
-48.408
-48.3393
-48.3353
-48.329
-48.3188
-48.287
-48.2251
-48.165
-48.0978
-48.064
-47.9608
-47.914
-47.9227
-47.8795
-47.844
-47.8268
-47.7427
-47.7374
-47.6898
-47.6995
-47.6865
-47.6734
-47.628
-47.5513
-47.4911
-47.4237
-47.3941
-47.2794
-47.2234
-47.2437
-47.2072
-47.1659
-47.1531
-47.092
-47.1118
-47.0735
-47.0626
-47.0353
-47.0382
-46.988
-46.9211
-46.8555
-46.7726
-46.7484
-46.7066
-46.6833
-46.5927
-46.5254
-46.4895
-46.4795
-46.4245
-46.464
-46.4259
-46.4465
-46.4107
-46.367
-46.3139
-46.2359
-46.1524
-46.0758
-46.0184
-45.977
-45.9756
-45.9813
-45.9543
-45.9124
-45.892
-45.9003
-45.8428
-45.81
-45.7629
-45.7374
-45.7074
-45.6583
-45.5671
-45.4981
-45.4799
-45.4906
-45.4839
-45.4844
-45.5342
-45.6752
-45.9123
-46.253
-46.7989
-47.7238
-49.2013
-51.3599
-54.3588
-58.311
-63.1734
-68.6264
-74.2364
-79.5817
-84.3508
-88.3918
-91.7664
-94.3569
-96.3681
-97.8215
-98.5822
-98.5744
-98.3402
-98.1547
-97.8549
-97.8608
-97.9158
-97.9611
-97.9752
-98.0281
-98.1418
-98.2082
-97.8931
-97.0482
-95.9456
-94.8773
-93.5412
-91.5391
-88.7299
-85.3137
-81.3539
-76.6848
-71.3519
-65.4596
-58.9285
-51.7264
-43.8742
-35.3173
-25.8843
-15.434
-3.81108
9.06438
22.8482
34.9989
-48.7915
-49.7697
-50.535
-51.1546
-51.5707
-51.7747
-51.9001
-51.9138
-51.8208
-51.6673
-51.5133
-51.4087
-51.3056
-51.2041
-51.1177
-51.0227
-50.9423
-50.8588
-50.7916
-50.7523
-50.7244
-50.7001
-50.6528
-50.6437
-50.6088
-50.5962
-50.5382
-50.4622
-50.3869
-50.3244
-50.2675
-50.2109
-50.1519
-50.1141
-50.0906
-50.1191
-50.0766
-50.0018
-49.9433
-49.9241
-49.882
-49.8652
-49.839
-49.7986
-49.7273
-49.6577
-49.606
-49.5635
-49.5411
-49.5003
-49.4678
-49.4333
-49.4509
-49.4064
-49.3399
-49.281
-49.2631
-49.2208
-49.2021
-49.1771
-49.148
-49.0745
-49.006
-48.9394
-48.8949
-48.876
-48.851
-48.8384
-48.8033
-48.8444
-48.8187
-48.7241
-48.7094
-48.6727
-48.6176
-48.6279
-48.5519
-48.5151
-48.4344
-48.3643
-48.2961
-48.257
-48.2433
-48.2157
-48.2038
-48.1561
-48.1825
-48.1562
-48.0731
-48.0482
-48.0228
-47.9668
-47.9549
-47.861
-47.8279
-47.7627
-47.7037
-47.618
-47.5976
-47.5781
-47.5547
-47.553
-47.4893
-47.4481
-47.3942
-47.4183
-47.424
-47.3875
-47.3118
-47.2857
-47.1825
-47.1506
-47.068
-47.0349
-47.0054
-46.9774
-46.9506
-46.9222
-46.8977
-46.8559
-46.8241
-46.7491
-46.6699
-46.6291
-46.6191
-46.5234
-46.4085
-46.367
-46.3179
-46.2901
-46.2261
-46.1399
-46.03
-45.9249
-45.8366
-45.7978
-45.7824
-45.7855
-45.7917
-45.8638
-46.0462
-46.3196
-46.6816
-47.2054
-48.0354
-49.316
-51.1338
-53.5775
-56.7621
-60.7152
-65.2994
-70.2676
-75.3323
-80.2361
-84.7992
-88.9774
-92.7111
-95.9037
-98.2554
-99.9741
-100.981
-101.473
-101.455
-101.479
-101.435
-101.504
-101.562
-101.712
-101.345
-100.975
-100.59
-100.086
-99.2774
-98.1921
-97.2571
-96.4015
-95.0422
-92.8756
-90.0733
-86.7562
-82.7681
-78.1657
-73.1584
-67.5656
-61.2066
-54.2236
-46.6496
-38.2135
-28.8067
-18.414
-6.93155
5.27343
15.928
-44.6632
-46.1224
-47.3474
-48.3679
-49.2061
-49.7778
-50.2213
-50.4913
-50.6251
-50.6804
-50.6694
-50.6673
-50.6686
-50.6294
-50.605
-50.5533
-50.4689
-50.3959
-50.3367
-50.292
-50.271
-50.2356
-50.17
-50.0366
-49.9156
-49.7923
-49.7431
-49.6845
-49.6871
-49.6606
-49.6466
-49.5987
-49.5517
-49.4913
-49.4101
-49.2875
-49.2539
-49.2621
-49.2579
-49.2046
-49.1645
-49.0989
-49.0414
-49.0049
-49.001
-48.9977
-48.9796
-48.9511
-48.8932
-48.8441
-48.7814
-48.7329
-48.6407
-48.6237
-48.632
-48.6247
-48.5663
-48.5354
-48.4789
-48.4226
-48.3757
-48.3775
-48.358
-48.3415
-48.3047
-48.2408
-48.1795
-48.1094
-48.0742
-47.9668
-47.9181
-47.9331
-47.8874
-47.851
-47.8361
-47.7499
-47.75
-47.7015
-47.7121
-47.7018
-47.6919
-47.6475
-47.5709
-47.5095
-47.4409
-47.4101
-47.2948
-47.2367
-47.2569
-47.2192
-47.1784
-47.1651
-47.0972
-47.119
-47.08
-47.0742
-47.0593
-47.0687
-47.009
-46.9391
-46.8749
-46.7937
-46.7673
-46.7145
-46.6995
-46.6112
-46.5336
-46.5017
-46.4987
-46.4429
-46.4715
-46.4487
-46.4768
-46.438
-46.3931
-46.3501
-46.2859
-46.2035
-46.1122
-46.0638
-46.0435
-46.0512
-46.0251
-45.9973
-45.9641
-45.9748
-45.9929
-45.9438
-45.9433
-45.9237
-45.9349
-45.943
-45.9285
-45.8646
-45.8234
-45.8482
-45.9371
-46.0173
-46.0893
-46.1821
-46.3537
-46.6371
-47.0147
-47.5311
-48.2835
-49.3928
-50.9281
-52.9602
-55.5609
-58.7872
-62.5959
-66.8611
-71.3991
-76.0155
-80.5195
-84.7772
-88.6988
-92.1961
-95.0739
-97.2462
-98.7868
-99.6232
-99.8564
-99.6013
-99.628
-99.6139
-99.7043
-99.7983
-100.382
-100.855
-101.238
-101.329
-100.967
-100.236
-99.5513
-99.0631
-98.2706
-96.7102
-94.4796
-91.8097
-88.576
-84.7662
-80.5548
-75.7668
-70.2477
-64.1505
-57.4696
-49.9469
-41.525
-32.1873
-21.8392
-10.8715
-1.35422
-40.9203
-42.692
-44.296
-45.6743
-46.8526
-47.7528
-48.4796
-49.0353
-49.4217
-49.7267
-49.9152
-50.0412
-50.1742
-50.255
-50.3307
-50.3721
-50.3916
-50.3998
-50.3969
-50.4146
-50.4389
-50.4626
-50.4583
-50.4594
-50.4498
-50.4889
-50.459
-50.4086
-50.3467
-50.303
-50.2542
-50.2222
-50.1555
-50.1315
-50.1119
-50.1513
-50.11
-50.0316
-49.9701
-49.9534
-49.9247
-49.9246
-49.8937
-49.8326
-49.7655
-49.695
-49.6426
-49.6019
-49.582
-49.544
-49.514
-49.4801
-49.4878
-49.4396
-49.3798
-49.3234
-49.3049
-49.261
-49.2467
-49.2215
-49.1898
-49.1191
-49.0552
-48.9916
-48.9464
-48.9226
-48.8987
-48.8885
-48.8527
-48.8916
-48.8661
-48.7738
-48.7564
-48.7174
-48.6627
-48.6735
-48.5944
-48.5597
-48.4785
-48.4088
-48.3417
-48.3042
-48.2922
-48.2657
-48.2499
-48.1993
-48.2261
-48.2005
-48.1137
-48.0914
-48.0658
-48.0068
-47.9966
-47.9002
-47.8704
-47.808
-47.7589
-47.6784
-47.6476
-47.6263
-47.6041
-47.603
-47.5408
-47.4996
-47.4367
-47.4658
-47.4757
-47.4267
-47.3527
-47.3303
-47.2278
-47.1951
-47.1128
-47.0797
-47.0521
-47.0258
-47.0076
-46.9862
-46.966
-46.9138
-46.868
-46.7871
-46.7497
-46.7283
-46.7142
-46.593
-46.4864
-46.4735
-46.4332
-46.445
-46.4348
-46.4094
-46.3188
-46.2136
-46.1544
-46.1619
-46.2035
-46.2663
-46.3281
-46.4167
-46.5815
-46.8505
-47.2307
-47.7413
-48.4348
-49.4003
-50.7138
-52.4219
-54.5816
-57.2352
-60.3941
-64.0164
-67.9865
-72.1739
-76.4403
-80.6659
-84.7741
-88.7127
-92.3503
-95.5868
-98.2588
-100.173
-101.306
-101.549
-101.592
-101.604
-101.532
-101.494
-101.463
-101.619
-101.909
-102.224
-102.296
-102.009
-101.657
-101.469
-101.116
-100.132
-98.5538
-96.6001
-94.1195
-91.0161
-87.5123
-83.5621
-78.9322
-73.6493
-67.7987
-61.1963
-53.6984
-45.2769
-35.8907
-25.9233
-17.2633
-37.4846
-39.5019
-41.3812
-43.0459
-44.4894
-45.6432
-46.6258
-47.4326
-48.0118
-48.5102
-48.8792
-49.133
-49.3805
-49.5617
-49.7076
-49.8084
-49.8553
-49.878
-49.8925
-49.9042
-49.9376
-49.9681
-49.9844
-49.9279
-49.8214
-49.704
-49.6747
-49.6443
-49.6399
-49.6087
-49.6085
-49.5663
-49.5382
-49.4872
-49.4158
-49.2979
-49.2753
-49.2875
-49.2845
-49.2335
-49.1981
-49.1329
-49.083
-49.0509
-49.0485
-49.0438
-49.0196
-48.9855
-48.929
-48.8832
-48.8208
-48.7735
-48.6842
-48.6696
-48.6765
-48.6712
-48.615
-48.5784
-48.5151
-48.4588
-48.408
-48.4066
-48.4034
-48.3874
-48.3486
-48.2858
-48.2237
-48.1522
-48.1153
-48.014
-47.9647
-47.9814
-47.9324
-47.8929
-47.8759
-47.7962
-47.7997
-47.7501
-47.7589
-47.7476
-47.7351
-47.6918
-47.6197
-47.5596
-47.4904
-47.4557
-47.3446
-47.2873
-47.305
-47.2628
-47.2226
-47.2088
-47.1411
-47.1625
-47.1256
-47.1222
-47.1082
-47.1172
-47.0577
-46.9875
-46.9243
-46.8452
-46.8141
-46.7628
-46.75
-46.6588
-46.5814
-46.5578
-46.5518
-46.4987
-46.5266
-46.5065
-46.5311
-46.4956
-46.453
-46.4107
-46.3506
-46.2781
-46.1958
-46.1577
-46.1263
-46.1263
-46.0871
-46.0592
-46.0229
-46.0456
-45.9934
-46.013
-46.0426
-46.0347
-46.0685
-46.1104
-46.1254
-46.0843
-46.0521
-46.0757
-46.1804
-46.3104
-46.4463
-46.6011
-46.8133
-47.0913
-47.4477
-47.9162
-48.5356
-49.3825
-50.5097
-51.9612
-53.7694
-55.9729
-58.6028
-61.6636
-65.0968
-68.8191
-72.7269
-76.7311
-80.7645
-84.7741
-88.6532
-92.3043
-95.5655
-98.1389
-99.4007
-100.45
-101.068
-101.227
-101.305
-101.398
-101.766
-102.11
-102.495
-102.947
-103.328
-103.473
-103.464
-103.528
-103.566
-103.182
-102.284
-101.018
-99.256
-96.8753
-94.1126
-90.9801
-87.175
-82.6879
-77.6946
-72.007
-65.3893
-57.8131
-49.2881
-40.1619
-32.0729
-34.4162
-36.5974
-38.679
-40.56
-42.2426
-43.6448
-44.8407
-45.8646
-46.6888
-47.3623
-47.9147
-48.3456
-48.7316
-49.0433
-49.3041
-49.5058
-49.6645
-49.7785
-49.8665
-49.9573
-50.0461
-50.1275
-50.1787
-50.2264
-50.2544
-50.3144
-50.3075
-50.2937
-50.2541
-50.2327
-50.1906
-50.1806
-50.1189
-50.106
-50.0895
-50.1164
-50.0739
-50.0138
-49.9594
-49.9445
-49.9103
-49.9098
-49.8838
-49.8345
-49.7758
-49.712
-49.6583
-49.6103
-49.5854
-49.5522
-49.531
-49.5006
-49.4918
-49.4346
-49.3813
-49.3339
-49.3195
-49.278
-49.2672
-49.2387
-49.2058
-49.1338
-49.0687
-49.0114
-48.9662
-48.9396
-48.9152
-48.9024
-48.8633
-48.89
-48.8663
-48.7833
-48.7622
-48.7245
-48.6724
-48.6797
-48.604
-48.5775
-48.4953
-48.4281
-48.3664
-48.3267
-48.3095
-48.2816
-48.2627
-48.2111
-48.2276
-48.1986
-48.1169
-48.1031
-48.0686
-48.0088
-47.9981
-47.9043
-47.8768
-47.8174
-47.7638
-47.6903
-47.6725
-47.646
-47.6219
-47.6188
-47.5586
-47.5157
-47.4525
-47.4801
-47.4855
-47.4314
-47.36
-47.3373
-47.2414
-47.2087
-47.1343
-47.1028
-47.074
-47.0463
-47.0344
-47.0163
-46.9948
-46.9297
-46.8754
-46.8098
-46.7983
-46.775
-46.7389
-46.6631
-46.6484
-46.5894
-46.5373
-46.5521
-46.5637
-46.5733
-46.533
-46.4643
-46.3985
-46.4112
-46.4871
-46.5868
-46.6822
-46.8039
-46.9752
-47.2192
-47.5493
-47.978
-48.5539
-49.31
-50.3005
-51.5511
-53.0858
-54.939
-57.1367
-59.7048
-62.6328
-65.8871
-69.3785
-73.0407
-76.836
-80.7289
-84.6288
-88.4716
-92.1518
-95.4814
-98.0617
-100.145
-101.654
-101.997
-102.03
-102.085
-102.276
-102.59
-103.004
-103.468
-103.984
-104.455
-104.895
-105.358
-105.786
-105.861
-105.5
-104.891
-103.937
-102.371
-100.333
-97.9352
-94.9306
-91.2617
-87.1204
-82.3653
-76.664
-69.9046
-62.1708
-53.7571
-46.0007
-31.6287
-33.9508
-36.1861
-38.2008
-40.0737
-41.6614
-43.0314
-44.2345
-45.2221
-46.0556
-46.7605
-47.3365
-47.8358
-48.2497
-48.59
-48.8577
-49.0576
-49.215
-49.3435
-49.4496
-49.5505
-49.629
-49.6821
-49.6799
-49.6434
-49.59
-49.5904
-49.5854
-49.5989
-49.583
-49.5813
-49.5499
-49.544
-49.5059
-49.4516
-49.3476
-49.327
-49.3358
-49.3324
-49.2848
-49.2548
-49.1999
-49.1516
-49.121
-49.122
-49.1172
-49.0914
-49.0533
-48.9972
-48.9496
-48.8845
-48.8413
-48.7598
-48.7456
-48.7459
-48.7364
-48.6833
-48.6493
-48.5875
-48.5357
-48.4935
-48.4944
-48.4863
-48.4638
-48.4213
-48.3586
-48.2966
-48.2281
-48.1871
-48.0922
-48.0501
-48.0645
-48.0109
-47.9695
-47.9489
-47.8785
-47.8809
-47.8346
-47.8491
-47.8298
-47.807
-47.7641
-47.6966
-47.6363
-47.568
-47.5301
-47.4303
-47.3799
-47.3866
-47.3336
-47.2996
-47.2824
-47.2185
-47.2345
-47.1975
-47.1955
-47.1857
-47.193
-47.1329
-47.0685
-47.0051
-46.9254
-46.887
-46.8349
-46.8242
-46.7336
-46.6586
-46.6386
-46.6305
-46.5839
-46.6106
-46.5937
-46.6144
-46.5804
-46.5387
-46.4983
-46.4366
-46.3666
-46.2957
-46.277
-46.2459
-46.2292
-46.1733
-46.1581
-46.1353
-46.1483
-46.1377
-46.1591
-46.1919
-46.1482
-46.1573
-46.2027
-46.2472
-46.2367
-46.2147
-46.2332
-46.3289
-46.4561
-46.5959
-46.7529
-46.9675
-47.2554
-47.6252
-48.0715
-48.5951
-49.2622
-50.1139
-51.1872
-52.5005
-54.0831
-55.9453
-58.1067
-60.5991
-63.4241
-66.4992
-69.7645
-73.2201
-76.8774
-80.6539
-84.4909
-88.3251
-92.0299
-95.3808
-98.2211
-100.046
-101.342
-102.244
-102.395
-102.397
-102.71
-103.358
-103.962
-104.511
-105.214
-106.039
-106.898
-107.64
-108.028
-108.144
-108.228
-108.133
-107.43
-106.107
-104.369
-102.123
-99.2865
-96.0357
-92.2613
-87.5224
-81.6157
-74.6362
-66.8283
-59.3821
-29.2243
-31.6385
-33.9505
-36.0867
-38.0688
-39.8226
-41.3647
-42.7233
-43.8811
-44.8716
-45.7365
-46.4676
-47.1073
-47.6467
-48.1072
-48.4806
-48.789
-49.0369
-49.2377
-49.421
-49.5859
-49.7265
-49.8279
-49.9166
-49.9839
-50.0721
-50.0974
-50.1192
-50.109
-50.1212
-50.0902
-50.0921
-50.0454
-50.029
-50.0247
-50.0467
-50.0094
-49.9575
-49.9129
-49.9023
-49.872
-49.8663
-49.8443
-49.7976
-49.7468
-49.6969
-49.6478
-49.5999
-49.5686
-49.5342
-49.5151
-49.4876
-49.462
-49.3967
-49.3481
-49.306
-49.2967
-49.262
-49.2581
-49.2283
-49.1782
-49.1179
-49.0671
-49.0154
-48.967
-48.932
-48.9043
-48.8836
-48.8397
-48.8478
-48.8201
-48.7482
-48.7332
-48.6919
-48.6426
-48.6451
-48.5772
-48.5565
-48.487
-48.429
-48.3727
-48.329
-48.3014
-48.2714
-48.2432
-48.189
-48.1914
-48.1554
-48.0867
-48.0743
-48.029
-47.9725
-47.9581
-47.872
-47.8498
-47.7947
-47.7459
-47.6881
-47.6717
-47.6423
-47.6164
-47.607
-47.5473
-47.4984
-47.4358
-47.4638
-47.4651
-47.4011
-47.3277
-47.2981
-47.2139
-47.1898
-47.1328
-47.1075
-47.078
-47.0511
-47.0389
-47.0146
-46.9843
-46.9102
-46.8494
-46.7921
-46.8033
-46.8067
-46.7485
-46.6807
-46.683
-46.6025
-46.5634
-46.6211
-46.6309
-46.646
-46.6355
-46.6068
-46.5762
-46.6035
-46.6749
-46.7726
-46.8769
-47.0061
-47.1676
-47.4041
-47.7236
-48.0977
-48.5599
-49.1349
-49.8838
-50.8268
-51.9701
-53.3346
-54.9337
-56.7777
-58.9101
-61.3578
-64.0509
-66.9303
-70.0126
-73.3389
-76.8489
-80.4888
-84.22
-87.9768
-91.6351
-95.0452
-97.9118
-100.105
-101.752
-102.818
-102.763
-102.953
-103.396
-104.053
-104.751
-105.468
-106.233
-107.394
-108.615
-109.593
-110.306
-111.033
-111.752
-111.956
-111.363
-110.222
-108.708
-106.74
-104.395
-101.594
-97.9015
-92.9696
-86.7867
-79.5639
-72.6072
-27.1764
-29.6201
-31.9819
-34.1784
-36.2086
-38.0581
-39.6834
-41.1837
-42.4778
-43.5967
-44.5812
-45.4283
-46.1677
-46.7972
-47.3328
-47.7817
-48.153
-48.4521
-48.7172
-48.9198
-49.0973
-49.2274
-49.3352
-49.3961
-49.4262
-49.4428
-49.4862
-49.5278
-49.5629
-49.5734
-49.5905
-49.5619
-49.5662
-49.524
-49.488
-49.4341
-49.4109
-49.407
-49.3992
-49.3555
-49.3322
-49.292
-49.2574
-49.2338
-49.2321
-49.2203
-49.196
-49.1556
-49.0999
-49.0471
-48.9764
-48.935
-48.8815
-48.8694
-48.8472
-48.8254
-48.7711
-48.7391
-48.6908
-48.6497
-48.6175
-48.6167
-48.5994
-48.5724
-48.524
-48.4625
-48.401
-48.3336
-48.2862
-48.2032
-48.1729
-48.1762
-48.1148
-48.0761
-48.0518
-47.9881
-47.9864
-47.9451
-47.9532
-47.9318
-47.9172
-47.8706
-47.8041
-47.7437
-47.6772
-47.6329
-47.5456
-47.505
-47.5033
-47.4298
-47.4079
-47.3825
-47.3268
-47.3315
-47.2993
-47.2994
-47.288
-47.2877
-47.2397
-47.1815
-47.1228
-47.047
-46.9935
-46.9319
-46.9205
-46.8378
-46.7667
-46.7527
-46.7399
-46.6969
-46.7139
-46.6968
-46.7083
-46.6813
-46.6493
-46.6089
-46.5487
-46.4934
-46.4401
-46.4165
-46.3701
-46.3431
-46.2848
-46.2625
-46.2459
-46.2357
-46.1961
-46.2544
-46.2638
-46.2626
-46.2776
-46.2928
-46.3331
-46.3412
-46.3384
-46.3452
-46.4063
-46.5138
-46.6471
-46.7921
-46.9908
-47.2503
-47.5657
-47.9605
-48.4277
-49.0081
-49.7106
-50.5614
-51.5561
-52.7294
-54.1026
-55.6871
-57.5159
-59.6276
-61.9875
-64.5299
-67.264
-70.2453
-73.445
-76.8147
-80.3286
-83.9645
-87.6759
-91.329
-94.7347
-97.7352
-100.126
-101.394
-102.655
-103.654
-103.884
-104.187
-104.898
-105.927
-107.107
-108.403
-110
-111.388
-112.415
-113.367
-114.546
-115.56
-115.893
-115.557
-114.796
-113.644
-112.082
-110.163
-107.612
-103.901
-98.7738
-92.332
-85.9422
-25.4963
-27.9482
-30.3725
-32.5789