/*--------------------------------*- C++ -*----------------------------------*\
| =========                 |                                                 |
| \\      /  F ield         | OpenFOAM: The Open Source CFD Toolbox           |
|  \\    /   O peration     | Version:  4.1                                   |
|   \\  /    A nd           | Web:      www.OpenFOAM.org                      |
|    \\/     M anipulation  |                                                 |
\*---------------------------------------------------------------------------*/
FoamFile
{
    version     2.0;
    format      ascii;
    class       volScalarField;
    location    "22.5";
    object      p;
}
// * * * * * * * * * * * * * * * * * * * * * * * * * * * * * * * * * * * * * //

dimensions      [0 2 -2 0 0 0 0];

internalField   nonuniform List<scalar> 
204246
(
170.048
8.0574
65.2656
35.3206
31.3193
40.1377
21.1591
39.7648
17.2129
38.9778
15.3813
38.6856
13.7223
37.3994
16.073
32.2336
25.484
17.0488
34.4348
12.606
36.6757
12.1648
35.5987
12.571
35.6394
12.0502
36.7128
10.0846
37.522
10.0378
36.8199
11.3718
34.4046
15.5952
27.9203
24.9786
14.6269
32.667
11.667
33.231
11.2677
33.7835
10.5047
35.0054
8.57838
35.7855
8.90049
34.7591
11.3397
31.0676
15.6246
26.2459
24.4575
13.5608
32.0887
10.9459
32.7504
10.7619
33.4152
10.114
34.7089
8.20556
35.5041
8.45088
34.4475
10.7066
30.7282
14.655
26.029
22.818
14.0861
28.7792
11.1681
30.777
9.8204
31.7243
8.71005
33.0391
6.57822
33.8097
6.73212
32.7411
8.99525
29.0315
13.0386
24.3616
21.3952
12.4032
27.6365
9.42372
30.1144
7.69568
32.193
5.10983
33.63
4.5031
33.6522
4.83563
32.6526
6.52796
29.6982
8.68482
27.5101
11.2398
23.8679
17.5841
11.5624
25.1088
6.79926
28.1696
2.96448
28.9254
2.11631
27.5006
1.16593
25.8132
0.0552071
23.3439
-0.662943
19.3198
0.264838
12.4758
5.45359
-3.80256
9.97581
-11.325
8.45353
-16.4873
4.6169
-21.1039
0.0154258
-25.6954
-4.73122
-29.8423
-9.41151
-32.3967
-14.4757
-32.2659
-21.0381
-25.9254
-35.7661
-18.0234
-39.6935
-14.8611
-39.8919
-12.4244
-38.6359
-10.2175
-36.4237
-8.28216
-33.5778
-6.87567
-29.9045
-6.61207
-24.2716
-8.99733
-12.9869
-20.0891
-1.85884
-21.7882
3.63953
-20.2709
7.6874
-17.1505
11.5535
-12.6049
15.4217
-6.25587
19.8801
1.81475
25.4962
12.0089
31.8976
25.1752
39.5847
43.2137
47.7325
59.6139
65.9645
78.3793
88.3675
101.179
116.554
127.516
151.844
162.649
198.946
213.034
276.857
276.961
396.735
386.104
610.887
77.6867
32.2134
39.4496
41.4449
28.5927
38.4978
24.5699
35.456
22.1682
33.5738
21.0534
32.0556
21.3219
29.0282
24.1365
24.1054
29.4595
19.2623
29.9791
18.5834
29.8335
18.7629
29.5188
18.3603
29.8023
17.799
30.2733
17.4696
29.7121
18.1433
28.3975
19.8195
25.7139
23.216
21.3575
27.8451
17.4719
28.0288
17.2804
27.8628
16.7557
28.1778
16.1702
28.5925
15.9519
27.8852
16.9443
26.3326
19.108
23.76
22.0575
20.0474
26.8295
16.4935
27.2088
16.5552
27.2467
16.2312
27.7395
15.7791
28.2801
15.6102
27.6377
16.5517
26.1031
18.5439
23.5429
21.1622
19.9139
25.4234
16.508
25.5666
15.6521
25.9504
15.0281
26.3046
14.3447
26.7034
14.0074
25.9506
14.8559
24.3477
16.8372
21.7606
19.5305
18.1339
23.9612
14.7222
24.3712
13.7895
25.1895
12.9403
26.1005
12.2928
26.0231
12.4479
25.507
13.0785
24.3793
14.3376
22.7694
15.4497
20.8445
17.6578
17.4048
21.8272
12.8976
22.5948
11.3234
23.0812
10.1954
22.1942
9.77705
20.9739
8.99901
19.3881
8.15483
16.8897
7.78298
12.8336
8.33721
6.81023
10.8072
0.307932
7.55774
-3.82926
4.03495
-8.08044
-0.138548
-12.5716
-4.80752
-17.0129
-10.013
-21.0031
-15.6127
-23.8249
-21.3852
-24.4458
-27.6799
-22.1821
-33.6044
-22.8251
-34.5822
-22.3354
-34.102
-20.8955
-32.5297
-19.1091
-30.1179
-17.3955
-27.0729
-16.1759
-23.2445
-15.9875
-18.045
-17.7022
-10.69
-19.4855
-7.32348
-17.7552
-4.292
-15.2971
-1.25802
-12.1325
2.03375
-8.01422
5.93526
-3.01189
10.1933
3.75128
15.3844
12.4388
21.1494
23.2881
28.5337
35.7953
41.4514
48.2751
58.6073
63.5475
79.7764
81.8643
103.591
105.546
130.598
133.977
168.983
164.765
227.196
199.727
302.104
248.914
384.6
29.6577
47.0044
34.5592
41.9561
30.7379
37.5845
26.092
35.5906
23.0945
33.922
21.8913
32.1686
22.0324
29.563
23.9383
25.7483
27.1462
21.7165
28.9276
19.6334
29.7473
18.8346
29.8745
18.378
29.983
17.9965
30.0835
17.8032
29.6849
18.295
28.5585
19.7219
26.3133
22.3367
22.8689
25.515
19.4635
27.102
17.8135
27.8294
16.9229
28.1876
16.3979
28.3308
16.2618
27.8656
16.9837
26.6314
18.6978
24.4666
21.3038
21.4443
24.6039
18.3832
26.3513
17.0213
27.2617
16.3509
27.7885
15.9651
28.0533
15.8755
27.6487
16.5441
26.423
18.0925
24.2453
20.4064
21.2205
23.3105
18.0988
24.8013
16.2913
25.7497
15.2635
26.2468
14.5753
26.4404
14.2859
25.9608
14.8513
24.6829
16.3878
22.4826
18.781
19.4559
21.8638
16.3144
23.6247
14.4492
24.9354
13.2936
25.7847
12.5743
26.0037
12.467
25.681
12.9034
24.76
13.8585
23.292
15.1302
21.3021
17.121
18.3216
19.8712
14.6745
21.5651
12.2197
22.479
10.6082
22.2304
9.71304
21.2296
8.91362
19.6895
8.18594
17.2219
7.92252
13.4694
8.22916
8.19612
8.63483
2.19524
7.12926
-2.76472
4.4243
-7.16487
0.336024
-11.473
-4.54942
-15.793
-9.77132
-19.8247
-15.1564
-22.8333
-20.7633
-24.0062
-26.4696
-24.0858
-31.1399
-23.5753
-33.3504
-22.2587
-33.6146
-20.4833
-32.3676
-18.5847
-30.0179
-16.8566
-26.9686
-15.655
-23.1961
-15.3573
-18.2975
-16.2872
-12.6017
-17.3444
-8.19595
-16.878
-4.37229
-15.0998
-0.991966
-12.2299
2.37969
-8.19263
6.01763
-2.73961
9.69737
4.38572
14.6633
12.9496
21.4661
23.0079
30.9025
34.3675
42.5026
47.851
58.2106
64.6387
77.9309
85.7444
102.195
110.958
134.832
140.269
179.198
178.165
243.518
223.149
321.373
295.291
389.582
16.8127
29.9928
25.5097
35.8284
25.9764
34.85
24.917
32.8544
23.9789
30.6043
23.8974
28.4958
24.6808
25.8585
26.418
23.0504
28.1811
21.4884
27.7626
21.28
27.2086
21.348
26.9079
21.15
26.8498
21.0019
26.6893
21.2367
25.9318
22.0162
24.6522
23.3818
22.7549
25.2512
20.6762
26.6803
19.6327
26.1545
19.567
25.7016
19.3703
25.451
19.2612
25.1025
19.5904
24.1827
20.5319
22.8423
22.0193
21.18
23.7727
19.4041
25.4134
18.6144
25.1563
18.795
24.9751
18.8185
24.9674
18.8751
24.8063
19.2887
24.0038
20.2139
22.7142
21.574
21.049
23.0964
19.2121
24.4774
18.2089
24.1434
17.8352
23.8797
17.5887
23.6666
17.4294
23.2993
17.6747
22.3271
18.4941
20.9193
19.8269
19.1886
21.4108
17.3335
22.9456
16.3344
22.8469
15.9705
22.8813
15.7605
22.8943
15.8149
22.4843
16.1831
21.8359
16.8024
20.9079
17.6425
19.7748
18.5531
18.2699
19.9574
16.3006
21.4793
14.7423
21.2604
14.0756
20.7341
13.7409
19.6619
13.4854
18.417
13.0043
16.8625
12.4493
14.5421
12.1304
11.2403
11.9468
7.21844
11.321
4.35056
7.31139
1.02842
3.1636
-2.6103
-1.46853
-6.68783
-6.64965
-11.0073
-12.2996
-15.3948
-18.0003
-19.4539
-23.2951
-22.3063
-27.9115
-24.3509
-31.6995
-26.3677
-32.7325
-26.7143
-32.3281
-25.8209
-30.5719
-24.3014
-27.8038
-22.6548
-24.5084
-21.3471
-20.8505
-20.6429
-16.8287
-20.2497
-13.0941
-18.7129
-10.93
-16.5942
-8.7853
-14.0892
-6.49762
-11.1892
-3.94675
-7.67075
-0.523804
-3.66639
3.37495
1.628
7.86921
8.60774
13.9294
16.5724
22.0254
26.2534
32.9632
37.1799
46.8402
50.272
64.0246
65.6311
84.4476
82.8634
108.589
102.217
139.406
123.121
184.874
147.386
224.086
199.252
271.72
9.82464
34.3673
22.4773
35.0872
26.1649
34.3701
26.0007
32.9506
25.1683
30.9649
24.9298
29.0072
25.3246
26.7984
26.221
24.675
26.9715
23.426
26.9389
22.5326
26.9841
21.9049
27.0345
21.4631
26.9688
21.3117
26.684
21.548
26.0291
22.149
24.9988
23.1553
23.5523
24.3799
22.0583
25.1962
21.1893
25.2421
20.4757
25.3688
19.8903
25.3103
19.6634
24.9664
19.914
24.2449
20.5941
23.2306
21.6687
21.9903
22.9449
20.6983
24.0047
20.0596
24.3076
19.6038
24.6907
19.2522
24.8663
19.1978
24.7018
19.5368
24.085
20.2089
23.0989
21.1749
21.8205
22.2658
20.405
23.1084
19.5274
23.2942
18.7176
23.4734
18.1328
23.4619
17.8445
23.1384
17.9949
22.3893
18.5453
21.3089
19.4696
19.9759
20.6019
18.5489
21.5873
17.6733
21.9838
16.8857
22.404
16.3601
22.5767
16.2195
22.3945
16.3542
21.9536
16.7473
21.2257
17.3572
20.2552
18.1536
18.9006
19.2204
17.3074
20.1298
16.1252
20.2231
15.1155
20.106
14.3777
19.5176
13.779
18.5672
13.2201
17.1601
12.7713
14.9714
12.539
12.0413
12.0209
8.87599
10.1998
5.87023
7.76764
2.59492
4.15861
-1.01759
-0.199061
-4.97148
-5.25335
-9.24005
-10.8118
-13.6845
-16.3837
-18.135
-21.4001
-22.177
-25.6687
-25.2605
-28.9676
-26.8167
-30.808
-26.6761
-31.253
-25.4109
-30.0372
-23.7725
-27.3762
-21.9889
-24.1444
-20.5217
-20.6653
-19.4581
-17.4941
-17.9467
-14.2618
-16.6407
-11.6338
-15.237
-8.85298
-13.323
-6.09421
-10.7904
-3.30655
-7.55254
-0.0500239
-3.24972
3.88925
2.25325
8.85984
8.71316
15.5838
16.4366
24.0225
25.8294
34.8436
37.4977
48.8458
51.8363
66.4372
70.0473
88.6236
91.3851
117.541
114.878
155.207
141.851
200.174
180.403
240.62
228.966
274.791
9.61669
23.774
18.7563
27.977
22.4927
29.8416
23.953
29.5001
24.5642
28.148
25.0273
26.5259
25.7662
24.7686
26.5896
23.3438
26.9229
22.836
26.3516
22.762
25.8118
22.7642
25.4455
22.7323
25.1457
22.8418
24.7239
23.238
24.015
23.8962
23.0703
24.7469
21.9843
25.5259
21.1405
25.6931
20.9457
25.0542
20.9497
24.4879
20.9172
23.9246
21.0271
23.2508
21.4393
22.3634
22.1376
21.3793
23.0145
20.4575
23.8253
19.7958
24.2274
19.8296
23.8916
20.098
23.649
20.3237
23.3965
20.6494
22.9776
21.2002
22.2596
21.9342
21.3509
22.7454
20.395
23.4195
19.5927
23.6474
19.3346
23.1789
19.2096
22.7037
19.1553
22.1854
19.2317
21.5141
19.5809
20.5796
20.1784
19.5077
20.9363
18.4517
21.6443
17.6142
21.999
17.388
21.7228
17.3549
21.47
17.4529
21.1351
17.7419
20.627
18.1585
20.0159
18.6767
19.2912
19.2596
18.4845
19.8735
17.526
20.5385
16.5851
20.8591
16.1116
20.3401
15.9163
19.5934
15.8466
18.5736
15.7238
17.3973
15.4565
15.9587
15.0987
13.9768
14.5562
11.7004
13.6776
9.32128
11.7939
6.89993
8.72162
3.996
4.85513
0.604392
0.324866
-3.39444
-4.88731
-7.93466
-10.6369
-12.9717
-16.5085
-18.1577
-22.1298
-22.8853
-26.8758
-27.1045
-30.4198
-29.8398
-32.4529
-30.3379
-32.6175
-29.6581
-30.7407
-28.2358
-27.5201
-26.1816
-24.1176
-24.032
-21.0186
-22.2964
-18.0816
-20.6762
-15.6835
-18.4722
-13.75
-16.3865
-11.9826
-14.2107
-9.96366
-12.0478
-7.50966
-9.64592
-4.65299
-6.45469
-1.51692
-2.17293
2.6655
2.93267
8.0081
9.27511
14.9209
16.9417
23.7883
25.8458
35.1034
36.3163
48.8276
48.4138
66.3819
61.4425
88.1504
76.5053
115.061
93.5397
142.686
122.043
170.917
162.178
204.436
8.4314
30.1901
17.9472
30.3332
22.7997
30.4536
24.748
30.0472
25.4534
28.7869
25.8957
27.282
26.3248
25.7924
26.6238
24.6771
26.5073
24.2402
25.9754
23.873
25.6549
23.5015
25.4654
23.2336
25.2208
23.2257
24.8185
23.5187
24.2234
23.9996
23.5018
24.5654
22.7356
24.9994
22.1752
24.9184
22.0737
24.4666
21.8575
24.1579
21.5932
23.7628
21.5443
23.2017
21.8015
22.4942
22.2669
21.7775
22.8276
21.1569
23.3014
20.7621
23.4967
20.8259
23.3451
20.8627
23.3525
20.8541
23.2644
21.02
22.953
21.4238
22.4025
21.9473
21.7293
22.4773
21.0547
22.8682
20.4808
22.9003
20.3051
22.5969
20.0372
22.3423
19.7993
21.9939
19.7346
21.4536
19.9374
20.7087
20.308
19.8925
20.7593
19.1231
21.1292
18.537
21.264
18.3748
21.1165
18.1887
21.05
18.0847
20.8777
18.1832
20.5423
18.4093
20.0977
18.7356
19.5366
19.1278
18.8869
19.5506
18.1129
19.9673
17.3936
20.0565
17.0781
19.6375
16.7847
19.1353
16.5132
18.4309
16.2084
17.5255
15.8575
16.3189
15.6379
14.618
15.0827
12.7222
13.9301
10.7704
12.0545
8.5173
9.71063
5.93322
6.34793
2.72301
2.24693
-1.11731
-2.60808
-5.58314
-8.05564
-10.6482
-13.8024
-16.037
-19.4831
-21.2768
-24.3849
-25.8819
-28.2712
-28.8758
-30.6575
-29.9839
-31.3955
-29.5642
-30.1596
-27.9404
-27.3305
-25.4965
-24.0196
-22.8631
-21.0107
-20.5709
-18.344
-18.7399
-15.7761
-17.1566
-13.6853
-15.3608
-11.4188
-13.5025
-8.92533
-11.5552
-6.30663
-9.09941
-3.54794
-5.61929
-0.111868
-1.45018
4.28979
3.63104
9.9277
9.88835
17.1564
17.6816
26.5971
27.1738
38.7109
38.9314
54.0356
53.1088
73.569
69.8426
97.7626
88.8083
126.31
112.884
153.815
144.186
180.034
175.901
203.758
8.4811
22.0109
15.4203
24.4461
20.0989
25.974
22.6138
26.4645
24.1837
26.1083
25.053
25.2586
25.7471
24.3299
26.1305
23.6947
26.0068
23.5996
25.4117
23.6315
24.8984
23.6511
24.4856
23.702
24.0869
23.9036
23.6239
24.2901
23.0625
24.7613
22.4726
25.2042
21.932
25.4247
21.7209
25.0936
21.8009
24.3998
21.8873
23.7513
21.9332
23.0366
22.0703
22.2662
22.3753
21.4802
22.7949
20.7915
23.2305
20.3731
23.4729
20.2344
23.426
20.5518
23.0533
20.9261
22.7805
21.2695
22.4597
21.6893
22.0202
22.2124
21.458
22.7405
20.8795
23.1635
20.3794
23.362
20.1209
23.1167
20.1279
22.5557
20.1507
21.9789
20.1889
21.336
20.3194
20.5949
20.5959
19.7708
20.9392
18.9777
21.2822
18.3597
21.4554
18.0116
21.3277
18.0894
20.9166
18.2607
20.5431
18.509
20.1098
18.8689
19.6023
19.2691
19.0766
19.6804
18.5333
20.0674
18.0039
20.3904
17.4724
20.6018
17.1165
20.4197
17.0791
19.7895
17.1492
19.0365
17.2264
18.1245
17.2182
17.1013
17.0629
15.869
16.6784
14.4744
16.0495
12.9023
14.9043
11.2346
13.0413
9.14451
10.3965
6.68151
7.00286
3.60908
2.81126
-0.220898
-2.2216
-4.88344
-7.92169
-10.4143
-14.1117
-16.4715
-20.4671
-22.5497
-26.3187
-28.0724
-30.9692
-32.1751
-33.7884
-33.8598
-34.2691
-33.4134
-32.504
-31.394
-29.3331
-28.4074
-25.6906
-25.3273
-22.26
-22.8831
-19.2558
-20.9537
-17.1909
-18.8351
-15.4712
-17.0051
-13.883
-15.207
-12.0865
-13.6106
-10.0609
-11.8981
-7.86331
-9.50663
-5.25696
-6.33881
-1.90034
-2.41906
2.44641
2.42414
8.02423
8.30287
15.3267
15.1927
24.6514
23.3092
36.4082
32.7715
51.3282
43.3898
69.9743
55.752
88.8009
74.9869
108.639
100.503
132.151
129.805
158.01
10.6965
27.3385
16.5038
27.7058
20.9536
27.7596
23.526
27.5972
24.9203
26.9924
25.7788
26.121
26.2628
25.2879
26.3654
24.7565
26.0078
24.6696
25.3536
24.5588
24.8729
24.3845
24.5154
24.2646
24.1527
24.3217
23.7448
24.5679
23.3057
24.8825
22.896
25.1522
22.5732
25.1366
22.5251
24.7778
22.6918
24.1145
22.7096
23.5516
22.6573
22.9399
22.6762
22.2722
22.8332
21.6144
23.0725
21.1296
23.2361
20.9062
23.2777
20.9141
23.1139
21.2427
22.773
21.5369
22.5827
21.754
22.3586
22.0427
22.0254
22.4269
21.6032
22.8011
21.1916
23.0565
20.9013
23.0441
20.7744
22.786
20.8673
22.2563
20.8699
21.7678
20.8352
21.234
20.8675
20.6113
21.0238
19.9259
21.2019
19.3041
21.3302
18.8739
21.2608
18.6844
20.9947
18.8286
20.5746
18.9463
20.2591
19.0824
19.9202
19.3065
19.5277
19.5656
19.1218
19.8282
18.7046
20.0607
18.3083
20.216
17.9329
20.2423
17.711
19.9963
17.7758
19.3921
17.8413
18.7687
17.8566
18.0616
17.779
17.2662
17.6573
16.3145
17.3135
15.2087
16.6341
14.0382
15.5054
12.7282
13.9199
11.0846
11.7497
9.00788
8.82473
6.26539
5.15401
2.73675
0.64929
-1.7605
-4.6107
-7.21997
-10.6207
-13.3808
-17.0488
-19.8309
-23.2416
-25.8294
-28.5255
-30.4376
-32.1387
-33.1445
-33.642
-33.5236
-32.9821
-31.7444
-30.1114
-28.3771
-26.1146
-24.6677
-22.1954
-21.7458
-19.2469
-19.6584
-16.9749
-17.9698
-15.0578
-16.2252
-13.1007
-14.3861
-10.9208
-12.7343
-8.67957
-10.8897
-6.45152
-8.35099
-3.68887
-5.26857
-0.212765
-1.44971
4.29386
3.36278
10.1434
9.2881
18.0381
16.3942
28.1829
25.2945
41.1889
36.1216
57.6363
48.8823
76.292
65.9424
94.9183
87.5231
114.484
110.727
134.407
133.287
153.269
8.77554
21.7637
14.3508
22.7464
18.5039
23.8547
21.4343
24.4516
23.3722
24.5659
24.5754
24.3384
25.2821
24.0327
25.534
23.8871
25.3207
24.0339
24.7407
24.1789
24.2278
24.2464
23.7822
24.3294
23.3648
24.5303
22.9573
24.8403
22.5742
25.1437
22.2748
25.334
22.1114
25.2894
22.1452
24.8255
22.4187
24.0846
22.5757
23.3407
22.6811
22.522
22.7515
21.7304
22.8781
21.0418
23.0182
20.636
23.0791
20.4852
23.0767
20.5522
22.8798
20.9997
22.4897
21.4647
22.2035
21.8825
21.89
22.3243
21.515
22.7808
21.1115
23.1517
20.7886
23.3032
20.6074
23.2573
20.5457
22.8666
20.7243
22.2094
20.846
21.5569
20.9138
20.8686
21.0231
20.1323
21.1884
19.4295
21.2966
18.8587
21.3188
18.471
21.236
18.3171
20.8729
18.563
20.3602
18.8612
19.9262
19.1925
19.4786
19.5757
19.0108
19.942
18.5777
20.2605
18.1895
20.4953
17.8843
20.5956
17.6521
20.557
17.5658
20.1955
17.7617
19.513
17.9974
18.7912
18.1839
17.988
18.2764
17.1148
18.1502
16.236
17.795
15.291
17.1123
14.2738
16.0227
13.0298
14.4536
11.3969
12.244
9.3971
9.35072
6.76137
5.64754
3.26424
1.11298
-1.34019
-4.31484
-7.04955
-10.7109
-13.7064
-17.8197
-20.9333
-25.0606
-27.9494
-31.522
-33.7389
-35.9938
-37.0647
-37.6055
-37.3408
-36.1743
-34.9811
-32.5335
-30.9948
-27.8123
-26.6963
-23.3367
-23.2545
-19.8714
-21.0137
-17.8305
-19.1432
-16.3919
-17.6351
-15.2087
-16.107
-13.7403
-14.9169
-12.0721
-13.8136
-10.3172
-12.2163
-8.2944
-9.89481
-5.69275
-7.00502
-2.27439
-3.42894
2.28862
0.741937
8.4213
5.80996
16.0806
11.7582
25.8353
18.9551
38.0597
27.9937
50.8397
41.3425
64.8522
58.6309
81.6297
79.1025
101.251
101.271
122.169
12.124
26.2807
16.5613
26.0359
20.0518
26.0223
22.57
25.8478
24.1995
25.55
25.1661
25.1986
25.7155
24.8836
25.8401
24.7189
25.4899
24.8541
24.8566
24.9068
24.3317
24.8741
23.878
24.8484
23.4416
24.9222
23.069
25.0921
22.8068
25.2555
22.6585
25.3554
22.5966
25.2508
22.8
24.7206
23.1626
23.9671
23.3265
23.3484
23.3247
22.6245
23.3113
21.8534
23.3453
21.2172
23.3825
20.9447
23.239
20.8549
23.0988
20.9907
22.8051
21.4411
22.3854
21.8878
22.1008
22.2482
21.8236
22.6046
21.5198
22.9537
21.2233
23.2113
21.0263
23.2843
20.955
23.1822
21.039
22.7492
21.3037
22.1184
21.453
21.5108
21.5079
20.8666
21.571
20.2126
21.6477
19.6053
21.673
19.1557
21.5504
18.8666
21.219
18.8217
20.7538
19.1168
20.1991
19.3899
19.7589
19.6591
19.3443
19.9562
18.9405
20.2297
18.585
20.4415
18.2878
20.5574
18.0884
20.5508
17.9501
20.3899
17.992
19.9775
18.2688
19.3156
18.5336
18.6682
18.7318
18.0012
18.8356
17.3494
18.7037
16.7254
18.3615
16.0793
17.7293
15.3605
16.8394
14.4357
15.573
13.2921
13.7285
11.7732
11.2494
9.56364
8.11333
6.37748
4.1745
2.04164
-0.811783
-3.47919
-6.97401
-10.1707
-14.1211
-17.7308
-21.7428
-25.4216
-28.9532
-32.0324
-34.5675
-36.5612
-37.7181
-38.3628
-37.9107
-37.0986
-34.7681
-32.7139
-29.3722
-27.3099
-23.8219
-23.0718
-20.1106
-20.4537
-17.9374
-18.6782
-16.1973
-16.9577
-14.4969
-15.1577
-12.5676
-13.7551
-10.6389
-12.5655
-8.95346
-10.9385
-6.99478
-8.88002
-4.51502
-6.34135
-1.12699
-3.10835
3.48951
0.775542
9.83211
5.71835
18.1243
11.8837
28.4456
20.0577
39.9673
31.7847
52.6567
46.2973
66.7222
62.784
82.0503
80.3802
98.2099
97.921
114.088
9.01923
22.0791
14.2379
22.0615
18.0845
22.6216
20.8427
23.1917
22.7394
23.5225
24.0007
23.6514
24.6984
23.7674
24.9587
23.9704
24.7871
24.2885
24.2568
24.536
23.7236
24.6637
23.2335
24.7699
22.8178
24.9118
22.4938
25.1022
22.3071
25.2427
22.2126
25.3763
22.2744
25.1988
22.5262
24.6994
22.9257
23.9356
23.2119
23.2029
23.222
22.4309
23.1668
21.6283
23.085
20.9278
23.0022
20.5865
22.8016
20.5426
22.7204
20.7289
22.5004
21.2585
22.104
21.8104
21.8129
22.2888
21.5261
22.7354
21.2302
23.1281
20.9564
23.3819
20.8016
23.4201
20.8056
23.2428
20.9414
22.7716
21.2227
22.0566
21.4201
21.3546
21.4758
20.683
21.5047
19.9911
21.5209
19.3462
21.5091
18.8504
21.3786
18.5531
21.0409
18.5588
20.5525
18.8856
19.964
19.2685
19.4933
19.6598
19.0519
20.0604
18.6288
20.3997
18.2798
20.6446
18.0175
20.7605
17.8704
20.7288
17.8475
20.5389
17.9418
20.1041
18.2571
19.4019
18.6089
18.7091
18.8862
17.9957
19.0503
17.3282
18.9419
16.7674
18.6013
16.205
18.0385
15.5105
17.215
14.6854
15.9353
13.6406
14.0842
12.2428
11.7822
10.1095
8.86083
7.04981
5.08702
2.87719
0.146481
-2.61186
-6.14608
-9.53897
-13.7903
-17.7258
-22.4095
-26.4942
-31.0693
-34.6713
-38.1008
-40.3864
-41.8534
-42.3559
-41.4823
-40.2916
-37.5014
-35.1687
-30.9665
-28.6517
-24.4004
-23.1865
-19.7035
-20.4672
-17.7229
-19.1485
-16.8019
-18.1871
-16.0524
-16.9659
-14.8764
-15.9779
-13.5998
-15.1999
-12.2161
-14.2435
-10.6824
-12.6722
-8.63648
-10.8118
-5.88511
-8.50986
-2.01941
-5.92165
2.91017
-2.48912
8.95222
1.85101
15.991
8.21808
23.8744
16.8642
33.398
28.1193
44.9181
41.9722
58.8918
58.0714
75.1258
75.3773
92.286
13.9505
25.6779
17.4015
24.8981
20.0606
24.6229
22.0575
24.549
23.5322
24.4777
24.5303
24.3918
25.0925
24.4388
25.2474
24.5692
24.9827
24.8995
24.427
25.0818
23.9353
25.1576
23.4017
25.1893
22.8962
25.2394
22.5756
25.3106
22.4924
25.3634
22.4823
25.4631
22.6569
25.2652
23.0214
24.7084
23.5361
23.9186
23.8415
23.2577
23.8412
22.572
23.7568
21.8009
23.6043
21.1734
23.3926
20.8596
23.1744
20.736
22.9162
20.9401
22.5561
21.4822
22.0841
22.0508
21.75
22.5277
21.4587
22.929
21.2054
23.2496
21.016
23.4169
20.9569
23.4404
21.0416
23.2467
21.2863
22.7725
21.6741
22.1036
21.9236
21.4365
22.0056
20.7574
22.0325
20.0987
22.018
19.5325
21.8986
19.1691
21.6176
18.9063
21.1472
18.9509
20.56
19.2975
19.9207
19.6513
19.4035
20.0047
18.9529
20.3565
18.5584
20.6415
18.2531
20.8194
18.0498
20.8639
17.9748
20.7526
18.0078
20.4927
18.2042
20.0082
18.6149
19.3235
19.006
18.6756
19.316
18.0614
19.494
17.5569
19.3753
17.2132
19.0563
16.8636
18.588
16.4391
17.8786
15.9625
16.8205
15.3431
15.3472
14.2469
13.5113
12.4757
11.1322
9.81297
7.87911
6.0245
3.4085
0.81724
-2.59135
-6.04952
-10.2478
-14.5189
-19.2655
-24.0401
-28.7786
-33.3344
-37.2391
-40.5628
-42.9243
-44.6707
-44.9185
-44.7331
-42.2499
-39.8321
-35.0345
-31.5803
-26.4226
-24.4859
-20.6736
-20.4048
-18.3325
-18.648
-17.0888
-17.2038
-15.4782
-15.4644
-13.9258
-14.2769
-12.3997
-13.7384
-11.1495
-12.9338
-9.9999
-11.9823
-8.43521
-10.7892
-5.92539
-9.28488
-2.40276
-7.20212
2.34145
-4.18386
8.08353
0.491902
14.5959
7.3423
22.4387
16.1367
31.8223
26.7964
42.555
39.1596
54.6807
52.8706
68.0757
67.4196
81.7022
10.5721
22.4228
15.0977
21.9287
18.4393
22.0214
20.7362
22.4612
22.4064
22.861
23.5725
23.174
24.1493
23.5679
24.4576
24.0006
24.3638
24.4607
23.9193
24.7965
23.4519
24.9242
22.9553
25.0206
22.4282
25.1076
22.1738
25.1523
22.1055
25.2186
22.1329
25.353
22.3762
25.1548
22.8007
24.6664
23.3612
23.9085
23.8159
23.162
23.8165
22.4393
23.6672
21.6648
23.3428
20.9324
22.9785
20.4978
22.5599
20.5174
22.4723
20.7384
22.2295
21.3914
21.8139
22.0517
21.511
22.5908
21.2545
23.0383
21.0362
23.3782
20.8671
23.5378
20.8489
23.5203
20.9763
23.268
21.2513
22.7687
21.6589
22.0238
21.9605
21.2721
21.9998
20.6186
21.9365
19.9549
21.8541
19.3656
21.7137
18.9076
21.4286
18.6537
20.9246
18.74
20.3285
19.1105
19.6653
19.5623
19.1554
20.0085
18.7154
20.4319
18.331
20.7586
18.0521
20.9517
17.8896
20.9907
17.863
20.8669
17.9588
20.5841
18.1915
20.0964
18.6158
19.3772
19.0709
18.7004
19.4234
18.0673
19.6181
17.5895
19.5047
17.293
19.2414
16.9813
18.8359
16.6361
18.1723
16.2929
17.1456
15.7762
15.7673
14.8015
14.196
13.1837
12.1149
10.82
9.20391
7.40594
5.09466
2.57737
-0.610651
-4.05544
-8.26639
-12.7324
-17.9039
-23.1434
-28.8541
-34.1318
-39.2767
-43.4388
-46.4179
-48.3444
-48.5939
-48.0114
-45.1015
-42.3589
-36.6375
-32.4616
-25.956
-22.8218
-18.4833
-18.6118
-16.8787
-18.4961
-17.0684
-18.7901
-17.1191
-17.682
-15.8476
-16.5528
-14.8104
-16.0228
-13.9106
-15.4102
-12.7941
-14.4465
-11.3762
-13.4465
-9.1298
-12.3062
-6.08915
-10.86
-2.38296
-8.45785
1.64306
-4.86009
6.31848
-0.0209319
11.9188
6.56738
18.914
15.1534
27.6722
25.6871
38.6045
37.8712
51.5639
51.5014
65.7697
15.8207
25.2731
18.6004
24.0625
20.5209
23.7248
21.846
23.6357
23.0432
23.6353
23.9258
23.7744
24.4586
24.0059
24.6701
24.3467
24.5099
24.8514
24.0464
25.2056
23.6036
25.2941
23.1224
25.3077
22.6238
25.2568
22.2495
25.305
22.2161
25.3124
22.2986
25.443
22.6352
25.2532
23.1306
24.696
23.8013
23.8916
24.3482
23.1501
24.3768
22.5771
24.2165
21.8704
23.8871
21.2202
23.4222
20.7583
23.0862
20.5135
22.7533
20.7678
22.3032
21.4195
21.7759
22.1377
21.4188
22.7371
21.1331
23.1684
20.9495
23.461
20.8384
23.5712
20.8881
23.5525
21.1022
23.3075
21.4831
22.821
22.017
22.1197
22.4051
21.3828
22.5094
20.7073
22.4268
20.0503
22.3129
19.5199
22.0858
19.1578
21.7113
18.9186
21.1095
19.0164
20.4015
19.3848
19.6611
19.8113
19.0798
20.2447
18.6117
20.6543
18.2355
20.9585
17.9788
21.1128
17.8525
21.1051
17.8762
20.9287
18.0274
20.5987
18.3367
20.0628
18.8567
19.3372
19.3639
18.6815
19.7467
18.1248
19.9101
17.7714
19.8105
17.5854
19.6024
17.3812
19.2863
17.2197
18.7168
17.0781
17.8624
16.8976
16.7115
16.1652
15.5328
14.9069
13.8746
12.9546
11.454
9.98687
7.84009
5.56454
2.52563
-0.836944
-5.02141
-9.66572
-15.0586
-20.8191
-27.0204
-33.1463
-39.1318
-44.5406
-48.9673
-52.296
-53.9836
-55.1901
-53.3564
-51.3341
-45.3894
-39.8001
-31.6799
-26.287
-20.3346
-18.8522
-16.6613
-17.8198
-16.7937
-16.6905
-16.1382
-15.5806
-14.8613
-14.3506
-13.4663
-14.3012
-12.8323
-14.0641
-12.4517
-14.0588
-11.8842
-14.0023
-10.4405
-13.4941
-8.19111
-12.5105
-5.18757
-10.7557
-1.72673
-7.92895
2.4021
-3.76199
7.50332
1.7556
13.8733
8.89319
21.6778
17.503
30.7706
28.0887
41.6285
40.4466
53.6429
12.5184
22.8921
16.7462
22.0613
19.3094
21.9074
20.9749
22.1198
22.3558
22.4666
23.2611
22.9012
23.7327
23.4288
24.0344
23.9852
23.983
24.611
23.5899
25.0875
23.1919
25.2341
22.7798
25.2371
22.3072
25.1784
21.9912
25.0468
21.9201
25.0488
22.0205
25.2078
22.3676
25.1233
22.9731
24.651
23.7285
23.905
24.3702
23.183
24.4789
22.5198
24.2569
21.8196
23.7032
21.0502
23.0399
20.394
22.4182
20.3472
22.3077
20.653
21.9873
21.4808
21.5212
22.2674
21.1912
22.8854
20.9869
23.3041
20.8606
23.581
20.7953
23.682
20.8475
23.6066
21.0626
23.3107
21.4815
22.7783
22.0802
22.0129
22.5568
21.2435
22.5545
20.6232
22.383
19.98
22.1779
19.4391
21.9146
19.0029
21.5353
18.7764
20.8798
18.8926
20.1615
19.3013
19.3914
19.8103
18.8229
20.3095
18.3791
20.7656
18.0331
21.0908
17.8222
21.2364
17.7497
21.2059
17.8202
21.0063
18.0168
20.6522
18.3606
20.1031
18.8977
19.3527
19.453
18.6801
19.8629
18.1274
20.0487
17.7567
19.9926
17.6015
19.82
17.4695
19.5326
17.3912
19.0507
17.3671
18.2572
17.3294
17.1902
16.7615
16.2374
15.7339
14.9201
14.1313
12.9457
11.6598
9.89887
7.85606
5.22893
2.11336
-1.74785
-6.27432
-11.6738
-17.723
-24.525
-31.4725
-38.5324
-44.8504
-50.2225
-54.3644
-56.7763
-58.5514
-56.6167
-54.9023
-48.2441
-41.8725
-30.9824
-24.4178
-16.1462
-14.1571
-13.8088
-15.724
-17.9357
-19.5832
-18.857
-18.3677
-16.566
-16.7913
-15.2759
-16.4578
-15.1716
-16.1947
-14.434
-15.5959
-13.8202
-15.4042
-12.5461
-15.0134
-10.7154
-14.3764
-8.25353
-12.9765
-5.66388
-10.8822
-2.70886
-7.99342
1.00525
-3.95156
5.60949
1.79952
11.6367
9.21854
19.0756
17.9201
28.5034
28.6076
40.7851
18.4722
24.2597
20.2015
23.4214
21.1387
23.343
21.7249
23.0594
22.7272
23.0533
23.4399
23.3396
23.8394
23.6832
24.1354
24.1304
24.0732
24.8033
23.6533
25.3017
23.2581
25.5023
22.8632
25.4513
22.435
25.3014
22.1253
25.1504
22.0195
25.1548
22.1001
25.3741
22.457
25.1865
23.0949
24.6313
24.0061
23.777
24.7704
23.078
24.8828
22.627
24.7062
22.1051
24.2643
21.4318
23.5704
20.6646
23.0142
20.1878
22.5586
20.5353
21.9624
21.4405
21.2609
22.326
20.9552
22.9045
20.8203
23.3331
20.7295
23.6195
20.6808
23.7212
20.7872
23.644
21.09
23.3497
21.6287
22.8167
22.3677
22.0854
22.9788
21.3335
23.0248
20.7344
22.7926
20.0595
22.5521
19.5336
22.2408
19.1939
21.7721
19.0183
21.1062
19.0542
20.2559
19.4371
19.3725
19.9386
18.7194
20.4635
18.2439
20.9379
17.8975
21.2644
17.7013
21.3896
17.6484
21.3375
17.7537
21.1096
17.9941
20.7161
18.4086
20.1089
19.0543
19.2971
19.7015
18.6123
20.1536
18.0965
20.3431
17.7904
20.2684
17.6806
20.1012
17.5967
19.8622
17.6133
19.4499
17.7349
18.7563
17.9298
17.8318
17.5833
17.1074
16.8408
16.1356
15.6109
14.6161
13.6417
12.1506
10.4471
8.12213
5.31295
1.68291
-2.69622
-8.15251
-14.4621
-22.0692
-29.8363
-38.4843
-46.4345
-53.6486
-58.9045
-62.7907
-66.4749
-66.1252
-66.2306
-61.0276
-54.4694
-42.4308
-31.4745
-20.0161
-14.625
-11.44
-13.4876
-13.7873
-15.3926
-17.8913
-16.5845
-15.7721
-14.4585
-13.3807
-14.0445
-13.4435
-14.8303
-13.9727
-15.4304
-14.3524
-16.0431
-13.9003
-16.0824
-12.6098
-15.8296
-10.6964
-15.2459
-8.66295
-14.0012
-6.26449
-11.8476
-3.3677
-8.88819
0.543244
-4.7239
5.49434
0.532239
11.2619
6.95245
18.1293
15.4954
28.0232
16.5966
22.9579
18.8411
22.4271
20.3053
22.1245
21.7674
21.8601
22.6248
22.2327
23.0548
22.7674
23.4356
23.2883
23.6747
23.9664
23.5329
24.7804
23.1618
25.3869
22.8635
25.6122
22.6447
25.4903
22.2892
25.2221
21.9072
24.9861
21.6835
24.9194
21.7439
25.1015
22.2553
25.0628
23.0344
24.5166
24.0583
23.7623
24.8532
23.1764
25.1594
22.6015
24.8307
22.0826
24.1065
21.3451
23.2718
20.4186
22.4715
20.052
22.2132
20.5845
21.6576
21.7026
21.0706
22.5445
20.8022
23.1961
20.6764
23.5355
20.6659
23.7906
20.6775
23.8323
20.7597
23.7094
21.0413
23.316
21.6434
22.7013
22.5178
21.8784
23.2474
21.2227
23.2365
20.7263
22.8948
20.0926
22.5302
19.5262
22.0963
19.1346
21.6724
18.9431
20.9766
19.0827
20.0515
19.5358
19.0613
20.0942
18.4062
20.6204
17.9588
21.1221
17.6559
21.4556
17.536
21.5402
17.559
21.4365
17.7231
21.166
18.0213
20.7267
18.4902
20.0803
19.184
19.2304
19.8631
18.5494
20.3178
18.0721
20.4848
17.7962
20.4423
17.7101
20.2954
17.7143
20.0901
17.7938
19.7538
18.0355
19.0888
18.3279
18.3214
18.1525
17.7513
17.6277
17.0876
16.7228
15.9905
15.2257
14.1115
12.6989
10.865
8.43714
5.33378
1.33176
-3.77788
-9.92408
-17.6453
-25.882
-35.241
-44.0666
-52.1704
-58.1003
-62.2396
-67.3901
-67.8651
-69.7715
-66.3346
-60.3306
-45.1041
-32.6182
-15.6641
-6.95897
-6.32024
-11.8299
-18.5565
-20.5343
-20.5216
-19.9877
-17.3287
-16.5139
-15.2853
-16.5463
-15.3817
-16.489
-14.8007
-16.1176
-14.9875
-16.9068
-14.9343
-17.171
-13.9975
-17.0922
-12.3155
-16.4204
-10.9887
-15.5839
-9.41169
-14.6559
-7.58982
-13.1059
-5.60736
-10.1212
-2.2116
-4.98313
1.37273
-0.364581
6.50274
6.04079
15.505
20.6244
24.0821
21.3976
23.2385
21.7567
22.8101
22.0607
22.7366
22.5179
22.8487
23.0121
23.0835
23.41
23.4786
23.6359
24.0268
23.6579
24.7422
23.1778
25.423
22.9106
25.5563
22.7873
25.5804
22.4605
25.4399
22.1088
25.2279
21.7855
25.2573
21.8371
25.3616
22.1376
25.0361
22.9502
24.4124
24.1788
23.457
25.029
22.9852
25.2294
22.78
25.0747
22.5516
24.6745
21.8155
23.9062
20.8284
22.9147
19.9965
22.1614
20.4099
21.4698
21.5818
20.7024
22.5761
20.4793
23.0166
20.6037
23.3911
20.5684
23.7559
20.526
23.871
20.6441
23.7374
21.05
23.3147
21.7766
22.6372
22.7669
21.8844
23.5002
21.3313
23.5491
20.8909
23.1189
20.1471
22.7613
19.5899
22.3919
19.1986
21.9849
19.0555
21.1884
19.1506
20.1377
19.598
19.0281
20.1201
18.3044
20.7259
17.8126
21.2557
17.5191
21.5801
17.4338
21.6459
17.4521
21.5575
17.6187
21.2835
17.937
20.8117
18.4773
20.0923
19.3104
19.1257
20.1144
18.4209
20.5873
17.9897
20.7556