/*--------------------------------*- C++ -*----------------------------------*\
| =========                 |                                                 |
| \\      /  F ield         | OpenFOAM: The Open Source CFD Toolbox           |
|  \\    /   O peration     | Version:  4.1                                   |
|   \\  /    A nd           | Web:      www.OpenFOAM.org                      |
|    \\/     M anipulation  |                                                 |
\*---------------------------------------------------------------------------*/
FoamFile
{
    version     2.0;
    format      ascii;
    class       volScalarField;
    location    "20.5";
    object      p;
}
// * * * * * * * * * * * * * * * * * * * * * * * * * * * * * * * * * * * * * //

dimensions      [0 2 -2 0 0 0 0];

internalField   nonuniform List<scalar> 
204246
(
167.602
7.28625
63.7929
34.703
30.4559
39.5106
20.44
39.3263
16.6739
38.555
14.9328
38.2778
13.308
37.0045
15.6702
31.8427
25.0809
16.6579
34.0294
12.2092
36.2664
11.76
35.1853
12.1591
35.2249
11.637
36.3036
9.6794
37.125
9.64832
36.4383
10.9997
34.0359
15.2354
27.56
24.6242
14.2717
32.3124
11.3068
32.8699
10.8941
33.4092
10.1119
34.6145
8.16726
35.3787
8.4758
34.339
10.9056
30.6359
15.1836
25.8061
24.0147
13.1185
31.6496
10.5059
32.3188
10.3278
32.9933
9.68846
34.2988
7.79207
35.1081
8.0536
34.0665
10.3258
30.3597
14.2868
25.6689
22.4584
13.7331
28.4249
10.8174
30.4252
9.46892
31.3714
8.355
32.6823
6.2193
33.4484
6.37026
32.3756
8.62977
28.6603
12.6667
23.9838
21.017
12.0217
27.2556
9.04025
29.7345
7.3134
31.816
4.73106
33.2574
4.1296
33.2859
4.47048
32.2957
6.17506
29.3532
8.34526
27.177
10.9132
23.5489
17.2737
11.2627
24.8182
6.52297
27.9034
2.71473
28.6875
1.89609
27.2972
0.982655
25.6552
-0.0764518
23.2439
-0.730525
19.2861
0.262816
12.5028
5.53017
-3.71469
10.1355
-11.1765
8.67998
-16.2638
4.88775
-20.8739
0.346776
-25.5132
-4.39146
-29.6176
-9.15638
-32.1848
-14.3188
-32.1828
-20.9834
-26.0331
-35.8684
-18.2741
-39.9384
-15.2329
-40.254
-12.87
-39.0843
-10.6886
-36.9241
-8.74386
-34.0946
-7.31468
-30.4017
-7.03753
-24.7433
-9.37725
-13.4685
-20.4125
-2.30818
-22.0988
3.21908
-20.5507
7.2669
-17.3612
11.0357
-12.6608
14.7589
-6.31345
19.4416
1.68771
25.1841
11.8972
31.7
25.1117
39.4889
43.2588
47.8893
59.5876
66.653
76.9898
89.7303
100.002
118.206
127.481
155.238
163.307
200.627
209.176
268.602
278.796
396.771
384.83
611.508
71.5041
29.9167
36.9246
39.9071
26.9737
37.435
23.4513
34.6853
21.4223
32.9213
20.4646
31.5034
20.8065
28.54
23.6549
23.6474
28.9937
18.8149
29.5235
18.138
29.3814
18.314
29.0654
17.9054
29.3466
17.3414
29.8206
17.0184
29.2716
17.7086
27.9764
19.4058
25.311
22.8186
20.9655
27.4583
17.0839
27.6477
16.8893
27.4778
16.3532
27.7798
15.7495
28.176
15.5123
27.4511
16.4897
25.8844
18.6428
23.2985
21.5843
19.5737
26.3517
16.0124
26.7315
16.0728
26.7737
15.7518
27.273
15.3058
27.8221
15.147
27.192
16.1037
25.6733
18.1136
23.1278
20.747
19.5091
25.0195
16.11
25.1712
15.2572
25.5581
14.6329
25.9107
13.9458
26.3036
13.6034
25.5454
14.4477
23.9387
16.4247
21.3455
19.1106
17.709
23.5336
14.2882
23.9386
13.3499
24.7545
12.4986
25.6653
11.8516
25.5894
12.0091
25.0759
12.6446
23.9539
13.9125
22.3534
15.0358
20.4389
17.255
17.0092
21.4376
12.5149
22.2221
10.9572
22.7284
9.84985
21.8639
9.45647
20.6696
8.71224
19.119
7.91794
16.6722
7.60653
12.6769
8.2207
6.70112
10.7608
0.2326
7.61047
-3.84289
4.16807
-8.05348
0.104212
-12.5053
-4.53968
-16.8902
-9.80362
-20.8625
-15.4389
-23.74
-21.2852
-24.4763
-27.6906
-22.3684
-33.7875
-23.1637
-34.9266
-22.8139
-34.5959
-21.4615
-33.144
-19.7024
-30.7938
-17.9952
-27.771
-16.7707
-23.9422
-16.5364
-18.7683
-18.2291
-11.3892
-19.9918
-7.97532
-18.2404
-4.90887
-15.7452
-1.8424
-12.5295
1.51118
-8.45001
5.52354
-3.63506
9.72825
3.19172
14.9228
11.9674
20.6492
22.9166
28.0604
35.2789
41.0233
47.7715
57.4221
63.6177
77.4504
83.0169
103.261
105.965
134.55
134.435
169.453
167.478
220.992
198.444
303.198
246.078
383.763
29.8978
45.8858
34.0911
41.3905
29.8923
37.384
25.4449
35.2627
22.7234
33.5642
21.5358
31.8251
21.6811
29.2304
23.5886
25.4148
26.7933
21.3759
28.5687
19.283
29.3817
18.4722
29.5013
18.0041
29.6037
17.6159
29.7033
17.4248
29.3117
17.9284
28.1989
19.3731
25.9692
22.0044
22.5371
25.194
19.14
26.7858
17.4908
27.5107
16.5908
27.8582
16.0478
27.9842
15.8917
27.5
16.5981
26.2486
18.3022
24.0691
20.9012
21.0375
24.198
17.9744
25.9472
16.615
26.8643
15.9505
27.4007
15.5732
27.6768
15.495
27.2854
16.179
26.0747
17.7449
23.9114
20.0742
20.8971
22.9896
17.7837
24.4884
15.9815
25.4419
14.9557
25.9404
14.2669
26.1318
13.9749
25.6485
14.5382
24.3674
16.073
22.1629
18.4624
19.1306
21.5397
15.9854
23.2972
14.1192
24.6087
12.9655
25.4615
12.2509
25.686
12.1502
25.3706
12.5953
24.4594
13.5627
23.0043
14.8492
21.0276
16.854
18.0606
19.6198
14.4324
21.3338
12.0019
22.2724
10.4176
22.0527
9.55129
21.0857
8.78208
19.5897
8.09293
17.1794
7.88808
13.497
8.27974
8.28527
8.7792
2.32888
7.36308
-2.57167
4.73973
-6.93193
0.747607
-11.1897
-4.07293
-15.4412
-9.31319
-19.3944
-14.756
-22.4382
-20.3297
-23.7558
-26.164
-23.9481
-31.0381
-23.6063
-33.3801
-22.4307
-33.7892
-20.7517
-32.6607
-18.9159
-30.3789
-17.1766
-27.3497
-15.936
-23.562
-15.5855
-18.633
-16.4879
-12.9265
-17.5323
-8.48531
-17.0564
-4.62896
-15.2667
-1.23319
-12.3582
2.15983
-8.27668
5.8433
-2.74772
9.71652
4.25081
14.5588
13.1411
21.3978
23.1723
31.1263
34.6572
42.8731
48.3925
58.7266
64.6723
78.8313
84.6156
104.363
109.77
136.631
141.742
180.155
177.592
242.335
221.063
320.673
294.089
388.825
13.3848
28.0006
23.0668
34.0944
24.1643
33.6985
23.6476
31.7356
23.2306
29.8002
23.2373
27.8515
24.0892
25.3024
25.8745
22.5401
27.6673
20.9985
27.2665
20.7965
26.7202
20.8625
26.4197
20.6585
26.3592
20.5061
26.2002
20.7455
25.4524
21.5403
24.1901
22.9278
22.3126
24.8181
20.2495
26.2638
19.2148
25.7483
19.15
25.296
18.9438
25.036
18.8176
24.669
19.1275
23.7272
20.0517
22.3665
21.5247
20.686
23.267
18.8942
24.8992
18.0947
24.6395
18.2709
24.4606
18.2949
24.4587
18.3567
24.3059
18.7804
23.5147
19.7202
22.2394
21.0984
20.5892
22.6384
18.7641
24.033
17.7689
23.7087
17.3997
23.449
17.154
23.2348
16.9919
22.8622
17.232
21.8832
18.0451
20.468
19.3707
18.7282
20.9455
16.8614
22.47
15.8507
22.3631
15.4779
22.3922
15.2629
22.4024
15.3154
21.9917
15.6841
21.3443
16.3062
20.4194
17.152
19.2924
18.0707
17.7942
19.4826
15.8302
21.0122
14.279
20.8055
13.6239
20.296
13.3043
19.2446
13.0677
18.023
12.6147
16.4941
12.1101
14.2062
11.842
10.9531
11.7009
6.96017
11.1864
4.12132
7.26688
0.872527
3.20209
-2.72292
-1.32486
-6.76886
-6.43942
-11.0505
-12.0962
-15.3598
-17.8683
-19.4871
-23.1775
-22.4383
-27.9758
-24.5904
-31.9199
-26.7995
-33.1466
-27.3032
-32.9371
-26.508
-31.3564
-25.005
-28.6914
-23.3851
-25.4195
-22.1012
-21.7464
-21.3199
-17.7529
-20.9248
-13.9533
-19.3644
-11.758
-17.231
-9.57618
-14.6983
-7.26092
-11.7708
-4.64313
-8.29233
-1.18921
-4.35432
2.66294
1.03518
7.11128
7.89998
13.295
15.7443
21.274
25.386
32.1119
36.2636
45.8086
49.6296
62.8783
65.2652
83.7661
83.2852
108.748
103.278
139.788
123.648
182.41
146.713
222.887
198.028
270.497
8.67507
35.5606
21.95
35.4042
25.6072
34.1386
25.6058
32.6049
24.8157
30.6579
24.5869
28.7121
24.9905
26.508
25.8955
24.3813
26.6508
23.1228
26.6168
22.217
26.656
21.5745
26.6964
21.1173
26.6199
20.9544
26.3281
21.1882
25.674
21.7982
24.654
22.8222
23.2249
24.0681
21.7486
24.9053
20.8933
24.9639
20.1866
25.0938
19.5962
25.0284
19.3524
24.666
19.5815
23.9216
20.2435
22.8835
21.3076
21.6215
22.5769
20.3204
23.6323
19.6785
23.9364
19.2242
24.3258
18.8776
24.5104
18.8314
24.3563
19.1818
23.7511
19.869
22.7786
20.8534
21.515
21.9629
20.1131
22.8225
19.2457
23.0207
18.4438
23.2085
17.8637
23.2006
17.5775
22.8768
17.7276
22.125
18.2769
21.0411
19.2007
19.7034
20.3309
18.271
21.3123
17.3911
21.7063
16.602
22.1274
16.0786
22.3041
15.9433
22.1282
16.0857
21.6952
16.4888
20.977
17.1115
20.0186
17.9232
18.6777
19.0055
17.0986
19.9314
15.9331
20.0445
14.9458
19.9517
14.2346
19.3908
13.6657
18.4704
13.1369
17.1079
12.7177
14.9853
12.5168
12.1316
12.1151
8.92934
10.4424
6.04299
8.04169
2.81538
4.55508
-0.74019
0.29212
-4.59605
-4.68294
-8.81887
-10.0635
-13.2313
-15.6202
-17.6081
-20.6524
-21.7671
-25.1743
-24.9082
-28.5753
-26.6363
-30.5977
-26.6577
-31.2615
-25.4965
-30.2415
-24.0102
-27.6374
-22.2049
-24.4183
-20.689
-20.9683
-19.4934
-17.7836
-17.9411
-14.4734
-16.6811
-11.7756
-15.2912
-8.93782
-13.3889
-6.15243
-10.8127
-3.30458
-7.48415
0.00848934
-3.12673
3.92937
2.45783
9.05039
8.95771
15.828
16.8295
24.4212
26.3603
35.3559
38.1776
49.2121
52.4911
67.2377
69.794
90.2396
91.182
118.719
116.219
156.564
142.23
199.586
180.319
239.963
228.696
274.019
7.73409
21.6602
16.6978
26.5686
21.174
28.6017
22.8625
28.4473
23.72
27.3131
24.2978
25.836
25.113
24.1684
25.9979
22.7945
26.3741
22.3132
25.8281
22.2494
25.2996
22.251
24.9331
22.212
24.6286
22.3137
24.2039
22.7106
23.4995
23.382
22.5684
24.2545
21.5036
25.058
20.6784
25.2501
20.5
24.6294
20.5122
24.0711
20.4725
23.506
20.567
22.8119
20.9592
21.8929
21.6391
20.879
22.4985
19.9333
23.29
19.2509
23.6791
19.2725
23.3395
19.5346
23.0993
19.7593
22.8525
20.0896
22.4411
20.6505
21.7325
21.3995
20.836
22.2294
19.8947
22.9232
19.1042
23.1695
18.8569
22.7131
18.7393
22.2434
18.6881
21.7239
18.7626
21.0466
19.106
20.1032
19.6952
19.0206
20.4436
17.9521
21.14
17.1005
21.4825
16.8598
21.1956
16.8149
20.935
16.9055
20.595
17.1906
20.084
17.6061
19.472
18.1257
18.7479
18.7118
17.9436
19.3305
16.988
20.0001
16.0484
20.3259
15.5782
19.8148
15.3896
19.0807
15.3293
18.0788
15.2159
16.9253
14.9569
15.5066
14.6685
13.5436
14.1849
11.237
13.3632
8.9539
11.5232
6.56333
8.56883
3.71023
4.76199
0.425138
0.274248
-3.5087
-4.83349
-8.05316
-10.4963
-13.0071
-16.4086
-18.2048
-22.0308
-23.0149
-26.9475
-27.3846
-30.6159
-30.3454
-32.8913
-31.002
-33.3254
-30.4294
-31.6592
-28.9824
-28.6766
-27.0121
-25.2734
-24.8632
-22.1288
-23.0792
-19.1597
-21.4569
-16.6902
-19.251
-14.7112
-17.1532
-12.8909
-14.9748
-10.851
-12.7644
-8.39901
-10.3495
-5.52912
-7.19788
-2.39453
-2.99767
1.72899
2.04701
7.06047
8.25847
13.8969
15.862
22.6892
24.8844
33.925
35.1537
48.2606
47.0048
65.3252
61.4144
86.7336
76.4954
114.893
93.5286
141.083
122.049
169.205
161.646
203.311
7.57104
31.0779
17.2235
30.5658
22.3103
30.4574
24.3297
29.8018
25.0621
28.4935
25.5452
27.0094
25.9826
25.5199
26.301
24.4014
26.2026
23.9575
25.6785
23.5803
25.3565
23.1944
25.1561
22.9074
24.8972
22.8832
24.4799
23.1697
23.8765
23.6577
23.1608
24.2397
22.4137
24.6988
21.8747
24.6503
21.7954
24.2192
21.5956
23.9242
21.331
23.5287
21.2698
22.9462
21.5061
22.2107
21.9479
21.4629
22.4985
20.8084
22.9669
20.4066
23.1507
20.4645
22.9998
20.5005
23.0137
20.4959
22.9342
20.6704
22.6313
21.0863
22.0897
21.6252
21.4281
22.1743
20.7674
22.5874
20.2093
22.6419
20.048
22.355
19.7923
22.1135
19.5624
21.7722
19.5034
21.2335
19.7081
20.4868
20.0786
19.6662
20.5311
18.89
20.8993
18.2967
21.03
18.1306
20.8802
17.9423
20.8143
17.8403
20.6459
17.9444
20.317
18.1793
19.8806
18.5167
19.3292
18.9226
18.6913
19.3615
17.9305
19.7949
17.225
19.9008
16.9256
19.5007
16.6521
19.0217
16.404
18.3436
16.1278
17.4632
15.817
16.2694
15.6261
14.6455
15.1238
12.843
14.0007
10.8434
12.3346
8.66336
10.0445
6.21645
6.71996
3.09427
2.75203
-0.658172
-1.94821
-5.04543
-7.27017
-9.99125
-12.9188
-15.3158
-18.5691
-20.5602
-23.6076
-25.2411
-27.678
-28.4286
-30.275
-29.7734
-31.2361
-29.544
-30.3051
-28.0269
-27.6338
-25.6239
-24.3739
-22.9186
-21.3442
-20.5125
-18.4956
-18.6832
-15.9105
-17.068
-13.7886
-15.2608
-11.5001
-13.3786
-8.98574
-11.3688
-6.28758
-8.85921
-3.46845
-5.3222
0.0490118
-1.09082
4.5731
4.03133
10.3235
10.399
17.6415
18.2922
27.0311
27.9817
39.3284
39.4554
55.0071
53.624
74.2308
70.6328
99.3017
89.0574
127.578
113.355
153.667
144.83
179.46
176.376
203.416
7.10441
20.2041
14.0633
23.0206
18.774
24.8726
21.6111
25.5213
23.2624
25.2856
24.2623
24.5589
25.0407
23.704
25.5029
23.1149
25.4351
23.0503
24.8744
23.0975
24.3768
23.1201
23.9628
23.1622
23.5541
23.3505
23.0794
23.7334
22.5141
24.2145
21.9341
24.6766
21.4185
24.9237
21.2197
24.6266
21.3318
23.9618
21.4357
23.3326
21.4726
22.6338
21.6032
21.8387
21.8861
21.0055
22.2914
20.2674
22.715
19.8215
22.9081
19.6611
22.8472
19.9614
22.4725
20.3267
22.2045
20.668
21.8896
21.0935
21.456
21.6282
20.9008
22.1724
20.3316
22.6151
19.8467
22.8341
19.5954
22.6144
19.6192
22.0695
19.6527
21.5009
19.6985
20.8546
19.8284
20.1066
20.0986
19.2724
20.4329
18.4648
20.7657
17.8311
20.9238
17.4665
20.7794
17.5251
20.3569
17.6822
19.9734
17.9212
19.5327
18.276
19.0206
18.6743
18.4922
19.086
17.9475
19.4748
17.4176
19.8003
16.8862
20.0135
16.5272
19.8357
16.4909
19.2101
16.5634
18.4649
16.6445
17.5649
16.6385
16.5627
16.4636
15.3874
16.1455
13.936
15.5811
12.3647
14.511
10.7372
12.6776
8.74373
10.0479
6.36169
6.76396
3.29467
2.66971
-0.434482
-2.24805
-5.06085
-7.87102
-10.4843
-14.0101
-16.4819
-20.3689
-22.5715
-26.3391
-28.1947
-31.1695
-32.481
-34.2667
-34.4758
-35.036
-34.2015
-33.5403
-32.3101
-30.5949
-29.378
-27.0234
-26.2703
-23.5126
-23.799
-20.4562
-21.7973
-18.2855
-19.6876
-16.5113
-17.8316
-14.8729
-16.0421
-13.0598
-14.4121
-11.0256
-12.6823
-8.81224
-10.3446
-6.23284
-7.25689
-2.899
-3.40951
1.4003
1.36447
6.92795
7.25956
14.1036
14.1137
23.6824
21.9186
35.6754
31.4839
50.1855
42.6744
68.8804
55.6305
88.1241
74.9593
107.268
100.547
130.605
129.6
157.156
9.86659
27.9441
15.6863
27.9712
20.3203
27.7511
22.9831
27.4227
24.4815
26.7555
25.3736
25.8596
25.8925
25.002
26.0311
24.4712
25.7046
24.3878
25.07
24.274
24.5956
24.0925
24.2292
23.9494
23.853
23.9857
23.4172
24.221
22.9533
24.5422
22.5441
24.8186
22.2445
24.8377
22.2227
24.5105
22.4162
23.8844
22.4653
23.3624
22.4064
22.7519
22.4365
22.0591
22.5814
21.3635
22.7842
20.8414
22.9324
20.6052
22.9496
20.5748
22.7826
20.8872
22.4458
21.1772
22.263
21.3987
22.046
21.6986
21.7177
22.0975
21.3001
22.4883
20.8977
22.7599
20.6189
22.7775
20.5098
22.5411
20.6216
22.0351
20.6432
21.5657
20.6218
21.0448
20.6633
20.4252
20.8225
19.7388
21.0027
19.1113
21.1354
18.6716
21.0629
18.4701
20.7929
18.6086
20.3686
18.7233
20.0521
18.8611
19.7163
19.0912
19.33
19.36
18.9322
19.6351
18.5247
19.8825
18.1394
20.0549
17.7763
20.0982
17.5664
19.8676
17.6477
19.2821
17.7309
18.6813
17.7646
18.0022
17.7039
17.2503
17.595
16.3137
17.3294
15.2021
16.7099
14.0989
15.6051
12.8337
14.1178
11.271
12.0332
9.23992
9.24795
6.61429
5.64769
3.19849
1.3528
-1.19293
-3.79232
-6.48451
-9.65762
-12.5049
-15.9989
-18.8708
-22.2312
-24.9232
-27.6952
-29.704
-31.5817
-32.6568
-33.383
-33.3515
-33.0659
-31.8141
-30.4502
-28.603
-26.5398
-24.8418
-22.5512
-21.7268
-19.3801
-19.5369
-17.0565
-17.845
-15.1462
-16.0408
-13.1425
-14.2295
-10.9516
-12.4872
-8.64587
-10.5581
-6.33251
-7.95962
-3.45596
-4.85381
0.138145
-0.967806
4.73472
3.92091
10.6122
10.0062
18.525
17.0875
29.0389
25.7989
41.9338
36.9685
57.9856
49.7963
76.7365
66.8555
95.3803
88.5407
114.577
111.44
134.145
133.769
153.326
7.33274
20.359
13.0613
21.4114
17.3408
22.7791
20.392
23.5549
22.4301
23.7842
23.7198
23.6365
24.5395
23.379
24.8833
23.2764
24.7347
23.4603
24.2025
23.6284
23.7103
23.7102
23.266
23.779
22.83
23.9653
22.3943
24.2711
21.9905
24.5746
21.7058
24.7718
21.5633
24.7577
21.6206
24.3368
21.9201
23.6341
22.1123
22.9334
22.2022
22.1571
22.2982
21.3353
22.3861
20.63
22.4761
20.1382
22.5354
19.9206
22.4877
19.9516
22.2822
20.3768
21.8891
20.8331
21.6121
21.2481
21.3038
21.7004
20.932
22.1732
20.5328
22.5609
20.2165
22.7384
20.0392
22.7092
19.9979
22.3464
20.1906
21.7144
20.3265
21.0762
20.4116
20.3771
20.5245
19.6359
20.6812
18.9224
20.7825
18.3336
20.7963
17.9258
20.6966
17.7489
20.3092
17.9736
19.782
18.2559
19.335
18.5768
18.8784
18.9547
18.4048
19.3192
17.9677
19.6382
17.5762
19.8751
17.2678
19.9764
17.0346
19.9394
16.9425
19.5798
17.1378
18.8991
17.373
18.1826
17.5581
17.387
17.6463
16.5293
17.5447
15.6303
17.2248
14.7012
16.5617
13.713
15.517
12.4722
14.0015
10.89
11.8503
8.95249
9.0217
6.39056
5.43873
2.92513
1.04334
-1.54893
-4.30333
-7.12221
-10.6103
-13.6507
-17.6593
-20.7924
-24.9235
-27.8344
-31.5465
-33.7916
-36.3319
-37.3919
-38.4018
-38.077
-37.3294
-36.0304
-33.9442
-32.1591
-29.3384
-27.8168
-24.7599
-24.3018
-21.1918
-21.8764
-18.9301
-20.0249
-17.4076
-18.4799
-16.1992
-16.9597
-14.7374
-15.7584
-13.0881
-14.6116
-11.3054
-13.0898
-9.29503
-10.8754
-6.71186
-8.03606
-3.34633
-4.45209
1.10869
-0.248998
7.28773
4.56044
15.246
10.5105
24.8394
17.9305
37.0166
27.3194
49.5464
41.2229
63.8675
58.5785
80.7127
78.8611
100.392
100.657
121.611
11.4303
26.6174
15.8357
26.1001
19.3409
25.946
21.9302
25.6884
23.6462
25.3338
24.7218
24.9084
25.32
24.5419
25.4847
24.4005
25.1779
24.5529
24.5771
24.6162
24.0645
24.592
23.6115
24.5363
23.17
24.5878
22.7449
24.7421
22.4321
24.912
22.2828
25.01
22.2365
24.9338
22.4674
24.4548
22.8692
23.7504
23.0585
23.1877
23.0715
22.5174
23.0619
21.762
23.0599
21.0911
23.0492
20.7298
22.8967
20.5971
22.7834
20.6345
22.4818
21.0709
22.0683
21.5092
21.7946
21.8805
21.5181
22.2555
21.2125
22.6234
20.9155
22.9021
20.7171
22.9938
20.6626
22.9119
20.7622
22.5099
21.0498
21.9074
21.2286
21.3205
21.315
20.7028
21.3819
20.0533
21.4594
19.4427
21.4941
18.9884
21.3676
18.6926
21.0475
18.6152
20.5732
18.905
20.0099
19.1746
19.5656
19.4443
19.1524
19.7472
18.7541
20.0314
18.4063
20.2572
18.118
20.3893
17.9293
20.3974
17.805
20.2518
17.8597
19.8571
18.1482
19.2144
18.4275
18.5881
18.6407
17.9434
18.7583
17.311
18.6711
16.6947
18.3561
16.0803
17.7739
15.3924
16.9356
14.509
15.7325
13.4366
13.9691
11.9675
11.6242
9.83012
8.62515
6.77079
4.82273
2.60738
-0.0102933
-2.7202
-6.00773
-9.21514
-13.0128
-16.611
-20.5673
-24.2475
-27.8645
-30.9897
-33.7564
-35.7992
-37.2594
-37.9732
-37.8668
-37.1399
-35.2262
-33.1292
-30.01
-27.6931
-24.3206
-23.2001
-20.3072
-20.3715
-17.9705
-18.5123
-16.317
-16.7677
-14.5843
-14.9957
-12.5921
-13.5388
-10.6093
-12.2196
-8.79033
-10.5095
-6.74124
-8.4572
-4.13287
-5.82565
-0.748683
-2.49866
3.92567
1.44102
10.4782
6.15559
18.8662
12.4956
29.0357
20.849
40.2382
32.7451
52.8343
47.1003
67.0679
63.4773
82.5152
80.6453
98.6367
97.8557
114.201
7.58364
20.8798
12.9424
20.9377
16.9097
21.6137
19.7808
22.2998
21.7756
22.7415
23.1154
22.9539
23.9574
23.0809
24.2833
23.3192
24.1875
23.6875
23.7236
23.9725
23.2449
24.1109
22.7529
24.203
22.2999
24.3589
21.919
24.5573
21.6639
24.6842
21.6098
24.7976
21.6815
24.6469
21.9575
24.1888
22.3943
23.4752
22.7321
22.7897
22.7786
22.0433
22.763
21.2611
22.6556
20.5549
22.5083
20.1013
22.3307
19.9207
22.1337
20.1026
21.8918
20.6021
21.4916
21.1499
21.22
21.6257
20.934
22.0944
20.6371
22.5121
20.3636
22.7888
20.2093
22.8428
20.2241
22.6839
20.3703
22.2426
20.667
21.5618
20.8839
20.8867
20.9691
20.2052
21.0053
19.4976
21.0251
18.8375
21.0073
18.3331
20.8674
18.0037
20.5153
17.9833
19.9952
18.2866
19.3825
18.6505
18.8953
19.0299
18.4434
19.4256
18.0141
19.7644
17.6602
20.011
17.3934
20.1281
17.2449
20.0976
17.2208
19.9102
17.308
19.4767
17.6184
18.7752
17.9674
18.0851
18.2428
17.3724
18.4061
16.6936
18.3212
16.1321
17.9921
15.5735
17.4503
14.8926
16.6583
14.0703
15.4191
13.0545
13.6388
11.6796
11.4083
9.61296
8.58314
6.64802
4.91749
2.62264
0.101093
-2.67828
-6.04182
-9.39575
-13.5376
-17.3936
-22.0683
-26.0753
-30.7801
-34.3492
-38.0996
-40.4172
-42.3623
-42.9095
-42.5784
-41.3241
-39.0043
-36.5693
-32.8057
-30.0801
-26.0577
-24.4663
-21.1953
-21.1771
-18.8599
-19.8552
-17.8146
-18.8878
-17.0803
-17.7677
-15.882
-16.8152
-14.5757
-16.0469
-13.1868
-15.1301
-11.6283
-13.7279
-9.6739
-11.7469
-7.02634
-9.48354
-3.19845
-6.95847
1.99413
-3.81731
8.11835
0.781686
15.0285
7.38069
22.9283
16.1971
32.5973
27.5076
44.3287
41.3847
58.5916
57.3904
74.8913
74.6653
91.8197
13.3124
25.7797
16.6949
24.8265
19.3547
24.4497
21.3915
24.308
22.9132
24.193
23.9769
24.0827
24.6117
24.0659
24.8558
24.2038
24.6468
24.5509
24.1451
24.7659
23.684
24.8367
23.2022
24.8522
22.6539
24.9146
22.229
24.9732
22.0926
24.9985
22.0641
25.0908
22.2355
24.9344
22.6383
24.4282
23.1875
23.6951
23.5905
23.0367
23.6239
22.4454
23.5441
21.7439
23.361
21.0885
23.1169
20.702
22.818
20.5191
22.6075
20.5691
22.2348
21.0794
21.7665
21.6171
21.4618
22.1357
21.1425
22.5692
20.8785
22.911
20.6882
23.1045
20.6238
23.1391
20.719
22.9699
20.9738
22.5293
21.3844
21.897
21.6733
21.2619
21.8166
20.5896
21.8587
19.9282
21.8609
19.3769
21.7291
19.0004
21.4623
18.7298
20.9902
18.749
20.3874
19.0823
19.735
19.4278
19.2084
19.7783
18.7561
20.135
18.3661
20.4325
18.0675
20.6266
17.8722
20.6865
17.8075
20.5935
17.8487
20.3493
18.0573
19.88
18.4801
19.2122
18.885
18.5814
19.2112
17.982
19.4054
17.4875
19.3134
17.1643
19.0261
16.8302
18.599
16.4298
17.9387
15.9712
16.9361
15.3952
15.541
14.3378
13.8193
12.6437
11.5367
10.1186
8.41547
6.51627
4.10986
1.53824
-1.68595
-5.06471
-9.12161
-13.2803
-17.9679
-22.632
-27.4336
-31.9236
-36.0847
-39.4608
-42.1636
-44.0104
-44.6941
-44.698
-42.7552
-40.4561
-36.0501
-32.4737
-27.3218
-24.9578
-21.0884
-20.4722
-18.4135
-18.4796
-17.1897
-17.0514
-15.6542
-15.3847
-13.964
-14.1498
-12.3145
-13.4475
-10.956
-12.5546
-9.70383
-11.5173
-8.06735
-10.2859
-5.53169
-8.77922
-1.91601
-6.81557
3.06598
-3.89363
8.82947
0.94138
15.1606
7.8235
22.9524
16.5948
32.279
27.1747
43.1512
39.225
55.1851
52.8473
68.4111
67.4471
81.7621
9.20371
21.3652
13.8197
20.9562
17.2451
21.161
19.6459
21.638
21.396
22.0954
22.6392
22.4762
23.4317
22.8108
23.7706
23.2925
23.7605
23.8202
23.3767
24.2373
22.9504
24.3868
22.5329
24.4535
22.029
24.5453
21.5853
24.6585
21.463
24.6583
21.4911
24.7469
21.7473
24.5804
22.1925
24.1415
22.7831
23.46
23.2561
22.7663
23.3885
22.0639
23.2887
21.3432
23.0026
20.6107
22.6123
20.0607
22.2214
19.8044
21.8762
20.0966
21.6374
20.6977
21.2075
21.3573
20.9232
21.9144
20.6609
22.3975
20.4429
22.7679
20.2745
22.9476
20.26
22.9415
20.3861
22.7103
20.6618
22.2401
21.0802
21.5362
21.406
20.8255
21.5131
20.144
21.4708
19.4767
21.3767
18.8794
21.2401
18.4082
20.9487
18.1298
20.4264
18.1807
19.794
18.5206
19.0977
18.9474
18.5665
19.3789
18.1149
19.7978
17.7244
20.1272
17.4402
20.3257
17.2728
20.3689
17.243
20.2477
17.3371
19.9655
17.5654
19.4783
17.9838
18.7584
18.4355
18.0826
18.7866
17.4474
18.9768
16.9521
18.8757
16.6541
18.6236
16.3363
18.2294
15.9846
17.6186
15.6264
16.61
15.1566
15.2953
14.1642
13.792
12.6503
11.7647
10.3816
8.95783
7.12602
4.98856
2.50727
-0.529717
-3.85767
-7.9416
-12.2229
-17.3334
-22.3791
-28.1663
-33.3195
-38.7162
-42.95
-46.451
-48.4889
-49.3077
-48.891
-46.5709
-43.9086
-38.8141
-34.445
-28.1644
-24.5329
-20.0388
-19.3962
-17.8031
-18.8073
-17.9191
-19.2629
-18.0171
-18.5545
-16.7701
-17.4703
-15.7071
-16.8618
-14.8552
-16.2481
-13.7762
-15.4121
-12.3531
-14.4219
-10.1837
-13.2359
-7.09053
-11.9582
-3.17782
-9.56731
0.891818
-5.91383
5.60607
-0.931103
11.3165
5.75265
18.402
14.4083
27.5079
24.9954
38.5323
37.1742
51.3475
51.0093
65.4498
15.1238
25.2025
17.8127
23.8785
19.7729
23.4474
21.1356
23.3631
22.3434
23.3164
23.3071
23.3623
23.9552
23.5712
24.2259
23.9111
24.1298
24.4431
23.717
24.8744
23.2973
24.9645
22.9328
24.9712
22.4114
24.9644
21.9271
24.9457
21.8234
24.9063
21.8424
25.0075
22.1438
24.8987
22.6841
24.3972
23.3979
23.641
24.0379
22.9151
24.122
22.4232
24.0016
21.8055
23.7007
21.1679
23.2204
20.6474
22.7835
20.3297
22.4287
20.3656
21.9935
20.9747
21.4292
21.7008
21.0511
22.3292
20.7661
22.7978
20.5771
23.1164
20.4682
23.2365
20.5309
23.2359
20.7375
23.0168
21.1119
22.5675
21.6578
21.9117
22.0879
21.2227
22.327
20.5156
22.2696
19.8769
22.157
19.3426
21.928
18.979
21.5518
18.7407
20.9547
18.8102
20.2276
19.1542
19.4638
19.5598
18.8663
19.9862
18.3913
20.399
18.0183
20.7206
17.766
20.8958
17.646
20.9053
17.6785
20.7441
17.8394
20.4292
18.1583
19.9089
18.6878
19.1979
19.2076
18.5552
19.61
18.006
19.8041
17.6436
19.727
17.4738
19.5283
17.297
19.2322
17.1335
18.7279
17.0137
17.915
16.8164
16.8541
16.1401
15.7017
14.9676
14.1241
13.123
11.8078
10.3319
8.35265
6.14501
3.25746
0.0545648
-3.98397
-8.3816
-13.6741
-19.1849
-25.3988
-31.3714
-37.5105
-42.8757
-47.7436
-51.2269
-53.4685
-54.7637
-53.6543
-51.974
-46.7044
-41.5478
-33.3974
-27.8409
-21.3348
-19.178
-16.9389
-17.3586
-16.7999
-16.7046
-16.1233
-15.7716
-14.8744
-14.4686
-13.455
-14.0514
-12.7045
-13.7135
-12.1764
-13.6233
-11.5414
-13.4927
-10.1677
-13.1679
-7.64767
-12.3913
-4.41586
-10.766
-0.886002
-7.84484
3.09949
-3.74408
8.12569
1.78177
14.4199
8.78192
22.0173
17.4957
30.9783
28.0939
41.7203
40.4728
53.5663
11.1417
21.982
15.4998
21.228
18.1303
21.2153
19.8216
21.3837
21.3119
21.7219
22.3736
22.129
22.9976
22.649
23.3606
23.2177
23.3854
23.9284
23.0213
24.5319
22.6766
24.6981
22.3642
24.7801
21.8686
24.7387
21.4728
24.6302
21.2656
24.5425
21.3387
24.5829
21.6999
24.5084
22.3272
24.0946
23.1281
23.4144
23.7934
22.7787
24.0473
22.1511
23.8991
21.5356
23.4443
20.8459
22.8047
20.0707
22.1598
19.6835
21.6928
19.9803
21.46
20.7622
20.9157
21.5559
20.6263
22.1947
20.3987
22.6779
20.2742
22.9894
20.2186
23.1063
20.276
23.0465
20.4699
22.776
20.8721
22.2647
21.4693
21.5303
21.9609
20.8123
22.1409
20.1511
21.977
19.5307
21.7486
18.9806
21.4715
18.5469
21.0892
18.3
20.4293
18.3702
19.6717
18.7408
18.859
19.2152
18.2596
19.6933
17.8017
20.1439
17.4484
20.4801
17.2316
20.6384
17.1552
20.615
17.2243
20.4174
17.4209
20.0643
17.7607
19.5158
18.2918
18.7633
18.8444
18.0876
19.2582
17.5253
19.4522
17.138
19.4001
16.974
19.2194
16.836
18.947
16.7592
18.4816
16.7075
17.7464
16.6947
16.6975
16.1528
15.7787
15.1768
14.5152
13.6586
12.6145
11.3323
9.70253
7.74084
5.23214
2.28617
-1.44565
-5.70242
-10.9566
-16.6897
-23.4242
-30.1225
-37.3569
-43.6599
-49.5084
-53.7763
-56.7606
-58.8634
-57.5602
-56.1856
-50.5402
-44.3853
-34.4489
-27.1342
-18.488
-15.3111
-14.3863
-15.7964
-17.6293
-20.0262
-19.4788
-19.276
-17.5325
-17.6951
-16.2199
-17.1689
-16.0742
-16.8512
-15.492
-16.3529
-14.6969
-16.2074
-13.4633
-15.9637
-11.4515
-15.4363
-8.83412
-13.942
-6.18643
-11.8417
-3.03241
-8.77829
0.604061
-4.42587
5.31789
1.41987
11.5751
8.88331
19.0329
17.6386
28.1707
28.282
40.6615
17.4406
23.9956
19.2543
23.1067
20.316
22.9002
21.1026
22.7796
21.9014
22.6667
22.7813
22.8193
23.3326
23.1531
23.6278
23.6033
23.6406
24.3174
23.249
24.9116
22.9371
25.1529
22.5749
25.1693
22.2079
25.0097
21.792
24.8714
21.5692
24.7967
21.5727
24.9086
21.923
24.7985
22.5729
24.298
23.5167
23.4948
24.3752
22.8312
24.5152
22.4366
24.4445
21.999
24.0722
21.4068
23.471
20.674
22.8143
20.0296
22.2698
19.9956
21.7119
20.8858
20.9419
21.8184
20.5194
22.4796
20.3818
22.9219
20.318
23.2478
20.2693
23.3654
20.3986
23.3113
20.6685
23.0491
21.1803
22.554
21.9116
21.8752
22.5109
21.2115
22.8103
20.5139
22.6458
19.8836
22.3892
19.3162
22.0738
18.9688
21.6078
18.8243
20.951
18.8403
20.0782
19.1813
19.1562
19.6432
18.4715
20.1511
17.9828
20.6278
17.6356
20.9826
17.439
21.1361
17.3923
21.0995
17.5096
20.8814
17.7613
20.5043
18.181
19.9139
18.8316
19.1138
19.4889
18.4356
19.963
17.9224
20.1838
17.6075
20.151
17.4878
19.9753
17.4345
19.7415
17.4423
19.3703
17.5798
18.7062
17.7686
17.827
17.4658
17.1384
16.7703
16.2099
15.622
14.7497
13.7847
12.403
10.7933
8.56738
5.94679
2.42122
-1.644
-6.97203
-12.8191
-20.3098
-27.6983
-36.2439
-44.0912
-51.852
-57.4269
-61.7673
-65.6597
-66.0876
-66.3218
-62.2885
-56.5689
-44.9148
-34.7727
-22.0703
-16.1321
-11.904
-13.0609
-13.4827
-15.0143
-17.293
-17.1305
-15.884
-15.0112
-13.5603
-14.0269
-13.4417
-14.4117
-13.9326
-14.9965
-14.1084
-15.6316
-13.702
-15.8802
-12.2987
-15.8791
-10.1447
-15.4363
-7.99002
-14.057
-5.7685
-12.0743
-2.73022
-9.13251
0.896451
-4.89687
5.70933
0.525099
11.3094
6.81239
18.083
15.3232
27.6873
15.2249
22.1791
17.5607
21.5809
19.183
21.3807
20.5494
21.3076
21.6395
21.4493
22.2531
21.9878
22.6815
22.5322
23.0539
23.0805
22.9867
24.0636
22.6122
24.7105
22.3646
25.1313
22.1514
25.1182
21.8617
24.9253
21.4501
24.6636
21.1131
24.4657
21.0568
24.4132
21.6071
24.4184
22.3515
23.9618
23.4478
23.2217
24.2674
22.7461
24.6627
22.2591
24.4754
21.8412
23.9578
21.1692
23.1582
20.2187
22.2731
19.6042
21.7273
19.7602
21.2405
20.911
20.4841
21.913
20.2003
22.532
20.0938
22.9328
20.0959
23.2168
20.1291
23.2759
20.2249
23.1909
20.4438
22.8418
21.0087
22.2305
21.8681
21.4325
22.6058
20.7725
22.8175
20.2939
22.5731
19.6931
22.1755
19.1182
21.7287
18.7044
21.2801
18.4846
20.5885
18.615
19.638
19.0311
18.5899
19.5411
17.8866
20.0286
17.4194
20.518
17.0997
20.884
16.9738
20.9893
17.001
20.8919
17.1697
20.6209
17.4679
20.1887
17.931
19.5464
18.6206
18.692
19.2984
18.0037
19.7634
17.5121
19.9581
17.2104
19.931
17.1051
19.7706
17.1169
19.5392
17.1969
19.2142
17.4161
18.6289
17.7371
17.7944
17.5751
17.2975
17.0849
16.6528
16.2436
15.5935
14.8541
13.8119
12.5055
10.7348
8.50781
5.49139
1.81166
-3.13546
-8.85695
-16.3096
-24.2122
-33.4148
-41.998
-50.6434
-56.7625
-61.5517
-66.9016
-67.997
-70.1107
-67.4486
-63.434
-49.3436
-37.0356
-20.2588
-9.72492
-6.7773
-10.0171
-17.4929
-20.3402
-20.7439
-20.8904
-18.3754
-17.7295
-16.105
-17.0411
-16.2701
-17.0789
-15.7371
-16.7255
-15.676
-17.517
-15.6267
-17.9314
-14.6212
-18.0057
-12.8261
-17.2255
-11.3686
-16.5243
-9.5978
-15.2165
-7.77875
-13.5391
-5.7901
-10.5383
-2.24884
-5.23956
1.68831
-0.746978
6.25433
5.91438
15.4188
19.5947
23.6838
20.3386
22.8511
20.7708
22.4274
21.2003
22.2843
21.7753
22.3114
22.3385
22.5061
22.8233
22.855
23.1385
23.3842
23.1423
24.2462
22.7461
24.9411
22.4406
25.2167
22.3811
25.2181
22.1753
25.1409
21.7998
24.943
21.4688
24.8635
21.2636
24.8863
21.6294
24.6538
22.3055
24.0445
23.5857
23.1073
24.5878
22.6946
24.8085
22.4429
24.7297
22.2717
24.4938
21.795
23.9091
20.8759
22.9109
19.8922
22.0543
19.7652
21.1384
20.959
20.2842
22.0522
19.9753
22.5862
20.0724
22.9284
20.107
23.3454
20.0687
23.4823
20.2135
23.4058
20.5378
23.0163
21.2473
22.3665
22.2276
21.6315
22.9678
21.0576
23.2741
20.6262
23.0183
19.9786
22.571
19.336
22.1538
18.9871
21.7645
18.8423
21.0106
18.9089
19.9522
19.3126
18.7935
19.7702
18.0221
20.3451
17.5033
20.8758
17.1867
21.2476
17.0985
21.3473
17.1297
21.267
17.3174
20.9925
17.6439
20.5448
18.1806
19.8446
19.0157
18.8887
19.8262
18.1783
20.3264
17.7381
20.5422
17.4563
20.5035
17.3626
20.3409
17.3922
20.0954
17.5362
19.7645