/*--------------------------------*- C++ -*----------------------------------*\
| =========                 |                                                 |
| \\      /  F ield         | OpenFOAM: The Open Source CFD Toolbox           |
|  \\    /   O peration     | Version:  4.1                                   |
|   \\  /    A nd           | Web:      www.OpenFOAM.org                      |
|    \\/     M anipulation  |                                                 |
\*---------------------------------------------------------------------------*/
FoamFile
{
    version     2.0;
    format      ascii;
    class       volScalarField;
    location    "548";
    object      p;
}
// * * * * * * * * * * * * * * * * * * * * * * * * * * * * * * * * * * * * * //

dimensions      [0 2 -2 0 0 0 0];

internalField   nonuniform List<scalar> 
204246
(
134.405
1.45213
46.7102
29.6083
25.3957
32.5774
20.8215
32.5426
19.4158
32.3245
18.6911
32.8868
17.0668
33.1374
18.2555
30.4736
24.6449
19.1086
31.3706
16.5981
32.5875
16.9371
31.1859
17.6661
31.0112
17.4277
31.8284
15.5956
32.6638
15.2347
32.5531
15.5774
31.4795
18.016
27.5498
23.9356
16.9674
29.3858
15.3214
28.6293
15.1968
28.0893
14.182
27.9637
11.5224
26.8421
10.9122
23.241
10.2718
18.3828
8.13743
12.5791
8.09346
0.193138
3.03197
-6.00009
-3.93572
-14.1203
-11.5725
-23.1261
-18.7092
-33.8373
-25.0552
-41.7556
-30.527
-45.7635
-35.0228
-43.7798
-36.6788
-35.6946
-37.4752
-28.2353
-29.0985
-19.3012
-18.5908
-8.51159
-9.92047
2.40131
-3.37723
11.1513
2.98302
17.3124
8.76934
19.8815
13.8735
21.1499
21.0616
15.4225
26.447
15.3278
28.2883
15.3997
29.9056
13.8181
31.1311
13.5336
31.2768
13.5428
30.7673
14.3367
28.5902
15.1539
27.4195
15.8102
25.2789
19.2227
15.3564
23.6661
11.9499
24.5416
8.4103
23.7221
7.31898
20.9602
5.61053
18.1599
3.36764
14.9433
0.826452
11.1243
-1.49186
5.84143
-0.320944
-7.98838
0.534847
-12.8234
-2.58085
-17.4068
-5.68973
-21.4933
-8.24285
-24.5459
-10.0664
-26.4691
-11.1627
-26.9895
-11.9689
-25.4335
-14.1337
-18.7667
-23.5416
-11.3134
-24.6556
-8.54861
-23.6905
-6.72042
-22.4556
-5.26747
-21.1037
-3.96033
-19.6836
-2.78336
-17.9373
-2.03965
-14.8362
-3.10868
-7.38849
-11.3885
0.771559
-11.7072
4.40542
-9.45117
6.88071
-5.62211
9.73046
-0.900367
13.7015
4.90829
18.8703
11.9429
25.2191
20.9626
33.2453
32.542
42.773
49.3351
51.5653
65.4408
69.9767
83.2973
93.0425
106.423
120.762
135.67
155.608
173.439
201.727
224.387
268.286
297.233
384.963
400.887
607.927
50.0965
29.9898
27.7049
32.4288
25.2999
29.7472
24.129
28.5294
23.4879
27.9817
23.0006
27.9287
22.8534
26.9167
24.1908
24.6862
27.3436
21.7382
27.1906
21.9201
26.8486
22.4462
26.4435
22.2805
26.5914
21.8771
27.0247
21.3958
26.7863
21.4304
26.332
21.8475
25.1861
23.2147
23.1232
26.002
20.3486
25.2384
20.5657
24.4619
20.0747
24.1005
19.1897
23.6253
18.1823
21.7245
16.9473
19.7687
15.4905
16.7851
13.6068
11.5894
12.3538
5.38701
4.9068
-0.368275
-2.86499
-7.58371
-10.9822
-16.4211
-19.4406
-25.978
-28.0317
-33.6915
-35.4537
-38.8323
-40.5064
-40.4307
-41.5947
-37.5762
-38.7626
-33.0027
-31.5723
-24.9071
-21.3943
-14.9025
-11.2177
-4.66871
-2.24804
3.53687
5.06582
9.80459
11.1362
13.7854
15.8684
15.6941
20.5336
17.1267
22.7614
18.8529
23.7402
19.4476
24.8469
19.4472
25.0484
19.6385
24.9786
19.8111
24.4865
20.2033
23.6641
20.0859
22.8161
20.4812
20.9119
22.2812
17.6926
21.2944
16.3453
20.6239
14.8686
18.7553
13.5681
16.8079
11.5751
14.6269
9.15676
11.8669
6.69164
8.15884
4.67403
2.69673
4.06253
-2.7814
-1.89826
-7.2527
-5.23827
-11.3848
-8.92596
-15.0505
-12.4696
-18.0779
-15.2435
-20.2834
-17.0466
-21.1946
-18.2931
-20.2314
-19.8796
-16.9211
-21.6994
-15.8735
-20.4242
-14.5474
-18.9542
-13.08
-17.4948
-11.7207
-16.1
-10.4739
-14.6958
-9.41141
-13.0176
-8.77401
-10.4698
-9.24206
-6.22664
-10.1985
-4.38645
-8.24389
-2.36286
-5.69964
0.108266
-2.85048
3.1546
0.727077
6.97715
5.3317
11.7893
11.2317
17.2517
19.0355
24.2621
28.8424
32.4834
41.2584
44.9571
54.0476
60.6139
70.1475
79.8336
90.3013
103.34
114.929
132.109
144.925
168.134
181.563
216.814
223.46
298.18
263.62
398.3
24.8393
35.8398
29.6168
31.8612
27.0221
29.592
24.8408
28.537
23.8369
27.9719
23.3095
27.6179
23.1889
26.8446
24.0019
25.2303
25.7372
23.192
26.4192
22.4437
26.6541
22.351
26.5305
22.2371
26.5124
21.9938
26.6259
21.6655
26.5437
21.5929
26.1991
21.9108
25.292
22.8798
23.4966
24.3462
21.5805
24.5905
20.7665
24.405
20.1228
24.0307
19.3539
23.4041
18.421
22.2823
17.5867
19.5337
16.2493
16.0797
14.2381
11.4774
10.8559
6.47276
5.46211
0.499629
-1.4881
-6.88209
-9.51436
-15.2143
-18.487
-24.1575
-28.005
-32.5704
-36.0165
-38.5236
-41.2983
-40.9116
-42.5773
-39.3877
-40.1735
-34.3435
-33.1249
-25.9407
-23.0563
-15.725
-12.4337
-5.8359
-2.48659
2.83648
5.82452
9.35661
11.8895
13.9853
16.4022
16.8253
20.0211
18.5888
22.1037
19.504
23.6239
19.8255
24.6602
19.8508
25.0834
19.8843
25.1187
19.9579
24.7514
20.1133
24.0376
20.1435
23.0452
20.4111
21.3145
21.1391
18.8096
20.9597
16.9518
20.3646
15.2657
18.9803
13.7376
17.0369
11.9222
14.6873
9.77772
11.6657
7.58079
7.82214
5.52973
3.11226
2.56219
-1.64813
-1.32544
-6.04446
-5.65441
-10.2283
-9.49944
-14.136
-12.788
-17.4964
-15.2866
-19.9605
-17.0046
-21.0981
-18.2612
-20.5627
-19.5771
-18.315
-20.5277
-16.5982
-20.015
-14.7836
-18.8079
-13.1371
-17.3937
-11.6596
-15.9676
-10.3334
-14.5048
-9.22374
-12.7714
-8.52355
-10.3172
-8.62525
-7.10153
-8.7128
-4.63599
-7.60519
-2.16945
-5.55493
0.152663
-2.45573
2.85294
1.48771
6.42793
6.30575
11.1359
12.3025
17.2204
19.7776
24.7643
29.3135
34.4088
40.9458
45.9696
54.9903
61.6017
71.8485
81.5179
92.7833
106.331
118.859
137.442
151.319
176.976
191.659
231.36
239.285
315.444
294.173
382.953
10.8162
26.2589
21.8978
28.3649
24.07
27.8754
24.6246
27.0186
24.626
26.3766
24.5992
25.9442
24.8138
25.1465
25.5121
24.1165
26.3154
23.6376
25.7363
23.8207
25.3162
24.0092
25.13
23.8697
25.1175
23.6407
25.1137
23.5089
24.8211
23.5647
24.3746
23.8431
23.6671
24.4503
22.7987
24.9237
22.3672
24.1218
22.3709
23.5496
22.0354
23.1288
21.4737
22.539
20.689
21.428
19.7799
20.016
18.6483
17.3407
16.6412
13.8902
13.5603
9.3871
8.14208
3.85017
1.44803
-3.21092
-6.58902
-11.7374
-15.7515
-21.1213
-25.7033
-30.3433
-35.1341
-38.1042
-42.2059
-42.6726
-45.2188
-42.843
-43.4325
-38.8783
-36.9319
-30.887
-27.019
-20.4489
-15.9422
-9.73228
-5.497
-0.559763
3.58493
6.9229
10.3487
12.1678
15.2525
15.5344
18.9525
18.2955
20.8517
20.312
22.0962
21.051
22.8649
21.4193
23.1
21.6748
23.075
21.8265
22.8064
21.9138
22.4159
21.8227
21.7678
21.8961
20.6091
22.1094
19.7066
20.7982
18.7185
19.678
17.709
18.0636
16.4083
16.3309
14.58
14.3486
12.4286
11.7259
10.009
8.45125
7.49544
4.49193
4.36764
0.432722
-0.356829
-3.67364
-5.19726
-7.82063
-9.65802
-11.8938
-13.6885
-15.4883
-17.0233
-18.139
-19.3293
-19.6424
-20.5865
-19.6806
-21.1822
-18.771
-20.7543
-18.1637
-19.4371
-17.0211
-17.8557
-15.6672
-16.3023
-14.319
-14.8669
-13.1074
-13.485
-12.1227
-11.972
-11.3777
-10.1343
-10.8214
-8.387
-9.65656
-7.08325
-7.94931
-5.5873
-5.84498
-3.52805
-3.44363
-0.992782
-0.460848
2.27364
3.2742
6.41608
8.01907
11.4335
14.2696
17.7615
22.0446
25.6392
31.8697
36.0216
42.9732
49.0984
56.4447
65.114
72.9493
84.5402
92.8517
108.068
116.849
137.418
144.517
177.558
172.444
229.932
216.796
287.893
11.8042
26.8563
21.7535
27.1667
24.5823
27.0338
25.0552
26.6835
24.9348
26.2464
24.7962
25.7891
24.9086
25.1665
25.2433
24.5049
25.4989
24.3051
25.1984
24.1731
25.0853
24.0463
25.0535
23.8629
24.9756
23.719
24.8565
23.662
24.6195
23.6437
24.2729
23.7605
23.7085
24.0003
23.106
24.053
22.8629
23.6436
22.5242
23.3793
22.0242
23.0949
21.6067
22.4871
20.9971
21.3745
20.1064
19.7031
18.8465
17.4296
16.7582
14.4153
13.7011
10.6049
9.14901
5.35145
3.12097
-1.43903
-4.48363
-9.73028
-13.6842
-19.2368
-24.0261
-29.1871
-34.1426
-38.0895
-42.381
-44.0978
-46.7806
-45.552
-45.9888
-41.8418
-39.717
-33.3756
-29.3965
-22.1683
-17.5944
-10.7369
-6.20016
-0.753468
3.34034
7.01865
10.5921
12.6163
15.6498
16.4507
18.9081
19.188
21.0058
20.6629
22.2197
21.4498
22.9942
21.8558
23.2551
22.0157
23.3053
22.0956
23.0993
22.0781
22.7173
21.9734
22.0247
21.9349
21.0572
21.5218
20.2667
20.7797
19.2218
19.6744
18.1205
18.3016
16.756
16.6705
15.0458
14.6649
13.0252
12.0765
10.6774
8.90255
7.88569
5.34141
4.47087
1.52419
0.415899
-2.69517
-4.25806
-6.99688
-8.7754
-11.1727
-12.9689
-14.845
-16.544
-17.7887
-19.077
-19.5824
-20.5428
-20.155
-20.9396
-19.8037
-20.3828
-18.9055
-19.1248
-17.4495
-17.584
-15.8338
-16.0244
-14.2739
-14.5178
-12.8719
-13.0471
-11.7498
-11.4716
-10.8813
-9.82271
-9.81398
-8.1439
-8.6494
-6.87091
-7.08723
-5.22546
-5.2281
-3.18446
-2.83145
-0.548371
0.144718
2.80922
3.9212
7.03185
8.81728
12.2943
15.0602
18.9494
22.9861
27.3108
32.7625
37.9932
44.7393
51.616
59.3727
68.6564
77.2994
89.749
99.1197
115.569
125.215
147.718
155.481
189.825
186.768
236.055
224.692
269.79
9.54002
21.7142
18.6577
23.7662
22.5484
25.0922
24.0825
25.5179
24.7419
25.4168
25.0573
25.1303
25.3109
24.7108
25.5676
24.3774
25.6156
24.4594
25.1363
24.6165
24.852
24.6644
24.7052
24.5795
24.5481
24.3992
24.3683
24.3038
24.122
24.356
23.7679
24.4433
23.4393
24.5371
23.1438
24.3613
23.2495
23.7928
23.3029
23.3935
23.0559
23.0675
22.5883
22.7315
22.2286
21.9269
21.558
20.8144
20.4541
19.1018
18.7042
16.5309
15.9208
12.9758
11.6921
8.1535
5.92904
1.73068
-1.58092
-6.4374
-10.868
-16.2375
-21.6688
-27.0999
-33.0488
-37.6585
-43.1704
-45.8493
-49.6651
-49.4417
-50.5026
-47.2142
-45.1229
-39.3167
-34.7387
-27.6889
-22.0304
-15.1954
-9.53097
-3.89748
1.15262
5.10923
9.18838
11.5286
14.7734
15.8581
18.4273
18.8536
20.4902
20.8303
21.6779
21.8022
22.2751
22.2415
22.5107
22.4737
22.5468
22.5861
22.4138
22.5739
22.2432
22.5014
21.8158
22.3672
21.3209
21.9826
20.727
21.1817
20.0461
20.0797
19.1806
18.737
17.9428
17.2674
16.3212
15.4984
14.4092
13.1788
12.1429
10.2816
9.38271
6.84138
5.96894
2.94352
1.68844
-1.25066
-3.08678
-5.84561
-7.94428
-10.464
-12.6095
-14.7145
-16.6771
-18.1278
-19.765
-20.3804
-21.5441
-21.2598
-22.048
-21.034
-21.2739
-20.0546
-19.8465
-18.6345
-18.0582
-17.0406
-16.3884
-15.5219
-14.9305
-14.2282
-13.6174
-13.1707
-12.3636
-12.317
-11.0774
-11.4723
-9.89775
-10.1714
-8.79144
-8.7915
-7.46014
-7.16063
-5.79131
-5.26538
-3.67254
-2.92622
-1.01488
0.0556773
2.31024
3.91708
6.46754
8.86712
11.698
15.1186
18.3757
22.8477
27.0026
32.1441
37.8536
43.4466
51.3019
57.2534
67.739
73.9925
87.7906
93.7704
112.592
115.834
146.251
139.805
180.984
178.479
219.069
12.3367
22.8938
19.3308
23.6307
22.6816
24.6718
24.0879
25.1846
24.7482
25.2356
25.0187
25.0493
25.2244
24.7513
25.3349
24.5281
25.2347
24.6602
24.8449
24.7159
24.696
24.6565
24.6076
24.5731
24.4309
24.5016
24.2361
24.4016
24.0236
24.2964
23.774
24.2314
23.4493
24.1785
23.2403
23.8731
23.3436
23.5293
23.2007
23.3042
22.9211
23.0221
22.64
22.5327
22.2452
21.8288
21.567
20.8342
20.5755
19.3806
19.0421
17.2652
16.6402
14.3065
13.019
10.0379
7.94024
4.16007
1.03446
-3.63915
-7.98908
-13.4565
-19.0135
-24.892
-31.2254
-36.8177
-42.9624
-47.0524
-51.5207
-52.7002
-54.1558
-51.7032
-49.5643
-43.7014
-38.4912
-30.7673
-24.535
-16.993
-10.9424
-4.6831
0.525383
5.06372
9.21285
11.9571
15.0891
16.5623
18.7375
19.5683
20.9541
21.338
22.2115
22.3314
22.8057
22.7559
22.9908
22.921
22.9378
22.9329
22.7829
22.8423
22.5517
22.6804
22.1315
22.4339
21.6212
22.0132
21.0885
21.2903
20.4148
20.2898
19.5233
19.1212
18.3207
17.7133
16.8249
15.9597
15.0221
13.7771
12.8276
11.1003
10.1438
7.93079
6.80399
4.30918
2.76614
0.0993942
-1.82416
-4.53893
-6.70521
-9.30191
-11.5459
-13.8031
-15.9277
-17.5924
-19.3621
-20.2262
-21.4996
-21.5243
-22.245
-21.582
-21.7318
-20.6013
-20.2378
-19.0009
-18.2767
-17.1166
-16.3425
-15.3626
-14.5904
-13.8547
-13.0583
-12.587
-11.6422
-11.4982
-10.2691
-10.3876
-9.0532
-9.26046
-7.94211
-7.94189
-6.63542
-6.4006
-4.97581
-4.52874
-2.85084
-2.1844
-0.141353
0.832714
3.23244
4.78907
7.51737
9.85366
12.9944
16.2462
19.9895
24.1974
28.9582
33.9858
40.336
46.0039
54.457
60.6607
71.76
78.2646
92.7159
98.8363
118.458
120.684
148.623
145.279
176.487
172.649
201.449
11.4716
20.9974
17.9102
22.0437
21.4118
23.4796
23.2899
24.3599
24.3311
24.7092
24.9218
24.7222
25.2279
24.6399
25.358
24.5736
25.2804
24.7922
24.9246
24.9027
24.7798
24.9067
24.6843
24.8598
24.5653
24.7752
24.3051
24.6791
23.965
24.6106
23.7103
24.5713
23.531
24.4105
23.4897
24.1179
23.5759
23.8003
23.6144
23.5947
23.4908
23.4175
23.286
23.143
23.0478
22.703
22.6247
21.9473
21.8786
20.7833
20.612
18.9951
18.5064
16.3399
15.2494
12.4593
10.5204
7.00349
3.93504
-0.430606
-4.88401
-10.1798
-16.114
-22.2509
-29.3586
-35.7298
-43.1058
-48.4836
-54.525
-57.1991
-59.9424
-58.392
-56.6847
-51.3515
-46.065
-38.0996
-30.757
-22.4543
-14.9691
-7.97046
-1.57043
3.40595
8.35359
11.2464
14.804
16.3329
18.717
19.4285
20.982
21.3365
22.0345
22.3353
22.5812
22.7657
22.6872
22.9652
22.6353
22.9904
22.5131
22.9562
22.3835
22.8731
22.1548
22.7445
21.8271
22.3717
21.4699
21.6788
20.9741
20.8188
20.192
19.7971
19.1472
18.5286
17.8095
16.9433
16.1524
14.9212
14.0846
12.3914
11.4759
9.31525
8.18272
5.64424
4.12475
1.38906
-0.607336
-3.45271
-5.81834
-8.62415
-11.1646
-13.7187
-16.1589
-18.1747
-20.2383
-21.4235
-22.8593
-23.0735
-23.7656
-23.1066
-23.0542
-21.907
-21.3384
-20.0105
-19.2372
-17.9781
-17.1774
-16.1925
-15.4656
-14.7946
-14.085
-13.7792
-12.9127
-12.9538
-11.8594
-12.0812
-10.8708
-10.9942
-9.96008
-9.85189
-8.85821
-8.59125
-7.50223
-7.12766
-5.84196
-5.3061
-3.79375
-2.95481
-1.22109
0.0642939
2.06056
3.92756
6.278
8.82182
11.7306
14.9237
18.7837
22.4862
27.7166
31.8021
38.9141
43.268
52.7388
57.2449
69.724
73.5635
91.2299
91.9403
116.528
114.619
143.067
142.979
169.996
13.7806
22.1683
18.8301
22.6014
21.7042
23.4854
23.3494
24.2009
24.3047
24.5343
24.8303
24.6359
25.0909
24.5906
25.2047
24.5234
25.0701
24.7197
24.7763
24.8351
24.6585
24.7655
24.591
24.706
24.4673
24.6962
24.2956
24.6392
24.0412
24.4883
23.7183
24.331
23.5048
24.1887
23.3758
23.8422
23.4677
23.5698
23.4397
23.3923
23.3701
23.2125
23.1946
22.9349
22.9606
22.5581
22.6059
21.9807
22.0233
21.1036
21.0357
19.7535
19.3743
17.6804
16.7323
14.495
12.7502
9.77104
6.91325
2.94137
-1.37799
-6.55403
-12.4929
-18.8554
-26.3394
-33.579
-41.8686
-48.8777
-56.2204
-60.831
-64.7745
-64.9629
-63.9308
-58.9171
-52.9056
-44.0731
-35.58
-26.5562
-18.0778
-10.2485
-3.18402
2.64972
8.03863
11.6186
15.0625
17.1355
19.1977
20.3437
21.485
22.2639
22.7386
23.092
23.3569
23.4098
23.3934
23.4849
23.2508
23.4076
23.0297
23.2814
22.7768
23.1067
22.4915
22.8575
22.1963
22.4324
21.851
21.8164
21.3212
21.0723
20.5551
20.1527
19.5824
18.9883
18.3537
17.521
16.849
15.6833
14.9434
13.4027
12.5192
10.6094
9.41935
7.22083
5.56409
3.09686
0.985397
-1.71754
-4.22187
-7.03238
-9.746
-12.4425
-15.1137
-17.3577
-19.6763
-21.1613
-22.8382
-23.3936
-24.2558
-23.9372
-23.9655
-22.911
-22.2514
-20.8277
-19.7746
-18.4369
-17.2452
-16.1904
-15.1008
-14.4036
-13.3532
-13.0394
-11.9252
-11.9259
-10.7004
-10.8782
-9.70421
-9.86682
-8.87286
-8.84966
-7.86419
-7.70211
-6.62925
-6.31114
-5.06407
-4.55892
-3.05708
-2.27325
-0.5103
0.722125
2.78523
4.57821
7.06043
9.47378
12.5925
15.6273
19.7113
23.2556
28.7837
32.6754
40.0567
44.2004
53.8391
58.0341
70.6086
73.8625
90.7581
91.1095
112.782
110.437
133.205
132.07
153.483
13.6885
21.7156
18.1395
22.2145
21.0383
23.0234
22.8378
23.7905
23.9682
24.2731
24.6348
24.4914
25.0415
24.5637
25.2183
24.6336
25.1147
24.894
24.8794
24.9857
24.8093
25.0281
24.7062
25.0603
24.5742
24.9538
24.3733
24.8783
24.1231
24.7774
23.8605
24.5984
23.6492
24.3468
23.646
24.1116
23.7169
23.8147
23.8217
23.7212
23.7667
23.6516
23.7082
23.4886
23.6069
23.2225
23.3891
22.8053
22.9706
22.1387
22.1986
21.0514
20.8112
19.2697
18.4967
16.438
14.9159
12.2217
9.6392
6.05132
2.0051
-2.84839
-8.83482
-15.2845
-23.239
-31.241
-40.7241
-49.3071
-58.563
-65.3587
-71.6129
-73.525
-73.2933
-68.7938
-62.7491
-53.6004
-43.6678
-33.0119
-23.0843
-13.819
-5.47515
1.03966
7.55237
11.2763
15.4887
17.2228
19.7349
20.3958
21.9318
22.2637
22.7772
23.0696
23.223
23.3222
23.21
23.2689
23.0124
23.1963
22.7991
23.1701
22.6444
23.1579
22.5118
23.0554
22.3635
22.7475
22.1694
22.197
21.7447
21.5691
21.1092
20.7493
20.2763
19.6973
19.1834
18.3599
17.8005
16.6762
16.0136
14.546
13.7099
11.8827
10.7346
8.55298
6.97411
4.45364
2.37059
-0.468833
-3.05622
-6.1127
-9.06305
-12.1212
-15.1614
-17.8727
-20.5931
-22.5173
-24.5082
-25.2952
-26.2654
-25.8166
-25.754
-24.3913
-23.5861
-21.8516
-20.7542
-19.1257
-18.0275
-16.7835
-15.871
-15.1685
-14.3534
-14.1945
-13.327
-13.3939
-12.4412
-12.5664
-11.5514
-11.6177
-10.7963
-10.7012
-9.882
-9.71522
-8.82834
-8.5983
-7.58278
-7.22772
-6.05143
-5.47538
-4.12818
-3.22116
-1.63665
-0.327321
1.62508
3.36816
5.89167
8.04936
11.4543
13.9522
18.5957
21.342
27.6449
30.5624
38.96
41.877
53.0837
55.2603
70.7853
70.584
90.0546
90.4796
110.9
111.387
131.444
15.2324
23.103
19.0722
23.03
21.5225
23.3833
23.0157
23.8583
23.973
24.2116
24.5462
24.3972
24.8708
24.4711
25.0542
24.553
24.9936
24.7669
24.7193
24.8339
24.5986
24.852
24.5328
24.8925
24.4736
24.8842
24.3246
24.8175
24.0922
24.6517
23.8323
24.4387
23.587
24.2075
23.4236
23.8755
23.6122
23.5135
23.5686
23.4626
23.5963
23.3901
23.5698
23.274
23.4894
23.1088
23.3816
22.8669
23.1355
22.4623
22.6382
21.7812
21.701
20.5862
20.0337
18.5087
17.2144
15.0696
12.7174
9.62076
5.76165
1.33957
-4.34628
-10.6089
-18.6468
-27.1157
-37.5666
-47.787
-59.2704
-68.9223
-77.698
-82.4852
-84.6549
-81.8327
-75.761
-65.7426
-54.0777
-41.7069
-29.6619
-18.8243
-8.71243
-1.0145
6.50049
11.5511
15.7077
18.3898
20.3753
21.7211
22.7676
23.2691
23.7335
24.0069
24.2643
24.2512
24.0977
24.0701
23.7547
23.8297
23.3719
23.5973
23.0338
23.4104
22.8267
23.1972
22.6495
22.8733
22.4698
22.3778
22.0761
21.8218
21.4914
21.1013
20.7515
20.1855
19.7871
19.0117
18.5762
17.5412
16.9985
15.6714
14.9356
13.3064
12.2168
10.2827
8.70127
6.40851
4.27421
1.59974
-1.10787
-4.1362
-7.28376
-10.4782
-13.8014
-16.8063
-19.904
-22.2518
-24.645
-25.9449
-27.2562
-27.3538
-27.4472
-26.4046
-25.4131
-23.6434
-22.0223
-20.345
-18.5401
-17.2315
-15.5819
-14.857
-13.4401
-13.2523
-12.0698
-12.1825
-10.9727
-11.2883
-10.1357
-10.3748
-9.67843
-9.68623
-9.01014
-8.89625
-8.166
-7.96684
-7.12188
-6.79782
-5.77734
-5.22845
-4.02453
-3.15417
-1.68348
-0.45456
1.41767
3.01922
5.50204
7.45242
10.8413
13.0282
17.7006
20.0483
26.3122
28.7602
37.0173
39.2997
50.2657
51.3548
65.8465
65.6889
82.1034
81.9304
99.2214
99.3062
116.325
15.1457
23.2984
18.8718
23.0738
21.2112
23.4274
22.784
23.8206
23.8383
24.1553
24.5257
24.3626
24.9593
24.4569
25.1602
24.6273
25.08
24.9265
24.8731
25.0773
24.7864
25.1163
24.6887
25.1214
24.6275
25.1129
24.4825
25.0524
24.2551
24.9503
24.0224
24.6693
23.7646
24.4205
23.6742
24.1155
23.8077
23.8763
23.8916
23.7672
23.9628
23.7363
23.9835
23.6633
23.9691
23.5577
23.9004
23.3975
23.7484
23.1402
23.403
22.6453
22.6707
21.6782
21.2781
19.9571
18.9271
17.1125
15.1389
12.4874
9.0813
5.04557
-0.339645
-6.37898
-14.3828
-23.214
-34.3901
-46.0995
-59.4111
-71.6265
-84.2183
-92.3203
-96.8314
-95.5117
-89.3918
-78.5802
-64.9438
-50.5535
-36.6038
-23.8949
-12.1368
-3.27233
5.81561
11.3006
16.9907
18.7352
21.5815
21.9521
23.4049
23.3936
23.9438
23.9478
24.1869
24.0322
23.8595
23.7731
23.3639
23.539
22.9967
23.4697
22.8027
23.4219
22.8125
23.3497
22.8218
23.1244
22.757
22.7016
22.4302
22.2397
21.941
21.5884
21.2996
20.7508
20.4378
19.6783
19.3287
18.3498
17.8777
16.6484
15.9712
14.4661
13.4481
11.6202
10.1476
7.92713
5.88283
3.1997
0.508206
-2.66126
-5.95808
-9.46998
-13.1603
-16.652
-20.2812
-23.1772
-26.1435
-27.7906
-29.5258
-29.4811
-29.7058
-28.0808
-26.9834
-24.5904
-22.9009
-20.7148
-19.0744
-17.4383
-16.1233
-15.399
-14.3655
-14.3876
-13.5511
-13.7329
-12.8466
-12.9683
-11.9705
-11.9498
-11.3707
-11.2425
-10.6359
-10.5194
-9.83405
-9.67877
-8.93753
-8.72099
-7.86192
-7.52717
-6.51668
-5.97656
-4.74565
-3.95237
-2.37544
-1.32853
0.772247
2.07665
4.91917
6.40957
10.3603
11.9218
17.3317
18.8706
26.1766
27.5644
37.3967
38.0358
50.4551
51.5168
65.775
67.2117
82.4071
83.5221
99.3927
16.8925
24.65
19.8682
23.957
21.7714
23.9193
23.0545
24.033
23.9145
24.1774
24.4575
24.3105
24.7913
24.3992
24.9659
24.5306
24.9312
24.7581
24.7057
24.8808
24.5812
24.9569
24.5359
25.0118
24.4793
25.0082
24.3672
24.9769
24.1329
24.8367
23.9326
24.5647
23.7236
24.3227
23.4725
23.9183
23.6391
23.5909
23.7093
23.464
23.7483
23.4635
23.8163
23.4668
23.8453
23.4613
23.8757
23.4298
23.8301
23.3439
23.6893
23.1554
23.3195
22.6789
22.4556
21.5835
20.7611
19.472
17.7879
15.7702
12.823
9.56096
4.78213
-0.534849
-8.1011
-16.6479
-28.2613
-41.0736
-57.0453
-73.2411
-89.6584
-103.032
-112.059
-114.881
-111.384
-100.455
-83.7634
-65.7726
-48.0929
-32.8032
-18.2305
-7.76228
2.87679
10.7201
16.8528
20.8632
22.2269
24.2345
24.0203
25.1562
25.0399
25.3169
25.3778
25.2832
24.9446
24.8906
24.2582
24.3324
23.5127
23.9356
23.0573
23.5996
23.0007
23.4503
22.9876
23.2869
22.9608
22.8989
22.7087
22.4876
22.3003
21.9274
21.7566
21.2308
21.0326
20.3308
20.0862
19.1975
18.845
17.7372
17.188
15.8494
14.9566
13.318
11.943
9.91098
7.91666
5.35788
2.63604
-0.529096
-3.99476
-7.67281
-11.6963
-15.5691
-19.6728
-23.118
-26.6464
-29.0042
-31.2915
-32.103
-32.6551
-31.6977
-30.3847
-28.0263
-25.4137
-23.1988
-20.3722
-18.4785
-15.9068
-14.8573
-13.0061
-12.9094
-11.7198
-12.1438
-10.9238
-11.5615
-10.2844
-10.7533
-10.2305
-10.3502
-9.91899
-9.86276
-9.42889
-9.2925
-8.83608
-8.61024
-8.05544
-7.68211
-6.97326
-6.42935
-5.46258
-4.72568
-3.39385
-2.47696
-0.615586
0.456917
3.1765
4.1978
8.04173
9.08493
14.2251
15.2478
21.9607
22.9236
31.4987
32.6046
42.8325
44.1515
55.8798
57.2679
70.4329
71.4203
85.541
16.8517
25.3394
19.8416
24.3423
21.8246
24.1596
23.0696
24.242
23.9291
24.3655
24.5276
24.4449
24.9118
24.5017
25.082
24.6451
25.0937
24.9143
24.8942
25.1037
24.7151
25.1908
24.6585
25.1933
24.6474
25.2179
24.551
25.1991
24.3536
25.1104
24.1212
24.8324
23.9135
24.5461
23.6702
24.2076
23.7765
23.8981
23.9006
23.7124
24.0486
23.7224
24.0872
23.7411
24.1732
23.7337
24.1843
23.7339
24.2157
23.7749
24.1692
23.7004
23.9288
23.3916
23.2973
22.6161
22.0106
21.0032
19.6291
17.9716
15.4467
12.6289
8.40086
3.64352
-3.25752
-11.3532
-22.5838
-35.8715
-52.9115
-71.7255
-93.03
-110.825
-123.976
-131.795
-131.57
-121.342
-103.541
-82.1133
-60.6401
-41.677
-24.0529
-11.6404
0.528011
9.2832
18.5384
21.2935
24.1451
24.5442
25.131
24.9654
25.4316
25.1005
25.0438
25.0819
24.5239
24.5494
23.7046
24.0518
23.105
23.773
22.8283
23.5707
22.986
23.5625
23.0901
23.5329
23.2488
23.1832
23.0593
22.8446
22.7183
22.3349
22.2424
21.6915
21.6026
20.8929
20.7634
19.9203
19.6668
18.6657
18.1988
17.0018
16.2232
14.7609
13.5207
11.6893
9.85521
7.47856
4.85926
1.77454
-1.71417
-5.51316
-9.8025
-14.0788
-18.8062
-22.8958
-27.2842
-30.1935
-33.2913
-34.1717
-35.3048
-33.7443
-32.3712
-29.0589
-26.1454
-23.2267
-20.7794
-18.6005
-16.4656
-15.5187
-13.9976
-14.1438
-13.4788
-13.9703
-13.1612
-13.3494
-12.2209
-11.9528
-11.62
-11.4872
-11.2452
-11.0667
-10.6105
-10.4129
-9.98124
-9.85396
-9.3513
-9.16597
-8.55832
-8.30313
-7.44766
-7.12055
-5.91643
-5.53048
-3.83303
-3.46085
-1.01551
-0.615644
2.63
3.07789
7.45684
7.84849
13.7605
14.2142
21.684
22.4208
31.5819
32.6591
43.3682
44.738
56.8329
58.0211
71.5172
18.3007
26.7762
20.9136
25.1889
22.5086
24.6566
23.4194
24.4555
24.0561
24.3933
24.5355
24.3694
24.848
24.3948
24.99
24.5007
24.9357
24.786
24.6826
24.9883
24.5532
25.0851
24.4927
25.0931
24.4637
25.1416
24.3332
25.1249
24.1881
25.0413
24.0093
24.8054
23.7922
24.4702
23.6384
23.9979
23.6303
23.6373
23.7687
23.5163
23.8108
23.4618
23.9271
23.4759
24.0971
23.5585
24.1879
23.7317
24.1487
23.8089
24.26
23.9513
24.2799
24.0284
24.0443
23.7626
23.3193
22.8037
21.7017
20.6323
18.5405
16.4402
12.8713
9.00928
3.03555
-3.91624
-14.2291
-26.8727
-45.0205
-65.7441
-89.8935
-114.004
-133.603
-147.259
-154.511
-149.381
-129.291
-103.972
-77.9802
-55.7778
-34.392
-19.6803
-5.94059
4.06156
15.9623
22.5364
25.4444
27.6184
26.2239
26.6009
26.4126
26.9233
26.4595
26.7411
25.9479
26.1235
24.6561
24.9118
23.5883
24.1357
22.874
23.576
22.9668
23.5918
23.1015
23.6226
23.3396
23.3474
23.265
23.0212
22.99
22.6057
22.5983
22.094
22.0573
21.4361
21.3425
20.5954
20.4107
19.5287
19.1834
18.147
17.4917
16.2468
15.1436
13.5468
11.8625
9.71762
7.21561
4.21765
0.680076
-3.25946
-7.89374
-12.6122
-17.9329
-22.689
-27.911
-31.7876
-35.8513
-37.9466
-39.886
-39.433
-38.2149
-35.1116
-30.6016
-27.4091
-23.2408
-20.2029
-16.0759
-14.3609
-11.4668
-11.623
-10.3024
-11.8737
-10.2552
-12.0471
-10.4134
-11.0092
-10.2956
-10.828
-10.4947
-10.5739
-10.3567
-10.2157
-10.0826
-9.85271
-9.76801
-9.46638
-9.22126
-8.91022
-8.3701
-8.04551
-7.12948
-6.79486
-5.43792
-5.16203
-3.0477
-2.86232
0.0934666
0.206467
4.18006
4.12531
9.31589
9.34549
15.7893
16.0777
24.0095
24.3845
33.8144
34.2721
45.2988
45.686
58.4331
18.2763
27.4685
21.0845
25.716
22.754
25.0141
23.7004
24.7291
24.3191
24.6023
24.7564
24.541
25.0531
24.522
25.1852
24.643
25.1076
24.937
24.8241
25.2021
24.648
25.3207
24.5809
25.3318
24.5628
25.3699
24.4943
25.3774
24.3289
25.3073
24.14
25.0723
23.9733
24.7128
23.9122
24.2197
23.8426
23.8246
23.9783
23.5809
24.0661
23.5774
24.0973
23.582
24.2344
23.65
24.4432
23.785
24.5799
24.0831
24.5287
24.2537
24.5739
24.3777
24.4305
24.2751
23.9605
23.6434
22.7927
22.0162
20.3363
18.6635
15.6859
12.4627
7.33491
1.38259
-7.72346
-19.0145
-35.8912
-57.5107
-83.0119
-109.402
-132.722
-151.81
-164.819
-166.47
-152.647
-126.561
-94.6482
-67.2207
-40.3533
-25.891
-9.52179
1.71942
12.8367
23.1541
24.1421
28.1254
27.6084
26.5833
26.31
26.0096
25.8339
26.2166
25.3571
25.664
24.3132
24.606
23.3656
23.9007
22.8239
23.4863
22.8467
23.6865
23.1333
23.837
23.5982
23.5827
23.6276
23.3215
23.3555
22.9278
22.9958
22.4173
22.5347
21.8569
21.9353
21.1958
21.1355
20.346
20.0582
19.1819
18.6203
17.5674
16.6264
15.261
13.7981
11.9033
9.64379
6.89938
3.53117
-0.271602
-4.90021
-9.76469
-15.5702
-20.9246
-27.0527
-31.5844
-36.7031
-39.275
-42.5145
-42.3543
-41.3457
-37.2482
-31.2553
-26.8273
-23.5782
-21.1651
-17.4963
-15.8587
-12.9163
-12.9822
-12.1515
-14.0335
-13.6272
-13.8973
-12.3054
-11.6143
-11.2151
-11.3099
-11.9284
-11.5453
-11.1834
-10.8532
-10.6382
-10.6453
-10.5519
-10.3158
-10.297
-10.049
-9.79535
-9.56444
-8.95278
-8.79016
-7.804
-7.78734
-6.09151
-6.31757
-3.89621
-4.2259
-0.942389
-1.45565
2.74248
2.51261
7.63054
7.90544
14.4282
15.216
22.776
23.9212
33.0738
34.105
45.8305
19.6247
28.8962
22.1191
26.5229
23.4431
25.4259
24.0981
24.8849
24.5254
24.5969
24.8384
24.446
25.0521
24.4061
25.1489
24.5068
25.0197
24.8253
24.6777
25.1108
24.4787
25.2511
24.397
25.2738
24.3649
25.2807
24.295
25.2934
24.1671
25.237
24.018
25.0668
23.8714
24.7182
23.7947
24.1647
23.8453
23.6655
23.9099
23.4901
23.9164
23.3707
23.9656
23.3647
24.0966
23.529
24.2685
23.6511
24.38
23.8275
24.6239
24.2857
24.659
24.6862
24.7269
24.88
24.6198
24.6628
23.9801
23.6348
22.2675
21.1448
18.7263
16.2861
12.1242
7.32585
-0.117483
-9.76588
-24.3011
-44.3996
-68.2813
-96.0362
-122.569
-145.2
-163.32
-171.068
-163.797
-140.04
-115.077
-85.1947
-53.4239
-35.3202
-21.0227
-5.3557
7.33272
19.4401
28.1601
25.7343
29.1554
27.9467
27.7379
27.7483
27.3857
28.0229
27.0485
27.2784
25.4438
25.371
23.7414
24.1882
22.644
23.3871
22.5498
23.5457
22.9904
23.8412
23.5693
23.7147
23.7252
23.4686
23.5769
23.147
23.3366
22.7619
22.9519
22.2535
22.413
21.6435
21.7312
20.9351
20.8537
20.0697
19.6598
18.7941
18.0073
16.8943
15.663
14.1283
12.1516
9.69708
6.54133
2.87152
-1.87619
-7.04259
-13.5413
-19.6358
-27.0773
-32.8468
-39.3811
-43.2267
-47.7956
-49.3236
-50.184
-47.6671
-39.5791
-33.1838
-27.0155
-22.8042
-16.7828
-13.7963
-8.92869
-8.71741
-6.96157
-10.0992
-9.20096
-13.614
-11.5219
-11.5209
-9.73527
-10.3058
-10.5251
-11.3676
-11.2694
-10.8563
-10.7547
-10.49
-10.881
-10.6131
-10.8128
-10.5652
-10.5807
-10.333
-9.99898
-9.81174
-9.2138
-9.23026
-7.88953
-8.19333
-6.19763
-6.71733
-3.72961
-4.76448
-1.09835
-1.87457
2.4272
1.84296
7.63396
7.00279
14.2538
13.2784
22.1796
21.1662
33.2079
19.4815
29.4479
22.4892
26.9441
23.8873
25.772
24.5802
25.1346
24.9679
24.7834
25.2007
24.5928
25.3472
24.5225
25.3834
24.6282
25.1769
24.9869
24.7763
25.3061
24.5378
25.4639
24.4464
25.5012
24.4144
25.5269
24.3659
25.5365
24.2738
25.4707
24.1417
25.2837
24.0101
24.9422
23.9686
24.3961
24.0364
23.76
24.0296
23.442
24.0706
23.3473
24.1534
23.317
24.3343
23.4165
24.5059
23.7905
24.612
24.0669
24.7062
24.4006
24.7542
24.7623
24.775
24.9786
24.7707
24.9204
24.4005
24.2247
23.157
22.2807
20.3143
18.2776
14.8573
10.8316
4.82116
-3.1854
-14.6298
-31.5103
-52.7377
-77.581
-103.344
-126.148
-144.791
-156.275
-157.362
-144.037
-117.989
-89.7627
-59.5104
-36.5779
-24.5471
-9.09906
3.32196
16.1478
25.4904
26.1661
26.0086
27.6769
26.24
26.2263
25.5937
27.243
26.1425
26.8051
25.3046
25.4293
23.5739
23.9933
22.7129
23.286
22.3472
23.4461
22.9078
23.9704
23.8416
23.9187
24.043
23.6831
23.8707
23.2876
23.5889
22.8707
23.298
22.4923
22.8801
22.1018
22.2931
21.5616
21.4847
20.803
20.4921
19.7822
19.1294
18.2375
17.1902
15.9251
14.2826
12.2244
9.39779
6.11972
1.64017
-3.27886
-9.96867
-16.3791
-24.481
-30.7202
-38.204
-42.3792
-48.634
-51.3934
-53.449
-52.0085
-39.8763
-30.9862
-27.6713
-26.4693
-20.8807
-17.9304
-12.2209
-10.2939
-9.04453
-12.3522
-13.2582
-15.0734
-13.0855
-11.4719
-9.70799
-10.6993
-12.286
-12.0083
-11.6534
-10.8684
-10.8479
-10.9149
-11.1744
-10.8231
-11.2658
-11.0949
-11.3294
-11.1538
-10.9493
-10.8683
-10.4493
-10.6303
-9.61133
-10.1825
-8.70107
-9.38531
-6.84414
-8.3489
-5.64625
-6.6136
-3.57065
-4.59162
0.273974
0.276795
4.95453
5.53905
10.9298
10.9504
20.2731
21.0001
30.4086
23.4956
27.4892
24.4765
25.9047
25.0193
25.099
25.2576
24.6648
25.38
24.4481
25.4368
24.3743
25.391
24.508
25.1232
24.929
24.625
25.308
24.3498
25.4742
24.2538
25.5084
24.2016
25.5269
24.1391
25.5429
24.0466
25.4905
23.9658
25.3281
23.8876
24.9961
23.8906
24.4254
24.0681
23.735
24.1751
23.4181
24.0886
23.2042
24.156
23.114
24.2956
23.1627
24.4271
23.365
24.545
23.7719
24.6001
24.3588
24.6541
24.8571
24.8
25.2173
24.9539
25.308
24.8452
24.9094
24.0227
23.4658
21.8457
20.2347
17.4103
13.9657
8.98066