/*--------------------------------*- C++ -*----------------------------------*\
| =========                 |                                                 |
| \\      /  F ield         | OpenFOAM: The Open Source CFD Toolbox           |
|  \\    /   O peration     | Version:  4.1                                   |
|   \\  /    A nd           | Web:      www.OpenFOAM.org                      |
|    \\/     M anipulation  |                                                 |
\*---------------------------------------------------------------------------*/
FoamFile
{
    version     2.0;
    format      ascii;
    class       volScalarField;
    location    "763";
    object      p;
}
// * * * * * * * * * * * * * * * * * * * * * * * * * * * * * * * * * * * * * //

dimensions      [0 2 -2 0 0 0 0];

internalField   nonuniform List<scalar> 
204246
(
125.899
-18.514
25.8396
2.50062
-4.02908
-4.52387
-16.9123
-17.1071
-28.7473
-23.8815
-37.876
-26.8412
-42.1845
-27.5254
-36.925
-25.392
-25.4796
-24.9625
-13.5025
-15.0661
-2.53043
-4.03255
7.53666
5.64667
16.5718
12.9601
25.4109
17.4419
32.0329
21.3693
36.3456
24.5984
38.3443
28.4415
37.1259
35.665
28.9313
42.0001
28.2767
41.9765
29.019
42.2269
28.8379
43.1413
27.0104
43.8921
26.7455
43.4159
27.8187
40.933
29.8495
38.2274
35.3101
28.1142
40.6277
26.7068
40.0912
26.9606
40.0741
26.5712
40.9093
24.7123
41.717
24.5239
41.4075
25.6707
39.1876
27.8909
36.6996
33.3322
27.5971
37.4129
26.2791
38.3688
25.8267
38.6958
25.2786
39.5754
23.3232
40.2969
23.022
39.7677
24.0756
37.1816
25.9324
34.4254
30.8553
24.7697
34.4041
22.7693
34.8031
21.201
35.0038
18.1347
34.6883
16.4191
32.912
15.3379
29.7378
14.9148
25.3193
12.8154
21.43
10.4765
16.6972
10.2529
4.11812
8.75475
-1.34925
5.54931
-8.6456
1.16778
-13.5576
-3.78304
-18.9253
-7.76283
-23.5979
-10.4854
-26.0848
-12.3252
-25.5551
-15.1508
-19.2273
-24.3643
-11.3056
-24.7395
-7.63423
-22.5767
-4.85285
-19.9468
-2.40346
-17.5588
-0.300913
-15.6501
1.37465
-13.7608
2.10397
-11.0433
0.484664
-4.20464
-8.96866
2.83613
-10.7105
4.90652
-10.5536
5.96209
-10.1276
6.68548
-9.49826
7.35926
-8.69403
8.02891
-7.48274
8.43927
-4.8483
6.9836
2.39637
-1.69213
10.3286
-2.22492
13.8167
-0.162545
16.2464
3.50326
18.9241
8.16754
22.8045
13.924
27.9146
20.9109
34.224
29.8913
42.2098
41.4474
51.7024
58.227
60.4665
74.3242
78.8595
92.1695
101.915
115.289
129.626
144.531
164.468
182.298
210.585
233.244
277.145
306.089
393.821
409.745
616.785
44.295
14.8738
10.3536
10.0189
-0.459107
-2.57708
-11.8635
-15.5508
-23.4319
-26.0897
-32.2419
-32.1782
-36.0023
-34.2009
-35.3664
-33.0669
-27.8932
-27.7345
-19.9565
-17.2419
-9.71396
-5.33391
0.0203474
5.08348
9.97604
13.3909
18.8722
19.7798
25.0758
24.5628
29.3067
28.4097
31.7229
31.8781
31.724
36.0622
31.3984
37.2016
32.9205
37.2354
33.2612
37.653
33.0683
38.1702
32.6751
37.8364
32.8043
37.0989
33.4229
35.8669
34.2655
33.9146
36.8796
31.3639
36.1863
31.6929
35.6077
31.4427
35.6659
30.9878
36.0371
30.5272
35.7162
30.7034
35.0996
31.4631
34.0007
32.4421
32.3362
34.9242
30.3306
34.3243
30.2471
34.3116
30.1152
34.4159
29.7056
34.7762
29.2181
34.3747
29.298
33.6011
29.8371
32.3766
30.5075
30.4148
32.7151
27.8643
31.6301
27.1156
31.122
26.0339
30.7389
24.6435
29.3971
23.453
27.5488
22.0144
25.3566
20.4631
22.8667
18.1726
19.2946
15.9891
14.2591
14.86
9.16738
8.25231
3.27589
4.33885
-2.22381
-0.932577
-7.23594
-6.16361
-12.4492
-10.8314
-16.865
-15.073
-19.6575
-18.3114
-19.9549
-20.9154
-17.3503
-22.7306
-16.3843
-20.8219
-14.3715
-18.0614
-11.8888
-15.2292
-9.36121
-12.7136
-7.08909
-10.6128
-5.38708
-8.63279
-4.58025
-6.14094
-5.3336
-2.33818
-7.04353
-1.46174
-6.2842
-0.772406
-5.59438
-0.0847052
-4.95759
0.51304
-4.3054
1.09556
-3.52926
1.61053
-2.3607
1.76708
-0.0926588
0.968158
3.82279
-0.300283
5.3798
1.41099
7.22262
3.75877
9.52816
6.50379
12.4511
9.94055
16.1608
14.458
20.9024
20.2724
26.3044
28.0207
33.2537
37.7909
41.4294
50.1799
53.8706
62.9459
69.5071
79.0297
88.7124
99.173
112.209
123.794
140.971
153.787
176.993
190.42
225.674
232.316
307.038
272.478
407.158
13.527
21.4774
13.0639
9.665
1.33704
-2.01141
-10.6841
-13.7943
-22.0583
-24.6891
-31.1364
-33.1678
-36.0042
-35.892
-35.4365
-34.4425
-30.0304
-28.6727
-21.4232
-18.8627
-10.9385
-6.974
-0.136001
3.739
9.47316
12.964
17.6998
20.5054
24.1902
25.6933
28.8313
29.4201
31.55
32.636
32.306
35.5223
33.0039
36.7259
33.3987
37.4677
33.6055
37.8956
33.4936
38.1411
33.1904
37.9906
33.1294
37.4385
33.4671
36.3082
34.1559
34.5968
35.4673
32.6843
35.7451
31.956
35.7017
31.5223
35.6784
31.1298
35.7486
30.7586
35.6019
30.7703
35.1646
31.2297
34.2884
32.082
32.8933
33.488
31.2828
33.8933
30.564
34.1716
30.2063
34.3211
29.8301
34.4486
29.4331
34.2623
29.3636
33.6961
29.6701
32.5724
30.2632
30.8399
31.3091
28.8208
31.2541
27.4755
30.9922
26.2577
30.4586
24.9224
29.4016
23.6148
27.818
22.2164
25.5514
20.8656
22.5676
18.9388
18.9337
16.7735
14.3819
13.5713
9.79799
9.46445
4.79843
3.89024
-0.507787
-1.57199
-5.70757
-6.94803
-11.1391
-11.738
-15.9533
-15.6053
-19.2235
-18.565
-20.1379
-20.9449
-19.1485
-21.6953
-17.2352
-20.6697
-14.8944
-18.1066
-12.2471
-15.204
-9.53279
-12.5572
-7.06843
-10.383
-5.24483
-8.38021
-4.34857
-6.10339
-4.68618
-3.4407
-5.56883
-1.86829
-5.62985
-0.72149
-5.25307
0.0958951
-4.71124
0.747311
-4.08508
1.33403
-3.31601
1.82247
-2.18143
2.02045
-0.243719
1.58463
2.69066
1.00478
4.92129
1.8594
7.22335
3.72749
9.47541
6.64495
12.0494
10.532
15.5335
15.3062
20.18
21.2682
26.2123
28.7239
33.7184
38.2384
43.3328
49.8491
54.8717
63.8766
70.4869
80.7232
90.3912
101.651
115.196
127.722
146.301
160.178
185.836
200.513
240.218
248.142
324.302
303.031
391.811
2.6692
13.536
9.68008
8.83248
1.95994
-0.702748
-8.61021
-12.414
-20.0421
-24.0745
-30.205
-33.6246
-37.0009
-38.9561
-38.6933
-38.6899
-34.7465
-33.0881
-26.7072
-22.9213
-16.0579
-10.8828
-4.62767
0.764954
5.98848
10.7818
15.0269
18.8044
21.8011
24.8065
26.5072
29.0162
29.6676
32.0087
31.4177
34.3197
33.2123
35.4852
34.325
35.7905
34.6599
36.1423
34.7006
36.2805
34.6875
35.9505
34.773
35.3717
35.02
34.6605
35.2899
33.7334
35.707
33.2343
34.9072
33.2277
34.4229
32.9851
34.2549
32.7168
34.1643
32.599
33.8038
32.6999
33.3358
33.0127
32.7602
33.4405
32.0417
33.9668
31.7569
33.4013
31.715
33.136
31.6355
33.0412
31.4601
32.9686
31.3569
32.5682
31.3967
31.9988
31.5684
31.3132
31.7377
30.3247
32.0083
29.6668
31.0116
29.0495
30.276
28.2976
29.4923
27.4439
28.2633
26.4505
26.7288
25.11
24.9531
23.3724
22.8849
21.3042
19.8737
18.9221
16.1653
15.78
11.9233
10.9829
7.31442
5.79081
2.18876
-0.0706355
-3.19646
-5.88531
-8.77905
-11.4447
-13.8787
-16.3848
-17.7838
-20.0217
-19.7765
-21.9349
-20.103
-22.3405
-19.5586
-20.5837
-17.8675
-17.4961
-15.2857
-14.3191
-12.5287
-11.4788
-10.0225
-9.1576
-8.06208
-7.21674
-6.81839
-5.39904
-6.32979
-3.76276
-5.70534
-3.15503
-4.88227
-2.76067
-4.18074
-2.2666
-3.5441
-1.75311
-2.9055
-1.24721
-2.17316
-0.818113
-1.18817
-0.602817
0.375771
-0.410236
1.93438
0.386879
2.83331
1.84309
4.13784
3.72924
6.03821
5.96614
8.40201
8.81466
11.5302
12.4484
15.568
17.1121
20.501
23.2957
26.7672
31.0205
34.5992
40.806
44.946
51.8813
57.9978
65.3336
73.9959
81.8257
93.4107
101.72
116.931
125.712
146.278
153.372
186.416
181.301
238.79
225.653
296.75
3.27248
14.4925
10.2257
9.0647
3.81477
0.673484
-6.37573
-10.425
-18.0624
-22.4949
-29.3457
-33.3934
-37.8272
-40.2553
-41.1078
-41.3382
-38.2907
-36.0628
-29.9753
-25.6282
-18.3179
-13.0841
-6.06487
-0.85591
5.18038
9.75624
14.371
18.6786
21.4577
25.1598
26.725
29.4226
30.2414
32.4257
32.4019
34.5202
34.0894
35.5606
34.979
36.1761
35.2753
36.5517
35.2903
36.593
35.2668
36.322
35.1804
35.8809
35.2183
35.1626
35.2087
34.3053
35.1349
33.9608
34.6586
33.5808
34.4054
33.1548
34.2208
32.8503
34.0229
32.7243
33.7227
32.7239
33.3547
32.8562
32.9084
33.0763
32.3837
33.2371
32.2169
33.0062
31.979
32.9367
31.7626
32.891
31.5639
32.7778
31.4643
32.4834
31.4176
32.0428
31.4449
31.4207
31.5037
30.5995
31.3333
30.0795
30.7574
29.3643
30.1304
28.527
29.3888
27.6563
28.3532
26.6549
26.9832
25.3819
25.242
23.7682
23.0211
21.7753
20.1947
19.2206
16.8744
15.9781
13.0885
11.8454
8.43465
6.75521
3.2948
1.06221
-2.31383
-4.85499
-8.03386
-10.7019
-13.3285
-15.9317
-17.6072
-19.9075
-20.3442
-22.0894
-21.3954
-22.5066
-20.7514
-20.9256
-18.7503
-17.9984
-15.8255
-14.598
-12.639
-11.4337
-9.79442
-8.86741
-7.67608
-6.88709
-6.36256
-5.30875
-5.39859
-3.88745
-4.67641
-3.28898
-4.08022
-2.5752
-3.56757
-1.94151
-3.02119
-1.39128
-2.43355
-0.879744
-1.75242
-0.478494
-0.813221
-0.281998
0.366723
0.234038
1.71068
1.01448
2.73584
2.31078
4.18885
4.0076
6.08825
6.2973
8.61955
9.20704
11.8971
12.9389
16.0614
17.8072
21.2831
24.0188
27.9053
31.9187
36.2394
41.6728
46.8983
53.6297
60.5036
68.2497
77.5316
86.1681
98.6161
107.986
124.427
134.075
156.581
164.332
198.684
195.624
244.913
233.55
278.648
3.95383
12.1656
8.95585
8.93193
3.89906
1.76787
-5.10769
-9.02974
-16.6137
-21.6857
-28.8103
-34.0137
-39.2911
-43.181
-45.0542
-46.2355
-43.9786
-42.0238
-36.338
-31.5046
-24.1904
-17.8439
-10.7139
-4.24958
1.77868
7.57537
12.1051
17.0038
20.0218
23.9674
25.6903
28.6333
29.5164
31.7047
31.8657
33.8809
33.7612
34.9292
34.8105
35.4271
35.2466
35.7174
35.409
35.7057
35.4708
35.4651
35.4652
35.1086
35.3958
34.6509
35.3342
34.2089
35.0334
34.0514
34.4413
33.9509
34.0064
33.6763
33.7456
33.4819
33.483
33.4125
33.1606
33.4168
32.8438
33.4641
32.5549
33.5042
32.2955
33.4283
32.3678
32.9858
32.3905
32.724
32.3384
32.5514
32.2579
32.355
32.2356
32.0442
32.2094
31.6866
32.1182
31.3135
32.0432
30.8418
31.7314
30.549
31.0452
30.1693
30.2703
29.5808
29.4899
28.8554
28.5166
27.9358
27.3504
26.7282
25.9291
25.1801
24.1384
23.3087
21.6806
20.9088
18.5896
17.766
14.8559
13.6595
10.5069
8.67677
5.39269
2.92669
-0.377201
-3.31547
-6.52939
-9.69245
-12.5402
-15.6398
-17.686
-20.4054
-21.2354
-23.2704
-22.935
-23.8439
-22.6988
-22.3458
-20.6113
-19.4354
-17.4105
-15.8838
-13.9875
-12.4005
-10.9806
-9.49209
-8.65049
-7.35064
-7.09021
-5.75004
-6.08919
-4.69442
-5.08503
-4.08038
-4.37434
-3.67705
-3.77554
-3.24528
-3.2055
-2.78836
-2.61934
-2.31691
-2.0048
-1.84789
-1.24555
-1.48306
-0.312988
-0.967008
0.487018
0.0512679
1.27858
1.13521
2.35866
2.52609
3.81077
4.24122
5.75192
6.4201
8.2694
9.26969
11.4778
13.0363
15.5497
17.9115
20.7157
24.107
27.3446
31.7937
35.9336
41.0585
46.7559
52.3391
60.1838
66.1323
76.6068
82.8652
96.6535
102.627
121.457
124.686
155.107
148.661
189.841
187.336
227.927
9.0422
14.7506
10.4785
11.2632
6.51975
4.28366
-1.98281
-6.24402
-13.6837
-19.3863
-27.12
-33.3087
-39.8202
-44.7899
-48.1302
-50.1608
-49.1074
-47.2538
-41.8367
-36.2216
-28.3399
-21.4123
-13.5747
-6.75823
-0.0272199
5.98011
11.2172
16.363
19.8513
24.0009
26.004
29.0563
30.1655
32.296
32.6577
34.4729
34.5822
35.624
35.5772
36.3042
36.0664
36.5515
36.2184
36.4637
36.217
36.1006
36.0535
35.6604
35.7888
35.1571
35.4283
34.655
35.014
34.4184
34.5127
34.1207
34.0609
33.7918
33.7273
33.56
33.4259
33.4324
33.1373
33.3682
32.8563
33.3359
32.608
33.2807
32.404
33.0804
32.5321
32.7319
32.5076
32.562
32.4063
32.4294
32.2959
32.2619
32.2228
32.0335
32.1645
31.7289
32.0433
31.354
31.841
30.9503
31.494
30.7042
30.939
30.3248
30.2673
29.7444
29.5301
29.0443
28.6538
28.1404
27.5986
26.9966
26.2577
25.5617
24.5088
23.7984
22.3024
21.545
19.5511
18.598
16.1887
14.7778
11.9895
10.0542
6.96934
4.46124
1.15495
-1.80865
-5.18465
-8.43189
-11.5485
-14.8266
-17.2577
-20.1759
-21.5503
-23.6395
-23.8447
-24.8511
-23.8537
-23.7786
-21.7944
-20.7033
-18.2547
-16.5626
-14.2497
-12.4941
-10.6625
-9.27682
-8.04957
-6.97588
-6.41494
-5.32961
-5.31438
-4.15239
-4.42297
-3.60164
-3.6465
-3.11889
-3.04853
-2.68379
-2.53083
-2.26793
-2.01664
-1.83052
-1.5088
-1.41576
-0.848512
-0.975871
-0.0854523
-0.382594
0.727444
0.347962
1.56126
1.44904
2.67728
2.84588
4.20508
4.62744
6.25645
6.90295
8.91864
9.8688
12.253
13.7875
16.504
18.8207
21.9513
25.1868
28.9201
33.1145
37.8649
42.8817
49.2235
54.8863
63.3313
69.5334
80.6266
87.1321
101.583
107.692
127.323
129.536
157.478
154.134
185.343
181.507
210.305
10.8164
15.9012
11.4485
11.9317
7.80607
5.7768
-0.193073
-4.34869
-11.8152
-17.8294
-26.0441
-33.1211
-40.817
-47.4327
-52.5306
-56.1382
-56.2752
-54.9225
-50.0331
-44.4337
-36.1705
-27.8789
-19.2498
-10.8549
-3.54594
3.60429
9.01526
14.9787
18.6883
23.1176
25.3526
28.5319
29.7999
31.7734
32.3074
33.9317
34.1027
35.0865
35.1169
35.6325
35.6473
35.9098
35.8617
35.8363
35.8858
35.6424
35.7857
35.3286
35.6168
34.9449
35.354
34.5696
34.9397
34.3577
34.4665
34.1794
34.0409
33.9342
33.6611
33.7675
33.3378
33.6585
33.07
33.582
32.8149
33.5312
32.5972
33.4528
32.4817
33.1892
32.6465
32.8151
32.701
32.5907
32.6777
32.4275
32.6231
32.2463
32.5852
32.0158
32.5049
31.7852
32.3819
31.5363
32.2023
31.223
31.8204
31.099
31.2449
30.7893
30.6779
30.3044
30.0234
29.7052
29.2478
28.9287
28.3211
27.9246
27.1682
26.6741
25.6378
25.0676
23.6209
22.9586
21.0584
20.1672
17.8454
16.5451
13.8619
11.9678
8.95672
6.39716
3.08534
-0.0986683
-3.59351
-7.23812
-10.655
-14.4284
-17.3459
-20.7598
-22.6967
-25.2047
-25.8087
-26.9953
-26.2628
-25.8994
-24.1887
-22.6447
-20.3482
-18.1705
-15.8514
-13.6163
-11.8114
-9.86829
-8.85094
-7.27348
-6.98551
-5.66955
-5.89289
-4.72161
-4.89538
-4.4026
-4.32406
-4.03569
-3.81376
-3.64724
-3.28327
-3.23679
-2.74694
-2.80104
-2.20672
-2.40064
-1.59846
-1.96397
-0.973554
-1.45163
-0.368503
-0.640855
0.170579
0.200243
1.00093
1.18529
2.12891
2.41916
3.59709
4.06152
5.49586
6.27602
7.95024
9.19162
11.1445
12.9766
15.2977
17.8134
20.7025
23.8725
27.7175
31.4025
36.6194
40.6951
47.7962
52.1467
61.6058
66.1194
78.5902
82.416
100.094
100.795
125.377
123.476
151.92
151.839
178.859
15.6439
19.1947
15.2564
15.3911
11.4987
9.49874
3.95751
-0.321836
-7.64905
-14.2359
-23.0485
-31.432
-40.6506
-48.941
-56.0692
-61.4824
-63.7852
-63.691
-59.3623
-52.9926
-43.961
-34.2338
-24.9037
-15.4487
-7.11678
0.964831
7.19627
13.7093
18.2287
23.0162
25.6499
29.0159
30.5585
32.6628
33.1613
34.8573
35.0263
36.2215
36.1248
36.8108
36.7108
37.0058
36.9078
36.8489
36.776
36.4996
36.5211
36.0174
36.1396
35.4868
35.683
34.9683
35.1164
34.6244
34.577
34.3126
34.1062
34.0018
33.6888
33.7745
33.3318
33.6273
33.0454
33.5152
32.7969
33.423
32.6008
33.2758
32.5178
33.0013
32.6659
32.6686
32.691
32.4983
32.6592
32.3636
32.6002
32.2045
32.5431
32.0065
32.4769
31.7673
32.3354
31.5205
32.1017
31.3113
31.7092
31.1784
31.2048
30.8612
30.7121
30.4119
30.1169
29.8599
29.414
29.1589
28.5576
28.2525
27.4952
27.1129
26.1501
25.6933
24.4032
23.8176
22.1764
21.3083
19.3212
17.9848
15.6362
13.7134
10.9558
8.35889
5.16928
1.91232
-1.64127
-5.43257
-9.09762
-13.1384
-16.484
-20.2569
-22.7521
-25.6019
-26.8207
-28.2657
-28.0241
-28.063
-26.3293
-24.8944
-22.0912
-19.7126
-16.7015
-14.201
-11.7985
-9.76817
-8.30954
-6.86236
-6.27974
-5.08301
-5.14349
-4.01557
-4.22933
-3.51721
-3.52112
-3.12844
-2.98131
-2.81098
-2.54218
-2.52419
-2.12445
-2.20159
-1.70891
-1.85823
-1.22123
-1.49235
-0.641691
-1.00347
-0.0953064
-0.326217
0.514857
0.489565
1.37942
1.51037
2.5101
2.82498
4.02043
4.51726
5.99018
6.76259
8.50785
9.72589
11.7766
13.5526
16.0255
18.4219
21.5316
24.5497
28.6231
32.1511
37.6711
41.5516
48.9279
53.0662
62.702
66.8942
79.4891
82.7087
99.6221
99.9674
121.628
119.284
142.055
140.919
162.338
17.6196
20.0298
17.0163
16.9529
13.3834
11.5413
6.31657
2.22137
-4.94099
-11.5166
-20.578
-29.4362
-39.9913
-50.193
-59.802
-67.8884
-72.7316
-74.4758
-70.7714
-64.2062
-54.5834
-43.2247
-31.7256
-20.5641
-11.2746
-1.97185
4.80338
12.154
17.0845
22.4166
25.3578
28.5848
30.2995
32.4885
32.9285
34.3034
34.5325
35.5788
35.5471
36.0216
36.1053
36.2385
36.2935
36.2291
36.3063
35.9633
36.1654
35.6463
35.9227
35.2592
35.5978
34.8634
35.1258
34.534
34.5852
34.3413
34.1109
34.0865
33.6973
33.8847
33.3548
33.7423
33.0858
33.6255
32.861
33.5412
32.6722
33.3914
32.6167
33.1047
32.7667
32.7737
32.8193
32.5873
32.8233
32.44
32.7973
32.2886
32.7575
32.1187
32.7011
31.9278
32.5891
31.7377
32.3648
31.5613
31.9847
31.4979
31.5138
31.2296
31.0791
30.8525
30.5617
30.3796
29.9563
29.7772
29.2257
29.0015
28.2957
28.0084
27.0752
26.7106
25.4949
24.9795
23.454
22.6626
20.8069
19.5857
17.3623
15.5618
12.9104
10.404
7.25588
3.9652
0.321642
-3.71555
-7.70359
-12.2044
-16.1403
-20.5405
-23.8098
-27.3429
-29.176
-31.1041
-31.0256
-30.8471
-29.1772
-27.3205
-24.5466
-21.5874
-18.4681
-15.2433
-12.7101
-9.99427
-8.58907
-6.68156
-6.32762
-5.00743
-5.29887
-4.39304
-4.70796
-4.26949
-4.32434
-4.06116
-3.88898
-3.76689
-3.38375
-3.44072
-2.88689
-3.04787
-2.40973
-2.66295
-1.91758
-2.27587
-1.43554
-1.80438
-1.03844
-1.21748
-0.606917
-0.638222
-0.00151829
0.0581254
0.784655
0.938016
1.82843
2.12628
3.20582
3.74678
5.01769
5.89312
7.42966
8.70978
10.6331
12.3516
14.857
16.9945
20.3833
22.8683
27.4908
30.2326
36.5225
39.4348
47.8284
50.7319
61.9592
64.1225
79.6394
79.4511
98.9
99.3264
119.758
120.233
140.308
21.7061
24.1733
21.3318
20.9335
17.9078
16.1114
11.4862
7.47568
0.564638
-6.36435
-15.9677
-26.0992
-37.9768
-50.3045
-62.9022
-74.262
-82.888
-87.6134
-86.7763
-80.3392
-69.9496
-56.0493
-42.4558
-28.4204
-17.422
-6.31465
1.58624
9.81181
15.9013
21.9857
25.784
29.1763
31.362
33.7529
34.0195
35.7073
35.7744
36.8877
36.9125
37.3959
37.5054
37.5689
37.6143
37.3775
37.4028
36.9463
37.0153
36.3928
36.536
35.7951
35.9964
35.2342
35.36
34.8014
34.6909
34.4964
34.1431
34.1516
33.6857
33.8771
33.3117
33.6949
33.0333
33.5599
32.7966
33.4518
32.6295
33.2718
32.5882
32.9842
32.7251
32.6676
32.769
32.4999
32.7764
32.3767
32.7583
32.2444
32.7394
32.0762
32.6989
31.8954
32.5726
31.7389
32.3347
31.5991
31.951
31.5548
31.508
31.311
31.1129
30.9665
30.6466
30.5431
30.1078
30.0167
29.4657
29.3516
28.6739
28.5038
27.6689
27.4149
26.3569
25.9542
24.648
23.9604
22.3852
21.2453
19.3342
17.6021
15.2388
12.7638
9.81345
6.46601
2.85691
-1.3342
-5.51511
-10.3651
-14.7633
-19.6973
-23.5957
-27.7591
-30.3971
-32.9316
-33.6881
-34.2344
-33.0133
-31.462
-28.2926
-24.9996
-20.9277
-17.1048
-13.5965
-10.5427
-8.43759
-6.4659
-5.72221
-4.35823
-4.5554
-3.41935
-3.91925
-3.10511
-3.32182
-3.01009
-2.83154
-2.92594
-2.5526
-2.77745
-2.25831
-2.52784
-1.94498
-2.2927
-1.5947
-1.99149
-1.15133
-1.55904
-0.793122
-0.989298
-0.419243
-0.404313
0.166184
0.288954
0.924571
1.1464
1.93038
2.27165
3.2526
3.80838
4.99725
5.84788
7.31229
8.51994
10.3863
11.9707
14.4472
16.3846
19.7576
21.9412
26.5938
28.9286
35.1856
37.6217
45.882
48.1312
59.136
60.2157
74.6837
74.5778
90.9717
90.7548
108.09
108.111
125.189
22.7519
25.5165
22.8084
22.6772
19.8235
18.4668
14.1967
10.7529
4.30228
-2.13949
-11.5794
-21.8392
-34.9762
-48.9038
-64.1334
-78.9009
-92.1587
-101.512
-103.835
-97.884
-85.9032
-69.0519
-53.0396
-36.3614
-23.3019
-10.6456
-1.48245
7.55279
13.7924
21.7588
24.968
28.8845
31.054
33.3795
33.9271
34.7992
35.2822
35.9183
36.0057
36.4694
36.613
36.6275
36.8516
36.6447
36.8336
36.3703
36.6333
36.0419
36.3315
35.6165
35.9338
35.1842
35.401
34.7835
34.732
34.5499
34.1694
34.2466
33.7078
33.991
33.3512
33.8022
33.089
33.6656
32.8818
33.5514
32.7243
33.371
32.6905
33.0853
32.8165
32.768
32.8802
32.5827
32.8991
32.4589
32.901
32.3431
32.895
32.2128
32.8649
32.0632
32.7728
31.9202
32.5575
31.812
32.1891
31.8008
31.7649
31.6079
31.4085
31.3222
30.9982
30.958
30.5373
30.5007
29.9862
29.9249
29.286
29.1784
28.3791
28.193
27.2082
26.8669
25.6856
25.0712
23.6555
22.6382
20.9032
19.3289
17.1482
14.8451
12.0542
8.86125
5.3081
1.098
-3.25356
-8.3835
-13.31
-18.9294
-23.7864
-28.8926
-32.5133
-35.9002
-37.1541
-37.6964
-36.3129
-34.3337
-31.0623
-27.0972
-22.8161
-17.9431
-14.1105
-9.91279
-7.83195
-5.29019
-4.9452
-3.52062
-4.15034
-3.45173
-4.38501
-3.87899
-4.34976
-3.97327
-3.94877
-3.75649
-3.41135
-3.54181
-2.95584
-3.16925
-2.4984
-2.82203
-2.10098
-2.49398
-1.74229
-2.08732
-1.50052
-1.63223
-1.20924
-1.24741
-0.788017
-0.792029
-0.281548
-0.216887
0.40116
0.556142
1.33944
1.62983
2.58014
3.09639
4.28587
5.05679
6.61451
7.63431
9.73426
11.0128
13.8462
15.3065
19.2593
20.7853
26.2039
27.7249
35.0538
36.398
46.2624
46.9161
59.3083
60.3618
74.6467
76.0452
91.2799
92.3382
108.231
26.4615
28.6215
26.456
26.3175
23.8773
22.6291
18.9793
15.8186
10.0654
3.89576
-5.14374
-15.7325
-29.3309
-45.027
-62.8154
-81.3098
-100.227
-116.09
-125.226
-123.486
-113.093
-92.4183
-71.7085
-49.3325
-32.9752
-17.2252
-6.66396
3.67974
11.0485
20.0367
24.2408
30.0224
32.5595
34.9379
34.8449
36.9607
36.6
37.6974
37.6085
38.0974
38.3574
38.2554
38.371
37.9998
37.964
37.4244
37.4949
36.7496
36.966
36.0968
36.3322
35.5107
35.6293
35.049
34.847
34.6938
34.2024
34.289
33.6687
33.9656
33.2657
33.7338
33.0096
33.5785
32.8038
33.4759
32.6519
33.2887
32.6289
33.0027
32.7519
32.6789
32.8233
32.4927
32.8654
32.3794
32.8682
32.2786
32.8871
32.1623
32.8688
32.0487
32.7952
31.9275
32.5809
31.8276
32.2023
31.8488
31.7715
31.6994
31.44
31.4373
31.0776
31.1129
30.679
30.7316
30.2196
30.2607
29.6682
29.6593
28.9635
28.8767
28.0383
27.8142
26.8195
26.3488
25.1718
24.2921
22.8659
21.4459
19.5986
17.4467
14.9451
11.8196
8.40011
4.09035
-0.407836
-5.96528
-11.418
-17.715
-23.348
-29.413
-34.0524
-38.5179
-40.8927
-42.694
-42.4263
-41.3319
-38.0626
-33.8294
-28.3453
-22.4508
-16.8047
-11.8131
-8.08074
-5.25716
-4.24244
-2.61699
-2.96454
-1.92268
-2.94337
-2.37228
-2.85555
-2.79935
-2.61823
-2.97326
-2.58535
-3.01343
-2.42128
-2.811
-2.14348
-2.65588
-1.95615
-2.40766
-1.57341
-2.03605
-1.30796
-1.51742
-1.16622
-1.12184
-0.813291
-0.699862
-0.383898
-0.21828
0.185754
0.424765
0.981162
1.31676
2.06875
2.55751
3.54277
4.22991
5.56896
6.45629
8.32044
9.38551
12.0979
13.1051
16.9424
17.9609
23.0832
24.0921
30.8386
31.7227
40.3631
41.4573
51.6568
53.0235
64.6807
66.1336
79.2702
80.2559
94.4363
27.1331
29.7991
27.3016
27.7928
25.5171
24.8
21.6164
19.1647
14.0499
8.67615
0.243387
-9.69062
-23.3049
-38.9574
-58.1567
-78.9373
-102.907
-125.897
-142.651
-145.798
-137.767
-114.545
-90.4501
-63.6434
-42.0743
-23.4976
-10.6604
0.441635
7.97033
17.901
22.7615
29.517
31.9344
35.3208
35.1333
35.8757
35.7315
36.3245
36.4599
36.733
37.0398
37.0661
37.5432
37.1949
37.4791
36.8497
37.2295
36.4481
36.8379
36.0395
36.3566
35.5486
35.7087
35.167
34.9222
34.838
34.2455
34.4263
33.7091
34.0904
33.3179
33.8392
33.069
33.6915
32.8713
33.5897
32.7394
33.3997
32.7201
33.111
32.8359
32.7598
32.9153
32.5512
32.9691
32.4491
32.9874
32.3554
33.0327
32.2499
33.0321
32.1517
32.9797
32.0566
32.7837
32.0005
32.4078
32.0543
31.9653
31.9536
31.6692
31.7358
31.342
31.4763
30.9782
31.1642
30.5597
30.7579
30.0765
30.2157
29.4883
29.494
28.7067
28.5497
27.6661
27.2637
26.2703
25.5056
24.2945
23.053
21.4646
19.5569
17.3513
14.5105
11.359
7.26721
2.8698
-2.65762
-8.34948
-15.2
-21.7521
-28.9265
-34.9509
-40.6857
-44.1839
-46.347
-46.1628
-44.4974
-41.2161
-36.3484
-30.7159
-23.4563
-17.5156
-10.4824
-6.87663
-2.82241
-2.59681
-0.912841
-2.05656
-1.69562
-3.61493
-3.52296
-4.52381
-3.97904
-3.81648
-3.63849
-3.27961
-3.67091
-2.98298
-3.25325
-2.40693
-2.91688
-2.2092
-2.77336
-1.92801
-2.38302
-1.76618
-1.89327
-1.69787
-1.67579
-1.44571
-1.36757
-1.17747
-1.06709
-0.809389
-0.663315
-0.280287
-0.0718327
0.470234
0.737761
1.54379
1.86067
3.04236
3.41041
5.10432
5.46649
7.90479
8.27699
11.5395
11.9453
16.3243
16.6784
22.6422
23.0199
30.5521
31.2997
40.4048
41.5417
52.2421
53.545
65.7449
66.7279
80.3407
29.7392
32.7235
29.8618
30.6223
28.5337
27.8996
25.3089
23.2289
19.0417
14.3116
6.98011
-2.2155
-14.811
-30.1704
-49.1276
-71.0281
-97.5638
-125.949
-152.385
-166.289
-168.317
-146.052
-114.432
-83.1238
-56.3362
-33.9671
-17.8228
-4.03323
3.93119
14.6963
20.5257
28.1172
33.51
36.1718
37.3394
38.5961
37.8328
38.3526
38.484
38.6318
39.1724
38.7988
39.17
38.5681
38.7082
37.7737
38.0052
37.051
37.3672
36.3747
36.692
35.7829
35.885
35.3919
35.0433
34.9602
34.2888
34.4259
33.6205
34.0305
33.1528
33.7589
32.9143
33.6227
32.7365
33.5439
32.6378
33.3633
32.6386
33.0614
32.7663
32.6838
32.8546
32.4601
32.9263
32.364
32.9553
32.282
33.0421
32.1809
33.0832
32.1125
33.0353
32.0591
32.8242
32.0253
32.4451
32.088
31.9711
32.0266
31.6786
31.8469
31.365
31.6383
31.0329
31.3829
30.6958
31.0593
30.3274
30.632
29.8951
30.0575
29.3406
29.3099
28.5959
28.3054
27.5425
26.9075
25.9957
24.9386
23.7042
22.0359
20.2221
17.6515
14.8661
10.9792
6.73082
1.06162
-5.0114
-12.5984
-20.196
-28.8371
-36.3645
-43.9704
-49.027
-53.2619
-54.5603
-54.846
-52.2102
-47.7338
-40.9875
-32.3076
-23.0861
-14.5433
-7.43145
-2.62994
-1.42649
0.553407
0.0234043
1.294
-0.692823
-0.902296
-2.10707
-3.05912
-2.53414
-3.0548
-2.56331
-3.28382
-2.71941
-3.07755
-2.31467
-2.86253
-2.1771
-2.79808
-1.91705
-2.39761
-1.69336
-1.84082
-1.64786
-1.60691
-1.50218
-1.39183
-1.32756
-1.17862
-1.10172
-0.937741
-0.761509
-0.53167
-0.206753
0.100149
0.592607
0.933301
1.76852
2.12981
3.45241
3.75139
5.87825
6.04366
9.0139
9.11317
12.987
12.9394
18.2362
18.0702
24.7258
24.8641
32.8299
33.24
42.5684
43.1554
54.1094
54.5806
67.3243
29.4727
33.9106
30.3648
31.7339
29.6757
29.4416
27.2137
25.6609
22.0992
18.2441
11.9043
4.01795
-7.3864
-21.0932
-39.3665
-59.3956
-85.8487
-115.657
-146.129
-168.123
-177.529
-167.614
-134.131
-100.101
-67.5781
-41.697
-23.357
-7.69419
0.877685
10.6987
17.8288
25.6151
31.0146
35.0845
34.3848
37.1674
36.3895
36.7278
36.7485
36.6022
37.3668
37.3686
38.269
37.8877
38.3361
37.4634
37.8225
36.9091
37.3342
36.4943
36.7855
35.9794
36.01
35.6019
35.1517
35.2088
34.3576
34.6463
33.686
34.1819
33.2027
33.8777
32.9453
33.7561
32.7654
33.6886
32.6994
33.4919
32.7192
33.1689
32.8596
32.748
32.943
32.481
33.02
32.3565
33.074
32.2876
33.1733
32.2155
33.2182
32.1792
33.1933
32.1514
32.9987
32.1522
32.6169
32.2574
32.127
32.2321
31.8282
32.1193
31.5194
31.9558
31.2123
31.7405
30.9116
31.4608
30.5946
31.0826
30.236
30.5628
29.7821
29.8899
29.1873
29.0136
28.3592
27.831
27.1112
26.2255
25.2584
23.8494
22.3873
20.1876
17.826
14.3815
10.5582
5.2338
-0.669202
-8.42883
-16.5979
-26.2896
-35.2951
-44.5793
-51.3671
-56.1761
-58.4587
-58.6472
-56.7653
-52.0565
-45.8103
-35.6153
-26.2576
-14.1381
-6.40436
1.6113
1.76543
3.27079
1.19388
0.858125
-1.55453
-3.26006
-4.75307
-3.92576
-3.84137
-3.29488
-2.91291
-3.95852
-3.20584
-3.42609
-2.10313
-2.87862
-2.25858
-3.18905
-2.14737
-2.58805
-1.91741
-2.11422
-2.09816
-2.00612
-1.92855
-1.72814
-1.83474
-1.66377
-1.75332
-1.57456
-1.59706
-1.37537
-1.30657
-1.06316
-0.821377
-0.593069
-0.0346448
0.0859732
1.10971
1.12784
2.78605
2.57341
5.02544
4.6943
7.85095
7.32597
11.7326
11.1973
16.6326
16.7049
23.3068
24.0009
31.7367
32.5467
42.0899
42.6733
54.6809
31.0403
36.1926
31.9739
33.6719
31.5194
31.2988
29.5226
28.1624
25.3654
22.0367
16.8784
10.1528
0.480057
-11.4938
-27.552
-45.7286
-69.2206
-95.5449
-125.942
-152.797
-169.904
-169.838
-141.898
-112.092
-81.8391
-53.8807
-32.6021
-13.4637
-2.60158
7.17266
14.4541
23.0903
30.9667
36.7377
37.4527
38.6812
38.8863
38.8324
39.0763
38.9865
39.1529
38.9332
39.5216
39.0518
39.1712
38.3459
38.3917
37.3509
37.6502
36.6683
37.0525
36.1674
36.2213
35.8159
35.314
35.3669
34.4771
34.657
33.605
34.1199
33.0045
33.771
32.7558
33.6721
32.6091
33.6601
32.5759
33.4916
32.641
33.1541
32.8095
32.6899
32.8958
32.379
32.9965
32.2776
33.0557
32.201
33.2233
32.1156
33.3244
32.1061
33.2943
32.1386
33.0775
32.1879
32.6724
32.3188
32.1346
32.3283
31.7874
32.2436
31.4996
32.1172
31.2021
31.9516
30.957
31.7221
30.741
31.4234
30.5029
31.0176
30.1934
30.5001
29.797
29.83
29.2986
28.8849
28.4254
27.6975
27.0694
25.9186
24.8707
23.046
21.1951
18.2152
14.9159
9.98544
4.38758
-3.42551
-12.1154
-22.9383
-33.7228
-45.7925
-54.9943
-62.8007
-66.6391
-69.3451
-69.1033
-66.3775
-60.6654
-49.7112
-36.5241
-23.1148
-9.22232
1.36615
3.7683
5.05821
5.04789
6.99958
4.40561
2.19648
-2.28833
-4.87146
-3.08841
-3.27357
-2.1323
-3.24819
-3.37557
-3.85432
-2.43736
-2.76373
-2.00484
-3.15008
-2.45196
-2.76618
-1.81445
-1.97028
-1.8315
-1.93594
-1.97759
-1.80218
-1.88236
-1.70617
-1.95849
-1.81022
-1.99248
-1.77568
-1.82456
-1.53248
-1.5973
-1.33271
-1.16088
-0.935644
-0.402954
-0.395394
1.07984
0.683486
2.76459
2.34252
4.89433
3.95413
7.98035
6.71643
11.3912
10.6602
16.488
15.8794
23.0376
22.1191
30.9888
30.0753
41.9063
30.4318
36.9621
32.3769
34.3832
32.341
32.2754
30.7365
29.633
27.2867
24.5991
20.2527
14.7593
6.52006
-3.53631
-17.5787
-33.3626
-53.7354
-76.2439
-101.625
-125.499
-143.039
-150.478
-138.779
-114.88
-87.387
-59.8561
-38.3995
-18.6753
-6.43424
3.23921
11.6789
19.6122
26.3104
32.6831
35.314
35.3945
36.0706
36.688
36.3807
36.6781
37.4992
37.5994
38.7404
38.5096
38.9755
38.0921
38.4978
37.2491
37.7695
36.8663
37.1544
36.3877
36.3365
36.0746
35.3866
35.6833
34.5655
34.9901
33.7193
34.2892
33.0553
33.8832
32.7562
33.7879
32.6022
33.8023
32.6102
33.6102
32.7232
33.2473
32.9317
32.7176
33.0209
32.3467
33.0793
32.2037
33.1501
32.1185
33.3366
32.0761
33.4465
32.1061
33.421
32.1929
33.2033
32.2872
32.7939
32.4529
32.2399
32.4991
31.863
32.4603
31.5549
32.4031
31.2534
32.2637
31.0346
32.0571
30.8562
31.7621
30.7056
31.3626
30.4986
30.8776
30.2069
30.2937
29.8426
29.5014
29.1914
28.576
28.1647
27.2349
26.5029
25.0366
23.6481
21.2286
18.5657
14.3196
9.36453
2.0667
-6.49592
-17.9918
-29.8204
-43.8921
-55.0862
-62.7943
-66.8405
-69.0797
-70.6308
-69.0114
-66.3822
-56.9273
-44.4742
-26.6979
-12.2488
6.3588
10.7907
7.54955
3.24074
2.86721
2.83778
-0.796977
-4.70504
-4.7662
-5.10875
-2.48094
-2.39455
-3.77088
-4.16932
-3.87607
-1.81078
-2.22664
-2.23992
-3.72669
-2.49023
-2.87361
-1.84459
-2.18488
-2.29267
-2.26518
-2.12194
-1.84909
-2.08165
-1.91308
-2.1975
-2.00445
-2.40571
-2.16908
-2.40177
-2.18735
-2.24669
-2.0806
-2.03849
-2.05274
-1.68528
-1.73233
-0.794425
-1.36532
0.36591
-0.272432
1.74101
0.233772
3.56677
1.95873
5.28824
4.39578
8.78561
9.40241
13.5363
14.4804
19.4243
20.0062
29.1019
31.5971
37.9143
33.1197
35.3437
33.1997
33.0182
31.8221
30.7094
28.8466
26.4159
22.8408
18.1655
11.2975
2.79134
-9.19344
-23.0237
-40.9585
-60.8387
-83.7221
-106.107
-123.814
-133.475
-128.586
-112.758
-91.1485
-66.2908
-44.8782
-24.8612
-11.1414
-0.48142
9.69904
19.6708
27.681
34.5797
37.2348
40.399
38.6978
40.1105
39.0845
38.4848
38.8144
38.6018
39.1902
39.0024
39.5698
38.3518
38.9754
37.4515
38.1027
36.9424
37.4069
36.5804
36.5425
36.3764