/*--------------------------------*- C++ -*----------------------------------*\
| =========                 |                                                 |
| \\      /  F ield         | OpenFOAM: The Open Source CFD Toolbox           |
|  \\    /   O peration     | Version:  4.1                                   |
|   \\  /    A nd           | Web:      www.OpenFOAM.org                      |
|    \\/     M anipulation  |                                                 |
\*---------------------------------------------------------------------------*/
FoamFile
{
    version     2.0;
    format      ascii;
    class       volScalarField;
    location    "0.5";
    object      epsilon;
}
// * * * * * * * * * * * * * * * * * * * * * * * * * * * * * * * * * * * * * //

dimensions      [0 2 -3 0 0 0 0];

internalField   nonuniform List<scalar> 
204246
(
2.62297
3.4416
3.71045
3.86007
4.02875
4.08932
4.12292
4.1675
4.20957
4.22459
4.26502
4.27335
4.30187
4.30826
4.33862
4.34533
4.381
4.37388
4.39225
4.39573
4.39122
4.38973
4.37892
4.37654
4.36927
4.37083
4.37017
4.37458
4.37835
4.38652
4.38797
4.39078
4.39068
4.39422
4.3928
4.39732
4.38374
4.3916
4.39161
4.38353
4.381
4.37076
4.36987
4.36909
4.37532
4.38098
4.39353
4.39563
4.39808
4.39486
4.39732
4.39707
4.39873
4.38475
4.39229
4.3922
4.3845
4.38273
4.36982
4.36631
4.36423
4.36985
4.3755
4.39298
4.39891
4.40532
4.40308
4.40528
4.40559
4.40766
4.39477
4.40094
4.40029
4.39147
4.38585
4.36863
4.36303
4.35815
4.36561
4.37183
4.39261
4.39906
4.40695
4.40379
4.40298
4.40012
4.4004
4.38842
4.39794
4.40488
4.40393
4.40237
4.3968
4.3875
4.37198
4.36509
4.35939
4.36814
4.3723
4.39751
4.40316
4.40996
4.40704
4.40438
4.40487
4.40637
4.39674
4.40573
4.40227
4.39345
4.38578
4.36864
4.362
4.35435
4.36499
4.36642
4.39011
4.39693
4.40543
4.4049
4.40486
4.40465
4.40622
4.39297
4.40053
4.39793
4.39172
4.3885
4.3773
4.37502
4.37396
4.38127
4.38474
4.3989
4.40256
4.40518
4.4049
4.40717
4.40915
4.41304
4.40154
4.41055
4.40686
4.40067
4.39707
4.38303
4.37815
4.37631
4.38616
4.39202
4.41642
4.42532
4.43555
4.44008
4.44218
4.45138
4.45668
4.45307
4.47296
4.47855
4.4906
4.49541
4.50954
4.51453
4.52874
4.53324
4.54889
4.55637
4.58284
4.60674
4.65161
4.68629
4.73497
4.77209
4.83581
4.89683
4.97849
5.07485
5.09299
5.07843
4.87942
4.38825
3.56105
2.61959
1.83888
1.52372
1.39883
1.33656
1.25569
1.07686
0.909498
0.824803
0.79084
0.0122819
0.292956
0.309468
0.31353
0.330034
0.329392
0.338851
0.337796
0.346572
0.343864
0.352629
0.349004
0.357541
0.353628
0.363931
0.36486
0.385563
0.392912
0.395249
0.403155
0.384575
0.391958
0.374799
0.38097
0.373565
0.382413
0.381967
0.396122
0.389931
0.403545
0.391924
0.400798
0.385485
0.395305
0.384802
0.396839
0.392388
0.389188
0.397578
0.382654
0.388317
0.37644
0.383693
0.378163
0.393142
0.390037
0.406471
0.394294
0.403624
0.386982
0.394335
0.386517
0.397071
0.392008
0.388535
0.397608
0.383485
0.389514
0.374761
0.380071
0.373858
0.386093
0.383244
0.404324
0.395848
0.406929
0.391304
0.398074
0.389037
0.399187
0.393346
0.389095
0.396763
0.385096
0.389442
0.371949
0.375563
0.368692
0.381298
0.38194
0.403685
0.393922
0.404182
0.389376
0.397473
0.388953
0.400154
0.395697
0.393419
0.405947
0.399566
0.407473
0.396887
0.402293
0.377285
0.381309
0.363684
0.375535
0.373191
0.399617
0.396823
0.412294
0.401011
0.40703
0.395667
0.40483
0.395498
0.39567
0.401549
0.390478
0.395217
0.37085
0.375172
0.359585
0.371811
0.370193
0.397565
0.400572
0.412217
0.399657
0.407014
0.392416
0.401964
0.392791
0.390768
0.397976
0.386007
0.392105
0.373937
0.381452
0.373639
0.387681
0.385692
0.406777
0.400459
0.411053
0.397952
0.405956
0.394286
0.405057
0.396054
0.393063
0.399847
0.386986
0.393272
0.375187
0.381083
0.371702
0.386871
0.388488
0.420339
0.417414
0.433402
0.420734
0.431635
0.419938
0.435605
0.42624
0.422825
0.445872
0.439073
0.465744
0.460372
0.484489
0.47767
0.499236
0.494137
0.538818
0.550282
0.649548
0.68851
0.774629
0.796134
0.884978
0.9293
1.09023
1.18165
1.35983
1.64556
1.84281
1.90797
1.76871
1.27866
0.547254
0.339422
0.295985
0.29191
0.288698
0.290368
0.289522
0.299844
0.305955
0.307646
0.213035
0.209568
0.206286
0.204817
0.20365
0.202852
0.202405
0.201957
0.201878
0.201637
0.201581
0.20152
0.201542
0.201545
0.201689
0.201598
0.201717
0.201871
0.20189
0.202179
0.201562
0.20192
0.201404
0.201722
0.201433
0.201738
0.201559
0.201966
0.20168
0.202204
0.201717
0.202176
0.201665
0.202135
0.201695
0.202128
0.201874
0.201751
0.202049
0.201487
0.201771
0.201414
0.201721
0.201462
0.201829
0.201644
0.202253
0.201795
0.202247
0.201702
0.202068
0.201746
0.202123
0.201885
0.201775
0.202107
0.201531
0.201784
0.201395
0.201677
0.201411
0.201739
0.201524
0.202145
0.201779
0.202271
0.201737
0.202116
0.201792
0.202199
0.201979
0.201849
0.202096
0.201642
0.201776
0.201314
0.201554
0.201277
0.201585
0.201456
0.202101
0.201797
0.202259
0.201728
0.202112
0.201787
0.202173
0.201958
0.201912
0.202365
0.20204
0.202372
0.201896
0.202117
0.201417
0.201697
0.201205
0.201582
0.201447
0.202063
0.202048
0.202541
0.202106
0.202399
0.202018
0.202442
0.20204
0.202034
0.20224
0.201771
0.201938
0.201271
0.201577
0.201123
0.201477
0.201298
0.20183
0.201975
0.2025
0.202023
0.202395
0.201923
0.20238
0.202015
0.20196
0.202217
0.201697
0.201882
0.201342
0.201652
0.201291
0.201671
0.201474
0.202023
0.201857
0.202365
0.201917
0.202341
0.201922
0.20243
0.20209
0.202025
0.202283
0.201737
0.201929
0.201398
0.20172
0.201371
0.201794
0.201711
0.20244
0.202354
0.203087
0.20267
0.203276
0.202899
0.203646
0.20327
0.203255
0.20425
0.203989
0.205315
0.205112
0.2065
0.206219
0.207606
0.207377
0.209922
0.210929
0.217768
0.222593
0.233181
0.236562
0.247567
0.255374
0.279376
0.299689
0.3381
0.398911
0.461447
0.484596
0.465224
0.382088
0.272425
0.246557
0.239551
0.238272
0.239583
0.246831
0.25105
0.252227
0.249852
0.247662
0.209237
0.207446
0.20469
0.203709
0.202563
0.20215
0.201692
0.201498
0.20141
0.201342
0.201294
0.20125
0.201248
0.201193
0.201191
0.201171
0.201121
0.201113
0.20108
0.201065
0.201036
0.201067
0.201238
0.20127
0.20128
0.201268
0.201203
0.201223
0.201223
0.2012
0.201193
0.201198
0.201198
0.20113
0.201132
0.201131
0.201075
0.201061
0.200985
0.200998
0.201166
0.201264
0.201277
0.201248
0.201253
0.201237
0.20118
0.201178
0.20115
0.201088
0.201078
0.201059
0.201055
0.201036
0.201026
0.201137
0.201244
0.201258
0.201267
0.201251
0.201149
0.201163
0.201159
0.201138
0.201221
0.201241
0.201249
0.201253
0.201238
0.201237
0.201192
0.201207
0.201203
0.201119
0.201134
0.201123
0.201033
0.201032
0.200967
0.200956
0.201105
0.201207
0.201271
0.201286
0.201295
0.201295
0.201171
0.201173
0.201172
0.20117
0.201213
0.201229
0.201213
0.201136
0.201137
0.201107
0.201064
0.201048
0.201021
0.20109
0.201228
0.201252
0.20125
0.201247
0.201229
0.201215
0.20113
0.201124
0.201097
0.201042
0.201015
0.200955
0.201016
0.201233
0.201308
0.201329
0.201314
0.201225
0.201222
0.20119
0.201179
0.201161
0.201123
0.201127
0.201087
0.201101
0.201096
0.201089
0.201193
0.201245
0.201265
0.201262
0.201198
0.201212
0.201214
0.201159
0.201169
0.201168
0.201135
0.201161
0.201148
0.201135
0.201126
0.20112
0.201095
0.201042
0.201026
0.200969
0.201021
0.201222
0.201265
0.201274
0.201275
0.201169
0.201179
0.201153
0.201058
0.201059
0.200969
0.200931
0.20095
0.201004
0.201019
0.201092
0.201113
0.201206
0.201252
0.201441
0.201657
0.202177
0.202728
0.203532
0.203966
0.204965
0.206133
0.208876
0.211875
0.217166
0.226472
0.238842
0.246316
0.245423
0.236712
0.226574
0.225706
0.226356
0.223064
0.219014
0.21875
0.220835
0.224159
0.225385
0.22586
0.208203
0.206997
0.204775
0.204055
0.203033
0.202601
0.202303
0.201985
0.201834
0.201638
0.201608
0.201598
0.201578
0.201456
0.201457
0.201437
0.201314
0.201314
0.201297
0.201213
0.201219
0.201179
0.201176
0.20132
0.201364
0.201377
0.201372
0.201312
0.20133
0.20132
0.201241
0.201237
0.20121
0.201175
0.201145
0.201145
0.201147
0.201136
0.201214
0.201219
0.20122
0.201211
0.201183
0.201178
0.201141
0.20113
0.201118
0.201148
0.201284
0.201328
0.201344
0.20134
0.201304
0.201293
0.20124
0.201244
0.201198
0.201163
0.20118
0.201185
0.201202
0.201199
0.201194
0.201196
0.201152
0.201108
0.20124
0.201352
0.201342
0.201287
0.201291
0.201264
0.201206
0.2012
0.2012
0.201201
0.20112
0.20112
0.201078
0.201063
0.201202
0.201281
0.201294
0.201291
0.201294
0.20129
0.201254
0.201237
0.201151
0.201156
0.20114
0.201055
0.201057
0.200971
0.200966
0.20115
0.2013
0.201384
0.201408
0.201392
0.201394
0.201355
0.201313
0.201318
0.201314
0.201254
0.201266
0.201259
0.201218
0.201233
0.201259
0.201306
0.201316
0.201279
0.201279
0.201218
0.201167
0.20115
0.201105
0.201098
0.201061
0.201039
0.201016
0.201033
0.20123
0.201316
0.201324
0.201287
0.201305
0.201298
0.201212
0.201207
0.201184
0.201136
0.201108
0.201049
0.201091
0.201265
0.201369
0.201414
0.201439
0.20144
0.201369
0.201391
0.201395
0.201321
0.20134
0.201336
0.201296
0.201299
0.201267
0.201264
0.201263
0.201169
0.201172
0.201163
0.201119
0.201103
0.201012
0.201034
0.20124
0.20135
0.201385
0.201398
0.201392
0.201297
0.201302
0.201309
0.201333
0.201447
0.201477
0.201478
0.201471
0.201605
0.201902
0.202275
0.202647
0.203353
0.204653
0.206526
0.209009
0.211619
0.216931
0.226841
0.232782
0.231789
0.221092
0.215398
0.215138
0.216431
0.216782
0.21691
0.217233
0.206516
0.206105
0.204474
0.203793
0.202772
0.202404
0.202053
0.201746
0.20162
0.201519
0.201466
0.201357
0.201354
0.201311
0.201261
0.20128
0.201278
0.201213
0.201227
0.201217
0.201159
0.201154
0.201157
0.201144
0.201116
0.201113
0.201093
0.201056
0.20103
0.200994
0.201075
0.201219
0.201248
0.201264
0.201262
0.201198
0.201213
0.20122
0.201166
0.201167
0.201163
0.201142
0.201204
0.201215
0.201217
0.201216
0.201204
0.201192
0.201101
0.201103
0.201072
0.200972
0.200973
0.200888
0.200869
0.201033
0.20118
0.201237
0.201262
0.201284
0.201277
0.201225
0.201253
0.201252
0.201178
0.20118
0.20116
0.201114
0.201094
0.201051
0.201114
0.201268
0.201299
0.201311
0.201312
0.201303
0.201286
0.201229
0.201252
0.201247
0.201236
0.201242
0.201232
0.201274
0.201273
0.201218
0.201225
0.201199
0.201123
0.201114
0.201103
0.201093
0.201056
0.201
0.201067
0.201274
0.201358
0.201383
0.20138
0.201314
0.201324
0.20131
0.201198
0.201201
0.201179
0.201123
0.201111
0.201049
0.201077
0.201218
0.201251
0.201264
0.201252
0.201218
0.201253
0.201276
0.201297
0.201299
0.201259
0.201269
0.201275
0.201255
0.201284
0.20128
0.201209
0.201218
0.201215
0.201177
0.201165
0.201106
0.201108
0.201041
0.200997
0.201112
0.201289
0.201366
0.201405
0.20142
0.201416
0.201342
0.201359
0.201362
0.201326
0.201324
0.201257
0.201261
0.201266
0.201218
0.201273
0.201275
0.201276
0.201263
0.201167
0.201165
0.201096
0.201073
0.201176
0.201341
0.201397
0.20141
0.201392
0.201304
0.201302
0.201272
0.201244
0.201223
0.201181
0.201265
0.20149
0.201631
0.201696
0.201718
0.201709
0.201697
0.201872
0.202186
0.202434
0.202619
0.20291
0.203272
0.203998
0.205887
0.210925
0.221348
0.229216
0.229549
0.220386
0.212176
0.211219
0.211753
0.212526
0.212815
0.212884
0.205257
0.20477
0.203744
0.203343
0.202629
0.202332
0.202021
0.201784
0.201667
0.2015
0.201439
0.201411
0.201337
0.201242
0.201216
0.201215
0.201203
0.201179
0.201167
0.201139
0.201189
0.201331
0.201338
0.201341
0.201326
0.201234
0.201238
0.20123
0.201221
0.201211
0.201088
0.201089
0.201252
0.201331
0.20137
0.20138
0.201372
0.201396
0.201391
0.201315
0.201324
0.201306
0.2012
0.201199
0.201191
0.201169
0.201165
0.201073
0.201076
0.201071
0.201006
0.200999
0.200904
0.200902
0.201071
0.201172
0.201229
0.20127
0.201291
0.2013
0.201288
0.201276
0.201281
0.20122
0.201234
0.201224
0.201138
0.20114
0.201153
0.201175
0.20125
0.201229
0.201228
0.201195
0.201159
0.201161
0.201102
0.201099
0.201019
0.200969
0.201089
0.201219
0.201269
0.201295
0.201314
0.201302
0.201276
0.201278
0.201208
0.201203
0.201178
0.201124
0.201101
0.201053
0.201123
0.201329
0.201394
0.201403
0.201373
0.201372
0.201317
0.201267
0.201267
0.201263
0.201211
0.201214
0.201191
0.201166
0.201161
0.201147
0.201201
0.201247
0.201271
0.201273
0.201247
0.201289
0.201287
0.201285
0.201287
0.201219
0.201197
0.201211
0.201213
0.20116
0.201159
0.201114
0.201106
0.201243
0.201377
0.201409
0.201421
0.201421
0.201311
0.201312
0.201305
0.201233
0.201235
0.201181
0.20118
0.201179
0.201178
0.201155
0.201069
0.20107
0.200971
0.200953
0.201082
0.201196
0.201252
0.201337
0.201362
0.201373
0.201375
0.201268
0.201267
0.201243
0.201155
0.201154
0.201072
0.201066
0.201212
0.201308
0.201327
0.201297
0.201295
0.201262
0.201234
0.201232
0.201234
0.201386
0.201491
0.201527
0.201507
0.201496
0.201608
0.201849
0.201958
0.202035
0.202176
0.202387
0.202864
0.204744
0.210161
0.221859
0.231201
0.231664
0.221017
0.210884
0.209441
0.20965
0.209868
0.209953
0.210124
0.204788
0.204558
0.203624
0.203269
0.202682
0.202337
0.202123
0.201881
0.201728
0.20156
0.201514
0.201484
0.201374
0.201289
0.201291
0.201263
0.201177
0.201179
0.201163
0.201125
0.201122
0.201009
0.20101
0.2012
0.201321
0.201346
0.201336
0.201266
0.201265
0.20124
0.201199
0.201199
0.201164
0.201162
0.201109
0.201077
0.201205
0.201286
0.201311
0.201308
0.201223
0.201222
0.201213
0.201116
0.201117
0.20105
0.201024
0.201105
0.201223
0.201275
0.201278
0.201276
0.201227
0.201198
0.201213
0.201215
0.201161
0.201164
0.201131
0.201129
0.201257
0.201274
0.201278
0.201239
0.201154
0.20115
0.201116
0.201082
0.201061
0.201034
0.201136
0.201198
0.201215
0.201216
0.201192
0.201192
0.201142
0.201146
0.20115
0.201116
0.201183
0.201196
0.201205
0.201208
0.201203
0.201313
0.20135
0.201369
0.201357
0.201294
0.20131
0.201299
0.201282
0.201289
0.201214
0.201224
0.201213
0.20111
0.201113
0.201057
0.201015
0.201041
0.201097
0.201237
0.201299
0.201319
0.201318
0.201241
0.20125
0.201239
0.201122
0.201121
0.201083
0.201012
0.201014
0.200909
0.200896
0.201032
0.201139
0.20123
0.20136
0.20141
0.201432
0.20144
0.20139
0.201407
0.201411
0.201341
0.201355
0.20135
0.201258
0.201272
0.20126
0.201202
0.201219
0.201227
0.201243
0.201246
0.201201
0.2012
0.201168
0.201105
0.201094
0.201099
0.201077
0.201048
0.201109
0.201238
0.201273
0.201261
0.201181
0.201178
0.201173
0.20115
0.201136
0.201097
0.201082
0.201043
0.201087
0.201318
0.201393
0.201414
0.201414
0.201314
0.20132
0.201309
0.20121
0.201211
0.20114
0.201119
0.201186
0.20124
0.201315
0.201433
0.201616
0.201763
0.201836
0.201898
0.201991
0.202105
0.202463
0.204095
0.209145
0.22065
0.231274
0.232413
0.222179
0.210358
0.208345
0.208285
0.208434
0.208499
0.208599
0.203891
0.203779
0.203105
0.202862
0.202468
0.202183
0.20198
0.201739
0.201655
0.201596
0.201536
0.201414
0.201413
0.201407
0.201319
0.201328
0.201327
0.201225
0.201226
0.201229
0.201143
0.20116
0.201157
0.201146
0.201262
0.201311
0.201331
0.201327
0.201249
0.201262
0.201257
0.201211
0.201255
0.201271
0.201288
0.201288
0.201243
0.201276
0.201275
0.20122
0.201234
0.20122
0.201119
0.201122
0.201095
0.201007
0.201011
0.200922
0.200905
0.20104
0.201159
0.201244
0.201356
0.201385
0.201396
0.201405
0.201354
0.201383
0.201392
0.201351
0.201377
0.201365
0.201273
0.20127
0.201228
0.201172
0.201157
0.201137
0.201158
0.201192
0.201214
0.201243
0.20124
0.201209
0.201237
0.201237
0.201171
0.201181
0.201174
0.201083
0.201083
0.20102
0.200998
0.201074
0.201132
0.201225
0.201262
0.201279
0.201282
0.201183
0.201189
0.201164
0.201138
0.201178
0.201188
0.201178
0.201143
0.201132
0.201094
0.201125
0.201287
0.201323
0.201336
0.201323
0.201293
0.201296
0.201297
0.201305
0.201271
0.201283
0.201276
0.201208
0.201223
0.201221
0.201181
0.201209
0.201212
0.201163
0.201148
0.201149
0.201113
0.201071
0.201072
0.201041
0.201022
0.201112
0.201225
0.201254
0.201252
0.201168
0.201175
0.201157
0.201095
0.201082
0.201018
0.20106
0.201257
0.201313
0.201317
0.201303
0.201294
0.201299
0.201281
0.201249
0.201255
0.201223
0.201144
0.201193
0.201266
0.201272
0.201235
0.201237
0.20122
0.201138
0.20113
0.201096
0.201063
0.201034
0.200989
0.201091
0.201325
0.20142
0.201448
0.201451
0.201435
0.201466
0.201471
0.201449
0.201483
0.201479
0.201391
0.2014
0.201368
0.20136
0.201483
0.201584
0.201657
0.201741
0.201801
0.201884
0.202192
0.203628
0.208295
0.219385
0.2311
0.232802
0.222926
0.210132
0.207712
0.207523
0.20756
0.207532
0.207621
0.203639
0.203552
0.202991
0.202724
0.202481
0.202187
0.20202
0.201784
0.201722
0.201643
0.201544
0.201518
0.201484
0.201378
0.201374
0.201307
0.201221
0.201196
0.201138
0.201135
0.201084
0.201047
0.201176
0.201283
0.201318
0.201334
0.201333
0.201333
0.201333
0.201283
0.201307
0.201314
0.201252
0.201275
0.201275
0.201176
0.201177
0.201114
0.201046
0.201059
0.20111
0.201148
0.201217
0.201247
0.201258
0.201267
0.201248
0.201235
0.201239
0.201249
0.201229
0.201227
0.201176
0.201177
0.20116
0.201099
0.201084
0.201013
0.201042
0.201269
0.20134
0.201362
0.201352
0.201332
0.201332
0.201331
0.201328
0.201278
0.20129
0.201292
0.201228
0.201232
0.201233
0.201154
0.201156
0.201144
0.201055
0.201056
0.200998
0.200988
0.201124
0.201244
0.20128
0.201291
0.201309
0.201313
0.201277
0.201279
0.201267
0.201228
0.20124
0.201236
0.201172
0.201178
0.201175
0.20109
0.20109
0.201033
0.201006
0.201105
0.201194
0.201242
0.201286
0.201307
0.201306
0.201253
0.201266
0.201271
0.201217
0.201232
0.201223
0.201175
0.201163
0.201166
0.201209
0.201303
0.201302
0.2013
0.201246
0.201174
0.201161
0.201127
0.201127
0.201108
0.201096
0.201231
0.201336
0.201366
0.201364
0.201321
0.201342
0.20134
0.201238
0.201244
0.201236
0.201122
0.201123
0.20108
0.201056
0.201118
0.201156
0.201245
0.201299
0.201323
0.201323
0.20126
0.201263
0.201234
0.201188
0.201174
0.201133
0.201123
0.201116
0.201114
0.201079
0.201086
0.201204
0.201246
0.20125
0.201196
0.201196
0.201116
0.201098
0.201185
0.201276
0.201288
0.20129
0.201273
0.201232
0.201218
0.201173
0.201215
0.201346
0.201465
0.201675
0.201781
0.201827
0.201819
0.201802
0.201842
0.202035
0.203259
0.207557
0.21819
0.23081
0.233107
0.223879
0.210194
0.207367
0.207045
0.20705
0.207016
0.207033
0.203177
0.203152
0.202748
0.202545
0.202308
0.202087
0.20194
0.201717
0.201649
0.201502
0.201417
0.201394
0.20129
0.201188
0.201187
0.201087
0.201042
0.201107
0.201215
0.201339
0.201391
0.201412
0.201414
0.201348
0.201361
0.201344
0.201231
0.201225
0.201216
0.2012
0.201194
0.201098
0.2011
0.201074
0.200998
0.200986
0.200898
0.200913
0.201164
0.201299
0.201337
0.201335
0.201295
0.201318
0.201318
0.201282
0.201288
0.201263
0.201268
0.201257
0.20116
0.201158
0.201137
0.201112
0.20111
0.200985
0.200979
0.201118
0.201203
0.201332
0.201381
0.2014
0.201401
0.20137
0.201404
0.201403
0.201359
0.201376
0.20137
0.201272
0.201277
0.201253
0.201199
0.20119
0.201172
0.201198
0.201192
0.201185
0.201182
0.201181
0.201173
0.201127
0.201109
0.201041
0.201067
0.20123
0.201316
0.201331
0.201337
0.201337
0.201245
0.201263
0.201253
0.201177
0.201173
0.201156
0.201141
0.20112
0.201102
0.201206
0.201309
0.20133
0.201321
0.20126
0.201268
0.201262
0.201224
0.201214
0.201179
0.201212
0.20122
0.201214
0.201283
0.201282
0.201279
0.201271
0.201252
0.201238
0.201164
0.201158
0.201126
0.201089
0.201066
0.201057
0.201195
0.201308
0.201314
0.201264
0.201263
0.201236
0.201205
0.201196
0.20112
0.201115
0.20108
0.201036
0.201016
0.200988
0.201116
0.201292
0.201315
0.201312
0.201308
0.201307
0.201305
0.201263
0.20128
0.201272
0.201248
0.201235
0.201186
0.201182
0.201171
0.20115
0.201112
0.201112
0.20109
0.201079
0.201205
0.201299
0.20132
0.201322
0.201263
0.201269
0.201267
0.201152
0.201153
0.201147
0.201131
0.201205
0.20124
0.201278
0.201305
0.201371
0.201482
0.201582
0.201688
0.201745
0.201793
0.201843
0.201999
0.203022
0.206875
0.216956
0.230329
0.233225
0.224676
0.210337
0.207231
0.206802
0.206759
0.206705
0.206668
0.202967
0.202939
0.202653
0.202449
0.202289
0.202082
0.201969
0.201742
0.201682
0.201623
0.201483
0.201417
0.20138
0.201363
0.201366
0.201308
0.201312
0.201308
0.201205
0.201208
0.201194
0.201097
0.201101
0.20105
0.201037
0.201157
0.201258
0.201289
0.201299
0.201309
0.201298
0.201302
0.201262
0.201271
0.201258
0.20117
0.201168
0.201152
0.201112
0.201085
0.201024
0.201091
0.201268
0.201288
0.201289
0.201239
0.201165
0.201151
0.201107
0.201105
0.201066
0.201053
0.2012
0.201248
0.201234
0.20119
0.201194
0.201126
0.201125
0.201252
0.201341
0.201357
0.201361
0.201366
0.201359
0.201342
0.201268
0.201286
0.20128
0.201248
0.201238
0.201163
0.201167
0.201153
0.201084
0.201083
0.200997
0.200985
0.201088
0.201175
0.201212
0.201235
0.201237
0.201181
0.201193
0.201191
0.201148
0.201174
0.201173
0.201131
0.201121
0.201077
0.201091
0.201292
0.201363
0.201381
0.201389
0.201334
0.20136
0.201357
0.201292
0.201323
0.201321
0.201281
0.201315
0.201316
0.201268
0.201287
0.201275
0.2012
0.201194
0.201187
0.201177
0.201137
0.201059
0.201133
0.201289
0.201307
0.201279
0.201282
0.201277
0.201255
0.201247
0.201226
0.201229
0.20117
0.201174
0.20115
0.201127
0.201234
0.20128
0.201301
0.201311
0.201276
0.201309
0.201316
0.201265
0.201286
0.201291
0.201208
0.201215
0.201204
0.201136
0.201142
0.201094
0.201095
0.201224
0.201243
0.201249
0.20122
0.201138
0.20113
0.201095
0.201062
0.201026
0.200976
0.201076
0.201316
0.201401
0.201429
0.201432
0.201384
0.201405
0.2014
0.201294
0.201296
0.201282
0.201185
0.201189
0.201128
0.201118
0.20121
0.201278
0.201356
0.201455
0.201615
0.201783
0.201839
0.201839
0.201836
0.201941
0.202821
0.206208
0.215544
0.229467
0.233044
0.225457
0.210614
0.20718
0.206713
0.206639
0.206562
0.206581
0.202727
0.202692
0.202459
0.202265
0.202152
0.201947
0.201827
0.201676
0.20163
0.201453
0.201383
0.201362
0.201218
0.20114
0.201135
0.201088
0.201065
0.20105
0.200918
0.200933
0.201174
0.201293
0.201332
0.20133
0.201288
0.201314
0.201308
0.201256
0.201277
0.201276
0.201255
0.201291
0.201288
0.201236
0.201254
0.201228
0.201157
0.201161
0.201127
0.201111
0.201123
0.20113
0.201203
0.201199
0.201201
0.201165
0.20112
0.201123
0.201078
0.201079
0.201033
0.20099
0.201125
0.201249
0.201284
0.201272
0.201242
0.201311
0.201361
0.201388
0.201377
0.201319
0.201349
0.201354
0.201325
0.201315
0.201292
0.201315
0.201314
0.201243
0.201261
0.201219
0.201138
0.201134
0.201116
0.201096
0.201069
0.201084
0.20123
0.201284
0.201281
0.201244
0.201276
0.201277
0.201208
0.201222
0.201189
0.201129
0.201135
0.201114
0.201112
0.20108
0.201082
0.201274
0.201353
0.201374
0.201363
0.201264
0.201265
0.201246
0.201178
0.201173
0.201077
0.201075
0.201255
0.201342
0.201382
0.201385
0.201346
0.201367
0.201362
0.201263
0.201267
0.201243
0.201193
0.2012
0.201182
0.201174
0.201165
0.201149
0.20114
0.201089
0.201084
0.201047
0.20107
0.201246
0.2013
0.20131
0.201297
0.201311
0.201317
0.201311
0.201318
0.201305
0.201317
0.201321
0.201306
0.201337
0.201336
0.201302
0.201328
0.201333
0.201235
0.201238
0.201229
0.201168
0.201167
0.201079
0.20108
0.20126
0.201313
0.201334
0.201334
0.201252
0.20125
0.201234
0.201212
0.201204
0.201149
0.201175
0.201179
0.201155
0.201198
0.201192
0.201197
0.201186
0.201101
0.201101
0.201025
0.200992
0.201045
0.20113
0.2012
0.201252
0.201333
0.201433
0.201537
0.201657
0.20175
0.201832
0.201983
0.202692
0.205572
0.213925
0.228187
0.232587
0.226202
0.211145
0.207491
0.207057
0.207044
0.207089
0.20715
0.20258
0.202548
0.202401
0.202223
0.202135
0.201967
0.201845
0.201715
0.201685
0.201544
0.201467
0.201459
0.201375
0.201342
0.201317
0.201245
0.201276
0.201342
0.201358
0.20136
0.201325
0.201346
0.201341
0.201325
0.201352
0.201353
0.201284
0.201291
0.201258
0.201207
0.201211
0.201169
0.20117
0.201127
0.20111
0.201263
0.201361
0.201396
0.201394
0.201362
0.201385
0.201381
0.201314
0.201328
0.201318
0.201223
0.201223
0.201189
0.201141
0.201125
0.201105
0.201179
0.201253
0.201243
0.201245
0.201192
0.201122
0.201135
0.201194
0.201297
0.201371
0.201397
0.201401
0.201376
0.201401
0.201409
0.201359
0.201379
0.201379
0.201287
0.201293
0.201239
0.201165
0.201159
0.201127
0.201121
0.201098
0.201087
0.201238
0.201364
0.201396
0.201399
0.20132
0.20133
0.201323
0.201229
0.201229
0.201181
0.201174
0.201257
0.201279
0.201277
0.201225
0.201232
0.201231
0.20114
0.201138
0.201072
0.201048
0.201127
0.201195
0.201274
0.201318
0.201331
0.201318
0.201283
0.201293
0.201298
0.20127
0.201232
0.201237
0.201231
0.201173
0.201177
0.201173
0.201068
0.201068
0.201012
0.200989
0.201136
0.201269
0.201336
0.20134
0.201343
0.201338
0.201239
0.201252
0.201238
0.201153
0.201153
0.201114
0.201079
0.201064
0.201034
0.201128
0.201261
0.201261
0.201263
0.201256
0.201182
0.201164
0.201187
0.201232
0.201248
0.201261
0.201263
0.201261
0.201263
0.20122
0.201222
0.201215
0.201157
0.201161
0.201134
0.201121
0.201204
0.201212
0.201209
0.201191
0.201147
0.201123
0.201124
0.201198
0.20127
0.20129
0.201282
0.201282
0.201294
0.20129
0.201185
0.201187
0.201159
0.201147
0.20127
0.201412
0.201523
0.201608
0.201738
0.201851
0.201976
0.202105
0.202638
0.204947
0.212024
0.226139
0.231644
0.227105
0.212876
0.209332
0.209265
0.209919
0.210526
0.210707
0.202485
0.202434
0.202271
0.202109
0.20205
0.201889
0.201819
0.20177
0.20164
0.2016
0.201573
0.201507
0.201504
0.201483
0.201366
0.201369
0.201355
0.201253
0.20126
0.20125
0.201247
0.201241
0.201241
0.201228
0.201166
0.201158
0.20108
0.201091
0.201258
0.201364
0.20141
0.201428
0.201433
0.201376
0.2014
0.2014
0.201333
0.201346
0.201332
0.201235
0.201242
0.201223
0.201136
0.201148
0.20115
0.201143
0.201206
0.201202
0.2012
0.201191
0.201159
0.201131
0.201077
0.201131
0.20126
0.201288
0.2013
0.201291
0.201217
0.20122
0.201214
0.20121
0.201213
0.201176
0.20116
0.201086
0.201097
0.201224
0.201273
0.20129
0.201306
0.201311
0.201286
0.201319
0.201323
0.201309
0.201336
0.201342
0.201299
0.201321
0.201314
0.201252
0.201277
0.201269
0.20121
0.201232
0.201228
0.201151
0.201164
0.20116
0.201053
0.201057
0.201027
0.201008
0.201099
0.201165
0.201249
0.201295
0.201315
0.201303
0.201272
0.20128
0.201276
0.201278
0.201278
0.201304
0.201305
0.201273
0.2013
0.201295
0.201197
0.201196
0.201155
0.201126
0.201129
0.201086
0.201074
0.201014
0.201031
0.201234
0.201311
0.201337
0.201324
0.201273
0.2013
0.201298
0.201242
0.201261
0.201258
0.201178
0.201177
0.20114
0.201092
0.201089
0.201052
0.201052
0.201023
0.201006
0.20114
0.201303
0.201362
0.201392
0.201395
0.201343
0.201365
0.201367
0.201287
0.201299
0.201289
0.201189
0.201189
0.201152
0.201107
0.201101
0.201044
0.201046
0.200975
0.200932
0.201079
0.201281
0.201331
0.20135
0.201348
0.201255
0.20125
0.201249
0.201242
0.201232
0.201145
0.201134
0.20112
0.201144
0.201289
0.201351
0.20137
0.201397
0.201447
0.201575
0.201755
0.201933
0.202177
0.202675
0.204495
0.210435
0.22405
0.231212
0.22865
0.217681
0.215939
0.219247
0.223162
0.225257
0.225945
0.20239
0.202389
0.202227
0.202089
0.202033
0.20191
0.201883
0.201813
0.201714
0.201711
0.201665
0.201574
0.201574
0.20155
0.201433
0.201432
0.201411
0.201321
0.201342
0.201346
0.201316
0.201348
0.201342
0.201275
0.201285
0.201286
0.201225
0.201212
0.201149
0.201157
0.201264
0.201323
0.201351
0.201365
0.201366
0.201312
0.201307
0.201306
0.201288
0.201249
0.201252
0.201225
0.201172
0.201172
0.20111
0.201079
0.201089
0.201073
0.201059
0.201022
0.201043
0.201201
0.201249
0.201233
0.201159
0.20116
0.201079
0.201048
0.201129
0.201308
0.201375
0.201393
0.201395
0.201308
0.201315
0.201296
0.201235
0.201241
0.20124
0.201224
0.201195
0.201188
0.201174
0.201176
0.201135
0.201068
0.201137
0.201258
0.201315
0.20133
0.201335
0.201339
0.201278
0.201252
0.201253
0.20122
0.201189
0.201209
0.201195
0.201126
0.201132
0.201102
0.201099
0.201273
0.201342
0.201357
0.201355
0.201339
0.201342
0.201289
0.201301
0.201291
0.201195
0.201216
0.201217
0.201195
0.201302
0.201326
0.201335
0.201326
0.201236
0.201238
0.201192
0.201149
0.201138
0.201109
0.201168
0.20123
0.201248
0.20124
0.201208
0.201226
0.201222
0.20119
0.201175
0.201146
0.20117
0.201225
0.201236
0.201222
0.201176
0.20117
0.201118
0.201132
0.201298
0.20136
0.201372
0.201363
0.201357
0.201363
0.201307
0.201316
0.201313
0.201195
0.201196
0.201148
0.201107
0.20116
0.201196
0.201275
0.20131
0.201326
0.201323
0.201274
0.201296
0.201306
0.201291
0.201327
0.201323
0.201261
0.201273
0.201272
0.201161
0.201167
0.201115
0.201063
0.201066
0.201094
0.201153
0.201229
0.201262
0.201302
0.201319
0.20134
0.201343
0.201342
0.201468
0.201662
0.201949
0.202283
0.202573
0.203036
0.204302
0.208685
0.220135
0.230353
0.231759
0.231603
0.240013
0.260501
0.273143
0.280786
0.283358
0.202018
0.201979
0.201854
0.201797
0.201795
0.201712
0.201626
0.201615
0.201481
0.201446
0.201435
0.201418
0.201415
0.201405
0.201387
0.201383
0.201303
0.201305
0.201302
0.201289
0.201284
0.201189
0.201192
0.201195
0.201107
0.201125
0.201131
0.201098
0.201172
0.201177
0.20118
0.201163
0.201081
0.201085
0.20101
0.200995
0.201116
0.201207
0.201321
0.201369
0.201388
0.201388
0.201334
0.201358
0.201365
0.201305
0.20132
0.201323
0.201262
0.201267
0.201256
0.20125
0.201248
0.201162
0.201165
0.201154
0.201074
0.201074
0.200999
0.201003
0.201149
0.201206
0.201208
0.201146
0.201145
0.201085
0.20105
0.201113
0.201241
0.201299
0.201325
0.201324
0.201241
0.201252
0.201244
0.201166
0.20119
0.201197
0.201187
0.201245
0.201225
0.201228
0.201216
0.20121
0.201234
0.201238
0.201219
0.201148
0.201142
0.201117
0.201091
0.201074
0.201099
0.201217
0.201256
0.201261
0.201223
0.201237
0.201213
0.201146
0.201141
0.201102
0.201089
0.201078
0.201075
0.201218
0.201256
0.201264
0.201261
0.201212
0.201203
0.201197
0.201194
0.201172
0.201134
0.201124
0.20109
0.201132
0.201204
0.20122
0.201204
0.201117
0.201122
0.201106
0.201035
0.201038
0.200957
0.200955
0.201132
0.201244
0.201333
0.201346
0.20135
0.201347
0.201262
0.201276
0.201279
0.201183
0.201183
0.201167
0.201123
0.201108
0.201085
0.201143
0.201274
0.201281
0.201285
0.201276
0.20119
0.201195
0.201187
0.201185
0.201245
0.201229
0.201232
0.201199
0.20113
0.201131
0.201018
0.200994
0.201067
0.201142
0.201229
0.201298
0.201314
0.201325
0.20132
0.201219
0.20122
0.201167
0.201145
0.201203
0.201248
0.201301
0.201407
0.201473
0.201611
0.201762
0.202001
0.20237
0.202776
0.203314
0.204199
0.207008
0.215173
0.230567
0.24876
0.270977
0.322342
0.396951
0.434309
0.458059
0.465869
0.20305
0.202666
0.202554
0.202492
0.202468
0.20235
0.202237
0.202096
0.20196
0.201858
0.201749
0.201703
0.201652
0.201594
0.20151
0.20151
0.201506
0.201416
0.201412