/*--------------------------------*- C++ -*----------------------------------*\
| =========                 |                                                 |
| \\      /  F ield         | OpenFOAM: The Open Source CFD Toolbox           |
|  \\    /   O peration     | Version:  4.1                                   |
|   \\  /    A nd           | Web:      www.OpenFOAM.org                      |
|    \\/     M anipulation  |                                                 |
\*---------------------------------------------------------------------------*/
FoamFile
{
    version     2.0;
    format      ascii;
    class       volScalarField;
    location    "0.5";
    object      k;
}
// * * * * * * * * * * * * * * * * * * * * * * * * * * * * * * * * * * * * * //

dimensions      [0 2 -2 0 0 0 0];

internalField   nonuniform List<scalar> 
204246
(
2.00131
2.39099
2.5183
2.58022
2.66068
2.68147
2.70067
2.71656
2.73887
2.74112
2.76282
2.76201
2.77959
2.77614
2.79575
2.79242
2.81399
2.8109
2.81213
2.81963
2.81128
2.81697
2.80692
2.81038
2.80301
2.8082
2.80351
2.81082
2.80615
2.81592
2.81014
2.81762
2.81127
2.81917
2.8132
2.81956
2.81463
2.81161
2.81784
2.8089
2.81223
2.80355
2.80776
2.80306
2.81126
2.80742
2.81894
2.8134
2.82073
2.814
2.81956
2.815
2.82014
2.81504
2.81189
2.81807
2.80932
2.81294
2.80302
2.80614
2.80094
2.80892
2.8051
2.81887
2.81503
2.82387
2.81752
2.82297
2.81866
2.82399
2.81936
2.81655
2.82066
2.81223
2.81422
2.80243
2.80459
2.79831
2.80716
2.8036
2.81875
2.81514
2.8246
2.81774
2.82182
2.81619
2.82091
2.81682
2.81554
2.82287
2.81788
2.8216
2.81459
2.81586
2.80277
2.80623
2.7978
2.80821
2.80383
2.82098
2.81794
2.82485
2.81906
2.82255
2.8184
2.82446
2.81935
2.81864
2.82151
2.81305
2.81507
2.80133
2.8049
2.79626
2.8062
2.80186
2.8174
2.81486
2.82355
2.81789
2.8233
2.81784
2.82391
2.8181
2.81596
2.82018
2.812
2.81594
2.80586
2.81046
2.80473
2.81343
2.80962
2.82098
2.81691
2.82342
2.81794
2.82439
2.81987
2.82692
2.82194
2.8203
2.82403
2.81584
2.81951
2.80824
2.81179
2.8058
2.81575
2.813
2.82882
2.82717
2.83674
2.83327
2.83965
2.83812
2.84596
2.8445
2.8476
2.85543
2.85516
2.86272
2.8633
2.87098
2.87152
2.87904
2.88025
2.88934
2.89545
2.91156
2.92524
2.94567
2.96074
2.98256
3.00427
3.03651
3.07177
3.10334
3.11458
3.09801
3.00845
2.77596
2.39686
1.93357
1.54178
1.3745
1.30746
1.2676
1.21348
1.0872
0.973519
0.911851
0.888574
0.016838
0.16089
0.173092
0.177589
0.188767
0.188694
0.19539
0.194794
0.200805
0.198944
0.204929
0.202427
0.208155
0.205433
0.212407
0.212896
0.22691
0.231947
0.23355
0.238726
0.22615
0.230953
0.219387
0.223541
0.218804
0.224886
0.224608
0.234076
0.230009
0.239149
0.231538
0.237464
0.227321
0.233769
0.226782
0.234651
0.231571
0.229399
0.234937
0.224917
0.228651
0.220846
0.225794
0.222122
0.232396
0.230238
0.241027
0.232953
0.239137
0.228198
0.233078
0.227885
0.234734
0.231267
0.228958
0.234974
0.22557
0.229536
0.219709
0.223316
0.219184
0.227519
0.225562
0.239691
0.234205
0.241577
0.231229
0.235668
0.229559
0.236157
0.232179
0.229348
0.234461
0.226636
0.229461
0.217724
0.220159
0.2156
0.224243
0.224708
0.23927
0.232841
0.239638
0.229755
0.235012
0.229309
0.236666
0.233709
0.232268
0.240784
0.236665
0.241908
0.234817
0.238289
0.221407
0.224004
0.212244
0.220255
0.218663
0.236525
0.234664
0.244995
0.237452
0.241375
0.233716
0.239773
0.233687
0.233921
0.237911
0.230453
0.233476
0.217014
0.21983
0.209511
0.217816
0.216717
0.235398
0.237343
0.245059
0.23667
0.241491
0.231712
0.237973
0.231882
0.230601
0.235309
0.227296
0.231272
0.219123
0.224167
0.218994
0.228595
0.227245
0.241391
0.237273
0.244281
0.235592
0.240879
0.233058
0.24008
0.234049
0.23209
0.23661
0.227982
0.232073
0.219976
0.223933
0.217771
0.228234
0.229438
0.250654
0.248748
0.259579
0.251303
0.258472
0.250676
0.260851
0.25467
0.25257
0.268098
0.263807
0.281912
0.278596
0.294964
0.290636
0.305249
0.302132
0.332721
0.341174
0.409381
0.435904
0.494747
0.509963
0.570949
0.601427
0.710382
0.770251
0.89298
1.08361
1.21355
1.25467
1.16083
0.833434
0.324181
0.174825
0.142317
0.139436
0.136032
0.137566
0.134929
0.136961
0.137515
0.13756
0.0958805
0.0994667
0.0980631
0.0974977
0.0971972
0.0968214
0.0967339
0.0965107
0.0965391
0.0965392
0.096575
0.0964817
0.0964809
0.0964803
0.0964873
0.0963968
0.0965643
0.0967041
0.0967353
0.096939
0.0965118
0.0967762
0.0964195
0.0966443
0.0964344
0.0966496
0.0965168
0.0967928
0.0965921
0.0969605
0.096616
0.0969366
0.0965719
0.0969051
0.096597
0.0969079
0.0967283
0.096631
0.0968487
0.0964673
0.0966836
0.0964307
0.096641
0.0964475
0.0967064
0.0965645
0.0969728
0.0966437
0.0969675
0.0965939
0.0968636
0.0966412
0.0969148
0.0967381
0.0966463
0.0968788
0.0964878
0.0966888
0.0964195
0.096616
0.0964137
0.0966433
0.0964883
0.0969086
0.0966392
0.096988
0.0966181
0.0968957
0.0966685
0.0969555
0.0967841
0.0966836
0.0968652
0.0965577
0.0966862
0.0963762
0.0965405
0.0963283
0.0965429
0.096453
0.0968862
0.096663
0.0969841
0.09661
0.0968834
0.0966539
0.0969315
0.0967796
0.0967058
0.0970257
0.0968052
0.0970465
0.0967268
0.0969007
0.0964367
0.0966358
0.0962693
0.0965232
0.0963988
0.0968069
0.0968141
0.0971345
0.0968332
0.0970631
0.0968022
0.0970962
0.0968107
0.0968107
0.0969662
0.0966504
0.0967927
0.0963378
0.0965488
0.0962138
0.0964641
0.0963487
0.0967089
0.0967781
0.0971246
0.0968006
0.0970815
0.0967524
0.0970716
0.0968072
0.0967598
0.0969422
0.0965854
0.0967589
0.09639
0.0966035
0.0963324
0.096592
0.0964462
0.0968275
0.0967017
0.0970466
0.0967356
0.0970463
0.0967532
0.0971049
0.0968564
0.0968022
0.096986
0.0966086
0.0967837
0.0964151
0.0966328
0.0963706
0.0966602
0.0965915
0.0970637
0.0970021
0.0974822
0.0971768
0.0975964
0.0973307
0.0978598
0.0976167
0.0975988
0.0982661
0.0980703
0.0989534
0.0987996
0.0997455
0.0995444
0.100518
0.100365
0.102099
0.102733
0.107272
0.110402
0.117496
0.119732
0.127179
0.132372
0.148597
0.16228
0.188441
0.229928
0.271649
0.286616
0.2715
0.209241
0.130748
0.113402
0.109649
0.109104
0.109364
0.111374
0.112677
0.113146
0.112572
0.111834
0.0996389
0.098071
0.0974175
0.0970861
0.0967091
0.0965754
0.0964338
0.0963661
0.0963201
0.0962815
0.0962732
0.096268
0.0962614
0.0962401
0.0962178
0.0962102
0.0961903
0.0961794
0.096162
0.096158
0.0961476
0.0961534
0.0962175
0.0962402
0.0962371
0.0962361
0.0962317
0.0962238
0.0962285
0.0962336
0.0962322
0.0962308
0.0962258
0.0961938
0.0961721
0.0961726
0.0961669
0.0961606
0.0961933
0.0962323
0.096234
0.0962336
0.0962335
0.0962223
0.0962262
0.0962252
0.0962243
0.0962186
0.0962156
0.0962035
0.0961732
0.0961567
0.096157
0.0961489
0.0961502
0.0962093
0.0962389
0.0962413
0.0962385
0.0962245
0.0962264
0.0962196
0.096212
0.0962377
0.0962502
0.0962592
0.0962567
0.0962357
0.0962361
0.0962229
0.0961997
0.0962
0.096187
0.0961669
0.0961653
0.0961585
0.0961541
0.0961494
0.0961446
0.0961892
0.0962726
0.0962907
0.0962911
0.0962675
0.0962677
0.0962617
0.0962347
0.0962332
0.0962331
0.0962186
0.0962035
0.0962042
0.0961978
0.0961846
0.096184
0.0961694
0.0961556
0.0961477
0.0961178
0.0961407
0.0962391
0.0962638
0.0962611
0.0962542
0.096247
0.0962274
0.096196
0.0961928
0.0961722
0.096143
0.0961418
0.0961065
0.0960992
0.0961748
0.096264
0.0962805
0.096282
0.0962662
0.0962655
0.0962414
0.096226
0.0962208
0.0962085
0.0962088
0.0961969
0.0961838
0.0962145
0.0962366
0.0962375
0.0962308
0.0962021
0.0962002
0.0962018
0.0961995
0.0961871
0.0961893
0.096186
0.0961825
0.0962035
0.0962091
0.0962085
0.0961918
0.0961753
0.0961696
0.0961349
0.0961204
0.0961106
0.0960862
0.0961139
0.0962081
0.0962263
0.0962263
0.0962263
0.0962025
0.096202
0.0961664
0.0961523
0.0961519
0.0961428
0.096101
0.0960912
0.0961239
0.0961316
0.0961762
0.096186
0.096239
0.0962576
0.0963615
0.0964643
0.0967561
0.0970515
0.097504
0.097703
0.0982655
0.0988931
0.100542
0.102381
0.105728
0.111654
0.119513
0.123611
0.122492
0.115158
0.106456
0.105263
0.105144
0.104102
0.10263
0.102503
0.103078
0.104151
0.104557
0.104711
0.0984665
0.0982825
0.0974646
0.0972279
0.0968969
0.0967577
0.0966773
0.0965926
0.0965353
0.0964483
0.096433
0.0964176
0.0963685
0.09635
0.0963433
0.0962943
0.0962821
0.0962754
0.0962416
0.0962369
0.0962284
0.0962134
0.0962486
0.0963021
0.0963127
0.0963112
0.0962811
0.0962807
0.0962637
0.0962311
0.0962322
0.0962247
0.0962025
0.0962021
0.0961977
0.0961965
0.096193
0.0961934
0.0962182
0.0962245
0.0962219
0.0962137
0.0962016
0.0961932
0.0961859
0.0961872
0.0961702
0.0961726
0.0962534
0.0963179
0.0963279
0.0963231
0.0963236
0.096309
0.096275
0.096275
0.0962619
0.0962372
0.09624
0.0962343
0.096218
0.0962158
0.0962161
0.096214
0.0962077
0.0962306
0.0962893
0.0963056
0.0963025
0.0962936
0.0962855
0.0962628
0.0962567
0.0962352
0.0962082
0.0962049
0.0962063
0.0961995
0.0961888
0.0962249
0.0962972
0.0963112
0.0963054
0.0962927
0.0962852
0.0962535
0.0962406
0.0962209
0.0961941
0.0961906
0.0961773
0.0961692
0.0961574
0.0961305
0.0961582
0.0962803
0.0963267
0.0963334
0.0963305
0.0963071
0.0963073
0.0962973
0.0962814
0.0962787
0.096265
0.0962637
0.0962532
0.0962538
0.0962483
0.0962494
0.0962877
0.0963106
0.0963053
0.0962932
0.096288
0.0962613
0.0962447
0.0962262
0.0961905
0.0961802
0.0961614
0.0961494
0.0961401
0.0961274
0.0961671
0.0962461
0.0962599
0.0962645
0.0962653
0.0962384
0.0962402
0.096241
0.0962204
0.0962169
0.0962029
0.0962062
0.0962667
0.0963204
0.0963426
0.0963481
0.0963498
0.0963449
0.0963142
0.0963155
0.0963123
0.096282
0.0962829
0.0962805
0.0962464
0.0962464
0.0962401
0.0962079
0.0962075
0.0961928
0.0961793
0.0961796
0.0961663
0.096165
0.0961377
0.0961329
0.0961887
0.0962461
0.0962652
0.0962794
0.0962914
0.0963015
0.0963025
0.0962961
0.0963099
0.0963119
0.0963125
0.0963404
0.096393
0.0964879
0.0965761
0.096712
0.0968983
0.097265
0.0979671
0.0989779
0.100222
0.101065
0.102481
0.105226
0.107283
0.106972
0.103448
0.101381
0.10125
0.101594
0.101682
0.101727
0.101842
0.0980513
0.0978893
0.0973542
0.0971285
0.0968016
0.0966845
0.0965833
0.0964926
0.0964289
0.0963666
0.0963502
0.096337
0.0962929
0.0962677
0.0962682
0.0962556
0.0962435
0.0962525
0.0962533
0.0962372
0.096243
0.0962262
0.0962037
0.0961994
0.096174
0.096167
0.0961596
0.0961375
0.0961378
0.0961055
0.0961017
0.0961864
0.0962473
0.0962553
0.0962518
0.0962371
0.0962378
0.096221
0.0961996
0.0961998
0.0961943
0.0961946
0.0962339
0.096254
0.0962529
0.0962418
0.0962355
0.096209
0.0961773
0.0961752
0.096154
0.096123
0.0961227
0.0960937
0.0960751
0.0961323
0.09624
0.0962627
0.0962677
0.0962618
0.0962395
0.0962396
0.0962095
0.0961962
0.0961951
0.0961856
0.0961801
0.0961764
0.0961732
0.0961718
0.0962125
0.0962438
0.0962443
0.0962427
0.096237
0.0962362
0.0962303
0.0962207
0.0962209
0.0962085
0.0962089
0.0962014
0.0962035
0.0962394
0.0962419
0.0962414
0.0962397
0.0962389
0.0962352
0.0962051
0.0962042
0.0961879
0.0961672
0.0961614
0.0961488
0.0961841
0.0962634
0.096278
0.0962735
0.0962617
0.0962577
0.0962319
0.0962203
0.0962145
0.0961849
0.0961847
0.0961669
0.0961582
0.096201
0.0962185
0.0962177
0.0962132
0.0962105
0.0962066
0.0962199
0.0962636
0.0962646
0.0962645
0.0962456
0.096226
0.0962262
0.0962029
0.0961951
0.0962005
0.0962001
0.0961988
0.0961968
0.0961938
0.096175
0.0961658
0.0961581
0.0961447
0.0961901
0.0962995
0.096329
0.0963255
0.0963156
0.096312
0.0962861
0.0962728
0.096261
0.0962411
0.0962418
0.0962441
0.0962532
0.0962729
0.0962686
0.0962684
0.0962453
0.0962298
0.0962313
0.0962266
0.0962271
0.0962152
0.096217
0.0962111
0.0962121
0.0962633
0.0962791
0.0962767
0.0962619
0.096258
0.0962519
0.0962424
0.0962407
0.0962343
0.0962726
0.0963563
0.0963788
0.0963825
0.096387
0.0963901
0.0963942
0.0964052
0.0964675
0.0965925
0.096711
0.0967718
0.0968694
0.0970085
0.0972895
0.0979352
0.0996669
0.103247
0.106064
0.106219
0.103219
0.100258
0.099875
0.1
0.100242
0.100357
0.100383
0.097592
0.0974508
0.0971094
0.0969837
0.0967685
0.0966754
0.0965665
0.0965002
0.0964639
0.096402
0.096354
0.0963296
0.0963029
0.0962807
0.0962607
0.0962243
0.0962135
0.0962094
0.0962079
0.0961962
0.0962025
0.0962587
0.096279
0.0962763
0.0962586
0.0962583
0.0962304
0.0962149
0.0962071
0.096174
0.0961832
0.0962552
0.0963037
0.0963241
0.0963265
0.0963259
0.0963223
0.096314
0.0963093
0.0962974
0.096295
0.0962765
0.0962597
0.0962507
0.096219
0.0962043
0.0961802
0.0961519
0.0961416
0.0961171
0.0961124
0.0960957
0.0960719
0.0961043
0.0962156
0.0962801
0.0963032
0.0963077
0.0963044
0.0963054
0.0962953
0.0962633
0.096264
0.0962491
0.0962344
0.0962337
0.0962287
0.0962227
0.0962113
0.0962225
0.096225
0.0962251
0.0962169
0.096202
0.0962013
0.0961675
0.0961513
0.0961434
0.0961161
0.0961417
0.0962571
0.0962988
0.0962933
0.0962803
0.0962802
0.0962505
0.0962359
0.0962346
0.0962305
0.0962275
0.0962132
0.0962114
0.0961893
0.0961954
0.0962765
0.0963308
0.0963364
0.0963277
0.0963274
0.0963074
0.0962908
0.0962907
0.096256
0.0962438
0.0962431
0.0962099
0.0961939
0.0961937
0.0961772
0.0961751
0.0962218
0.0962603
0.0962768
0.0962818
0.0962842
0.0962811
0.0962634
0.0962631
0.0962391
0.0962194
0.0962201
0.0962055
0.0961876
0.0961861
0.0961745
0.0961798
0.0962566
0.0963238
0.096331
0.096326
0.0963253
0.0963029
0.0962871
0.0962829
0.0962648
0.0962641
0.0962454
0.0962456
0.0962386
0.0962098
0.0962092
0.0961903
0.0961795
0.0961728
0.0961366
0.096149
0.0962576
0.0963181
0.0963269
0.0963149
0.0962959
0.0962913
0.0962607
0.0962524
0.0962453
0.096221
0.0962213
0.0962113
0.0962134
0.0962629
0.0962902
0.0962799
0.096263
0.0962622
0.096255
0.0962461
0.0962449
0.0962449
0.0962417
0.0962556
0.0963114
0.0963599
0.0963785
0.0964211
0.0964959
0.0965392
0.0965529
0.096558
0.0965663
0.0966016
0.0967607
0.0974233
0.099328
0.103388
0.106687
0.106894
0.103446
0.099801
0.0992072
0.099232
0.0993436
0.0993972
0.0994524
0.097445
0.0973661
0.0970636
0.0969544
0.0967812
0.0966672
0.0965907
0.0965404
0.0964867
0.0964208
0.0963936
0.0963489
0.0963004
0.0962797
0.0962438
0.096216
0.0962101
0.0962022
0.0961929
0.0961922
0.0961916
0.0961896
0.0962183
0.0963002
0.0963254
0.0963228
0.0963013
0.0963023
0.0962864
0.0962575
0.0962571
0.0962377
0.0962187
0.0962134
0.0961956
0.0962045
0.0962651
0.0962875
0.0962864
0.0962666
0.0962678
0.0962608
0.0962359
0.0962384
0.0962377
0.0962135
0.0962083
0.0962238
0.0962357
0.0962407
0.0962378
0.0962367
0.0962381
0.0962206
0.0962229
0.0962208
0.0962044
0.0962004
0.0961874
0.0961965
0.0962244
0.0962295
0.0962273
0.0962207
0.0962198
0.0961886
0.0961678
0.0961622
0.0961632
0.0961567
0.0961496
0.0961959
0.096259
0.0962706
0.0962669
0.0962456
0.0962441
0.0962195
0.0962149
0.0962146
0.0961783
0.0961783
0.0962252
0.0962471
0.0962894
0.0963184
0.0963251
0.0963271
0.0963231
0.0962945
0.096295
0.0962837
0.0962509
0.0962508
0.0962373
0.0962276
0.0962322
0.0962329
0.0962326
0.0962273
0.0962224
0.0962216
0.096194
0.0961945
0.0962382
0.09626
0.0962567
0.0962391
0.0962388
0.0962121
0.0961898
0.0961848
0.0961496
0.0961436
0.0961346
0.0960965
0.0961064
0.0961923
0.096269
0.0963
0.0963281
0.0963387
0.0963425
0.0963402
0.0963191
0.0963181
0.0963029
0.0962842
0.0962759
0.0962526
0.0962484
0.0962324
0.0962063
0.0962071
0.0961762
0.0961767
0.0962264
0.0962353
0.0962292
0.0962191
0.0962108
0.0961823
0.0961732
0.0961683
0.0961682
0.0961614
0.0961597
0.096214
0.0962396
0.0962392
0.0962375
0.096222
0.0962147
0.0962094
0.0961789
0.0961623
0.0961628
0.0961562
0.0961557
0.096227
0.0962895
0.0963
0.0962906
0.0962737
0.0962741
0.0962504
0.0962445
0.0962418
0.0962298
0.0962283
0.0962203
0.0962303
0.0963064
0.0964169
0.0964834
0.0965171
0.0965329
0.0965398
0.0965398
0.09654
0.0966298
0.0971796
0.0989508
0.102962
0.106698
0.107131
0.103841
0.0996558
0.0988588
0.098807
0.0988458
0.0989061
0.0989396
0.097133
0.0971012
0.0968895
0.09681
0.0967007
0.0966116
0.0965521
0.0964855
0.0964586
0.0963974
0.0963604
0.0963485
0.0963104
0.0962672
0.0962664
0.0962485
0.0962128
0.0962121
0.0962074
0.0962032
0.096201
0.0961974
0.0962263
0.0962413
0.0962391
0.0962398
0.0962356
0.0962243
0.0962253
0.0962143
0.0962134
0.0962517
0.0962599
0.0962644
0.0962625
0.0962438
0.096243
0.0962406
0.0962388
0.0962169
0.0962013
0.0961922
0.0961757
0.0961741
0.0961524
0.0961391
0.096135
0.096101
0.0961062
0.0961906
0.0962761
0.0963046
0.0963212
0.0963276
0.0963302
0.0963292
0.0963115
0.0963177
0.0963171
0.0962963
0.0963002
0.0962952
0.0962694
0.096269
0.0962507
0.0962273
0.0962198
0.0961938
0.0961914
0.0961746
0.0961545
0.0961819
0.0961962
0.0961956
0.0961949
0.0961922
0.0961868
0.096186
0.0961732
0.096162
0.0961708
0.0961963
0.0962182
0.0962365
0.0962481
0.0962523
0.096252
0.0962468
0.0962504
0.0962464
0.0962458
0.0962133
0.0961969
0.0962001
0.0962002
0.0961925
0.0961931
0.0961867
0.0961766
0.0961956
0.0962565
0.0962738
0.0962801
0.0962795
0.0962565
0.0962595
0.0962512
0.0962409
0.0962435
0.0962464
0.0962489
0.0962385
0.0962417
0.0962379
0.0962144
0.0962165
0.0962143
0.09619
0.0961907
0.0961788
0.0961647
0.0961652
0.096156
0.0961561
0.0961496
0.0961433
0.0961653
0.0961878
0.0962008
0.0962058
0.0962033
0.096189
0.0961849
0.0961723
0.0961834
0.0962622
0.0963133
0.0963115
0.0963124
0.0962999
0.0962732
0.0962732
0.0962502
0.0962386
0.0962367
0.0962182
0.0962196
0.0962063
0.0962017
0.0962249
0.096224
0.0962241
0.096208
0.0961914
0.0961916
0.0961729
0.0961583
0.0961574
0.0961218
0.0961187
0.0961743
0.0962445
0.0962836
0.0963307
0.0963474
0.0963547
0.0963557
0.0963409
0.0963484
0.0963474
0.0963401
0.0963523
0.0963719
0.0964078
0.0964257
0.0964283
0.0964167
0.0964282
0.0964277
0.0964285
0.0965313
0.097021
0.0986539
0.102516
0.10662
0.107248
0.104106
0.0996074
0.0986707
0.0985618
0.0985581
0.0985811
0.0986162
0.0970486
0.0970242
0.0968698
0.0967614
0.0967031
0.0966336
0.0965739
0.0964932
0.0964694
0.0964268
0.0963713
0.0963485
0.0963315
0.0963098
0.0963001
0.0962769
0.0962683
0.0962408
0.0962063
0.0962055
0.0961797
0.0961589
0.096206
0.0962758
0.0962836
0.0962853
0.0962859
0.0962719
0.0962717
0.0962552
0.0962559
0.0962538
0.0962232
0.0962226
0.0962176
0.0962059
0.0962028
0.0962006
0.0962008
0.0961991
0.0962109
0.0962138
0.0962117
0.0962103
0.0962108
0.0962065
0.096199
0.0962194
0.0962463
0.0962456
0.0962463
0.0962268
0.0962076
0.0962077
0.0961756
0.0961502
0.096149
0.0961153
0.0960964
0.0961312
0.0962279
0.0962743
0.0963077
0.0963203
0.0963251
0.0963241
0.0963015
0.0963047
0.0962984
0.0962686
0.096268
0.0962381
0.0962222
0.0962228
0.0961926
0.0961776
0.0961814
0.0961737
0.0961741
0.0962337
0.0962936
0.0963047
0.0962978
0.0962766
0.0962762
0.0962739
0.096274
0.0962746
0.0962468
0.0962459
0.0962425
0.0962347
0.0962322
0.0962048
0.0962032
0.0961933
0.0961791
0.0961708
0.096148
0.0961689
0.096248
0.0962731
0.0962768
0.0962675
0.0962674
0.0962619
0.0962361
0.0962405
0.0962381
0.0962171
0.0962157
0.0962096
0.0962165
0.096261
0.0962689
0.0962638
0.0962622
0.0962429
0.096218
0.0962127
0.0961969
0.0961908
0.096179
0.0961791
0.0961724
0.096169
0.0962305
0.0962869
0.09629
0.0962831
0.0962822
0.0962572
0.0962344
0.0962309
0.0962225
0.0962148
0.0962112
0.0962314
0.0962442
0.096243
0.0962398
0.0962357
0.09622
0.0961996
0.0962295
0.0962684
0.0962766
0.096275
0.0962541
0.0962543
0.0962288
0.0962063
0.0962066
0.0961843
0.0961842
0.0962338
0.0962432
0.0962464
0.0962477
0.0962419
0.0962404
0.0962122
0.0962078
0.0962296
0.0962465
0.0962524
0.0962485
0.0962457
0.0962443
0.0962378
0.0962725
0.096353
0.0963764
0.0963839
0.0963854
0.0963741
0.0963925
0.0963912
0.0963811
0.0964097
0.0964851
0.0968956
0.0983904
0.102091
0.106513
0.107347
0.104415
0.0996369
0.0985684
0.0984244
0.0984102
0.0984091
0.0984221
0.0968971
0.0968956
0.0968012
0.0967269
0.0966532
0.0966001
0.0965416
0.096468
0.0964449
0.0963914
0.0963374
0.0963216
0.0962878
0.0962512
0.0962504
0.0962265
0.096205
0.0962361
0.0962949
0.0963176
0.0963288
0.0963337
0.0963318
0.0963111
0.0963098
0.0962938
0.0962752
0.096268
0.0962379
0.0962252
0.096202
0.0961742
0.0961733
0.0961513
0.0961232
0.0961226
0.0960928
0.0960716
0.0961181
0.0962254
0.0962499
0.0962488
0.0962501
0.0962447
0.0962309
0.0962313
0.0962241
0.096212
0.0962081
0.0961914
0.0961925
0.0961891
0.0961629
0.0961621
0.0961316
0.0961201
0.0961627
0.0962438
0.0962835
0.0963125
0.0963271
0.0963321
0.0963318
0.0963247
0.096331
0.0963297
0.096309
0.0963111
0.0963115
0.0962785
0.0962786
0.0962789
0.0962601
0.0962674
0.0962667
0.0962408
0.0962419
0.0962291
0.0962118
0.0962124
0.0962007
0.0962006
0.0961865
0.0961814
0.0962394
0.0963044
0.0963158
0.0963109
0.0963114
0.0963005
0.0962764
0.0962761
0.096247
0.0962292
0.0962241
0.0962008
0.0961992
0.0961949
0.0961952
0.0962421
0.096256
0.0962581
0.0962474
0.0962248
0.0962224
0.0962069
0.0962008
0.0961901
0.0961762
0.0962174
0.0962832
0.0962944
0.0962899
0.0962815
0.0962742
0.0962458
0.0962368
0.0962189
0.0961958
0.0961926
0.0961908
0.0961838
0.0961754
0.0962188
0.0962871
0.0962962
0.0962919
0.0962825
0.0962735
0.0962454
0.0962306
0.0962038
0.096172
0.0961631
0.0961544
0.0961508
0.0961364
0.0961513
0.0962611
0.0963072
0.0963137
0.0963091
0.0962967
0.0962917
0.0962734
0.0962772
0.0962772
0.0962669
0.0962687
0.0962593
0.0962597
0.0962598
0.0962304
0.0962307
0.0962243
0.0962019
0.0962015
0.0961875
0.096187
0.0962236
0.096236
0.0962411
0.0962414
0.0962223
0.0962225
0.0962212
0.0962167
0.0962653
0.0963306
0.0963573
0.0963769
0.0963949
0.0964122
0.0964248
0.0964252
0.0964264
0.0964485
0.0964567
0.0964548
0.0964527
0.096482
0.0968146
0.098147
0.101662
0.106342
0.107379
0.104688
0.0997035
0.0985245
0.0983437
0.0983093
0.0983007
0.0983041
0.096827
0.0968201
0.0967609
0.0966952
0.0966401
0.0965795
0.0965426
0.0964738
0.0964509
0.0964158
0.0963753
0.0963568
0.0963146
0.0962741
0.0962662
0.0962546
0.096239
0.0962254
0.0961998
0.0961965
0.0961851
0.0961867
0.0961763
0.0961749
0.0962319
0.0962693
0.0962701
0.0962517
0.096252
0.0962499
0.0962258
0.0962285
0.0962267
0.096221
0.0962206
0.0962045
0.0962086
0.0962075
0.0961836
0.0961841
0.0961725
0.0961671
0.0962238
0.0962647
0.0962668
0.0962574
0.0962529
0.0962394
0.0962032
0.0962028
0.0961894
0.0961621
0.0961853
0.096229
0.0962381
0.096236
0.0962275
0.0962462
0.09631
0.0963327
0.096331
0.0963081
0.0963082
0.096307
0.0962791
0.096282
0.0962697
0.096249
0.0962472
0.096242
0.0962207
0.0961997
0.0961879
0.0961764
0.0961851
0.0961861
0.0961823
0.0962024
0.0962002
0.096189
0.0961895
0.096176
0.0961761
0.0961691
0.0961622
0.0961859
0.0962109
0.0962145
0.0962145
0.0962135
0.0962016
0.0961965
0.0961759
0.0961809
0.0962523
0.0962828
0.0962911
0.0962879
0.0962886
0.0962786
0.0962535
0.096253
0.0962354
0.0962348
0.0962367
0.0962363
0.0962357
0.0962156
0.0962069
0.0962055
0.0961979
0.0961946
0.0961905
0.0961808
0.0961934
0.0962591
0.0962911
0.0962968
0.0962942
0.0962904
0.0962899
0.0962908
0.0962862
0.0962644
0.0962644
0.0962613
0.0962585
0.0962584
0.0962358
0.0962351
0.0962285
0.0962094
0.0962073
0.0961996
0.0962115
0.0962383
0.0962456
0.0962461
0.0962247
0.0962267
0.0962273
0.0962006
0.096203
0.0961919
0.0961917
0.0962234
0.0962289
0.0962269
0.096226
0.096217
0.0962053
0.0962043
0.0961777
0.0961556
0.096155
0.0961152
0.0961108
0.0961874
0.0962958
0.0963246
0.0963245
0.0963108
0.096312
0.0963099
0.0962785
0.096279
0.0962719
0.0962535
0.0962517
0.0962485
0.0962757
0.0963503
0.0963722
0.0963783
0.0963761
0.0963717
0.0964021
0.0964168
0.096423
0.0964265
0.0964504
0.096735
0.0979199
0.101173
0.106043
0.10731
0.10492
0.099795
0.0985073
0.0983088
0.0982733
0.0982742
0.0982932
0.0967562
0.0967345
0.0966959
0.0966314
0.0965761
0.0965149
0.0964857
0.0964299
0.0963836
0.096332
0.096311
0.096259
0.0962161
0.0962015
0.0961558
0.0961317
0.0961322
0.0961107
0.096072
0.0960807
0.0961723
0.0962589
0.0962862
0.0962895
0.0962912
0.0962896
0.0962558
0.0962561
0.0962445
0.0962133
0.0962201
0.0962208
0.0962077
0.0962155
0.0962092
0.0962032
0.096204
0.0961892
0.0961901
0.0961852
0.0961835
0.0962255
0.0962442
0.0962425
0.0962315
0.096222
0.0962003
0.0961636
0.096153
0.096145
0.0961427
0.0961347
0.0961449
0.0962442
0.0963209
0.0963371
0.0963437
0.0963433
0.0963287
0.0963343
0.0963329
0.0963101
0.096311
0.0963067
0.096275
0.0962748
0.0962703
0.0962637
0.0962606
0.0962336
0.0962343
0.0962205
0.0961947
0.0961932
0.0961835
0.0961774
0.0961708
0.0961721
0.0962218
0.0962483
0.0962474
0.0962323
0.096232
0.0962215
0.0962088
0.0962139
0.0962119
0.096191
0.0961896
0.0961834
0.096172
0.0961647
0.0961561
0.0962008
0.096276
0.0962893
0.0962834
0.0962764
0.0962713
0.0962367
0.0962223
0.0962158
0.0962091
0.0961976
0.0961826
0.0962138
0.0962899
0.0963124
0.0963128
0.0963129
0.0963091
0.0962799
0.0962809
0.0962751
0.0962509
0.0962543
0.096253
0.0962221
0.0962224
0.0962055
0.096192
0.0961926
0.0961825
0.0961811
0.0961508
0.0961471
0.0962226
0.0962859
0.0963099
0.0963172
0.0963199
0.0963206
0.096308
0.0963074
0.0962884
0.0962897
0.0962845
0.0962481
0.0962494
0.0962516
0.0962459
0.0962672
0.0962666
0.0962675
0.0962562
0.0962304
0.0962293
0.0961969
0.0961803
0.09619
0.0962247
0.0962494
0.0962474
0.0962473
0.0962318
0.0962214
0.0962226
0.0962079
0.0962098
0.0962074
0.096191
0.0962111
0.0962126
0.0962136
0.0962062
0.0961927
0.0961931
0.0961922
0.0961878
0.0961809
0.0962165
0.0963095
0.0963454
0.0963578
0.096364
0.0963746
0.096393
0.0964164
0.0964202
0.0964246
0.0964541
0.0966836
0.0977003
0.100619
0.105585
0.107129
0.105123
0.100009
0.0986794
0.0985241
0.0985415
0.0986336
0.0986697
0.0967373
0.0967114
0.0966903
0.0966404
0.0965926
0.0965495
0.0965065
0.0964417
0.0964133
0.0963678
0.0963349
0.0963096
0.0962598
0.0962463
0.0962264
0.0962176
0.0962525
0.0962983
0.0963094
0.0963118
0.0963091
0.096286
0.09629
0.0962895
0.0962722
0.0962742
0.096274
0.0962737
0.0962718
0.0962408
0.0962409
0.0962342
0.0962203
0.0962187
0.0961806
0.0961746
0.0962237
0.0962854
0.0963027
0.0963017
0.0963026
0.0962897
0.0962642
0.0962635
0.0962366
0.096218
0.0962151
0.0962003
0.0961922
0.0961924
0.0962118
0.0962279
0.0962283
0.0962268
0.096221
0.0962183
0.0962129
0.0962232
0.0962955
0.0963277
0.0963265
0.0963062
0.096307
0.0963098
0.096305
0.0963212
0.0963177
0.0963174
0.0962941
0.096277
0.0962757
0.0962408
0.0962265
0.0962258
0.0962031
0.0961867
0.0961875
0.0961767
0.0961766
0.0962507
0.0963065
0.0963082
0.0962928
0.0962925
0.0962735
0.0962527
0.0962504
0.096243
0.0962433
0.096241
0.0962333
0.0962296
0.0962142
0.096213
0.0962061
0.0962044
0.0962003
0.0961934
0.0962204
0.0962639
0.0962643
0.0962638
0.0962598
0.0962375
0.0962373
0.096219
0.0962208
0.0962487
0.0962554
0.096253
0.0962371
0.0962365
0.0962168
0.0961841
0.0961852
0.0961827
0.0961791
0.0961564
0.0961617
0.0962441
0.0963022
0.0963145
0.0963139
0.0963135
0.0962954
0.0962803
0.0962728
0.0962373
0.0962313
0.0962245
0.0961814
0.0961762
0.0961713
0.0961522
0.0961697
0.0962255
0.0962379
0.0962369
0.0962363
0.0962308
0.0962219
0.0962524
0.0963082
0.096316
0.0963175
0.0963143
0.0962866
0.0962875
0.0962815
0.0962533
0.0962568
0.0962568
0.0962317
0.096233
0.0962334
0.0962102
0.0962072
0.0962073
0.0961948
0.0961955
0.0961847
0.0961825
0.0962377
0.0962643
0.0962594
0.0962597
0.0962485
0.0962398
0.0962373
0.0962301
0.0962277
0.096218
0.0962331
0.0963185
0.0964135
0.0964484
0.0964582
0.0964593
0.0964618
0.0964829
0.0965055
0.0966693
0.0974753
0.0999582
0.104887
0.106822
0.10543
0.100811
0.0997172
0.0998518
0.10033
0.100713
0.100827
0.0966892
0.0966587
0.0966243
0.0965742
0.0965575
0.0965091
0.0964714
0.0964509
0.0964282
0.0964175
0.0963957
0.0963719
0.0963648
0.0963282
0.0963016
0.0963016
0.0962734
0.0962469
0.0962478
0.0962436
0.0962284
0.0962326
0.0962329
0.0962187
0.0962177
0.0961964
0.0961945
0.096249
0.0963089
0.0963347
0.096347
0.0963502
0.0963487
0.0963225
0.0963213
0.0963039
0.0962821
0.0962755
0.0962423
0.0962343
0.0962242
0.0961926
0.0961927
0.096182
0.0961742
0.0962076
0.096225
0.0962288
0.0962292
0.0962156
0.0962124
0.0961953
0.0962052
0.096256
0.0962596
0.0962436
0.0962443
0.0962409
0.0962125
0.0962123
0.0962061
0.0961958
0.0961941
0.096189
0.0961883
0.0961806
0.0961848
0.0962424
0.0962678
0.096267
0.0962593
0.096261
0.0962602
0.0962383
0.0962319
0.0962324
0.0962432
0.0962721
0.0962712
0.0962717
0.0962596
0.0962372
0.0962371
0.0962126
0.0961972
0.0961951
0.0961934
0.0961922
0.0961882
0.0961851
0.0961836
0.0962062
0.0962314
0.0962359
0.0962242
0.096222
0.0962629
0.09627
0.0962705
0.0962569
0.0962356
0.0962336
0.0962062
0.0961944
0.0961871
0.0961716
0.0961928
0.0962572
0.0962752
0.0962709
0.0962581
0.0962563
0.0962297
0.0962078
0.0961958
0.0961633
0.0961581
0.0961421
0.0961346
0.0962074
0.0962554
0.0962615
0.0962581
0.0962458
0.0962475
0.0962404
0.0962413
0.0962325
0.0962115
0.0962128
0.0962055
0.0961978
0.0961974
0.0961696
0.0961597
0.0961572
0.096145
0.0961552
0.0962327
0.0962963
0.096315
0.0963219
0.096319
0.0963014
0.0963011
0.096285
0.0962636
0.0962561
0.096226
0.0962155
0.0962005
0.0961719
0.096172
0.0961548
0.0961303
0.0961303
0.0960976
0.0960776
0.0961177
0.0962351
0.0962854
0.096295
0.0962932
0.0962752
0.0962753
0.0962526
0.0962271
0.0962274
0.0961926
0.0961832
0.0962019
0.0962159
0.0962236
0.0962495
0.0962815
0.0963224
0.0963433
0.0963605
0.0963823
0.096427
0.0965155
0.0966849
0.0973179
0.099411
0.104176
0.106745
0.106105
0.103466
0.103549
0.106202
0.108604
0.109968
0.110428
0.0966586
0.0966458
0.0966074
0.0965734
0.0965576
0.0965184
0.0965097
0.0964854
0.0964602
0.0964549
0.0964253
0.096405
0.0963926
0.0963408
0.096326
0.0963157
0.0962782
0.0962752
0.0962691
0.096243
0.0962454
0.0962376
0.0962206
0.0962234
0.0962177
0.0962184
0.0962109
0.0962036
0.0962524
0.0963292
0.0963381
0.0963278
0.0963283
0.0963234
0.096289
0.0962896
0.0962849
0.096276
0.0962753
0.0962546
0.0962485
0.0962487
0.0962456
0.0962112
0.0961977
0.0961972
0.0961718
0.0961594
0.0961559
0.0961451
0.0961491
0.0961969
0.0962222
0.0962222
0.0962214
0.0962175
0.096214
0.0962052
0.0961973
0.0962379
0.0962801
0.0962779
0.0962675
0.0962675
0.0962679
0.0962556
0.0962327
0.0962301
0.0962172
0.096196
0.0961921
0.0961864
0.0961873
0.0961778
0.0961765
0.0962555
0.0963138
0.0963208
0.0963115
0.0962862
0.0962862
0.0962645
0.0962428
0.0962423
0.0962275
0.0962248
0.0962243
0.0962082
0.0962096
0.096205
0.0961973
0.0961935
0.0961857
0.0962163
0.0962707
0.0962827
0.0962801
0.0962572
0.0962576
0.0962488
0.0962375
0.0962356
0.0962333
0.0962577
0.0962967
0.0963028
0.0962856
0.0962707
0.0962615
0.096236
0.0962359
0.0962274
0.0962135
0.0962358
0.0962362
0.0962362
0.0962187
0.0962055
0.0962328
0.096249
0.0962537
0.0962545