/*--------------------------------*- C++ -*----------------------------------*\
| =========                 |                                                 |
| \\      /  F ield         | OpenFOAM: The Open Source CFD Toolbox           |
|  \\    /   O peration     | Version:  4.1                                   |
|   \\  /    A nd           | Web:      www.OpenFOAM.org                      |
|    \\/     M anipulation  |                                                 |
\*---------------------------------------------------------------------------*/
FoamFile
{
    version     2.0;
    format      ascii;
    class       volScalarField;
    location    "0.5";
    object      p;
}
// * * * * * * * * * * * * * * * * * * * * * * * * * * * * * * * * * * * * * //

dimensions      [0 2 -2 0 0 0 0];

internalField   nonuniform List<scalar> 
204246
(
-137.021
-114.521
-95.9746
-83.3116
-75.0327
-67.9779
-63.2218
-59.8353
-57.1873
-55.3284
-53.8045
-52.518
-51.5821
-50.5287
-49.8589
-49.3845
-49.2731
-49.0505
-48.3062
-48.0741
-47.8292
-47.6487
-47.4293
-47.2337
-46.9967
-46.871
-46.6217
-46.553
-46.4544
-46.4011
-46.2879
-46.2478
-46.1517
-46.1215
-45.7816
-46.1265
-46.3294
-46.24
-46.2275
-46.1975
-46.2244
-46.0579
-46.1136
-45.9844
-46.1846
-45.9949
-46.0658
-45.9691
-46.214
-46.0938
-45.9651
-45.8209
-46.1622
-46.382
-46.0667
-46.2023
-46.2043
-46.1746
-46.1056
-46.0923
-45.9368
-46.1178
-45.9449
-46.0511
-45.9624
-46.2274
-46.1128
-45.9662
-45.8239
-46.1891
-46.5084
-46.5119
-46.4713
-46.436
-46.5198
-46.3881
-46.3953
-46.2491
-46.4126
-46.179
-46.2391
-46.1257
-46.4267
-46.3006
-46.1375
-46.031
-46.346
-46.7025
-46.7946
-46.8382
-46.7731
-46.7336
-46.7467
-46.9496
-47.0266
-47.0994
-46.9106
-47.1132
-47.1609
-47.2517
-47.2749
-47.2451
-47.1789
-47.1458
-47.1835
-47.7253
-47.9623
-47.7794
-47.9999
-48.037
-48.2147
-48.3454
-48.5113
-48.434
-48.5678
-48.3526
-48.4055
-48.3673
-48.4652
-48.4165
-48.2982
-48.2092
-48.718
-48.9551
-48.6951
-49.1162
-49.1678
-49.197
-49.2405
-49.386
-49.2935
-49.4378
-49.4601
-49.4977
-49.4318
-49.7005
-49.6543
-49.6034
-49.528
-49.9834
-50.1913
-50.0567
-50.2797
-50.2869
-50.2594
-50.1889
-50.2506
-50.1277
-50.2384
-50.1429
-50.0841
-49.9656
-50.1439
-49.9402
-49.8332
-49.7233
-50.0256
-50.1628
-49.9413
-49.8591
-49.5998
-49.3722
-49.0662
-48.7083
-48.2428
-47.6881
-46.9953
-46.1619
-45.0838
-43.8007
-42.2531
-40.5322
-38.6224
-36.5438
-34.1166
-31.4986
-28.4696
-24.909
-21.3673
-17.6326
-14.3563
-11.0427
-7.05076
2.80444
20.7719
46.7064
75.2188
103.453
131.686
167.338
225.529
320.59
447.25
-132.471
-113.426
-97.9451
-87.3737
-78.333
-72.0603
-66.8912
-62.7826
-59.6476
-57.3773
-55.5617
-54.0118
-52.7197
-51.5643
-50.6716
-50.0245
-49.7786
-49.4801
-49.0718
-48.634
-48.2513
-48.0552
-47.9156
-47.7991
-47.6395
-47.4581
-47.2656
-47.1428
-47.0842
-46.9929
-46.8873
-46.8332
-46.7127
-46.6597
-46.6037
-46.6622
-46.7348
-46.7539
-46.7908
-46.7854
-46.7983
-46.7881
-46.7935
-46.7748
-46.835
-46.7883
-46.7032
-46.6966
-46.7569
-46.7563
-46.712
-46.6563
-46.719
-46.7938
-46.7748
-46.7957
-46.7796
-46.7811
-46.7857
-46.8163
-46.7801
-46.7518
-46.7216
-46.6663
-46.6899
-46.7494
-46.736
-46.7049
-46.6572
-46.7705
-46.9424
-47.0288
-47.0452
-47.0547
-47.1249
-47.1487
-47.1337
-47.063
-47.0968
-47.0345
-46.8871
-46.8689
-46.9029
-46.8783
-46.8571
-46.8438
-46.9859
-47.1602
-47.2599
-47.3326
-47.394
-47.4344
-47.4329
-47.4967
-47.5635
-47.6361
-47.5485
-47.5881
-47.7191
-47.8409
-47.9946
-47.9999
-47.9683
-47.9237
-47.9142
-48.1007
-48.3049
-48.4176
-48.5056
-48.5707
-48.669
-48.8022
-49.0213
-49.1619
-49.2327
-49.1964
-49.0985
-49.1405
-49.1097
-49.0882
-49.0525
-49.0004
-49.1314
-49.2976
-49.3846
-49.5099
-49.6131
-49.7059
-49.793
-49.9292
-49.9499
-49.9668
-50.0332
-50.1356
-50.2645
-50.2714
-50.2848
-50.2976
-50.2949
-50.4329
-50.5773
-50.615
-50.6959
-50.796
-50.8342
-50.8142
-50.8384
-50.79
-50.8527
-50.8198
-50.7382
-50.8483
-50.8501
-50.8538
-50.8093
-50.7476
-50.7271
-50.6851
-50.5971
-50.4653
-50.3516
-50.2226
-50.0164
-49.7916
-49.4554
-49.0672
-48.528
-47.9074
-47.1049
-46.1803
-45.0084
-43.7683
-42.3792
-40.83
-38.933
-36.8511
-34.5817
-32.0083
-29.4017
-27.2007
-25.7758
-25.6458
-25.2137
-19.6489
-5.28951
17.3832
41.9967
65.5213
87.3191
110.372
144.504
210.766
310.571
-111.226
-101.141
-91.3739
-83.07
-76.0456
-70.3114
-65.701
-61.7402
-58.8538
-56.6004
-54.8806
-53.3472
-52.0437
-50.9836
-50.1964
-49.5916
-49.0655
-48.6918
-48.4039
-48.184
-47.9382
-47.559
-47.2313
-46.9919
-46.8067
-46.5385
-46.313
-46.1576
-46.0334
-45.9388
-45.8922
-45.9334
-45.8728
-45.6923
-45.5536
-45.5117
-45.5517
-45.5809
-45.5997
-45.6052
-45.5526
-45.5335
-45.4817
-45.448
-45.427
-45.4392
-45.565
-45.6127
-45.5673
-45.4563
-45.4188
-45.4704
-45.5273
-45.5428
-45.5356
-45.5483
-45.5667
-45.5394
-45.5417
-45.4869
-45.4151
-45.3283
-45.3468
-45.5402
-45.6621
-45.6307
-45.4728
-45.389
-45.4176
-45.5004
-45.6005
-45.6811
-45.7498
-45.8245
-45.8584
-45.9237
-45.8567
-45.7386
-45.6585
-45.6959
-45.7942
-45.815
-45.7729
-45.6381
-45.5787
-45.6301
-45.6911
-45.7647
-45.8337
-45.8729
-45.9134
-46.0076
-46.1599
-46.3132
-46.4935
-46.526
-46.4825
-46.3461
-46.4993
-46.5805
-46.5168
-46.5235
-46.4088
-46.5229
-46.7202
-46.8365
-46.9545
-47.0798
-47.1927
-47.3388
-47.4636
-47.632
-47.7443
-47.9584
-48.0415
-47.9429
-47.7992
-47.6449
-47.6871
-47.7056
-47.7304
-47.8457
-47.9829
-48.0568
-48.1389
-48.2321
-48.3681
-48.5189
-48.6425
-48.6626
-48.8697
-48.8365
-48.8196
-48.834
-48.863
-48.929
-48.9087
-49.0016
-49.1958
-49.3432
-49.433
-49.5139
-49.5653
-49.6151
-49.6853
-49.7487
-49.7559
-49.7646
-49.6615
-49.686
-49.6177
-49.2526
-49.2166
-49.2496
-49.3552
-49.4619
-49.5902
-49.6851
-49.7356
-49.7079
-49.6238
-49.4527
-49.2424
-48.9817
-48.6643
-48.2676
-47.7911
-47.2056
-46.4875
-45.5871
-44.5025
-43.2576
-41.9231
-40.4882
-38.8066
-36.9482
-34.9112
-32.6836
-30.344
-27.9612
-25.5064
-23.2558
-20.946
-15.5387
-5.14862
13.5578
35.6834
59.0769
82.2817
105.08
132.983
175.687
233.028
-89.1777
-86.9503
-82.9381
-78.0907
-73.7451
-69.286
-65.6836
-62.3696
-59.7899
-57.7191
-55.9766
-54.5229
-53.2336
-52.1628
-51.3603
-50.7036
-50.2785
-49.9245
-49.4618
-49.048
-48.6818
-48.5093
-48.4115
-48.3953
-48.2533
-48.0176
-47.8177
-47.6931
-47.5643
-47.5274
-47.5293
-47.4509
-47.3458
-47.2723
-47.2475
-47.2973
-47.33
-47.363
-47.4081
-47.406
-47.4355
-47.4573
-47.5501
-47.6125
-47.6901
-47.5535
-47.3732
-47.3402
-47.3272
-47.3731
-47.3965
-47.4083
-47.4685
-47.5142
-47.5046
-47.485
-47.4596
-47.4752
-47.4544
-47.6242
-47.6813
-47.6287
-47.491
-47.3238
-47.3036
-47.2634
-47.3174
-47.3927
-47.4239
-47.4544
-47.5219
-47.617
-47.6878
-47.7571
-47.8858
-47.9314
-48.0164
-48.0053
-47.9055
-47.7685
-47.5478
-47.5054
-47.4777
-47.5233
-47.5598
-47.6126
-47.7298
-47.8123
-47.8365
-47.894
-47.9564
-48.0174
-48.1137
-48.1138
-48.2103
-48.5144
-48.5484
-48.5246
-48.4723
-48.5001
-48.6134
-48.5237
-48.6495
-48.5898
-48.6756
-48.7635
-48.8842
-48.9774
-49.0416
-49.1009
-49.2752
-49.4178
-49.6117
-49.7881
-50.212
-50.245
-50.0228
-49.9127
-49.6931
-49.751
-49.6954
-49.7341
-49.8089
-49.8989
-49.9622
-49.9676
-49.9794
-50.2151
-50.4975
-50.6345
-50.5664
-50.7702
-50.9299
-50.9251
-50.9226
-50.8151
-50.911
-50.9444
-50.9499
-50.9984
-51.0922
-51.1764
-51.2263
-51.3312
-51.4361
-51.5217
-51.6936
-51.6706
-51.676
-51.6416
-51.5804
-51.7654
-51.6576
-51.6128
-51.4874
-51.3638
-51.2075
-51.148
-51.1303
-51.0817
-51.021
-50.9311
-50.8053
-50.6365
-50.4075
-50.1034
-49.7156
-49.2343
-48.6587
-47.9546
-47.1489
-46.2372
-45.2744
-44.1374
-42.7561
-41.2232
-39.6667
-37.8284
-35.9507
-34.3921
-33.26
-32.7131
-32.3749
-30.5228
-23.4488
-5.8284
12.6813
33.2175
53.8248
76.0693
103.953
138.975
177.174
-71.0599
-72.3001
-72.2126
-70.4459
-68.1874
-65.383
-62.6013
-59.9606
-57.7239
-55.9022
-54.321
-53.0344
-51.8922
-50.8686
-50.1279
-49.5024
-48.9665
-48.4222
-48.16
-47.949
-47.6026
-47.1264
-46.8658
-46.7514
-46.6551
-46.3565
-46.0163
-45.7835
-45.6399
-45.5464
-45.4445
-45.4036
-45.4038
-45.271
-45.0534
-44.862
-44.8549
-44.9352
-44.9517
-44.8951
-44.7684
-44.8082
-44.8358
-44.8839
-44.896
-44.915
-45.0204
-45.0702
-45.0202
-44.8453
-44.7275
-44.7174
-44.7696
-44.8373
-44.9056
-44.9165
-44.9149
-44.8693
-44.8496
-44.7174
-44.7087
-44.6488
-44.8118
-45.0714
-45.1778
-45.0883
-44.8426
-44.716
-44.6841
-44.7625
-44.8407
-44.9017
-44.9545
-45.0548
-45.1152
-45.2464
-45.1968
-45.1222
-45.0316
-45.1628
-45.2878
-45.2788
-45.2115
-44.995
-44.8899
-44.8495
-44.8818
-44.9655
-45.0287
-45.0185
-45.0468
-45.1995
-45.3458
-45.5027
-45.7177
-45.7494
-45.8072
-45.705
-45.9242
-45.9357
-45.7396
-45.7788
-45.6373
-45.7042
-45.8519
-46.0298
-46.2023
-46.3561
-46.4813
-46.6201
-46.7343
-46.9484
-46.9242
-47.1022
-47.1583
-47.2899
-47.214
-47.0504
-47.1207
-46.97
-46.9785
-46.9656
-47.1822
-47.3613
-47.478
-47.5749
-47.6426
-47.6156
-47.8473
-48.108
-48.2056
-48.0085
-48.1209
-48.2006
-48.2127
-48.2817
-48.2503
-48.381
-48.5732
-48.7117
-48.7658
-48.7841
-48.8596
-48.9428
-49.0698
-49.228
-49.1914
-49.2995
-49.2377
-49.1091
-48.9516
-48.6485
-48.808
-48.8764
-48.8747
-49.0249
-49.2814
-49.523
-49.6835
-49.7459
-49.7369
-49.6827
-49.6037
-49.5217
-49.4137
-49.2528
-49.0073
-48.6982
-48.2785
-47.752
-47.1043
-46.4448
-45.8145
-45.1594
-44.3074
-43.3841
-42.4367
-41.4661
-40.4161
-39.2782
-38.0363
-36.8352
-35.4269
-32.0162
-21.8093
-13.107
2.34884
17.9918
34.4312
53.7983
78.0744
106.397
133.945
-57.3532
-59.7493
-61.7623
-62.3302
-62.0187
-61.0829
-59.7103
-58.2294
-56.7488
-55.4172
-54.2543
-53.2971
-52.3998
-51.6261
-51.0946
-50.6359
-50.1849
-49.6732
-49.2683
-49.0537
-48.8141
-48.5929
-48.3604
-48.4124
-48.4408
-48.4236
-48.2354
-48.0882
-47.9038
-47.9217
-47.896
-47.8568
-47.7737
-47.7825
-47.7989
-47.8415
-47.8097
-47.8221
-47.9254
-48.0161
-48.0397
-47.9511
-48.0564
-48.0959
-48.2279
-48.1379
-47.9507
-47.9017
-47.8806
-47.9582
-47.9704
-47.944
-47.9889
-48.0427
-48.0556
-48.0806
-48.0777
-48.1508
-48.2196
-48.3017
-48.2219
-48.1656
-48.0058
-47.7788
-47.8033
-47.8282
-47.9367
-47.953
-47.9373
-47.9434
-48.0116
-48.1261
-48.2482
-48.3296
-48.4767
-48.5335
-48.6491
-48.6748
-48.5909
-48.3885
-48.1019
-48.0465
-47.9607
-48.0358
-48.1325
-48.2271
-48.3026
-48.3248
-48.3271
-48.3235
-48.3316
-48.3846
-48.5329
-48.682
-48.8384
-49.1641
-49.2104
-49.1861
-49.0458
-48.947
-49.0453
-48.9642
-49.0807
-49.0516
-49.108
-49.0737
-49.1673
-49.3358
-49.483
-49.6024
-49.818
-49.959
-50.2091
-50.3391
-50.6547
-50.6357
-50.5045
-50.4662
-50.2187
-50.2125
-50.1587
-50.2439
-50.2282
-50.2768
-50.3327
-50.4074
-50.5666
-50.697
-50.7127
-51.0598
-51.3637
-51.6439
-51.6724
-51.6037
-51.5172
-51.3165
-51.3845
-51.3908
-51.3763
-51.3204
-51.3647
-51.5437
-51.6835
-51.8503
-51.9996
-52.1852
-52.4411
-52.4484
-52.612
-52.4385
-52.1844
-52.3488
-52.1731
-51.9484
-51.6312
-51.3062
-51.2513
-51.3971
-51.4943
-51.4864
-51.4546
-51.4078
-51.3112
-51.1877
-51.0113
-50.8175
-50.5956
-50.2769
-49.9046
-49.5107
-49.03
-48.4529
-47.9443
-47.3988
-46.6945
-46.0582
-45.6635
-45.2126
-44.6802
-44.2171
-43.73
-43.2586
-42.6657
-41.3104
-37.3926
-25.1892
-11.5429
2.17367
16.761
34.2055
55.1361
77.9682
99.082
-46.1264
-49.5183
-52.5908
-54.3842
-55.4089
-55.7372
-55.4062
-54.8801
-53.9776
-52.9634
-52.1308
-51.3535
-50.6505
-49.988
-49.5286
-49.0928
-48.573
-48.1385
-47.8948
-47.6441
-47.2241
-46.6996
-46.4502
-46.4592
-46.6114
-46.3627
-45.9111
-45.5269
-45.3466
-45.1808
-45.0682
-45.0076
-44.9998
-44.8563
-44.6087
-44.3658
-44.3378
-44.4061
-44.3981
-44.379
-44.3341
-44.3631
-44.2364
-44.3283
-44.3722
-44.4392
-44.575
-44.6149
-44.5898
-44.3762
-44.2325
-44.1968
-44.2199
-44.2488
-44.3399
-44.378
-44.3361
-44.249
-44.3416
-44.3417
-44.4205
-44.3937
-44.4491
-44.5363
-44.5612
-44.6142
-44.3906
-44.2196
-44.1201
-44.1858
-44.2855
-44.3595
-44.3714
-44.4419
-44.5036
-44.6294
-44.6086
-44.7533
-44.807
-44.7945
-44.8269
-44.7865
-44.8196
-44.5805
-44.3727
-44.2242
-44.2928
-44.4365
-44.4695
-44.4101
-44.3241
-44.4184
-44.6092
-44.8087
-45.066
-45.1638
-45.3428
-45.3413
-45.5785
-45.5058
-45.2422
-45.2489
-45.058
-45.0838
-45.1972
-45.4509
-45.6872
-45.8547
-45.9665
-46.0759
-46.1468
-46.3374
-46.343
-46.508
-46.5596
-46.8629
-46.783
-46.6588
-46.7126
-46.4615
-46.3777
-46.3463
-46.6037
-46.8104
-46.9396
-47.0388
-47.0955
-47.1658
-47.3044
-47.2432
-47.4595
-47.6192
-47.866
-47.8666
-47.6794
-47.7766
-47.706
-47.8224
-47.9413
-48.0813
-48.2151
-48.3286
-48.4563
-48.4925
-48.5756
-48.7669
-48.8461
-49.0098
-48.9929
-48.9053
-48.7171
-48.5036
-48.7602
-48.8509
-48.8164
-48.8539
-49.0118
-49.3409
-49.6883
-49.9146
-50.0672
-50.1697
-50.2208
-50.264
-50.2948
-50.3148
-50.2865
-50.1702
-49.9817
-49.8214
-49.6318
-49.4281
-49.3093
-49.2365
-49.0279
-48.7918
-48.6795
-48.5536
-48.476
-48.5465
-48.5538
-48.4349
-48.0021
-46.7165
-43.0976
-35.3379
-23.7572
-12.1677
0.368493
16.0932
34.5134
53.4652
70.1932
-37.0134
-40.8403
-44.6431
-47.3151
-49.247
-50.5329
-51.0786
-51.3215
-51.235
-51.0421
-50.8641
-50.4986
-50.2069
-49.8924
-49.7431
-49.5901
-49.3455
-49.0121
-48.7843
-48.6922
-48.5992
-48.4328
-48.2288
-48.1136
-48.1143
-48.2593
-48.2342
-48.2582
-48.1448
-48.2063
-48.1506
-48.1556
-48.137
-48.1291
-48.1285
-48.1611
-48.1376
-48.173
-48.2733
-48.3067
-48.3356
-48.3539
-48.4662
-48.508
-48.6916
-48.5984
-48.3585
-48.3049
-48.293
-48.3708
-48.3949
-48.4025
-48.4237
-48.4286
-48.4199
-48.4034
-48.3993
-48.5749
-48.6593
-48.7081
-48.6708
-48.5936
-48.4061
-48.194
-48.2152
-48.2251
-48.3042
-48.2695
-48.2604
-48.2954
-48.3828
-48.4995
-48.5874
-48.6401
-48.8353
-48.9501
-49.1091
-49.139
-49.094
-48.8194
-48.4619
-48.4527
-48.4339
-48.4914
-48.541
-48.5968
-48.6361
-48.6228
-48.6199
-48.6219
-48.6117
-48.6496
-48.8199
-49.0274
-49.1451
-49.4081
-49.5086
-49.5638
-49.4311
-49.2969
-49.3266
-49.2571
-49.4268
-49.3252
-49.2674
-49.1942
-49.332
-49.6017
-49.8303
-50.0104
-50.2215
-50.321
-50.5443
-50.7261
-50.9337
-50.8413
-50.7488
-50.6577
-50.518
-50.6825
-50.5427
-50.4505
-50.2944
-50.3952
-50.6161
-50.77
-50.9362
-51.1104
-51.1956
-51.3523
-51.3129
-51.6588
-51.8911
-52.0535
-51.9587
-51.7309
-51.9134
-51.8156
-51.6481
-51.5136
-51.5904
-51.8621
-52.0578
-52.2247
-52.3904
-52.5787
-52.8476
-52.8507
-52.9156
-52.7675
-52.6119
-52.6876
-52.4924
-52.203
-51.8175
-51.399
-51.2092
-51.3126
-51.5265
-51.6313
-51.6468
-51.6502
-51.6179
-51.5423
-51.4319
-51.3593
-51.26
-51.0671
-50.9176
-50.8521
-50.7619
-50.6668
-50.7129
-50.8408
-50.8815
-50.9454
-51.2309
-51.6014
-52.0185
-52.5811
-53.1806
-53.6499
-53.7597
-53.0546
-50.3182
-43.9863
-34.6744
-25.1055
-14.465
-0.527194
15.7472
31.9077
45.6997
-29.5721
-33.4649
-37.5455
-40.7478
-43.3214
-45.3173
-46.4995
-47.364
-47.9237
-48.218
-48.3831
-48.3876
-48.3064
-48.1818
-48.1017
-47.9873
-47.7538
-47.4812
-47.2783
-47.1403
-47.0261
-46.7419
-46.4111
-46.155
-46.0506
-46.0028
-45.7985
-45.4357
-45.0749
-44.8252
-44.7375
-44.7621
-44.7539
-44.5593
-44.2849
-44.0302
-43.977
-44.0214
-44
-44.025
-43.9331
-43.925
-43.8973
-44.0477
-44.1108
-44.1606
-44.2442
-44.2671
-44.3069
-44.0875
-43.8885
-43.792
-43.8384
-43.925
-44.021
-44.0424
-43.9897
-43.8578
-43.9918
-44.0896
-44.1826
-44.1534
-44.182
-44.2384
-44.2427
-44.3279
-44.1406
-43.941
-43.752
-43.7901
-43.8716
-43.9304
-43.9688
-44.0592
-44.0257
-44.1118
-44.1825
-44.5171
-44.6058
-44.5957
-44.6382
-44.5494
-44.5088
-44.2717
-44.0479
-43.874
-43.9343
-44.0671
-44.0687
-43.9942
-43.8704
-43.8366
-43.9786
-44.2661
-44.6164
-44.7521
-45.0254
-45.0861
-45.3408
-45.2151
-44.9578
-44.9754
-44.7756
-44.7324
-44.71
-44.9789
-45.2564
-45.4285
-45.5387
-45.6377
-45.7525
-46.008
-46.0428
-46.2614
-46.4089
-46.6251
-46.5214
-46.3929
-46.4829
-46.2192
-46.0857
-45.9891
-46.1716
-46.3313
-46.4432
-46.548
-46.694
-46.8657
-47.1007
-47.0426
-47.1407
-47.2326
-47.5376
-47.561
-47.4082
-47.5216
-47.3689
-47.3867
-47.323
-47.5633
-47.8004
-47.9298
-48.1187
-48.2627
-48.3712
-48.5277
-48.6248
-48.8736
-48.9136
-48.8334
-48.7041
-48.491
-48.7163
-48.8434
-48.985
-49.0989
-49.1342
-49.2879
-49.6396
-50.027
-50.333
-50.5614
-50.7709
-50.9378
-51.0809
-51.2238
-51.3015
-51.2985
-51.3111
-51.4484
-51.5859
-51.7012
-51.947
-52.3057
-52.6248
-53.0586
-53.7339
-54.4699
-55.3071
-56.4126
-57.6088
-58.6922
-59.4071
-59.3257
-57.4694
-52.5656
-44.8023
-36.8398
-27.8681
-15.6542
-1.29133
12.7
24.4057
-23.6316
-27.4667
-31.5918
-35.0611
-38.0168
-40.4981
-42.2963
-43.707
-44.8217
-45.5757
-46.1393
-46.5358
-46.9194
-47.2414
-47.5219
-47.6812
-47.7437
-47.7034
-47.7293
-47.8896
-47.9855
-47.9279
-47.783
-47.745
-47.7555
-47.96
-48.0776
-48.1219
-48.1414
-48.2012
-48.2431
-48.2733
-48.2759
-48.3114
-48.3542
-48.3851
-48.3698
-48.3692
-48.4588
-48.5028
-48.5062
-48.4889
-48.6246
-48.7089
-48.8868
-48.7455
-48.5672
-48.5512
-48.5686
-48.6394
-48.6517
-48.6393
-48.6623
-48.6875
-48.6486
-48.6632
-48.7421
-48.7473
-48.5745
-48.6703
-48.7286
-48.8795
-48.7733
-48.5422
-48.5243
-48.5248
-48.6174
-48.6544
-48.6474
-48.5986
-48.6701
-48.7696
-48.8518
-48.8879
-48.9925
-48.9851
-49.0309
-49.1243
-49.3456
-49.1112
-48.751
-48.7266
-48.6849
-48.7958
-48.8208
-48.8273
-48.8145
-48.7982
-48.7678
-48.685
-48.5935
-48.6125
-48.8319
-49.0629
-49.1779
-49.4466
-49.5983
-49.7325
-49.6152
-49.4623
-49.472
-49.3765
-49.5578
-49.4493
-49.3556
-49.1619
-49.3281
-49.7068
-50.0237
-50.2115
-50.3722
-50.4101
-50.5921
-50.7712
-51.0863
-50.9682
-50.8446
-50.813
-50.72
-50.9229
-50.7743
-50.5684
-50.2877
-50.3895
-50.7582
-51.0239
-51.2316
-51.3624
-51.4
-51.5664
-51.4598
-51.7643
-51.9218
-52.064
-52.0782
-51.9021
-52.0799
-51.9255
-51.7638
-51.5864
-51.6755
-51.9599
-52.2108
-52.438
-52.6156
-52.7632
-53.0288
-52.9703
-53.0439
-52.9748
-52.8758
-52.8265
-52.511
-52.4149
-52.1247
-51.6916
-51.3707
-51.2663
-51.3862
-51.5851
-51.6941
-51.7652
-51.8128
-51.8049
-51.7813
-51.8194
-51.8119
-51.6787
-51.6504
-51.871
-52.2019
-52.5186
-52.9352
-53.4938
-54.0534
-54.7094
-55.7011
-56.8955
-58.2288
-59.8065
-61.6067
-63.4012
-64.8385
-65.4993
-64.519
-60.8016
-54.3898
-47.8269
-40.255
-29.5193
-16.7891
-4.56209
5.56833
-18.731
-22.4399
-26.4687
-30.0384
-33.1718
-35.9095
-38.1774
-40.0063
-41.4688
-42.6535
-43.5616
-44.2506
-44.8821
-45.4546
-45.9383
-46.2222
-46.2836
-46.3048
-46.3773
-46.4532
-46.4971
-46.3182
-46.0307
-45.7923
-45.7169
-45.7108
-45.5509
-45.1637
-44.8029
-44.593
-44.4957
-44.4832
-44.6034
-44.4216
-44.1249
-43.8499
-43.8063
-43.8691
-43.8106
-43.8013
-43.7676
-43.7322
-43.6905
-43.9122
-44.0176
-44.0175
-44.0682
-44.0819
-44.134
-43.9297
-43.7352
-43.6484
-43.7049
-43.8012
-43.8771
-43.8789
-43.8757
-43.8629
-43.9268
-43.8543
-43.9496
-43.9733
-44.014
-44.0984
-44.1024
-44.1846
-44.0092
-43.802
-43.64
-43.6436
-43.6745
-43.6901
-43.7661
-43.9081
-43.9096
-43.9416
-43.9907
-44.3492
-44.4459
-44.4451
-44.5043
-44.4348
-44.4107
-44.1568
-43.9301
-43.7518
-43.7768
-43.9022
-43.9264
-43.854
-43.6281
-43.5714
-43.5776
-43.9303
-44.3493
-44.4862
-44.7958
-44.9037
-45.1974
-45.1055
-44.8674
-44.9101
-44.6714
-44.5239
-44.4474
-44.6724
-44.9274
-45.1414
-45.2859
-45.4224
-45.5579
-45.8003
-45.8007
-46.0215
-46.2154
-46.5061
-46.4121
-46.2586
-46.3591
-46.1409
-46.0036
-45.9087
-45.9758
-45.9522
-45.9024
-46.1746
-46.481
-46.7512
-47.0203
-46.9637
-47.0113
-47.0331
-47.4188
-47.3909
-47.2553
-47.448
-47.276
-47.1884
-47.0745
-47.2529
-47.4852
-47.6698
-47.8391
-48.0045
-48.1945
-48.4223
-48.5449
-48.8521
-48.9602
-48.9364
-48.826
-48.6418
-48.8879
-48.9714
-49.0266
-49.1498
-49.2988
-49.48
-49.72
-50.0368
-50.4073
-50.7453
-51.0542
-51.3346
-51.6089
-51.8587
-51.9139
-51.85
-51.9914
-52.3861
-52.8456
-53.2713
-53.7917
-54.5088
-55.2642
-56.1122
-57.2758
-58.7969
-60.62
-62.7061
-65.077
-67.5986
-69.8828
-71.4366
-71.4066
-68.808
-63.546
-58.2539
-51.8635
-42.4142
-31.068
-20.2519
-11.3394
-14.8068
-18.3471
-22.2135
-25.7344
-28.9846
-31.8789
-34.4019
-36.5659
-38.3423
-39.8632
-41.1148
-42.1235
-43.0449
-43.9066
-44.6888
-45.2363
-45.6019
-45.9581
-46.2738
-46.6855
-47.01
-47.1689
-47.1789
-47.276
-47.3684
-47.6047
-47.7742
-47.8867
-47.8969
-48.0201
-48.1608
-48.2625
-48.2624
-48.3087
-48.3587
-48.4211
-48.4317
-48.4157
-48.5053
-48.5567
-48.6599
-48.5944
-48.6002
-48.6387
-48.8874
-48.8774
-48.6485
-48.6251
-48.6486
-48.7031
-48.7231
-48.7277
-48.753
-48.7772
-48.7694
-48.7518
-48.712
-48.6564
-48.5513
-48.6139
-48.6264
-48.7961
-48.7471
-48.5721
-48.58
-48.5896
-48.6505
-48.6241
-48.629
-48.6587
-48.7014
-48.7746
-48.8499
-48.8995
-49.0026
-48.9066
-48.8946
-48.9671
-49.2558
-49.1341
-48.8334
-48.8111
-48.8098
-48.9271
-48.8879
-48.8798
-48.8199
-48.7689
-48.8043
-48.7757
-48.7963
-48.7146
-48.7205
-48.8786
-49.0294
-49.3341
-49.5309
-49.7168
-49.5497
-49.4489
-49.4849
-49.4018
-49.5868
-49.4668
-49.306
-49.0474
-49.1978
-49.6001
-49.9673
-50.1682
-50.3154
-50.3364
-50.5125
-50.6576
-50.9578
-50.9306
-50.8585
-50.8461
-50.768
-51.0098
-50.8869
-50.6792
-50.4127
-50.4137
-50.6247
-50.8279
-51.0468
-51.2753
-51.4206
-51.6542
-51.6017
-51.7639
-51.8372
-51.9399
-52.058
-51.9849
-52.0138
-51.8481
-51.7295
-51.5283
-51.6138
-51.9317
-52.1443
-52.3652
-52.5848
-52.7251
-52.9571
-52.9611
-53.0896
-52.9913
-52.8434
-52.8369
-52.6256
-52.5774
-52.2349
-51.7968
-51.4679
-51.3657
-51.4275
-51.5615
-51.7362
-51.895
-51.9668
-52.0768
-52.2761
-52.4219
-52.3512
-52.2226
-52.3504
-52.7292
-53.2227
-53.7629
-54.4218
-55.2553
-56.2137
-57.2689
-58.5721
-60.2992
-62.4659
-65.028
-67.9904
-71.2343
-74.4189
-77.0007
-78.0734
-76.6794
-72.3928
-68.246
-62.8917
-54.5649
-44.3848
-34.7231
-26.7629
-11.6447
-15.0112
-18.6867
-22.0832
-25.3228
-28.319
-30.9164
-33.2989
-35.3153
-37.0889
-38.6072
-39.8647
-41.0113
-42.099
-43.0942
-43.8078
-44.2453
-44.6171
-44.9513
-45.1907
-45.3452
-45.3465
-45.3248
-45.436
-45.5644
-45.4526
-45.1315
-44.7538
-44.519
-44.3385
-44.2633
-44.2086
-44.3338
-44.3084
-44.142
-43.8445
-43.7737
-43.8237
-43.8248
-43.8478
-43.7666
-43.802
-43.7299
-43.8724
-43.9634
-44.0396
-44.0906
-44.0875
-44.1355
-43.9428
-43.744
-43.6456
-43.6967
-43.8139
-43.9061
-43.9455
-43.9676
-43.9869
-44.0329
-43.8861
-44.0004
-44.0258
-44.0751
-44.1451
-44.1366
-44.2015
-44.0303
-43.8173
-43.6358
-43.6808
-43.7373
-43.6455
-43.7031
-43.9075
-43.9959
-44.1052
-44.0541
-44.2036
-44.3123
-44.4162
-44.5049
-44.4625
-44.4413
-44.2202
-43.9997
-43.8216
-43.8468
-43.9409
-43.9803
-43.9979
-43.8009
-43.6438
-43.5687
-43.827
-44.2162
-44.356
-44.7588
-44.9823
-45.237
-45.1002
-44.9146
-44.9963
-44.7439
-44.5337
-44.3588
-44.5567
-44.7652
-44.9755
-45.1652
-45.3399
-45.4865
-45.6914
-45.6594
-45.8544
-46.0525
-46.4293
-46.3826
-46.2571
-46.3845
-46.1707
-46.0197
-45.9129
-46.0095
-45.9716
-45.864
-46.0242
-46.3081
-46.6032
-46.9015
-46.962
-47.0889
-47.1351
-47.461
-47.414
-47.2834
-47.4344
-47.2532
-47.1586
-47.0488
-47.1793
-47.3689
-47.5379
-47.6917
-47.8819
-48.1123
-48.3903
-48.5661
-48.9185
-49.0561
-49.0876
-49.0441
-48.923
-49.1426
-49.1897
-49.1874
-49.2457
-49.4041
-49.604
-49.8223
-50.0452
-50.3401
-50.6654
-50.9891
-51.255
-51.5572
-51.877
-52.0188
-52.0555
-52.324
-52.842
-53.4188
-54.0506
-54.8198
-55.7978
-56.9152
-58.0945
-59.5108
-61.3995
-63.794
-66.7105
-70.1735
-74.113
-78.2257
-81.9779
-84.3567
-84.3209
-80.978
-77.9319
-73.5103
-66.1923
-57.0196
-48.297
-41.0482
-9.19789
-12.3979
-15.8613
-19.0945
-22.2022
-25.1908
-27.8328
-30.3227
-32.5086
-34.4782
-36.2181
-37.7123
-39.1038
-40.4513
-41.6788
-42.634
-43.4273
-44.175
-44.7984
-45.3059
-45.6861
-46.1253
-46.5123
-46.7707
-46.9138
-47.1083
-47.2675
-47.4312
-47.5412
-47.6883
-47.827
-47.9563
-48.0485
-48.1763
-48.2532
-48.3425
-48.3647
-48.3695
-48.3954
-48.4106
-48.4465
-48.4183
-48.4964
-48.4884
-48.6485
-48.6578
-48.5351
-48.5156
-48.5171
-48.5947
-48.6153
-48.6203
-48.6401
-48.6282
-48.5939
-48.5511
-48.5206
-48.5548
-48.5401
-48.5709
-48.5386
-48.6669
-48.6078
-48.4495
-48.4633
-48.4902
-48.5743
-48.5674
-48.582
-48.6014
-48.6184
-48.622
-48.6391
-48.693
-48.7877
-48.7364
-48.7597
-48.778
-48.9816
-48.8801
-48.6632
-48.6949
-48.7181
-48.7731
-48.7783
-48.7624
-48.6485
-48.5535
-48.6108
-48.6025
-48.5998
-48.5128
-48.5079
-48.5805
-48.7071
-49.0247
-49.194
-49.478
-49.3948
-49.3315
-49.3466
-49.2989
-49.493
-49.3403
-49.1356
-48.8449
-48.9937
-49.3786
-49.6785
-49.8472
-50.046
-50.1169
-50.2733
-50.2987
-50.6637
-50.7743
-50.7567
-50.7471
-50.6796
-50.9113
-50.8042
-50.6303
-50.3759
-50.3203
-50.3921
-50.5014
-50.7573
-51.0459
-51.2251
-51.4906
-51.4807
-51.5711
-51.5984
-51.6892
-51.8508
-51.8739
-51.9359
-51.7473
-51.6054
-51.4011
-51.4524
-51.6769
-51.8626
-52.0913
-52.3485
-52.4949
-52.6757
-52.7163
-52.9845
-52.8749
-52.6801
-52.716
-52.5436
-52.7097
-52.4587
-52.1085
-51.7009
-51.5109
-51.587
-51.7245
-51.8873
-52.1274
-52.3068
-52.4119
-52.5641
-52.8063
-52.9015
-52.8431
-52.9565
-53.3439
-53.8528
-54.4178
-55.1582
-56.1366
-57.2786
-58.5436
-60.0778
-62.0701
-64.6118
-67.7693
-71.6166
-76.1796
-81.225
-86.2238
-90.0321
-91.3181
-89.4594
-87.4379
-83.9258
-77.5144
-69.1487
-61.1893
-54.4953
-7.4669
-10.4343
-13.6412
-16.6499
-19.5873
-22.4895
-25.1271
-27.6658
-29.9469
-32.025
-33.9137
-35.5889
-37.1228
-38.5718
-39.8809
-40.9151
-41.7182
-42.4823
-43.0823
-43.5641
-44.0395
-44.3118
-44.4183
-44.6172
-44.8902
-44.8497
-44.667
-44.4443
-44.2956
-44.205
-44.1492
-44.1084
-44.2731
-44.3006
-44.1697
-43.9039
-43.8564
-43.9414
-43.9763
-43.9737
-43.9721
-44.0804
-43.978
-44.0371
-44.0539
-44.1571
-44.2406
-44.2797
-44.3464
-44.1896
-43.9901
-43.8774
-43.9211
-44.0526
-44.1476
-44.1628
-44.1075
-44.1019
-44.2261
-44.1545
-44.1403
-44.0972
-44.1473
-44.296
-44.3821
-44.4037
-44.1885
-43.9756
-43.8297
-43.909
-44.016
-43.9456
-43.9316
-44.0404
-44.1676
-44.3548
-44.3156
-44.3457
-44.4187
-44.519
-44.6133
-44.6481
-44.6792
-44.4485
-44.197
-44.0501
-44.1105
-44.2028
-44.1536
-44.1628
-44.0665
-43.9176
-43.7437
-43.8908
-44.2476
-44.4068
-44.7459
-44.917
-45.251
-45.174
-45.0892
-45.2206
-44.981
-44.752
-44.5958
-44.7038
-44.8036
-44.9764
-45.2237
-45.4155
-45.5408
-45.7647
-45.7246
-45.9025
-46.0943
-46.5015
-46.5007
-46.4024
-46.5223
-46.307
-46.1869
-46.0894
-46.2601
-46.2662
-46.0849
-46.0761
-46.244
-46.5848
-46.9647
-47.0931
-47.2921
-47.3185
-47.5501
-47.4845
-47.368
-47.5176
-47.3612
-47.3587
-47.3222
-47.4763
-47.5145
-47.4345
-47.6281
-47.9031
-48.1408
-48.4536
-48.6496
-48.9973
-49.1265
-49.1907
-49.1964
-49.1778
-49.4399
-49.4479
-49.3852
-49.4273
-49.6203
-49.8387
-49.9648
-50.0042
-50.1676
-50.446
-50.781
-51.0528
-51.3249
-51.7206
-52.0264
-52.0753
-52.2211
-52.7066
-53.4278
-54.1821
-55.0617
-56.1819
-57.4059
-58.6975
-60.2564
-62.253
-64.8272
-68.1387
-72.2907
-77.3079
-83.0702
-89.2414
-94.6544
-97.5047
-97.7323
-96.8406
-94.1572
-88.4751
-80.9932
-73.7984
-67.4885
-6.1599
-8.91422
-11.8379
-14.6322
-17.3792
-20.1746
-22.7549
-25.2788
-27.5917
-29.7612
-31.8099
-33.7198
-35.5608
-37.2842
-38.8222
-40.0843
-41.2063
-42.2678
-43.167
-43.8971
-44.503
-45.0521
-45.5129
-45.9288
-46.2358
-46.4752
-46.6984
-46.9083
-47.0563
-47.2407
-47.391
-47.4928
-47.6013
-47.8175
-47.9223
-48.0001
-48.0495
-48.0503
-48.0581
-48.0784
-48.138
-48.145
-48.2393
-48.2418
-48.306
-48.2285
-48.142
-48.1714
-48.1755
-48.2523
-48.3085
-48.295
-48.269
-48.2463
-48.2399
-48.2386
-48.2208
-48.2393
-48.219
-48.2652
-48.295
-48.3657
-48.2541
-48.11
-48.1401
-48.1846
-48.2798
-48.2736
-48.2586
-48.2372
-48.2568
-48.2904
-48.2989
-48.3094
-48.3641
-48.381
-48.4933
-48.5464
-48.6234
-48.4621
-48.2979
-48.3529
-48.3755
-48.517
-48.5489
-48.4314
-48.2747
-48.2186
-48.3112
-48.2996
-48.3229
-48.2919
-48.2141
-48.0737
-48.1574
-48.5647
-48.7442
-49.0122
-49.0102
-49.0203
-49.0437
-49.0269
-49.1887
-48.9945
-48.7682
-48.5587
-48.7378
-49.018
-49.2512
-49.4372
-49.6008
-49.6625
-49.7836
-49.7553
-50.1249
-50.3131
-50.4124
-50.442
-50.406
-50.6436
-50.519
-50.3541
-50.1129
-50.071
-50.1278
-50.1414
-50.3116
-50.6081
-50.8178
-51.0754
-51.1186
-51.2218
-51.2576
-51.3473
-51.4638
-51.5021
-51.698
-51.4719
-51.349
-51.2221
-51.2842
-51.4023
-51.5107
-51.6868
-51.8941
-52.0281
-52.2872
-52.3208
-52.4803
-52.4188
-52.4613
-52.6104
-52.4604
-52.6981
-52.5113
-52.1537
-51.7618
-51.6181
-51.7969
-51.8886
-51.9252
-52.106
-52.3845
-52.5276
-52.5824
-52.8505
-53.1656
-53.3652
-53.53
-53.8046
-54.1742
-54.7152
-55.5297
-56.5216
-57.5866
-58.7518
-60.242
-62.1161
-64.5514
-67.8103
-72.0542
-77.3861
-83.8065
-91.1871
-98.4006
-103.455
-105.475
-105.528
-103.782
-99.4441
-93.1098
-86.3212
-80.2431
-5.24908
-7.85552
-10.4957
-13.0827
-15.5807
-18.2064
-20.6083
-23.0354
-25.3217
-27.5212
-29.607
-31.5566
-33.3727
-35.0827
-36.6261
-37.9259
-39.0289
-40.0824
-41.0015
-41.8106
-42.6046
-43.1526
-43.4717
-43.7509
-44.0204
-44.1052
-44.1571
-44.1043
-44.1639
-44.2007
-44.1783
-44.1624
-44.3706
-44.4145
-44.3239
-44.1372
-44.1791
-44.2998
-44.3417
-44.3308
-44.3378
-44.4458
-44.3831
-44.4278
-44.4436
-44.5121
-44.5572
-44.5904
-44.6703
-44.5509
-44.3752
-44.2986
-44.3337
-44.4656
-44.537
-44.5527
-44.5124
-44.4992
-44.5781
-44.4936
-44.5244
-44.5459
-44.5778
-44.6275
-44.6727
-44.7502
-44.6045
-44.4012
-44.2672
-44.33
-44.4591
-44.4417
-44.4322
-44.4663
-44.5287
-44.6566
-44.6127
-44.7018
-44.7716
-44.8364
-44.8795
-44.9274
-45.0336
-44.8478
-44.6354
-44.5338
-44.5401
-44.5905
-44.5777
-44.6234
-44.5525
-44.4622
-44.3
-44.3073
-44.511
-44.638
-44.9489
-45.1102
-45.4327
-45.403
-45.4002
-45.5744
-45.4132
-45.2072
-45.1187
-45.0858
-45.1009
-45.1954
-45.4082
-45.6702
-45.8408
-45.9997
-45.9857
-46.1625
-46.2988
-46.6558
-46.6774
-46.6654
-46.8371
-46.6747
-46.5306
-46.4537
-46.6265
-46.6927
-46.5535
-46.4741
-46.4741
-46.7729
-47.1392
-47.2475
-47.5081
-47.5396
-47.7199
-47.6703
-47.6439
-47.8573
-47.7386
-47.6691
-47.6173
-47.8289
-47.9232
-47.8943
-48.005
-48.1645
-48.3722
-48.5892
-48.5966
-48.8913
-49.1194
-49.4246
-49.4505
-49.3613
-49.6727
-49.7064
-49.7266
-49.8491
-49.9631
-49.9615
-49.9264
-50.0312
-50.2914
-50.5382
-50.661
-50.7801
-51.1236
-51.5707
-51.8946
-51.9899
-52.1393
-52.5517
-53.1505
-53.8144
-54.5896
-55.6191
-56.848
-58.2518
-59.9208
-61.8857
-64.2238
-67.2535
-71.2232
-76.4042
-83.0043
-91.1428
-99.949
-107.347
-111.876
-113.424
-113.686
-110.644
-104.895
-98.7592
-93.3024
-6.41181