/*--------------------------------*- C++ -*----------------------------------*\
| =========                 |                                                 |
| \\      /  F ield         | OpenFOAM: The Open Source CFD Toolbox           |
|  \\    /   O peration     | Version:  4.1                                   |
|   \\  /    A nd           | Web:      www.OpenFOAM.org                      |
|    \\/     M anipulation  |                                                 |
\*---------------------------------------------------------------------------*/
FoamFile
{
    version     2.0;
    format      ascii;
    class       volScalarField;
    location    "5.5";
    object      p;
}
// * * * * * * * * * * * * * * * * * * * * * * * * * * * * * * * * * * * * * //

dimensions      [0 2 -2 0 0 0 0];

internalField   nonuniform List<scalar> 
204246
(
-17.2559
-28.9843
-29.8444
-30.1895
-30.533
-30.7555
-30.9487
-31.0421
-31.1098
-31.1799
-31.2411
-31.2416
-31.1704
-31.0529
-31.0422
-31.051
-31.4965
-31.7326
-31.4035
-31.4093
-31.3913
-31.3976
-31.383
-31.3783
-31.3879
-31.4013
-31.3919
-31.3736
-31.3171
-31.3036
-31.3095
-31.3918
-31.0956
-31.085
-31.0172
-31.3682
-31.508
-31.2369
-31.354
-31.2492
-31.1947
-31.1351
-31.0855
-31.0471
-31.0141
-30.8537
-30.9113
-30.6067
-30.6801
-30.3885
-30.2861
-30.0303
-29.9772
-29.8859
-29.5246
-29.2375
-28.8486
-28.3851
-27.8896
-27.3706
-26.7788
-26.1964
-25.6323
-25.1798
-24.854
-24.9413
-25.6342
-27.4028
-31.0797
-38.5441
-51.9872
-64.3797
-69.77
-72.7242
-75.6896
-77.3524
-78.7849
-79.0555
-80.1828
-80.361
-80.5146
-80.2555
-79.6371
-78.7262
-77.5972
-76.4926
-75.6053
-74.601
-73.0543
-71.9473
-70.8537
-70.0592
-69.486
-69.0708
-68.7801
-68.7796
-68.9153
-69.07
-69.1946
-69.435
-69.7321
-70.0328
-70.3108
-70.6087
-70.932
-72.6489
-73.5132
-73.0763
-73.8013
-73.8322
-74.769
-74.4346
-75.2939
-75.1442
-75.9771
-75.7814
-76.5706
-76.3167
-77.1333
-77.057
-76.9838
-76.875
-78.4021
-79.0966
-78.6977
-79.2837
-78.8951
-79.518
-79.1674
-80.0358
-80.1666
-80.1903
-80.0167
-80.7496
-80.39
-81.1804
-81.0774
-80.9965
-80.8938
-82.4678
-83.2746
-83.024
-83.7666
-83.5368
-84.363
-84.2291
-85.4188
-86.006
-86.6498
-87.2373
-87.7803
-88.1815
-89.5846
-90.0594
-90.5282
-90.9411
-93.1084
-94.2818
-94.3136
-95.2621
-95.4807
-95.9583
-95.063
-95.5517
-94.3444
-93.8411
-91.9763
-90.5936
-87.9245
-85.4836
-81.7408
-77.8975
-73.4037
-68.3641
-62.6564
-56.3849
-49.2541
-41.1951
-32.3669
-22.251
-10.8391
2.19925
16.8974
33.5749
52.2298
73.0951
96.1539
122.003
151.434
190.427
249.386
342.634
467.622
-24.855
-26.2811
-28.06
-29.3329
-30.1791
-30.6553
-30.9136
-31.0188
-31.1213
-31.2125
-31.2947
-31.2849
-31.2222
-31.1532
-31.1455
-31.1898
-31.3295
-31.4771
-31.486
-31.4539
-31.4399
-31.423
-31.4063
-31.4072
-31.4117
-31.4172
-31.4147
-31.391
-31.3666
-31.349
-31.3496
-31.3643
-31.2925
-31.2143
-31.2147
-31.2866
-31.3472
-31.3347
-31.3421
-31.3166
-31.2701
-31.2167
-31.1765
-31.1462
-31.1026
-31.0229
-30.9575
-30.8684
-30.7401
-30.6067
-30.4836
-30.3556
-30.1986
-30.0238
-29.8458
-29.588
-29.269
-28.9021
-28.4757
-27.9901
-27.4057
-26.7704
-26.1033
-25.41
-24.8045
-24.4078
-24.4286
-25.3065
-27.7044
-33.5744
-48.7818
-63.0593
-71.0353
-73.825
-75.1973
-76.9306
-78.5405
-79.6455
-80.2179
-80.7603
-81.0186
-81.1887
-80.7429
-79.9743
-79.1701
-78.058
-76.7543
-75.3726
-73.9594
-72.5625
-71.3833
-70.4726
-69.7446
-69.1864
-68.877
-68.7125
-68.792
-68.8926
-69.0758
-69.2985
-69.6671
-69.9782
-70.2887
-70.5565
-70.985
-71.7867
-72.5063
-72.972
-73.3709
-73.7919
-74.2124
-74.5609
-74.8858
-75.2586
-75.5847
-75.9493
-76.2422
-76.5657
-76.88
-77.1661
-77.1328
-77.3434
-77.8484
-78.3995
-78.6706
-78.9224
-79.1252
-79.2804
-79.4964
-79.7782
-80.1111
-80.174
-80.38
-80.558
-80.831
-81.0651
-81.3032
-81.2468
-81.499
-82.0254
-82.5862
-82.9898
-83.3765
-83.7696
-84.0955
-84.5539
-85.0891
-85.8355
-86.4053
-87.1506
-87.6725
-88.463
-89.2751
-90.2166
-90.7728
-91.661
-92.6634
-93.6717
-94.5523
-95.3464
-96.2014
-96.6268
-97.0046
-97.0905
-96.887
-96.5168
-95.6653
-94.8462
-93.2209
-91.1411
-88.3985
-85.1198
-81.2271
-76.8127
-71.7986
-66.1978
-59.8385
-52.7484
-44.8786
-36.0715
-26.2593
-15.1717
-2.69609
11.4391
27.2551
44.8328
63.9573
84.5809
106.648
132.161
168.001
234.175
332.133
-31.7339
-30.06
-29.6237
-29.7985
-30.1934
-30.528
-30.7814
-30.9413
-31.0554
-31.143
-31.2112
-31.2288
-31.204
-31.1872
-31.1918
-31.2246
-31.2812
-31.3389
-31.3739
-31.3919
-31.3914
-31.3793
-31.3686
-31.3666
-31.3708
-31.3626
-31.3544
-31.3435
-31.3391
-31.3298
-31.3114
-31.2925
-31.2598
-31.2311
-31.2369
-31.2602
-31.2639
-31.2619
-31.2656
-31.2505
-31.2108
-31.1621
-31.1352
-31.1107
-31.0732
-31.0063
-30.937
-30.8258
-30.731
-30.6392
-30.5541
-30.4261
-30.266
-30.0882
-29.8903
-29.6361
-29.3606
-29.0396
-28.688
-28.281
-27.8207
-27.3134
-26.759
-26.1627
-25.6019
-25.2658
-25.4384
-27.126
-32.411
-38.6831
-49.0895
-62.3808
-70.3711
-73.4224
-74.8908
-76.5031
-77.8779
-78.8628
-79.7048
-80.2219
-80.5322
-80.7937
-80.6965
-80.3198
-79.655
-78.5433
-77.1696
-75.6296
-74.1576
-72.7501
-71.5348
-70.5365
-69.7391
-69.121
-68.7183
-68.5016
-68.5153
-68.5642
-68.7785
-68.9985
-69.3451
-69.7102
-70.0865
-70.4893
-70.9746
-71.4931
-72.0253
-72.5452
-73.0254
-73.4637
-73.8659
-74.276
-74.5989
-74.9885
-75.2791
-75.6298
-75.9261
-76.2512
-76.5513
-76.8522
-77.0363
-77.3019
-77.5978
-77.9555
-78.2769
-78.5351
-78.7716
-78.924
-79.1475
-79.3515
-79.5933
-79.7286
-79.9174
-80.0838
-80.3177
-80.5161
-80.7219
-80.884
-81.1379
-81.4667
-81.8415
-82.2197
-82.5906
-82.947
-83.273
-83.6577
-84.143
-84.6701
-85.2677
-85.8713
-86.5178
-87.1885
-87.9422
-88.6995
-89.5516
-90.4678
-91.4562
-92.3859
-93.1916
-93.9182
-94.5063
-94.9599
-95.1632
-95.0786
-94.5885
-93.7472
-92.5906
-91.0995
-89.2915
-87.0875
-84.4983
-81.4227
-77.839
-73.6614
-68.8688
-63.3883
-57.1691
-50.2402
-42.4556
-33.7726
-24.0575
-13.2366
-1.0794
12.5309
27.8393
44.811
63.4168
82.9973
103.516
125.403
154.471
197.891
255.447
-34.7581
-32.8919
-31.6931
-31.1251
-30.9275
-30.9281
-30.9969
-31.0905
-31.1748
-31.2497
-31.291
-31.298
-31.2911
-31.2844
-31.2911
-31.312
-31.3454
-31.373
-31.4017
-31.4227
-31.4298
-31.4228
-31.4207
-31.4326
-31.4385
-31.4379
-31.4262
-31.4122
-31.3979
-31.3821
-31.3652
-31.3475
-31.3342
-31.329
-31.3395
-31.3338
-31.3252
-31.3317
-31.338
-31.333
-31.3043
-31.2739
-31.2576
-31.2394
-31.1958
-31.1406
-31.0656
-30.9934
-30.9048
-30.8267
-30.741
-30.6181
-30.5014
-30.3768
-30.1963
-29.9785
-29.7379
-29.4608
-29.145
-28.7865
-28.3951
-27.9617
-27.4648
-26.9587
-26.5213
-26.2883
-26.3909
-27.4728
-32.0048
-40.6007
-50.5957
-62.5157
-70.2853
-73.7829
-75.7189
-76.8916
-78.3254
-79.404
-80.1424
-80.9898
-81.37
-81.4472
-81.4444
-81.1264
-80.8493
-79.9331
-78.638
-76.9935
-75.2299
-73.5327
-72.0426
-70.8629
-69.9663
-69.2751
-68.8103
-68.6282
-68.5921
-68.6041
-68.7861
-68.9989
-69.3529
-69.6993
-70.1351
-70.5767
-71.0395
-71.4841
-71.9749
-72.466
-72.9519
-73.4407
-73.8883
-74.3214
-74.6905
-75.0727
-75.3789
-75.8153
-76.1097
-76.4525
-76.7471
-77.0359
-77.268
-77.5975
-77.8369
-78.1202
-78.4148
-78.7031
-79.0211
-79.2123
-79.4983
-79.6975
-79.9829
-80.1409
-80.4015
-80.5614
-80.835
-81.0134
-81.2954
-81.4673
-81.7964
-82.0339
-82.3548
-82.7213
-83.1119
-83.534
-83.9466
-84.4449
-84.9467
-85.5299
-86.0923
-86.7656
-87.4136
-88.178
-88.9091
-89.7611
-90.6156
-91.5729
-92.4914
-93.4566
-94.4227
-95.3547
-96.2469
-97.0704
-97.8298
-98.449
-98.9629
-99.2042
-99.0671
-98.652
-97.4142
-95.6562
-93.3013
-90.4523
-87.0709
-83.2019
-78.7672
-73.7605
-68.0368
-61.6352
-54.4763
-46.4932
-37.6172
-27.7397
-16.7777
-4.60214
8.81918
23.5077
39.3924
56.5381
75.3097
97.4378
125.601
160.943
199.665
-36.3288
-34.5202
-33.1852
-32.2859
-31.7291
-31.4209
-31.2653
-31.2124
-31.203
-31.224
-31.2375
-31.2508
-31.2474
-31.2406
-31.2434
-31.2622
-31.2866
-31.3105
-31.328
-31.3422
-31.3503
-31.3524
-31.3491
-31.3478
-31.3502
-31.3407
-31.3398
-31.3436
-31.3462
-31.3309
-31.3166
-31.3019
-31.283
-31.2736
-31.2686
-31.2791
-31.2747
-31.2667
-31.2685
-31.2516
-31.2191
-31.1904
-31.1782
-31.1576
-31.1418
-31.1019
-31.0521
-30.9862
-30.9065
-30.8606
-30.7919
-30.697
-30.588
-30.477
-30.3411
-30.1642
-29.9759
-29.7654
-29.5369
-29.2815
-28.9795
-28.6224
-28.2391
-27.8628
-27.5558
-27.4359
-27.6365
-28.4342
-31.1698
-38.1742
-47.1652
-57.7852
-66.8838
-72.5037
-75.2707
-75.8506
-77.1742
-78.1575
-79.107
-79.8729
-80.502
-81.0894
-81.4695
-81.3978
-80.7235
-80.1616
-79.0709
-77.5264
-75.789
-74.0428
-72.3978
-70.9843
-69.8513
-69.0285
-68.4709
-68.1244
-68.0705
-68.0542
-68.2656
-68.5248
-68.815
-69.2038
-69.6024
-69.9933
-70.4734
-70.9717
-71.4916
-71.9862
-72.4544
-72.9
-73.3401
-73.746
-74.1374
-74.5095
-74.8641
-75.2013
-75.5539
-75.8606
-76.1658
-76.4341
-76.7098
-76.9805
-77.2848
-77.5935
-77.8622
-78.1179
-78.3492
-78.5704
-78.7783
-78.9846
-79.1816
-79.3639
-79.5354
-79.7242
-79.9088
-80.0976
-80.2564
-80.4479
-80.639
-80.9245
-81.2398
-81.5192
-81.8484
-82.0916
-82.4376
-82.6558
-83.0847
-83.5063
-84.0218
-84.5657
-85.1932
-85.8642
-86.6202
-87.4266
-88.3154
-89.2537
-90.2605
-91.2774
-92.2587
-93.18
-94.0061
-94.7085
-95.1411
-95.3694
-95.1641
-94.7586
-94.1856
-93.4093
-92.4061
-91.0687
-89.3695
-87.2022
-84.5442
-81.3355
-77.5807
-73.2177
-68.2163
-62.5679
-56.1678
-48.9324
-40.7769
-31.6346
-21.4918
-10.3932
1.57348
14.2467
27.608
41.7567
57.4596
76.2766
99.8548
128.226
156.353
-37.4858
-35.7227
-34.3222
-33.2936
-32.5585
-32.0758
-31.777
-31.6117
-31.5081
-31.4593
-31.4251
-31.4096
-31.3944
-31.3826
-31.3747
-31.372
-31.3741
-31.3857
-31.4073
-31.4201
-31.4233
-31.4235
-31.4315
-31.4429
-31.4451
-31.4485
-31.4382
-31.4249
-31.4114
-31.4084
-31.3968
-31.3813
-31.3741
-31.3725
-31.3804
-31.3643
-31.3511
-31.3571
-31.365
-31.364
-31.3477
-31.3367
-31.3219
-31.307
-31.2717
-31.2399
-31.1784
-31.121
-31.082
-31.0198
-30.9468
-30.8602
-30.7876
-30.6996
-30.5742
-30.4362
-30.2793
-30.1075
-29.9253
-29.7261
-29.5007
-29.2517
-28.9903
-28.7508
-28.5941
-28.6308
-29.0043
-29.9554
-32.139
-36.9322
-44.6179
-53.8528
-63.2683
-70.3831
-73.8327
-76.9249
-78.3941
-78.8032
-79.7279
-80.6281
-81.3531
-81.8859
-82.2422
-82.4741
-82.3957
-81.6902
-80.6779
-79.0747
-77.066
-74.9265
-72.9998
-71.4205
-70.2133
-69.3459
-68.7088
-68.3606
-68.2577
-68.3132
-68.3849
-68.6061
-69.0276
-69.3444
-69.7679
-70.2657
-70.7148
-71.1549
-71.6323
-72.1192
-72.6031
-73.0923
-73.5699
-74.0389
-74.4459
-74.8641
-75.2223
-75.5901
-75.9196
-76.2792
-76.5898
-76.9277
-77.2151
-77.5123
-77.7267
-77.9751
-78.2544
-78.5461
-78.8283
-79.0793
-79.3423
-79.5628
-79.8385
-80.0174
-80.3041
-80.4588
-80.7356
-80.9064
-81.2367
-81.4507
-81.728
-81.8837
-82.124
-82.4732
-82.8453
-83.2542
-83.6473
-84.1336
-84.5271
-85.0652
-85.5332
-86.1377
-86.6973
-87.385
-88.073
-88.8889
-89.7302
-90.6869
-91.6562
-92.6995
-93.76
-94.8278
-95.8959
-96.9549
-98.0155
-99.0519
-100.065
-100.829
-101.19
-101.02
-100.25
-98.9125
-97.0294
-94.6622
-91.8103
-88.4895
-84.6984
-80.4426
-75.6279
-70.2696
-64.2493
-57.4506
-49.794
-41.2362
-31.7894
-21.4867
-10.4519
1.20924
13.4822
26.4703
40.6819
57.3444
77.1113
99.9174
121.418
-38.1485
-36.4503
-35.0715
-33.9878
-33.1589
-32.5511
-32.1158
-31.8115
-31.6121
-31.4935
-31.4142
-31.3706
-31.3369
-31.3257
-31.3204
-31.3122
-31.316
-31.3228
-31.3242
-31.3333
-31.3358
-31.3371
-31.3363
-31.3331
-31.3349
-31.3286
-31.3296
-31.3283
-31.3323
-31.3291
-31.3235
-31.3169
-31.3031
-31.294
-31.283
-31.2936
-31.2918
-31.2807
-31.2838
-31.2605
-31.2519
-31.2226
-31.2193
-31.2001
-31.1938
-31.1662
-31.1465
-31.1176
-31.0756
-31.0486
-31.0015
-30.9493
-30.8868
-30.8214
-30.7456
-30.6456
-30.5391
-30.4233
-30.2971
-30.1554
-30.0014
-29.8384
-29.6807
-29.5526
-29.5124
-29.6462
-30.0777
-31.0218
-32.9079
-36.4539
-42.2136
-49.7905
-58.2581
-65.9325
-71.347
-74.6657
-76.4209
-77.9377
-79.1017
-79.9402
-80.6747
-81.3223
-81.8636
-82.2497
-82.4103
-82.0875
-81.2872
-79.7549
-77.9648
-75.8746
-73.7913
-71.8889
-70.3317
-69.1627
-68.3859
-67.845
-67.6021
-67.5354
-67.7996
-68.1063
-68.2916
-68.6624
-69.0814
-69.4944
-69.9987
-70.5031
-71.0048
-71.4811
-71.9527
-72.4172
-72.8569
-73.2841
-73.7039
-74.1022
-74.4916
-74.8462
-75.1969
-75.5227
-75.8498
-76.1411
-76.4476
-76.7324
-77.0574
-77.3506
-77.5925
-77.8426
-78.0661
-78.312
-78.492
-78.7161
-78.8785
-79.0979
-79.2364
-79.452
-79.5859
-79.7902
-79.9042
-80.1233
-80.2325
-80.5349
-80.7999
-81.0042
-81.2679
-81.3739
-81.6563
-81.9262
-82.2861
-82.6771
-83.1537
-83.6702
-84.2623
-84.8999
-85.6204
-86.4111
-87.2955
-88.2545
-89.2825
-90.3487
-91.4238
-92.5011
-93.5522
-94.5409
-95.4213
-96.1729
-96.6024
-96.8755
-96.915
-96.8075
-96.5646
-96.0395
-95.1476
-93.7735
-91.8861
-89.4318
-86.4195
-82.8531
-78.7003
-73.9795
-68.6339
-62.5936
-55.83
-48.311
-40.0365
-31.0143
-21.2965
-10.9123
0.140154
11.9576
24.9154
39.758
56.6661
75.4177
92.5688
-38.4431
-36.8854
-35.5965
-34.5425
-33.7063
-33.0726
-32.5965
-32.2482
-31.9884
-31.8073
-31.6772
-31.5891
-31.5241
-31.4814
-31.4567
-31.4393
-31.4237
-31.4233
-31.4346
-31.4377
-31.4373
-31.4346
-31.441
-31.4512
-31.4555
-31.4629
-31.4515
-31.4465
-31.4327
-31.4245
-31.4165
-31.4056
-31.4034
-31.4035
-31.4102
-31.3896
-31.38
-31.3873
-31.3905
-31.3969
-31.3948
-31.3897
-31.3778
-31.3739
-31.3418
-31.3139
-31.2654
-31.2303
-31.222
-31.1825
-31.1375
-31.0863
-31.05
-31.0028
-30.9348
-30.8678
-30.7919
-30.7114
-30.6272
-30.5396
-30.4512
-30.3708
-30.3019
-30.2707
-30.3301
-30.5468
-31.0073
-31.8688
-33.4218
-36.109
-40.3704
-46.2109
-53.2301
-60.4717
-66.853
-71.7907
-75.1511
-77.3423
-78.8871
-80.0691
-80.9714
-81.785
-82.5434
-83.1917
-83.737
-84.2839
-83.1294
-81.6328
-79.4987
-77.0885
-74.7819
-72.6703
-70.8495
-69.5327
-68.5652
-68.046
-67.9034
-67.8706
-67.8427
-68.0429
-68.5524
-68.8645
-69.2809
-69.7876
-70.2373
-70.7198
-71.2327
-71.7354
-72.2404
-72.7391
-73.2137
-73.6698
-74.0965
-74.5236
-74.9039
-75.2878
-75.6494
-76.0209
-76.3521
-76.6884
-76.9795
-77.2887
-77.5219
-77.785
-78.0644
-78.345
-78.6406
-78.8844
-79.1804
-79.3833
-79.6604
-79.8363
-80.1101
-80.2778
-80.5506
-80.7274
-81.024
-81.2153
-81.5181
-81.6213
-81.8329
-82.1378
-82.4598
-82.8561
-83.1207
-83.5312
-83.8221
-84.2462
-84.6215
-85.1148
-85.6011
-86.1898
-86.8122
-87.5491
-88.3539
-89.2682
-90.2533
-91.35
-92.5213
-93.7452
-95.0028
-96.286
-97.5803
-98.848
-100.061
-101.139
-101.989
-102.401
-102.272
-101.646
-100.532
-98.9329
-96.8808
-94.3831
-91.406
-87.951
-83.9705
-79.4796
-74.4317
-68.8064
-62.58
-55.7421
-48.3021
-40.258
-31.6022
-22.3315
-12.4105
-1.70703
10.0927
23.3314
38.0506
53.9033
68.0203
-38.3323
-36.9637
-35.7803
-34.7683
-33.936
-33.2634
-32.7456
-32.3518
-32.0512
-31.8321
-31.6659
-31.5559
-31.4755
-31.4297
-31.3983
-31.3715
-31.3612
-31.3504
-31.3363
-31.3353
-31.3359
-31.3364
-31.3328
-31.3264
-31.3274
-31.3237
-31.3275
-31.3263
-31.3326
-31.3334
-31.3296
-31.3264
-31.3157
-31.309
-31.2989
-31.3114
-31.3079
-31.2972
-31.2965
-31.286
-31.2767
-31.2668
-31.2662
-31.2561
-31.2599
-31.2452
-31.2334
-31.1934
-31.1941
-31.198
-31.1825
-31.1657
-31.1356
-31.1052
-31.0798
-31.0416
-31.0035
-30.9635
-30.9235
-30.8825
-30.8519
-30.8344
-30.838
-30.8837
-31.0215
-31.3024
-31.793
-32.6022
-33.9203
-36.0212
-39.2249
-43.641
-49.1533
-55.2913
-61.3384
-66.6731
-70.9596
-74.2082
-76.6514
-78.4436
-79.7495
-80.7585
-81.5358
-82.1035
-82.4418
-82.2896
-82.5781
-81.564
-79.7071
-77.5875
-75.3971
-73.1968
-71.1679
-69.5648
-68.2568
-67.6364
-67.3839
-67.2479
-67.2946
-67.5813
-67.9567
-68.2083
-68.6272
-69.1273
-69.6052
-70.0951
-70.5964
-71.0848
-71.5717
-72.0643
-72.5286
-72.9736
-73.409
-73.8182
-74.206
-74.5674
-74.9288
-75.2673
-75.6125
-75.9414
-76.2634
-76.5561
-76.853
-77.1203
-77.3713
-77.6289
-77.8741
-78.1162
-78.2914
-78.5287
-78.6877
-78.9213
-79.0387
-79.2637
-79.3569
-79.5803
-79.6661
-79.8881
-79.984
-80.2704
-80.4937
-80.6503
-80.8367
-81.0344
-81.284
-81.5325
-81.8381
-82.166
-82.567
-83.0274
-83.5585
-84.1444
-84.8024
-85.5331
-86.3487
-87.2521
-88.2556
-89.3403
-90.485
-91.6926
-92.953
-94.2572
-95.5698
-96.837
-97.9933
-99.0125
-99.8295
-100.47
-100.888
-101.025
-100.815
-100.148
-98.9556
-97.2174
-94.8978
-91.9992
-88.5198
-84.5071
-79.9565
-74.8699
-69.2421
-63.0856
-56.4094
-49.2072
-41.471
-33.1706
-24.25
-14.5502
-3.86064
7.97864
20.9639
34.7041
46.6597
-37.9519
-36.7703
-35.7353
-34.8504
-34.1182
-33.5119
-33.0273
-32.6372
-32.3366
-32.0998
-31.919
-31.7783
-31.671
-31.5954
-31.5462
-31.5122
-31.4811
-31.4656
-31.4639
-31.4583
-31.453
-31.4483
-31.4528
-31.4618
-31.4654
-31.4719
-31.4614
-31.4562
-31.4396
-31.4339
-31.4293
-31.4216
-31.4217
-31.4233
-31.4319
-31.4142
-31.4101
-31.417
-31.4162
-31.4226
-31.4254
-31.4324
-31.4267
-31.4222
-31.4053
-31.3927
-31.3672
-31.3621
-31.3431
-31.3198
-31.3021
-31.28
-31.2718
-31.2597
-31.2351
-31.2201
-31.2052
-31.194
-31.1857
-31.1847
-31.1989
-31.2368
-31.299
-31.4065
-31.6002
-31.9239
-32.427
-33.1901
-34.3408
-36.0553
-38.5526
-41.943
-46.2313
-51.2205
-56.4985
-61.5987
-66.1638
-70.0097
-73.1438
-75.6191
-77.5507
-79.0572
-80.2229
-81.1435
-81.8318
-82.2407
-82.0918
-81.3134
-79.9904
-78.2051
-76.1784
-74.1213
-72.1869
-70.5163
-69.1736
-68.2174
-67.7531
-67.6761
-67.4919
-67.4188
-67.9929
-68.5484
-68.9211
-69.3532
-69.7431
-70.2427
-70.8107
-71.3044
-71.8115
-72.3202
-72.7989
-73.2441
-73.6855
-74.1241
-74.5262
-74.9303
-75.3098
-75.6869
-76.031
-76.3688
-76.6895
-76.9928
-77.2592
-77.5411
-77.8259
-78.1049
-78.3922
-78.6552
-78.9521
-79.1524
-79.4251
-79.6084
-79.8605
-80.0349
-80.2932
-80.4577
-80.7241
-80.881
-81.1685
-81.2498
-81.4398
-81.6908
-81.9414
-82.2367
-82.4613
-82.7625
-82.9842
-83.2924
-83.5619
-83.9231
-84.3503
-84.8536
-85.4019
-86.0406
-86.7724
-87.6251
-88.5891
-89.6711
-90.8385
-92.1093
-93.4895
-94.9577
-96.4875
-98.0419
-99.571
-100.996
-102.247
-103.223
-103.853
-104.061
-103.846
-103.211
-102.122
-100.583
-98.5638
-96.0285
-92.9492
-89.378
-85.3147
-80.7597
-75.7298
-70.2284
-64.2623
-57.832
-50.9304
-43.5059
-35.4827
-26.7033
-17.0289
-6.39599
5.18562
17.2812
27.7219
-37.2006
-36.2144
-35.3601
-34.6159
-33.9725
-33.4233
-32.967
-32.5976
-32.2939
-32.0501
-31.8508
-31.7106
-31.6039
-31.5301
-31.4751
-31.4295
-31.4067
-31.3842
-31.3601
-31.3485
-31.3446
-31.3437
-31.3366
-31.3284
-31.3281
-31.3252
-31.3309
-31.3315
-31.3364
-31.3364
-31.3351
-31.3335
-31.3239
-31.3187
-31.31
-31.3239
-31.324
-31.3146
-31.3089
-31.3011
-31.2973
-31.2951
-31.3024
-31.309
-31.3196
-31.3186
-31.3238
-31.3154
-31.314
-31.3242
-31.326
-31.3341
-31.3287
-31.3256
-31.3376
-31.3475
-31.3642
-31.3856
-31.4107
-31.4419
-31.4949
-31.5728
-31.6824
-31.8376
-32.0745
-32.4262
-32.9333
-33.6527
-34.6772
-36.1246
-38.1429
-40.82
-44.2002
-48.2143
-52.6395
-57.1766
-61.531
-65.48
-68.9153
-71.7901
-74.1272
-75.9854
-77.4267
-78.4941
-79.231
-79.6144
-79.5944
-79.5404
-78.6584
-77.3831
-75.8165
-74.1061
-72.3705
-70.7764
-69.5589
-68.4971
-67.7054
-67.1946
-66.9612
-67.0145
-67.1981
-67.6697
-68.4728
-69.0644
-69.3521
-69.7612
-70.2396
-70.7083
-71.2018
-71.7518
-72.2681
-72.7216
-73.1553
-73.5708
-73.9522
-74.3059
-74.6828
-75.0397
-75.4033
-75.7788
-76.1164
-76.411
-76.6918
-76.9451
-77.2032
-77.4637
-77.7123
-77.9599
-78.1889
-78.4246
-78.5942
-78.8094
-78.9455
-79.1382
-79.2541
-79.46
-79.5841
-79.783
-79.9395
-80.144
-80.3296
-80.5017
-80.6897
-80.8842
-81.1148
-81.3436
-81.5958
-81.8521
-82.1442
-82.4642
-82.8771
-83.386
-83.9579
-84.5863
-85.2907
-86.0962
-87.0202
-88.0728
-89.2332
-90.493
-91.863
-93.357
-94.9754
-96.6869
-98.4577
-100.216
-101.872
-103.338
-104.525
-105.367
-105.794
-105.73
-105.118
-103.946
-102.249
-100.051
-97.3296
-94.1476
-90.5213
-86.4608
-81.9882
-77.1051
-71.8062
-66.1004
-59.9723
-53.3579
-46.17
-38.2552
-29.5063
-19.9132
-9.49713
1.30624
10.5785
-36.179
-35.4323
-34.7914
-34.2211
-33.7283
-33.2984
-32.9377
-32.6287
-32.3829
-32.1775
-32.0166
-31.8751
-31.7626
-31.678
-31.612
-31.5671
-31.5256
-31.4989
-31.4873
-31.476
-31.4664
-31.458
-31.4621
-31.4705
-31.4733
-31.4783
-31.4692
-31.4689
-31.4583
-31.4535
-31.4411
-31.4324
-31.4322
-31.434
-31.444
-31.4281
-31.4244
-31.4377
-31.4351
-31.4604
-31.4536
-31.4637
-31.4616
-31.4585
-31.4522
-31.448
-31.4381
-31.4535
-31.4366
-31.4311
-31.4351
-31.4302
-31.4412
-31.4563
-31.4645
-31.4879
-31.5196
-31.5585
-31.6036
-31.6602
-31.737
-31.8471
-31.9926
-32.1866
-32.4553
-32.8282
-33.3331
-34.0155
-34.9423
-36.1952
-37.8773
-40.0514
-42.7699
-46.0205
-49.6908
-53.5976
-57.5296
-61.2963
-64.759
-67.8242
-70.4558
-72.6535
-74.4524
-75.8735
-76.9485
-77.6994
-78.146
-78.2052
-77.6912
-76.9126
-75.7784
-74.4468
-73.0406
-71.6606
-70.4544
-69.4289
-68.6298
-67.983
-67.7317
-67.7263
-67.8947
-68.1622
-68.514
-68.9371
-69.3533
-69.8525
-70.5604
-71.1329
-71.4463
-71.8832
-72.3651
-72.8202
-73.3003
-73.784
-74.1883
-74.5862
-74.9632
-75.3256
-75.6448
-75.9978
-76.354
-76.7042
-76.9895
-77.2692
-77.5551
-77.838
-78.1178
-78.3892
-78.6698
-78.8994
-79.1432
-79.3409
-79.5612
-79.7516
-79.9613
-80.1328
-80.3386
-80.5134
-80.7186
-80.8145
-80.9711
-81.1807
-81.3841
-81.6062
-81.8081
-82.0267
-82.2035
-82.4308
-82.5815
-82.8175
-83.1152
-83.4925
-83.9814
-84.5578
-85.2019
-85.9376
-86.7963
-87.7979
-88.9261
-90.1687
-91.5274
-93.0258
-94.6715
-96.4432
-98.316
-100.252
-102.184
-103.996
-105.578
-106.854
-107.736
-108.139
-107.99
-107.244
-105.914
-104.047
-101.665
-98.836
-95.5888
-91.969
-88.0113
-83.6978
-79.0178
-73.9849
-68.5805
-62.7349
-56.3549
-49.2806
-41.3991
-32.7118
-23.2716
-13.4991
-5.11599
-34.8822
-34.3909
-33.9685
-33.5685
-33.2334
-32.9319
-32.6577
-32.4186
-32.2117
-32.0332
-31.8792
-31.7574
-31.6579
-31.5792
-31.518
-31.4631
-31.4344
-31.4099
-31.3816
-31.3657
-31.3595
-31.355
-31.3446
-31.3359
-31.3349
-31.3324
-31.3396
-31.339
-31.3428
-31.3456
-31.3467
-31.3438
-31.3336
-31.3277
-31.3187
-31.3327
-31.3353
-31.3268
-31.3229
-31.3212
-31.3241
-31.3282
-31.3385
-31.3525
-31.3661
-31.3712
-31.3787
-31.3746
-31.3963
-31.4147
-31.4255
-31.4516
-31.4657
-31.4802
-31.5137
-31.5558
-31.6109
-31.6763
-31.752
-31.8407
-31.9541
-32.0904
-32.2595
-32.4747
-32.7612
-33.1386
-33.6353
-34.283
-35.1327
-36.244
-37.6894
-39.5111
-41.7572
-44.4404
-47.5024
-50.8406
-54.3088
-57.7615
-61.0681
-64.1262
-66.8645
-69.2462
-71.2616
-72.9101
-74.1972
-75.1233
-75.6972
-75.88
-75.8678
-75.5668
-74.8397
-73.9023
-72.8356
-71.7365
-70.6953
-69.7553
-68.9542
-68.3402
-67.9304
-67.7315
-67.7237
-67.8851
-68.2135
-68.6169
-68.9971
-69.3749
-69.8404
-70.371
-71.0366
-71.676
-72.09
-72.4378
-72.8229
-73.1954
-73.5968
-73.9812
-74.3893
-74.8189
-75.1937
-75.5717
-75.9229
-76.2226
-76.5163
-76.7852
-77.04
-77.2998
-77.5597
-77.8281
-78.1044
-78.36
-78.5513
-78.751
-78.9028
-79.0773
-79.2089
-79.3912
-79.5704
-79.7597
-79.9363
-80.1115
-80.2681
-80.4281
-80.5997
-80.7927
-81.0183
-81.2426
-81.4474
-81.6386
-81.8472
-82.0425
-82.277
-82.6037
-83.0419
-83.5932
-84.2231
-84.9308
-85.7432
-86.6886
-87.7746
-89.0122
-90.4049
-91.9567
-93.6841
-95.581
-97.6361
-99.8196
-102.083
-104.304
-106.358
-108.133
-109.524
-110.427
-110.76
-110.487
-109.564
-108.027
-105.952
-103.436
-100.529
-97.2991
-93.7818
-89.971
-85.8671
-81.4574
-76.7368
-71.636
-66.0352
-59.8023
-52.7729
-44.9106
-36.2882
-27.3375
-19.6811
-33.4122
-33.1591
-32.9704
-32.7798
-32.6267
-32.4773
-32.3328
-32.2047
-32.0876
-31.975
-31.8819
-31.7986
-31.7294
-31.6687
-31.6148
-31.5773
-31.537
-31.5066
-31.4906
-31.4713
-31.4587
-31.4541
-31.4618
-31.4707
-31.4751
-31.4813
-31.4736
-31.4722
-31.4622
-31.4594
-31.447
-31.44
-31.4385
-31.4383
-31.4464
-31.4314
-31.4269
-31.4357
-31.4393
-31.4547
-31.4642
-31.4736
-31.4813
-31.4833
-31.4829
-31.482
-31.4775
-31.4849
-31.4866
-31.4979
-31.5256
-31.5338
-31.5565
-31.589
-31.6211
-31.6693
-31.7325
-31.8075
-31.8911
-31.9928
-32.1159
-32.2686
-32.4535
-32.6866
-32.9859
-33.3692
-33.8558
-34.4743
-35.2623
-36.2646
-37.5339
-39.099
-41.0027
-43.2617
-45.8533
-48.719
-51.7625
-54.8783
-57.958
-60.9044
-63.6389
-66.1025
-68.2671
-70.1159
-71.6483
-72.8631
-73.7691
-74.382
-74.7786
-74.6594
-74.2145
-73.598
-72.8495
-72.0215
-71.1955
-70.4143
-69.7458
-69.2965
-68.6876
-68.4049
-68.2973
-68.348
-68.5243
-68.805
-69.1577
-69.582
-70.0592
-70.5471
-71.0178
-71.4916
-71.9857
-72.5003
-73.0235
-73.5637
-73.9549
-74.2448
-74.5538
-74.8911
-75.2423
-75.6518
-76.0659
-76.454
-76.7494
-77.0272
-77.3015
-77.5701
-77.8145
-78.0711
-78.3708
-78.624
-78.8776
-79.0893
-79.304
-79.4769
-79.658
-79.7933
-79.9807
-80.1466
-80.3193
-80.4363
-80.5649
-80.7038
-80.8493
-81.0185
-81.2185
-81.4447
-81.6203
-81.7496
-81.8243
-81.9282
-82.0604
-82.2391
-82.5219
-82.9555
-83.5226
-84.178
-84.9212
-85.7838
-86.7803
-87.9367
-89.2624
-90.7568
-92.4491
-94.3848
-96.5771
-98.9873
-101.566
-104.199
-106.752
-109.077
-111.035
-112.52
-113.441
-113.7
-113.21
-112.007
-110.204
-107.965
-105.368
-102.445
-99.272
-95.9047
-92.3224
-88.4817
-84.4063
-80.0205
-75.1919
-69.8124
-63.6617
-56.5912
-48.6763
-40.4122
-33.4024
-31.6996
-31.7204
-31.7637
-31.7901
-31.8271
-31.8344
-31.8192
-31.8069
-31.7712
-31.7241
-31.6755
-31.6203
-31.5722
-31.5296
-31.4894
-31.4493
-31.4265
-31.4094
-31.3865
-31.3774
-31.371
-31.3619
-31.3512
-31.3436
-31.3434
-31.3431
-31.3544
-31.355
-31.3602
-31.3611
-31.3613
-31.357
-31.3466
-31.3385
-31.3277
-31.3405
-31.343
-31.3365
-31.3387
-31.3388
-31.3442
-31.3535
-31.3662
-31.3858
-31.4021
-31.4125
-31.4238
-31.4325
-31.4528
-31.4525
-31.4833
-31.5239
-31.551
-31.5762
-31.618
-31.6786
-31.7576
-31.8484
-31.9507
-32.0651
-32.2062
-32.3789
-32.5933
-32.8515
-33.1666
-33.5504
-34.0233
-34.6062
-35.3345
-36.2446
-37.3788
-38.7569
-40.4073
-42.3534
-44.5846
-47.0723
-49.7529
-52.5528
-55.3861
-58.1729
-60.8334
-63.3048
-65.5382
-67.5064
-69.1918
-70.5791
-71.663
-72.4411
-72.9166
-73.0636
-73.1295
-72.8393
-72.3878
-71.8161
-71.1847
-70.5297
-69.8798
-69.1925
-68.8714
-68.6617
-68.4987
-68.448
-68.5257
-68.7088
-68.9635
-69.2771
-69.6561
-70.1045
-70.5923
-71.1085
-71.5905
-72.0335
-72.4439
-72.8691
-73.3079
-73.7641
-74.2578
-74.6699
-74.9424
-75.2503
-75.5828
-75.8968
-76.234
-76.5412
-76.8176
-77.1121
-77.4016
-77.6794
-77.9858
-78.2721
-78.4739
-78.6777
-78.8532
-79.0253
-79.1748
-79.3331
-79.5074
-79.7167
-79.9453
-80.1162
-80.2432
-80.3835
-80.5093
-80.654
-80.8703
-81.1457
-81.4036
-81.6095
-81.7108
-81.7768
-81.8517
-81.9723
-82.192
-82.5268
-82.9911
-83.5855
-84.281
-85.0753
-86.0028
-87.0805
-88.3055
-89.691
-91.2977
-93.1911
-95.4189
-97.9381
-100.72
-103.717
-106.786
-109.73
-112.36
-114.555
-116.134
-116.904
-116.809
-115.981
-114.49
-112.48
-110.079
-107.379
-104.492
-101.488
-98.3404
-95.0238
-91.5261
-87.8038
-83.7568
-79.2536
-74.0399
-67.8011
-60.6003
-52.9516
-46.4236
-29.8007
-30.0875
-30.4015
-30.6683
-30.9197
-31.1186
-31.2623
-31.3807
-31.4553
-31.505
-31.5394
-31.5473
-31.551
-31.543
-31.5285
-31.5242
-31.5009
-31.4795
-31.4685
-31.4543
-31.4476
-31.4447
-31.4493
-31.4575
-31.4654
-31.476
-31.4738
-31.4753
-31.469
-31.4646
-31.4547
-31.4475
-31.4438
-31.44
-31.4423
-31.4267
-31.4238
-31.4334
-31.4373
-31.4471
-31.4601
-31.4735
-31.4881
-31.4955
-31.5016
-31.5055
-31.5101
-31.5235
-31.5418
-31.597
-31.5952
-31.6048
-31.6255
-31.6619
-31.7093
-31.7708
-31.8507
-31.9489
-32.0568
-32.1821
-32.3277
-32.5021
-32.7114
-32.9699
-33.2812
-33.6581
-34.1112
-34.6641
-35.345
-36.1839
-37.2133
-38.4452
-39.9064
-41.6134
-43.567
-45.7536
-48.1336
-50.6563
-53.2578
-55.8703
-58.4254
-60.8566
-63.113
-65.1563
-66.9625
-68.5082
-69.7857
-70.7981
-71.5375
-71.9982
-72.1828
-72.0848
-71.9209
-71.5921
-71.1915
-70.7302
-70.2678
-69.8531
-69.4944
-69.1147
-68.8961
-68.7745
-68.7571
-68.8437
-69.0172
-69.2642
-69.5839
-69.959
-70.3847
-70.8486
-71.3369
-71.8324
-72.3333
-72.834
-73.2906
-73.6791
-74.0611
-74.454
-74.8584
-75.2979
-75.751
-76.188
-76.5
-76.7571
-76.9989
-77.2254
-77.4802
-77.7505
-78.0653
-78.3753
-78.6555
-78.8865
-79.108
-79.2523
-79.4017
-79.5286
-79.6715
-79.8028
-79.9885
-80.1367
-80.2728
-80.3588
-80.408
-80.52
-80.6844
-80.9192
-81.2019
-81.4088
-81.4949
-81.4516
-81.3851
-81.3504
-81.4322
-81.6741
-82.0617
-82.5982
-83.2761
-84.0642
-84.9435
-85.96
-87.0937
-88.3566
-89.8233
-91.5944
-93.7468
-96.2792
-99.1955
-102.496
-106.088
-109.741
-113.146
-115.984
-118.08
-119.483
-120.18
-119.986
-118.88
-117.011
-114.652
-112.08
-109.432
-106.71
-103.916
-101.038
-98.0178
-94.8745
-91.5786
-87.9867
-83.8032
-78.5347
-72.1835
-65.133
-59.0228
-27.6886
-28.2601
-28.8542
-29.3842
-29.8532
-30.252
-30.5629
-30.8222
-31.0138
-31.1488
-31.2479
-31.3085
-31.342
-31.3616
-31.3716
-31.3705
-31.3738
-31.3696
-31.3562
-31.3551
-31.3516
-31.3521
-31.3494
-31.3429
-31.3448
-31.3505
-31.3662
-31.3746
-31.3895
-31.3918
-31.3887
-31.3787
-31.3652
-31.3542
-31.3389
-31.3437
-31.3438
-31.3403
-31.3459
-31.3475
-31.3527
-31.3665
-31.3851
-31.4105
-31.4288
-31.4441
-31.4569
-31.4654
-31.4821
-31.4947
-31.5367
-31.57
-31.5966
-31.6271
-31.6651
-31.7269
-31.8154
-31.9211
-32.0433
-32.1749
-32.3248
-32.5009
-32.7182
-32.9807
-33.3062
-33.6962
-34.1539
-34.69
-35.3333
-36.1072
-37.0437
-38.1554
-39.4634
-40.9869
-42.7267
-44.6777
-46.8139
-49.1044
-51.4984
-53.9424
-56.3749
-58.7422
-60.9902
-63.0754
-64.9624
-66.6183
-68.0316
-69.2061
-70.1323
-70.8143
-71.2904
-71.6182
-71.5194
-71.3467
-71.1064
-70.769
-70.406
-70.0634
-69.7517
-69.4392
-69.2068
-69.0592
-68.9856
-68.9983
-69.0862
-69.2482
-69.4885
-69.7922
-70.1529
-70.5504
-70.9748
-71.4102
-71.861
-72.3175
-72.7813
-73.2286
-73.6776
-74.0958
-74.4798
-74.837
-75.1953
-75.5689
-75.943
-76.3142
-76.6545
-77.0024
-77.2884
-77.5124
-77.7808
-78.0535
-78.2829
-78.5059
-78.7614
-78.9551
-79.0983
-79.2401
-79.4288
-79.6383
-79.8955
-80.123
-80.2708
-80.3322
-80.3605
-80.4249
-80.5658
-80.7924
-81.1423
-81.4825
-81.6663
-81.673
-81.5596
-81.4229
-81.373
-81.4775
-81.7287
-82.1207
-82.6712
-83.3917
-84.2043
-85.1236
-86.1304
-87.271
-88.6318
-90.2856
-92.289
-94.6969
-97.6098
-101.111
-105.132
-109.45
-113.696
-117.467
-120.577
-122.98
-124.433
-124.536
-123.427
-121.508
-119.138
-116.585
-114.056
-111.558
-109.029
-106.459
-103.812
-101.158
-98.5324
-95.8473
-92.7955
-88.7484
-83.5061
-77.2723
-71.5423
-25.3956
-26.2895
-27.1715
-27.9808
-28.6927
-29.3113