/*--------------------------------*- C++ -*----------------------------------*\
| =========                 |                                                 |
| \\      /  F ield         | OpenFOAM: The Open Source CFD Toolbox           |
|  \\    /   O peration     | Version:  4.1                                   |
|   \\  /    A nd           | Web:      www.OpenFOAM.org                      |
|    \\/     M anipulation  |                                                 |
\*---------------------------------------------------------------------------*/
FoamFile
{
    version     2.0;
    format      ascii;
    class       volScalarField;
    location    "15.5";
    object      p;
}
// * * * * * * * * * * * * * * * * * * * * * * * * * * * * * * * * * * * * * //

dimensions      [0 2 -2 0 0 0 0];

internalField   nonuniform List<scalar> 
204246
(
20.8456
-3.93031
-2.59754
-0.854985
-0.277267
0.466337
0.0118816
0.0850688
0.155635
0.274911
0.362614
0.418315
-0.476139
0.760075
-0.091422
1.22119
-0.640585
-1.44878
-0.479663
-0.965955
0.0151666
-0.902396
-0.899956
-0.948635
-0.939708
-0.88522
-0.73861
-1.36195
-0.819812
-1.72323
-0.597199
-1.66219
-0.435798
-1.45466
-0.425109
-1.69884
-2.37975
-2.0506
-2.28916
-1.66873
-2.26466
-1.86933
-2.32834
-2.07346
-2.7097
-2.2219
-3.19057
-2.04507
-2.93001
-2.709
-2.44489
-2.12071
-3.29882
-3.98155
-3.58199
-3.70498
-2.98288
-3.71497
-3.07441
-3.4152
-2.86402
-3.88828
-2.9588
-3.25425
-3.20126
-3.21647
-3.24287
-3.2376
-2.40773
-3.65437
-4.37538
-4.24305
-4.37138
-3.68132
-4.25863
-3.88252
-4.36572
-4.11144
-4.75491
-4.25725
-5.21174
-4.01497
-4.91396
-4.88717
-4.94396
-4.03972
-5.34321
-6.18245
-6.02979
-5.79055
-5.41618
-5.84057
-5.52514
-6.11233
-5.54835
-6.439
-5.24077
-6.23875
-6.27172
-6.18724
-5.85528
-6.32256
-6.16702
-6.27085
-5.68482
-7.34047
-7.96586
-7.24034
-7.85997
-7.75342
-8.59781
-8.2172
-9.09007
-9.02106
-10.0071
-10.0466
-11.1525
-11.2929
-12.5989
-13.1168
-13.7649
-14.4994
-16.8723
-18.6563
-19.7423
-21.6247
-22.8205
-25.0987
-26.6031
-29.2001
-31.3442
-33.6601
-36.0318
-38.4176
-40.6641
-42.7461
-44.5798
-46.1743
-47.517
-50.3617
-51.7605
-51.8823
-52.851
-52.5931
-52.1328
-51.6301
-51.3511
-50.0476
-49.6579
-48.1164
-47.5205
-45.8618
-45.1817
-43.3872
-42.4021
-40.4333
-40.295
-39.8238
-37.8454
-36.7939
-34.7325
-33.5755
-31.3612
-29.9511
-27.4315
-25.5462
-22.54
-20.1177
-16.5663
-13.3784
-9.04725
-4.7485
0.0985126
5.45786
11.4115
17.9232
25.2101
33.3542
42.2342
52.3826
63.809
76.8578
91.561
108.245
126.9
147.754
170.793
196.631
226.044
265.063
324.029
417.293
542.263
11.8331
6.73621
2.69646
0.766299
0.414775
0.313176
0.267402
0.158088
0.202539
0.215925
0.30721
0.21386
0.0528215
0.114777
0.209551
0.337541
0.000362634
-0.502644
-0.605632
-0.586525
-0.508631
-0.596992
-0.817158
-0.857557
-0.941128
-0.877162
-0.928219
-1.02121
-1.09248
-1.20666
-1.20864
-1.25986
-1.16239
-1.11478
-1.06354
-1.31486
-1.70941
-1.88061
-1.95281
-1.96346
-1.99078
-2.03148
-2.10375
-2.20985
-2.34677
-2.46572
-2.63138
-2.67396
-2.7877
-2.8617
-2.6253
-2.60646
-2.92115
-3.32015
-3.46618
-3.4638
-3.39923
-3.38955
-3.35813
-3.29206
-3.25588
-3.35546
-3.33508
-3.26412
-3.31543
-3.27236
-3.33112
-3.20083
-3.0647
-3.3023
-3.72364
-3.98758
-4.06748
-4.05829
-4.06071
-4.09949
-4.16421
-4.27968
-4.41445
-4.54077
-4.68138
-4.68171
-4.78063
-4.97805
-4.87293
-4.77599
-5.06666
-5.5291
-5.78811
-5.73926
-5.69922
-5.69482
-5.75902
-5.82963
-5.88
-5.94295
-5.91137
-6.01545
-6.22908
-6.1635
-6.23903
-6.26933
-6.34591
-6.26855
-6.30974
-6.72486
-7.20249
-7.359
-7.52079
-7.76694
-8.0438
-8.28934
-8.58497
-8.96726
-9.38421
-9.88664
-10.4093
-11.0181
-11.743
-12.5327
-13.1714
-14.0672
-15.4066
-16.8784
-18.3992
-19.9867
-21.6151
-23.3705
-25.262
-27.3636
-29.6109
-31.94
-34.3434
-36.7633
-39.1692
-41.4553
-43.613
-45.5865
-47.5236
-49.3549
-50.9181
-52.0563
-52.8401
-53.3561
-53.2041
-52.9593
-52.5334
-51.7925
-51.0242
-50.029
-49.0249
-47.9136
-46.7637
-45.4782
-44.1738
-42.9306
-42.1923
-41.2681
-40.1498
-38.9303
-37.5391
-36.1533
-34.6083
-33.0405
-31.2629
-29.3809
-27.2038
-24.8354
-22.1195
-19.101
-15.655
-11.8223
-7.53535
-2.8158
2.41633
8.19237
14.6757
21.8505
29.7632
38.5938
48.4059
59.4942
71.961
86.098
101.917
119.499
138.611
159.218
181.253
206.781
242.624
308.825
406.789
-0.620533
3.5011
2.81469
1.82044
1.09533
0.64493
0.480631
0.324832
0.310647
0.257209
0.280107
0.191078
0.156791
0.0662458
0.125515
0.0579156
-0.0150213
-0.243459
-0.416492
-0.445297
-0.531052
-0.542985
-0.698568
-0.75502
-0.861714
-0.864107
-0.942064
-0.962022
-1.07941
-1.09147
-1.20885
-1.19844
-1.25483
-1.18902
-1.25914
-1.32824
-1.50925
-1.67369
-1.7527
-1.88017
-1.89916
-1.99674
-2.0413
-2.16929
-2.24213
-2.4064
-2.46414
-2.63701
-2.71411
-2.83885
-2.79256
-2.84301
-2.92155
-3.09972
-3.263
-3.30302
-3.36042
-3.30404
-3.31308
-3.24779
-3.26194
-3.22895
-3.27524
-3.2129
-3.26669
-3.24678
-3.2997
-3.22489
-3.24473
-3.29543
-3.48594
-3.68874
-3.77539
-3.89294
-3.92274
-4.01624
-4.06253
-4.18583
-4.26525
-4.42666
-4.47249
-4.61418
-4.68689
-4.84361
-4.84208
-4.91067
-5.0194
-5.2503
-5.44513
-5.49549
-5.56222
-5.55679
-5.62869
-5.65651
-5.74356
-5.72216
-5.80224
-5.83591
-5.97142
-5.97455
-6.05675
-6.0826
-6.16457
-6.18829
-6.30812
-6.47394
-6.72395
-6.96609
-7.177
-7.42655
-7.65093
-7.95538
-8.21995
-8.59597
-8.96163
-9.4273
-9.95942
-10.5573
-11.2196
-11.9505
-12.7771
-13.7496
-14.8538
-16.1022
-17.4705
-18.9684
-20.5914
-22.3348
-24.202
-26.2258
-28.386
-30.6695
-33.0306
-35.4446
-37.852
-40.2461
-42.5701
-44.808
-46.9114
-48.8037
-50.3538
-51.4673
-52.2182
-52.575
-52.5572
-52.2864
-51.7086
-50.9684
-50.0661
-49.1218
-48.0316
-46.9287
-45.728
-44.5323
-43.2758
-42.0749
-40.7996
-39.5991
-38.4143
-37.1267
-35.7323
-34.2207
-32.6102
-30.8374
-28.9429
-26.843
-24.5789
-22.0582
-19.3032
-16.2351
-12.856
-9.09128
-4.91492
-0.252315
4.93247
10.7122
17.1558
24.2372
32.1241
40.8634
50.6081
61.431
73.5848
87.1831
102.492
119.469
138.088
157.663
178.165
200.007
229.043
272.48
330.139
-2.26743
0.96485
1.50077
1.42741
1.1525
0.80209
0.61351
0.421176
0.364942
0.275126
0.259979
0.18246
0.159511
0.0758655
0.0771198
-0.0195777
-0.0814019
-0.221415
-0.327487
-0.398494
-0.515693
-0.55437
-0.680343
-0.739796
-0.846938
-0.881923
-0.966584
-0.995188
-1.092
-1.11343
-1.21436
-1.21918
-1.28328
-1.26366
-1.34156
-1.39875
-1.51879
-1.61667
-1.68665
-1.82748
-1.88364
-1.99358
-2.05795
-2.18227
-2.25967
-2.4061
-2.47757
-2.63117
-2.70666
-2.84629
-2.87966
-2.97583
-3.04037
-3.17083
-3.27015
-3.3049
-3.39374
-3.38507
-3.40206
-3.36572
-3.37319
-3.33166
-3.34482
-3.30031
-3.33249
-3.31141
-3.35638
-3.33254
-3.384
-3.4424
-3.5637
-3.68182
-3.78092
-3.91676
-3.97817
-4.09577
-4.16312
-4.29095
-4.36293
-4.50572
-4.56483
-4.70415
-4.78065
-4.93804
-4.98787
-5.10483
-5.20728
-5.3636
-5.49908
-5.59586
-5.70937
-5.74624
-5.83129
-5.84689
-5.92524
-5.92302
-6.00251
-6.02588
-6.12758
-6.14571
-6.26401
-6.30839
-6.41177
-6.46206
-6.60113
-6.71381
-6.91594
-7.12442
-7.34896
-7.59472
-7.80164
-8.08197
-8.32442
-8.69941
-9.05573
-9.51667
-9.99203
-10.5514
-11.14
-11.8302
-12.5922
-13.4949
-14.5
-15.65
-16.9258
-18.3381
-19.8827
-21.567
-23.4114
-25.4206
-27.5782
-29.8489
-32.2209
-34.6477
-37.1207
-39.6122
-42.0985
-44.5181
-46.8222
-48.8939
-50.6977
-52.1554
-53.1994
-53.88
-54.2291
-54.3045
-54.0581
-53.4696
-52.7501
-51.7819
-50.7301
-49.5449
-48.358
-47.1071
-45.9756
-44.8512
-43.9277
-42.9342
-41.8517
-40.7424
-39.5601
-38.3922
-37.085
-35.747
-34.2062
-32.5375
-30.6179
-28.4952
-26.0721
-23.3797
-20.3479
-16.9953
-13.247
-9.09957
-4.4586
0.697112
6.52514
12.9971
20.2008
28.2043
37.0843
46.952
57.902
70.0611
83.472
98.1571
114.044
131.184
149.96
172.055
200.19
235.509
274.335
-2.67261
0.14788
0.759854
0.991732
1.00462
0.868791
0.747176
0.594247
0.520258
0.423832
0.382486
0.307022
0.264203
0.185222
0.16324
0.0778779
0.020721
-0.106623
-0.210767
-0.274331
-0.379654
-0.429435
-0.536459
-0.601718
-0.700491
-0.756232
-0.842526
-0.896981
-0.99132
-1.02983
-1.1203
-1.14247
-1.20589
-1.20135
-1.25618
-1.28783
-1.38114
-1.47063
-1.52205
-1.63256
-1.69814
-1.8003
-1.87946
-1.99458
-2.1014
-2.24702
-2.34956
-2.49881
-2.59062
-2.71659
-2.7821
-2.87706
-2.95108
-3.05842
-3.14364
-3.18086
-3.24481
-3.24023
-3.25773
-3.22455
-3.22988
-3.2012
-3.21606
-3.17888
-3.20394
-3.17881
-3.19529
-3.16279
-3.1934
-3.23437
-3.35039
-3.45522
-3.52831
-3.63532
-3.70745
-3.81079
-3.89107
-4.00146
-4.10916
-4.24767
-4.33989
-4.47583
-4.56358
-4.68013
-4.74904
-4.84387
-4.94362
-5.10191
-5.22142
-5.29725
-5.38184
-5.41429
-5.48055
-5.52465
-5.60134
-5.61771
-5.68631
-5.71284
-5.79319
-5.81469
-5.87222
-5.89842
-5.95219
-5.99322
-6.07749
-6.20045
-6.36084
-6.50852
-6.67406
-6.83688
-7.0674
-7.29981
-7.56745
-7.85223
-8.17714
-8.44198
-8.89216
-9.38756
-9.94863
-10.5652
-11.2745
-12.0912
-13.0407
-14.1288
-15.3383
-16.6658
-18.116
-19.706
-21.4663
-23.405
-25.5139
-27.7719
-30.1505
-32.6206
-35.1659
-37.7592
-40.3624
-42.9238
-45.3941
-47.7158
-49.8225
-51.5513
-52.7951
-53.4368
-53.5816
-53.315
-52.7185
-52.0686
-51.2623
-50.3461
-49.2655
-48.1404
-46.9107
-45.6897
-44.4032
-43.1753
-41.9032
-40.7115
-39.5641
-38.3613
-37.1082
-35.7838
-34.3906
-32.9091
-31.3559
-29.6628
-27.8465
-25.826
-23.6044
-21.1134
-18.348
-15.2566
-11.8322
-8.01299
-3.78267
0.930826
6.17284
11.9775
18.4727
25.7616
33.9385
43.0794
53.2087
64.2866
76.2344
88.8974
102.258
116.4
132.106
150.903
174.454
202.79
230.985
-2.18336
-0.270283
0.279846
0.560164
0.690733
0.663838
0.621853
0.511442
0.452655
0.349467
0.302184
0.212383
0.177784
0.0958775
0.0658006
-0.0174374
-0.0553285
-0.147235
-0.230542
-0.307964
-0.416435
-0.473295
-0.589972
-0.658928
-0.766727
-0.82841
-0.925645
-0.974232
-1.06821
-1.11183
-1.20314
-1.23252
-1.30367
-1.31481
-1.3783
-1.40276
-1.47533
-1.53839
-1.58015
-1.68673
-1.75548
-1.86767
-1.94685
-2.0746
-2.16128
-2.30698
-2.40793
-2.56497
-2.66934
-2.83384
-2.91891
-3.03415
-3.09915
-3.16858
-3.2322
-3.28257
-3.36323
-3.38108
-3.41259
-3.4026
-3.40508
-3.37085
-3.36772
-3.33534
-3.34712
-3.33008
-3.36375
-3.36388
-3.40206
-3.42231
-3.48586
-3.57097
-3.65485
-3.78128
-3.86322
-3.99319
-4.07837
-4.21443
-4.28987
-4.42719
-4.5082
-4.65271
-4.74999
-4.92331
-5.0105
-5.14407
-5.20802
-5.30498
-5.42726
-5.53685
-5.66524
-5.72923
-5.82191
-5.84151
-5.91078
-5.92647
-5.99748
-6.0182
-6.09479
-6.12803
-6.23994
-6.29877
-6.41109
-6.47357
-6.58972
-6.63278
-6.77262
-6.96888
-7.16854
-7.3745
-7.55317
-7.80781
-8.0618
-8.3935
-8.70774
-9.10712
-9.49237
-9.95885
-10.4541
-11.0127
-11.6217
-12.3253
-13.1459
-14.1181
-15.2303
-16.4739
-17.8393
-19.3386
-20.9973
-22.8369
-24.8643
-27.0776
-29.4558
-31.9629
-34.5799
-37.2589
-39.9801
-42.7018
-45.4039
-47.9763
-50.3319
-52.2862
-53.7906
-54.8937
-55.6718
-56.1675
-56.1907
-55.5836
-54.6567
-53.5253
-52.3056
-51.0012
-49.709
-48.423
-47.2072
-46.0405
-45.0032
-43.967
-42.9282
-41.8989
-40.843
-39.7653
-38.6063
-37.3827
-36.0255
-34.5482
-32.8913
-31.0566
-28.9862
-26.6773
-24.071
-21.1663
-17.9152
-14.3165
-10.3171
-5.90441
-0.978771
4.44774
10.5077
17.326
24.9777
33.5152
42.9367
53.2118
64.2191
75.866
88.1331
101.113
115.325
131.971
151.722
174.501
196.008
-1.60934
-0.14227
0.244527
0.495548
0.653089
0.723716
0.730997
0.694659
0.637384
0.568963
0.511004
0.439989
0.369057
0.284613
0.229125
0.150605
0.0945929
-0.00105915
-0.0878117
-0.162254
-0.249322
-0.306341
-0.391668
-0.468753
-0.560359
-0.641705
-0.730327
-0.810059
-0.905256
-0.969308
-1.05595
-1.10121
-1.17093
-1.19232
-1.2342
-1.25022
-1.30253
-1.35681
-1.38897
-1.45581
-1.51797
-1.60402
-1.69486
-1.79861
-1.92238
-2.06332
-2.1975
-2.34851
-2.47731
-2.6074
-2.73568
-2.85666
-2.96637
-3.06281
-3.1338
-3.17663
-3.21696
-3.22045
-3.23565
-3.2124
-3.21191
-3.18638
-3.18813
-3.1528
-3.15905
-3.12836
-3.12729
-3.10574
-3.1272
-3.15428
-3.22548
-3.28606
-3.34831
-3.43389
-3.51733
-3.61288
-3.71494
-3.8201
-3.94774
-4.07844
-4.19914
-4.32733
-4.43327
-4.53413
-4.6516
-4.76413
-4.88705
-5.01341
-5.11516
-5.20223
-5.27432
-5.32791
-5.38672
-5.44503
-5.51207
-5.54196
-5.59514
-5.62239
-5.67673
-5.69776
-5.72577
-5.75078
-5.78398
-5.82943
-5.88448
-5.9925
-6.10235
-6.18724
-6.29998
-6.37918
-6.58425
-6.76357
-6.96425
-7.08542
-7.34708
-7.65488
-8.03506
-8.47083
-8.96855
-9.51149
-10.1086
-10.7724
-11.5371
-12.4398
-13.4916
-14.6897
-16.0177
-17.4666
-19.0556
-20.8126
-22.7635
-24.9248
-27.2931
-29.8385
-32.5195
-35.3019
-38.1488
-41.0316
-43.8976
-46.6729
-49.2729
-51.5881
-53.5445
-54.9265
-55.5224
-55.3371
-54.8709
-54.3352
-53.5393
-52.5012
-51.294
-50.0098
-48.6692
-47.3158
-45.9603
-44.6664
-43.4074
-42.2274
-41.116
-40.0214
-38.9375
-37.8317
-36.7084
-35.5352
-34.3082
-32.9903
-31.5695
-30.0006
-28.2637
-26.3112
-24.1234
-21.6499
-18.8717
-15.7502
-12.2644
-8.36958
-4.00819
0.822237
6.21232
12.2552
19.0068
26.5003
34.7363
43.718
53.3987
63.7558
74.7913
86.5991
99.5524
114.38
131.282
150.029
167.131
-1.34989
-0.0884377
0.172478
0.349754
0.478028
0.503268
0.540772
0.496759
0.48064
0.398749
0.355993
0.266473
0.236341
0.152598
0.104627
0.0154056
-0.0164853
-0.0834833
-0.15361
-0.228802
-0.327544
-0.387436
-0.497316
-0.571024
-0.666699
-0.751602
-0.84561
-0.913387
-1.01788
-1.0805
-1.17652
-1.22278
-1.29673
-1.32779
-1.39519
-1.40985
-1.43764
-1.47036
-1.49564
-1.57484
-1.63129
-1.71871
-1.80569
-1.92568
-2.02291
-2.16327
-2.29342
-2.45627
-2.59466
-2.74548
-2.87979
-3.02039
-3.11755
-3.19611
-3.25781
-3.31579
-3.37832
-3.39975
-3.425
-3.42153
-3.4187
-3.38893
-3.37559
-3.34429
-3.33777
-3.31829
-3.33684
-3.33991
-3.36596
-3.37295
-3.40555
-3.46509
-3.5346
-3.63668
-3.72318
-3.84453
-3.9503
-4.07715
-4.16391
-4.31255
-4.40653
-4.55753
-4.66261
-4.86212
-4.96774
-5.09943
-5.16093
-5.24279
-5.37212
-5.49308
-5.60273
-5.6815
-5.78491
-5.80885
-5.87646
-5.89763
-5.96331
-5.98155
-6.04508
-6.07658
-6.17625
-6.22778
-6.33802
-6.39431
-6.48283
-6.49669
-6.60435
-6.77307
-6.93419
-7.11481
-7.26407
-7.50886
-7.71525
-8.0147
-8.18334
-8.46329
-8.72178
-9.06202
-9.44883
-9.90638
-10.4002
-10.9478
-11.5602
-12.2931
-13.1735
-14.2228
-15.4325
-16.7814
-18.2615
-19.8933
-21.7097
-23.7469
-26.0306
-28.553
-31.2867
-34.1823
-37.1928
-40.2576
-43.3464
-46.399
-49.3826
-52.1093
-54.4162
-56.1977
-57.5434
-58.514
-58.8283
-58.2347
-57.0739
-55.6796
-54.1349
-52.5647
-51.0229
-49.543
-48.1669
-46.8738
-45.6971
-44.5845
-43.5464
-42.5666
-41.6129
-40.6534
-39.6527
-38.6003
-37.4602
-36.2302
-34.8706
-33.3805
-31.7187
-29.8735
-27.8087
-25.5028
-22.9144
-20.0146
-16.768
-13.1391
-9.04613
-4.49952
0.54636
6.14219
12.3381
19.1305
26.5211
34.5192
43.1291
52.3544
62.2396
72.9299
84.7236
97.9521
112.66
128.525
142.588
-1.01086
0.148107
0.375286
0.531181
0.652215
0.74706
0.751514
0.758077
0.716054
0.677436
0.606494
0.549343
0.472107
0.390887
0.318038
0.242496
0.173045
0.0840681
0.00574945
-0.0689109
-0.146167
-0.204437
-0.274806
-0.35643
-0.427678
-0.522983
-0.613177
-0.717369
-0.819979
-0.913765
-1.0084
-1.08377
-1.15293
-1.19215
-1.22748
-1.2542
-1.28853
-1.30881
-1.31099
-1.33975
-1.38093
-1.43145
-1.51236
-1.58967
-1.72362
-1.85558
-2.00928
-2.15772
-2.33364
-2.50627
-2.66858
-2.81444
-2.96688
-3.09405
-3.18381
-3.2329
-3.2638
-3.26772
-3.27421
-3.24743
-3.23774
-3.20877
-3.19884
-3.1555
-3.1467
-3.10215
-3.08769
-3.05896
-3.07116
-3.09196
-3.13251
-3.16584
-3.21242
-3.27092
-3.35494
-3.43371
-3.54551
-3.62729
-3.78082
-3.92136
-4.06826
-4.19732
-4.32744
-4.41255
-4.56128
-4.69345
-4.83565
-4.96499
-5.07721
-5.18094
-5.24092
-5.30686
-5.35273
-5.4223
-5.47985
-5.51303
-5.55483
-5.58211
-5.61958
-5.63508
-5.6427
-5.66245
-5.67976
-5.72156
-5.7536
-5.84893
-5.91484
-5.96639
-6.04292
-6.10316
-6.23285
-6.32484
-6.4901
-6.65797
-6.90855
-7.17666
-7.48129
-7.81986
-8.21559
-8.67162
-9.187
-9.74869
-10.3618
-11.0503
-11.8539
-12.8138
-13.947
-15.2411
-16.6779
-18.2556
-19.9955
-21.9342
-24.116
-26.5704
-29.2981
-32.258
-35.3869
-38.617
-41.894
-45.1632
-48.361
-51.3396
-54.0231
-56.3132
-58.0367
-58.8474
-58.7371
-58.156
-57.2027
-55.8416
-54.2366
-52.5517
-50.8492
-49.2224
-47.6767
-46.2493
-44.9137
-43.6937
-42.5866
-41.5712
-40.6312
-39.7258
-38.8317
-37.9099
-36.9448
-35.9172
-34.8194
-33.6164
-32.2892
-30.8079
-29.1439
-27.2703
-25.1521
-22.7486
-20.012
-16.8966
-13.3302
-9.30826
-4.792
0.239188
5.79813
11.8848
18.4905
25.6213
33.2951
41.5374
50.4095
60.0793
70.7685
82.5972
95.569
109.305
121.246
-0.923161
0.185039
0.371584
0.484532
0.562439
0.549522
0.600266
0.562211
0.56422
0.488296
0.46751
0.361985
0.328322
0.225728
0.178396
0.0779084
0.0537683
-0.00848608
-0.0792681
-0.140689
-0.233575
-0.286113
-0.390514
-0.452598
-0.561398
-0.623316
-0.744018
-0.810463
-0.934928
-1.01055
-1.12839
-1.19589
-1.27926
-1.33271
-1.3943
-1.40479
-1.41609
-1.42411
-1.42657
-1.47145
-1.50814
-1.56831
-1.62593
-1.73092
-1.82587
-1.97636
-2.11101
-2.29392
-2.44031
-2.62023
-2.78183
-2.95095
-3.08493
-3.20459
-3.29671
-3.37326
-3.43064
-3.45082
-3.46224
-3.44929
-3.43466
-3.39836
-3.37532
-3.33891
-3.32016
-3.29119
-3.29238
-3.28595
-3.29361
-3.29192
-3.30912
-3.34861
-3.39619
-3.47744
-3.55594
-3.67977
-3.77453
-3.89899
-3.98641
-4.15476
-4.27638
-4.44944
-4.56324
-4.75138
-4.85604
-4.9846
-5.07124
-5.17357
-5.28863
-5.41642
-5.55027
-5.64262
-5.72314
-5.76161
-5.83449
-5.85456
-5.91625
-5.92694
-5.97981
-6.00321
-6.08916
-6.12428
-6.22123
-6.26508
-6.34507
-6.3358
-6.41658
-6.55784
-6.67718
-6.83152
-6.92678
-7.11374
-7.22441
-7.43747
-7.54396
-7.73976
-7.92099
-8.14402
-8.4044
-8.72824
-9.11775
-9.57054
-10.0768
-10.6494
-11.3093
-12.104
-13.0658
-14.209
-15.5258
-17.0057
-18.6508
-20.4784
-22.5337
-24.8667
-27.5203
-30.4899
-33.7348
-37.1717
-40.7173
-44.2863
-47.8257
-51.2262
-54.4216
-57.252
-59.5183
-61.1474
-62.0942
-62.1528
-61.1439
-59.4348
-57.2973
-55.0022
-52.8323
-50.8634
-49.1541
-47.6586
-46.3138
-45.1046
-44.0065
-43.0336
-42.1445
-41.3167
-40.4942
-39.6425
-38.7356
-37.7537
-36.692
-35.5277
-34.262
-32.8713
-31.3394
-29.6463
-27.7565
-25.6384
-23.2327
-20.5096
-17.399
-13.8771
-9.88228
-5.4274
-0.511829
4.87913
10.7351
17.0626
23.8776
31.2335
39.1984
47.9284
57.5807
68.2112
79.7823
91.879
102.288
-0.281267
0.580124
0.724341
0.80488
0.858385
0.915179
0.901887
0.912805
0.854718
0.838158
0.753844
0.704029
0.591843
0.512088
0.418518
0.338478
0.248093
0.157681
0.0800235
0.00553546
-0.0674866
-0.123703
-0.177643
-0.251761
-0.302651
-0.404164
-0.506062
-0.618067
-0.72675
-0.84223
-0.958127
-1.06439
-1.15598
-1.21884
-1.25929
-1.28859
-1.31075
-1.30666
-1.28026
-1.2755
-1.27293
-1.29259
-1.35435
-1.40837
-1.51558
-1.62028
-1.76648
-1.95384
-2.15924
-2.36791
-2.5717
-2.7756
-2.96538
-3.12744
-3.25751
-3.3273
-3.36495
-3.37068
-3.37043
-3.3388
-3.31658
-3.26557
-3.23984
-3.1824
-3.15795
-3.10167
-3.07351
-3.03438
-3.03138
-3.03398
-3.04877
-3.06076
-3.09172
-3.12769
-3.19042
-3.24196
-3.35109
-3.47641
-3.60742
-3.72265
-3.87137
-4.01089
-4.17193
-4.33195
-4.49554
-4.64507
-4.80134
-4.94479
-5.06485
-5.16743
-5.23623
-5.32833
-5.36909
-5.4426
-5.48742
-5.52497
-5.55433
-5.57796
-5.60063
-5.6081
-5.60268
-5.61495
-5.62306
-5.65597
-5.66854
-5.73334
-5.7836
-5.82977
-5.88595
-5.94753
-6.04272
-6.11356
-6.25961
-6.4176
-6.62991
-6.85395
-7.10003
-7.35535
-7.63366
-7.94458
-8.30655
-8.72741
-9.2046
-9.74113
-10.3433
-11.0385
-11.8669
-12.8612
-14.0424
-15.4116
-16.9657
-18.7043
-20.6563
-22.8662
-25.3994
-28.3
-31.5779
-35.1673
-38.9587
-42.8325
-46.709
-50.4622
-54.0262
-57.2926
-60.13
-62.3326
-63.5516
-63.4863
-62.5256
-60.987
-58.8848
-56.3746
-53.7508
-51.3313
-49.2724
-47.532
-46.0724
-44.7924
-43.7027
-42.745
-41.8975
-41.1309
-40.4358
-39.7751
-39.1247
-38.4074
-37.6021
-36.7005
-35.6839
-34.54
-33.269
-31.8395
-30.2276
-28.4042
-26.3305
-23.9627
-21.2646
-18.2139
-14.7321
-10.8329
-6.53334
-1.81966
3.3198
8.88509
14.8917
21.4079
28.5266
36.3729
45.0639
54.6617
65.0938
75.9082
85.1319
0.0721158
0.730204
0.818099
0.857125
0.847674
0.777866
0.787503
0.714166
0.709718
0.62299
0.602398
0.514857
0.449447
0.336929
0.274753
0.152147
0.133934
0.0739525
-0.014953
-0.0659292
-0.151503
-0.198965
-0.298515
-0.348588
-0.430394
-0.481785
-0.580421
-0.673386
-0.802181
-0.913427
-1.04315
-1.14987
-1.25025
-1.33059
-1.41197
-1.44361
-1.44568
-1.4223
-1.4064
-1.40362
-1.40653
-1.43266
-1.45752
-1.54477
-1.62043
-1.74381
-1.8647
-2.02818
-2.20314
-2.4049
-2.61238
-2.83057
-3.02507
-3.2047
-3.3488
-3.45792
-3.53207
-3.5531
-3.54559
-3.51907
-3.47916
-3.43063
-3.3905
-3.3387
-3.30252
-3.26673
-3.24855
-3.23324
-3.2236
-3.21195
-3.21509
-3.23498
-3.26174
-3.32727
-3.38838
-3.47952
-3.5579
-3.6789
-3.80172
-3.97504
-4.09319
-4.2847
-4.39297
-4.56957
-4.69264
-4.83283
-4.95576
-5.08947
-5.22646
-5.35888
-5.4856
-5.58072
-5.67954
-5.73367
-5.80049
-5.82687
-5.87489
-5.88062
-5.92159
-5.93319
-6.00184
-6.01647
-6.08654
-6.11529
-6.21036
-6.16855
-6.21284
-6.30892
-6.37714
-6.50208
-6.53656
-6.6982
-6.71202
-6.85661
-6.90999
-7.03937
-7.17868
-7.34844
-7.53957
-7.7588
-8.02163
-8.33853
-8.71775
-9.16345
-9.67454
-10.2666
-10.9663
-11.8042
-12.8152
-14.0221
-15.4411
-17.0718
-18.9244
-21.0212
-23.4214
-26.1999
-29.4238
-33.0842
-37.0943
-41.3021
-45.5932
-49.8018
-53.8646
-57.7035
-61.1961
-64.1193
-66.205
-67.288
-67.1337
-65.3806
-62.7167
-59.5385
-56.1644
-53.0039
-50.3302
-48.2351
-46.6186
-45.3193
-44.239
-43.278
-42.4302
-41.6644
-40.9857
-40.3667
-39.7751
-39.1627
-38.4928
-37.7544
-36.9341
-36.0181
-34.9944
-33.8289
-32.5048
-30.9881
-29.2476
-27.2379
-24.9254
-22.3134
-19.335
-15.9705
-12.2515
-8.16896
-3.71859
1.11375
6.35131
12.0524
18.339
25.3363
33.1409
41.8241
51.3127
61.1018
69.4096
0.747877
1.19373
1.27766
1.27514
1.2491
1.2253
1.15226
1.11593
1.04803
1.00964
0.926815
0.870215
0.759246
0.675402
0.567606
0.465369
0.351387
0.248348
0.159922
0.0849169
0.0117346
-0.044117
-0.0863931
-0.155954
-0.210435
-0.299808
-0.390205
-0.489729
-0.605416
-0.735103
-0.877755
-1.01043
-1.12911
-1.23703
-1.29723
-1.35031
-1.3803
-1.36857
-1.31084
-1.26399
-1.2277
-1.19797
-1.20808
-1.22052
-1.30413
-1.41226
-1.54204
-1.72386
-1.92579
-2.15063
-2.38888
-2.63803
-2.87983
-3.10431
-3.28639
-3.42127
-3.48564
-3.51793
-3.51577
-3.48122
-3.44083
-3.37674
-3.31617
-3.24046
-3.18621
-3.13032
-3.08213
-3.03332
-3.01005
-2.99261
-2.98261
-2.97343
-2.98585
-3.00126
-3.03595
-3.06719
-3.14917
-3.25385
-3.37949
-3.52627
-3.69446
-3.87593
-4.06153
-4.24143
-4.4119
-4.57207
-4.73098
-4.88271
-5.02251
-5.15304
-5.26944
-5.37353
-5.43429
-5.50285
-5.53916
-5.57558
-5.59248
-5.60462
-5.6085
-5.60955
-5.59655
-5.59898
-5.59748
-5.6173
-5.6284
-5.6801
-5.71714
-5.74923
-5.7969
-5.86475
-5.94679
-6.03601
-6.15211
-6.28301
-6.43036
-6.58857
-6.76281
-6.94985
-7.14737
-7.35477
-7.58145
-7.84317
-8.15576
-8.53375
-8.97746
-9.4905
-10.0834
-10.7791
-11.6181
-12.6429
-13.8927
-15.375
-17.0904
-19.0447
-21.2836
-23.8933
-26.972
-30.5762
-34.6761
-39.1371
-43.8217
-48.5261
-53.1394
-57.5394
-61.6079
-65.1973
-68.0892
-69.9077
-70.2453
-69.0072
-66.4691
-62.9618
-58.8733
-54.7342
-51.117
-48.4262
-46.5832
-45.2571
-44.2359
-43.3578
-42.5814
-41.9004
-41.3172
-40.7901
-40.3147
-39.8321
-39.2905
-38.6898
-38.0478
-37.3266
-36.5141
-35.6065
-34.564
-33.3454
-31.9304
-30.2924
-28.3574
-26.1533
-23.6579
-20.8197
-17.6465
-14.1506
-10.3457
-6.21981
-1.72454
3.18734
8.63458
14.7976
21.7637
29.5948
38.2561
47.2245
54.8037
1.16463
1.55421
1.52068
1.43423
1.31031
1.18963
1.10565
1.00292
0.927795
0.835929
0.779761
0.698119
0.607133
0.490763
0.396127
0.273262
0.225597
0.137106
0.0343359
-0.0128605
-0.0888269
-0.125769
-0.20763
-0.233064
-0.294765
-0.339824
-0.415789
-0.508419
-0.62233
-0.754852
-0.906688
-1.05139
-1.20218
-1.31843
-1.41338
-1.47447
-1.50414
-1.48786
-1.44811
-1.39692
-1.36293
-1.34027
-1.31503
-1.32994
-1.34793
-1.41809
-1.54864
-1.7061
-1.88852
-2.10885
-2.358
-2.63806
-2.90778
-3.16549
-3.38617
-3.55276
-3.64453
-3.6691
-3.65818
-3.63474
-3.57686
-3.51629
-3.44253
-3.37153
-3.30198
-3.24413
-3.2053
-3.18287
-3.16136
-3.1424
-3.13256
-3.13862
-3.14587
-3.17956
-3.21611
-3.28973
-3.3526
-3.44546
-3.55406
-3.70727
-3.85132
-4.03422
-4.18921
-4.36381
-4.51784
-4.67889
-4.83021
-4.98501
-5.13318
-5.28022
-5.42097
-5.53549
-5.63479
-5.71199
-5.79823
-5.82517
-5.86386
-5.86447
-5.88812
-5.88545
-5.92124
-5.91953
-5.9677
-5.9794
-6.03331
-5.99098
-6.01932
-6.08116
-6.10175
-6.17338
-6.1846
-6.28005
-6.29224
-6.35636
-6.40392
-6.4869
-6.59074
-6.71509
-6.85989
-7.02251
-7.20157
-7.40126
-7.63865
-7.92575
-8.27466
-8.6958
-9.18853
-9.76061
-10.4399
-11.2712
-12.3099
-13.5912
-15.1276
-16.9211
-18.9974
-21.4232
-24.307
-27.759
-31.844
-36.505
-41.6042
-46.8778
-52.1456
-57.2313
-62.0058
-66.3728
-70.1467
-72.9297
-74.204
-73.6461
-71.6277
-67.8722
-62.8932
-57.5471
-52.5981
-48.8395
-46.3955
-44.8626
-43.8684
-43.1552
-42.5544
-42.0248
-41.5458
-41.0891
-40.7224
-40.3708
-39.962
-39.4997
-38.9973
-38.4543
-37.8518
-37.1736
-36.3811
-35.4564
-34.3684
-33.0782
-31.5244
-29.7116
-27.668
-25.3374
-22.6882
-19.7482
-16.5253
-13.0579
-9.28822
-5.14935
-0.547407
4.75032
10.8854
17.8876
25.7751
34.069
41.0696
1.7039
2.09396
2.04024
1.95
1.82077
1.68024
1.5258
1.43339
1.3187
1.23793
1.14088
1.08093
0.98572
0.888061
0.737278
0.601117
0.476804
0.346902
0.227621
0.136448
0.0800199
0.016894
-0.0322504
-0.0860197
-0.137666
-0.20776
-0.275588
-0.354404
-0.45345
-0.586134
-0.753068
-0.919042
-1.08585
-1.23722
-1.36295
-1.45609
-1.50177
-1.49312
-1.40371
-1.31694
-1.23521
-1.17765
-1.1456
-1.11905
-1.14519
-1.18248
-1.28624
-1.44082
-1.62343
-1.84708
-2.1091
-2.40142
-2.7098
-3.02034
-3.30311
-3.52827
-3.66794
-3.73204
-3.73406
-3.67469
-3.61115
-3.53003
-3.4437
-3.34001
-3.25293
-3.1662
-3.10365
-3.04252
-3.00237
-2.9702
-2.94249
-2.91521
-2.90722
-2.90007
-2.90752
-2.91465
-2.96436
-3.03802
-3.15414
-3.30313
-3.48735
-3.70146
-3.91587
-4.12054
-4.30361
-4.47058
-4.63812
-4.80591
-4.97096
-5.12944
-5.2754
-5.40758
-5.51973
-5.59655
-5.61911
-5.6512
-5.66515
-5.66383
-5.65676
-5.64291
-5.6257
-5.61618
-5.60787
-5.61769
-5.62395
-5.66742
-5.69816
-5.72172
-5.75885
-5.81577
-5.88962
-5.97181
-6.06595
-6.16359
-6.25308
-6.34587
-6.43434
-6.53693
-6.65182
-6.78195
-6.92568
-7.08067
-7.25984
-7.47298
-7.73655
-8.06647
-8.46616
-8.93438
-9.49246
-10.1668
-11.0065
-12.0702
-13.3989
-15.0102
-16.922
-19.1717
-21.8547
-25.0917
-29.0263
-33.7015
-39.0645
-44.8359
-50.7954
-56.6823
-62.2649
-67.4071
-71.9675
-75.7249
-78.4434
-79.644
-78.0064
-73.8856
-68.1831
-61.5159
-54.8627
-49.4062
-45.8749
-43.9868
-43.0321
-42.6535
-42.3897
-42.0804
-41.7141
-41.3411
-41.0176
-40.7449
-40.4672
-40.1526
-39.7997
-39.4298
-39.0031
-38.5147
-37.9652
-37.3242
-36.531
-35.5433
-34.3621
-32.9487
-31.3173
-29.4677
-27.3292
-24.9209
-22.2406
-19.3537
-16.2746
-12.8984
-9.12521
-4.75732
0.476582
6.6461
13.7606
21.442
27.986
2.10914
2.45382
2.35459
2.16717
1.96565
1.74496
1.55552
1.37363
1.23721
1.10477
1.00702
0.894447
0.796398
0.700825
0.584943
0.433421
0.341451
0.234162
0.13127
0.0476225
-0.0155067
-0.0485267
-0.105929
-0.129829
-0.175601
-0.205143
-0.262067
-0.339387
-0.423397
-0.53716
-0.697652
-0.872256
-1.05869
-1.23176
-1.39438
-1.52454
-1.60378
-1.62044
-1.61319
-1.49873
-1.39137
-1.2947
-1.22869
-1.18693
-1.15106
-1.18063
-1.23447
-1.35525
-1.52222
-1.73567
-2.00943
-2.32932
-2.67685
-3.04288
-3.36802
-3.62776
-3.79554
-3.85707
-3.84363
-3.79858
-3.722
-3.63
-3.54004
-3.4439
-3.34768
-3.2647
-3.18741
-3.13214
-3.09935
-3.08187
-3.06727
-3.061
-3.05474
-3.06019
-3.06139
-3.09853
-3.13241
-3.18844
-3.27202
-3.39722
-3.5573
-3.75314
-3.95465
-4.16436
-4.35226
-4.52586
-4.69091
-4.85985
-5.0272
-5.19243
-5.35144
-5.49982
-5.62514
-5.72434
-5.80696
-5.85024
-5.8779
-5.87344
-5.87622
-5.85528
-5.85996
-5.84658
-5.865
-5.85427
-5.86563
-5.82686
-5.84286
-5.90147
-5.89649
-5.91598
-5.92265
-5.95931
-5.99342
-6.05161
-6.11789
-6.19774
-6.27764
-6.36684
-6.46248
-6.5683
-6.68178
-6.80026
-6.93032
-7.0786
-7.26178
-7.49298
-7.78948
-8.15025
-8.58832
-9.11609
-9.76576
-10.5946
-11.6633
-13.0203
-14.691
-16.7003
-19.1173
-22.0635
-25.709
-30.1813
-35.5527
-41.6301
-48.1771
-54.9224
-61.5134
-67.629
-73.1276
-77.9544
-81.7873
-83.7926
-83.1699
-80.5522
-75.2507
-67.7339
-59.1573
-51.0654
-45.4539
-42.6813
-41.775
-41.8467
-42.07
-42.0622
-41.8604
-41.4874
-41.165
-40.9478
-40.8241
-40.6817
-40.4717
-40.2306
-39.944
-39.6586
-39.3273
-38.9018
-38.3703
-37.6691
-36.815
-35.8024
-34.5722
-33.1642
-31.5342
-29.63
-27.4775
-25.1125
-22.6247
-19.9552
-16.972
-13.5725
-9.39451
-4.14777
2.11225
9.12422
15.2896
3.04477
3.11895
2.89613
2.68345
2.4318
2.20409
1.99708
1.82141
1.67424
1.5502
1.4237
1.31281
1.19912
1.08647
0.963547
0.775625
0.596962
0.442762
0.316989
0.204137
0.114671
0.0466416
0.00402048
-0.0298519
-0.0799901
-0.132038
-0.184235
-0.239313
-0.31778
-0.420466
-0.567664
-0.744061
-0.9395
-1.13319
-1.3265
-1.49032
-1.59192
-1.62332
-1.5545
-1.44242
-1.32141
-1.22636
-1.13735
-1.07735
-1.0561
-1.04561
-1.08832
-1.16856
-1.29079
-1.47632
-1.72223
-2.01102
-2.37262
-2.78732
-3.19148
-3.55922
-3.81932
-3.95591
-3.97591
-3.93048
-3.82873
-3.71473
-3.6016
-3.48502
-3.36818
-3.24837
-3.15427
-3.07378
-3.02185
-2.97051
-2.93634
-2.89989
-2.87787
-2.85226
-2.82799
-2.81015
-2.81985
-2.82879
-2.90864
-3.03578
-3.212
-3.44655
-3.70007
-3.95948
-4.17851
-4.35962
-4.52842
-4.69342
-4.8716
-5.06082
-5.2394
-5.40281
-5.55032
-5.66209
-5.72653
-5.77032
-5.7819
-5.76058
-5.74078
-5.70289
-5.67547
-5.65492
-5.64488
-5.6429
-5.64323
-5.6611
-5.68056
-5.70222
-5.73798
-5.77615
-5.81475
-5.85862
-5.89645
-5.94864
-5.99713
-6.06016
-6.12305
-6.19337
-6.269
-6.3498
-6.43204
-6.51733
-6.60783
-6.70777
-6.82536
-6.97129
-7.1625
-7.41281
-7.73235
-8.13314
-8.62874
-9.25784
-10.0826
-11.1687
-12.5737
-14.327
-16.4943
-19.174
-22.5346
-26.7506
-31.9977
-38.1917
-45.193
-52.7519
-60.451
-67.7188
-74.3289
-80.2011
-85.1208
-88.9455
-91.5116
-90.7264
-85.6371
-76.6601
-65.3844
-54.0719
-45.1634
-40.3432
-38.5667
-38.8918
-40.4198
-41.7372
-41.991
-41.6852
-41.3448
-41.1807
-41.1742
-41.0918
-40.9863
-40.842
-40.6887
-40.5529
-40.4018
-40.1744
-39.8596
-39.4595
-38.8765
-38.2191
-37.4072
-36.3815
-35.2442
-33.8295
-32.1906
-30.3611
-28.333
-26.234
-23.963
-21.4852
-18.5414
-14.4954
-9.32539
-3.16372
2.63666