/*--------------------------------*- C++ -*----------------------------------*\
| =========                 |                                                 |
| \\      /  F ield         | OpenFOAM: The Open Source CFD Toolbox           |
|  \\    /   O peration     | Version:  4.1                                   |
|   \\  /    A nd           | Web:      www.OpenFOAM.org                      |
|    \\/     M anipulation  |                                                 |
\*---------------------------------------------------------------------------*/
FoamFile
{
    version     2.0;
    format      ascii;
    class       volScalarField;
    location    "1233";
    object      p;
}
// * * * * * * * * * * * * * * * * * * * * * * * * * * * * * * * * * * * * * //

dimensions      [0 2 -2 0 0 0 0];

internalField   nonuniform List<scalar> 
204246
(
140.538
-7.72947
46.8326
26.1939
24.8401
31.6555
20.8183
32.6661
20.0279
33.0833
19.7421
34.0875
18.4065
34.624
19.7831
32.0957
26.267
20.701
32.978
18.0599
34.0038
18.1112
32.1941
18.326
31.3351
17.2869
31.0138
14.5009
29.6645
13.7757
26.3483
11.706
22.3084
9.68761
15.5871
10.3308
2.50389
6.10995
-3.69283
0.634072
-10.5937
-5.15456
-17.7858
-9.20932
-25.7258
-11.6748
-28.4036
-12.7104
-25.1167
-14.0533
-19.7414
-10.5316
-8.93816
-10.363
0.949569
-3.93525
7.89548
3.05768
15.0183
8.1837
22.1743
10.7544
26.4318
13.4193
28.7152
16.3707
28.3265
19.4155
27.3166
25.117
19.0274
29.1783
17.7005
29.8213
16.8875
29.5773
15.6628
29.6203
12.756
29.1613
11.3951
26.8456
11.8268
22.5772
11.2454
18.2263
13.5891
6.30931
13.9628
2.83988
11.216
-1.65957
8.58075
-7.3641
5.45674
-11.3833
1.58436
-15.1792
-2.43315
-17.6138
-6.82961
-20.3632
-9.44115
-21.1469
-12.1432
-17.7548
-22.2669
-12.0352
-24.2571
-9.12729
-25.5628
-7.05191
-23.8234
-6.24331
-22.2398
-5.00601
-20.9086
-3.91687
-19.4476
-3.43464
-16.9212
-5.20369
-10.2398
-14.817
-3.20879
-16.7895
-1.19035
-16.9173
-0.407029
-16.6722
0.0310628
-16.3729
0.345212
-16.0848
0.59435
-15.3999
0.259296
-13.6047
-2.09401
-7.3379
-12.3052
-0.790315
-14.4717
0.918472
-14.6526
1.68664
-14.4933
2.17902
-14.0748
2.67261
-13.4351
3.20614
-12.3566
3.5134
-9.82694
1.98933
-2.6406
-6.76697
5.24776
-7.32963
8.70856
-5.28883
11.1264
-1.63895
13.7877
3.01925
17.6615
8.7714
22.7669
15.7544
29.0728
24.7315
37.0538
36.2869
46.5431
53.0663
55.3044
69.1627
73.6969
87.0068
96.7522
110.126
124.464
139.368
159.305
177.136
205.423
228.081
271.983
300.926
388.659
404.581
611.622
47.0794
24.3569
25.0282
29.7228
23.3193
28.6492
23.6609
28.3174
23.8365
28.4806
23.8781
28.9518
24.0987
28.2912
25.6913
26.2631
28.9998
23.3978
28.8674
23.5454
28.4174
23.8878
27.72
23.3423
27.3069
22.3583
26.7397
21.0764
24.8313
19.4576
23.1275
17.5176
19.6815
15.8136
14.0209
14.8086
7.54484
7.22896
1.75845
0.221793
-4.60406
-6.49806
-11.9257
-12.0874
-18.2952
-17.1398
-21.4519
-20.0236
-21.1221
-19.0015
-18.9497
-17.1831
-11.2032
-11.8106
-4.73427
-3.15374
1.79749
3.89506
9.00387
9.47051
15.2499
14.2281
19.5207
17.4926
22.1061
20.3872
23.12
22.749
22.5924
26.1282
21.5873
25.9532
21.7505
25.8371
21.4022
25.517
20.4597
25.1608
19.1888
23.6882
18.2676
21.4522
17.3299
19.2991
16.442
15.2068
16.7341
11.2393
12.0292
7.55451
9.50718
3.64871
6.25363
-0.613629
2.09865
-4.64045
-1.95789
-8.47445
-6.18966
-11.7286
-9.89553
-14.6619
-13.485
-15.9468
-16.7938
-14.8597
-20.4312
-15.4701
-20.604
-14.6095
-20.0459
-13.9169
-18.4592
-12.7828
-17.0531
-11.4308
-15.6983
-10.3339
-14.1355
-9.94682
-11.8158
-10.932
-8.14356
-12.8701
-7.38087
-12.2824
-6.80935
-11.7493
-6.34192
-11.3241
-5.96619
-10.9545
-5.67741
-10.5641
-5.59259
-9.84934
-6.01112
-8.27308
-7.67106
-5.10927
-10.0958
-4.82167
-9.82916
-4.5342
-9.50195
-4.15949
-9.14648
-3.81551
-8.72442
-3.43635
-8.13528
-3.08107
-7.12131
-3.05275
-4.97762
-3.96394
-1.13478
-5.31621
0.348315
-3.65183
2.15027
-1.33677
4.4286
1.38929
7.33245
4.8102
11.0279
9.31992
15.7615
15.125
21.1584
22.8669
28.1004
32.6351
36.2715
45.0223
48.7098
57.7856
64.3455
73.8676
83.5505
94.0103
107.047
118.632
135.809
148.624
171.832
185.256
220.512
227.152
301.875
267.315
401.995
21.291
31.1249
27.1902
29.1592
25.4042
28.3667
24.6185
28.3675
24.3076
28.5125
24.2436
28.6711
24.4611
28.2361
25.5075
26.8131
27.3814
24.8387
28.0939
24.0427
28.2374
23.792
27.8467
23.3411
27.3269
22.4936
26.6358
21.3896
25.1841
20.1983
22.56
18.6201
18.9132
16.7219
13.9612
13.2288
8.83194
7.91127
2.99818
1.28983
-3.57857
-5.70543
-10.5464
-12.7662
-17.098
-18.1759
-21.1251
-20.8754
-21.8789
-20.7809
-18.9338
-17.8124
-13.1735
-12.1872
-6.01358
-4.3191
1.54546
3.47733
8.58174
10.3035
14.6828
15.1791
19.1072
18.5745
21.899
21.1792
23.1824
23.3414
23.1897
25.3027
22.7929
25.742
22.3193
25.9125
21.7503
25.6581
20.8317
25.0876
19.6502
23.8838
18.5497
22.0236
17.7068
19.1511
16.9956
15.6664
15.35
11.9965
12.6635
8.548
9.16511
4.79086
5.67113
0.694978
1.73216
-3.33961
-2.5005
-7.24577
-6.71359
-10.7798
-10.6141
-13.9665
-13.8048
-15.7218
-16.7895
-16.0186
-19.3693
-16.1131
-20.1596
-15.2184
-19.9024
-14.1369
-18.6353
-12.8575
-17.1607
-11.4642
-15.723
-10.3423
-14.0878
-9.85792
-11.9859
-10.3226
-9.37972
-11.4382
-7.84967
-11.6159
-6.80098
-11.3975
-6.16242
-11.0624
-5.74397
-10.7174
-5.46783
-10.3255
-5.39072
-9.68048
-5.75396
-8.4474
-6.97315
-6.41692
-8.73064
-5.33282
-9.29473
-4.59592
-9.2972
-4.11018
-9.04835
-3.71912
-8.65226
-3.33172
-8.05635
-2.98152
-7.06354
-2.89464
-5.22498
-3.41459
-2.34251
-4.07988
-0.163766
-3.254
2.10834
-1.40589
4.35045
1.49577
6.91269
5.37871
10.3884
10.1525
15.0308
16.1113
21.0579
23.5669
28.5591
33.0811
38.1711
44.6902
49.7097
58.7148
65.3247
75.5597
85.2291
96.4869
110.034
122.558
141.139
155.017
180.672
195.351
235.057
242.978
319.138
297.867
386.648
5.91107
22.2542
18.4717
25.8085
22.375
26.3984
23.9774
26.4913
24.9246
26.7178
25.3824
26.8758
25.9925
26.4791
26.9927
25.6956
27.9966
25.3649
27.4937
25.5896
27.0415
25.6953
26.6799
25.3049
26.3371
24.6325
25.7641
23.7319
24.5147
22.596
22.8405
21.1969
19.8419
19.0534
16.1494
15.7736
11.3934
10.1379
5.80338
3.56409
-0.879329
-3.71488
-8.17668
-11.2757
-15.1817
-18.602
-20.3591
-22.8488
-22.7822
-23.6777
-21.6629
-21.207
-16.5002
-15.2832
-9.56181
-7.10417
-1.86519
1.06391
5.56853
8.30826
11.9186
14.3587
16.5718
18.4862
19.6926
21.3851
21.6692
23.2754
22.5478
24.7916
23.4047
25.0771
23.4861
24.8663
23.2301
24.4869
22.6507
23.8265
21.929
22.5503
21.0575
20.8774
19.7931
19.0849
18.6261
16.4558
16.8664
13.8463
13.5848
10.882
9.98657
7.45034
6.15726
3.63304
1.88799
-0.46022
-2.48072
-4.63599
-6.84316
-8.6536
-10.8237
-12.2677
-14.431
-14.8235
-17.2457
-16.123
-19.1945
-17.5477
-19.4879
-17.3224
-18.801
-16.5808
-17.4015
-15.3687
-15.8458
-13.95
-14.3031
-12.8075
-12.6797
-12.1404
-10.9779
-11.8988
-9.37295
-11.4797
-9.07669
-10.7856
-8.74856
-10.2041
-8.39288
-9.73028
-8.05661
-9.31143
-7.79194
-8.86576
-7.69074
-8.23741
-7.87941
-7.2639
-8.45212
-6.19045
-8.61895
-6.34938
-8.28601
-6.34392
-7.93651
-6.18019
-7.58452
-5.94517
-7.19939
-5.66911
-6.68504
-5.40908
-5.87007
-5.34188
-4.45835
-5.30778
-2.95796
-4.60516
-2.18174
-3.19615
-0.91294
-1.35361
0.956763
0.85808
3.29319
3.69142
6.40328
7.31705
10.4319
11.9698
15.354
18.1483
21.6129
25.8683
29.4421
35.6496
39.7869
46.7211
52.8374
60.1713
68.8345
76.6626
88.2482
96.5576
111.767
120.553
141.118
148.206
181.255
176.138
233.626
220.491
291.588
7.96625
22.852
19.3341
24.6852
23.2067
25.8699
24.5854
26.341
25.3387
26.7036
25.6552
26.7731
26.139
26.511
26.7465
26.084
27.1768
26.0103
26.9556
25.8725
26.8614
25.7228
26.6895
25.352
26.2998
24.7549
25.7061
24.076
24.5069
23.0401
22.6498
21.6251
20.127
19.3371
16.8989
16.0667
12.8597
11.3117
7.42389
5.19012
0.75779
-2.09576
-6.79495
-10.1302
-14.3785
-17.8759
-20.8328
-23.3951
-24.307
-25.334
-23.8308
-23.2414
-19.1552
-16.9996
-11.4708
-8.32646
-2.65928
0.529504
5.57219
8.36379
12.1667
14.5924
17.026
18.9055
20.2992
21.7632
22.3418
23.609
23.5537
24.8191
24.1125
25.097
24.1383
25.1006
23.8027
24.749
23.1496
24.0695
22.3962
22.945
21.5484
21.346
20.3865
19.3189
18.8456
17.0611
16.7585
14.5484
14.0899
11.6179
10.6957
8.22364
6.93038
4.4511
2.76672
0.33195
-1.65893
-3.92146
-6.13371
-8.10293
-10.3402
-11.8379
-14.0454
-14.8016
-16.902
-16.8774
-18.7375
-17.9966
-19.4016
-17.9075
-18.9515
-17.147
-17.5639
-15.7565
-15.9122
-14.2116
-14.2326
-12.8927
-12.5944
-12.0118
-11.0956
-11.2007
-9.76924
-10.4788
-9.1943
-9.9817
-8.5659
-9.56347
-8.06535
-9.17947
-7.69715
-8.82137
-7.45536
-8.44288
-7.38086
-7.94331
-7.52161
-7.2756
-7.82814
-6.69502
-7.80139
-6.6268
-7.72056
-6.38593
-7.57993
-6.11373
-7.33333
-5.82874
-6.99336
-5.53151
-6.49514
-5.2541
-5.7154
-5.16737
-4.60951
-4.77263
-3.34724
-4.05254
-2.34025
-2.82008
-0.924259
-1.13566
0.959
1.14912
3.47855
4.05447
6.74592
7.78772
10.9074
12.6573
16.1255
18.866
22.7447
26.7617
31.0782
36.5139
41.7378
48.4671
55.3422
63.0848
72.3694
81.0026
93.4513
102.822
119.26
128.913
151.423
159.168
193.523
190.459
239.747
228.386
273.484
5.75108
18.0607
15.8489
21.4015
20.8523
23.888
23.423
25.1638
24.8696
25.7842
25.8062
26.0659
26.4646
26.0702
27.0592
25.9765
27.3469
26.2752
26.9835
26.5051
26.7517
26.4589
26.641
26.2521
26.4209
25.8508
25.9257
25.3229
25.0469
24.4976
23.7027
23.1881
21.717
21.1892
18.8458
18.1126
14.9574
13.5612
9.84819
7.53891
3.30901
0.0839594
-4.49836
-8.51895
-12.9756
-17.3726
-20.8562
-24.6051
-26.2435
-28.2951
-27.3123
-27.2062
-23.449
-21.3437
-15.8479
-12.3369
-6.54402
-2.61558
2.512
6.13886
10.0898
13.1312
15.7344
18.0342
19.5333
21.3265
21.9508
23.3833
23.3775
24.5539
24.2948
24.9301
24.5294
24.8666
24.3542
24.5343
23.9065
23.8713
23.2914
22.8693
22.4154
21.6727
21.2893
20.1468
19.9003
18.143
18.0162
15.8066
15.3197
13.0924
12.0829
9.81142
8.36016
6.03061
4.15889
1.81244
-0.405719
-2.68114
-5.13964
-7.20967
-9.75866
-11.43
-13.949
-14.9258
-17.2713
-17.4853
-19.3219
-19.1148
-19.9669
-19.2731
-19.3622
-18.4826
-17.9302
-17.0278
-16.0703
-15.2513
-14.3391
-13.7053
-12.7786
-12.5921
-11.4182
-11.8075
-10.4404
-10.8413
-9.96109
-10.1957
-9.61014
-9.68139
-9.25816
-9.21718
-8.92353
-8.7795
-8.64436
-8.33837
-8.46425
-7.85927
-8.36913
-7.34539
-8.38978
-6.98586
-8.00408
-7.12024
-7.68496
-7.13177
-7.39747
-7.03899
-7.1058
-6.87756
-6.79413
-6.67922
-6.41059
-6.40859
-5.87106
-6.20185
-5.1123
-5.81051
-4.43376
-4.90508
-3.7153
-3.89835
-2.67864
-2.56333
-1.2754
-0.860746
0.641357
1.30194
3.14247
4.14015
6.33833
7.89963
10.4032
12.7663
15.5628
18.9547
22.1887
26.6372
30.7771
35.8982
41.5974
47.1771
55.0231
60.9704
71.443
77.7044
91.4913
97.4614
116.3
119.523
149.949
143.5
184.68
182.173
222.765
9.15627
20.1119
17.1883
21.8063
21.4635
23.8037
23.6931
25.1407
24.987
25.8183
25.8111
26.1156
26.418
26.1365
26.8672
26.1628
26.9625
26.4594
26.714
26.5444
26.6328
26.4823
26.5058
26.2324
26.2984
25.9126
25.8245
25.449
25.0577
24.6975
23.9129
23.5592
22.2444
21.8015
19.8697
19.1038
16.5749
15.1024
11.8993
9.58139
5.635
2.36205
-2.22469
-6.44391
-11.2925
-16.0961
-20.5232
-24.8855
-27.7199
-30.3489
-30.4188
-30.4498
-27.198
-24.4248
-18.7202
-14.2659
-8.11731
-3.50955
2.07495
5.98933
10.2775
13.3601
16.3014
18.4442
20.2261
21.7879
22.6904
23.8527
24.1568
25.035
24.927
25.5187
25.1679
25.473
24.9804
25.091
24.5412
24.3927
23.8825
23.437
22.9563
22.1956
21.7739
20.6564
20.3401
18.7909
18.4367
16.6558
15.9763
14.0545
12.9569
10.8741
9.40026
7.17244
5.31441
2.97931
0.769214
-1.57102
-4.04451
-6.25515
-8.84044
-10.712
-13.2698
-14.5971
-16.8632
-17.5984
-19.2572
-19.4408
-20.3235
-19.8652
-20.0714
-19.0433
-18.7313
-17.4286
-16.7472
-15.4872
-14.6528
-13.7423
-12.7877
-12.3712
-11.2791
-11.2264
-10.0982
-10.2121
-9.52376
-9.4156
-9.06471
-8.88544
-8.69304
-8.48523
-8.39009
-8.14485
-8.16577
-7.83558
-8.04707
-7.51631
-7.98642
-7.17927
-7.87808
-6.99462
-7.54865
-7.09592
-7.26511
-7.03574
-7.05824
-6.88824
-6.83415
-6.67847
-6.57847
-6.43267
-6.26485
-6.19515
-5.72348
-5.88838
-5.05591
-5.41312
-4.31451
-4.74971
-3.52439
-3.70002
-2.44702
-2.30863
-0.937084
-0.531048
1.10624
1.74646
3.75767
4.71906
7.0927
8.63863
11.3458
13.6698
16.7903
20.0292
23.7577
27.9545
32.7057
37.7206
44.063
49.7219
58.1683
64.3679
75.4588
81.965
96.4151
102.523
122.159
124.376
152.318
148.972
180.18
176.339
205.14
8.28129
18.4793
15.6863
20.4316
20.0901
22.7585
22.7926
24.4019
24.5078
25.3508
25.6364
25.8404
26.4108
26.0574
26.9334
26.2516
27.0805
26.701
26.8686
26.8617
26.8317
26.9256
26.7812
26.8193
26.662
26.6218
26.3816
26.2906
25.8424
25.7372
24.956
24.8106
23.5657
23.2846
21.4885
20.8572
18.4746
17.2056
14.1666
11.9721
8.18582
4.83397
0.285748
-4.29988
-9.42058
-14.9313
-20.0422
-25.5408
-29.4783
-33.5021
-34.6247
-35.6037
-32.9993
-30.629
-24.9983
-20.0767
-13.2129
-7.77914
-1.43477
3.42728
8.28902
12.1042
15.3537
17.9391
19.7896
21.6415
22.5319
23.8142
24.1012
25.0382
24.9383
25.471
25.2225
25.4791
25.0909
25.1614
24.7414
24.5767
24.2106
23.7772
23.4804
22.7443
22.5064
21.4238
21.2361
19.7617
19.5012
17.77
17.1643
15.3319
14.2988
12.295
10.8212
8.65474
6.72256
4.41677
2.05602
-0.330322
-3.02691
-5.37413
-8.26308
-10.3617
-13.2324
-14.8565
-17.4218
-18.3895
-20.356
-20.6261
-21.6331
-21.228
-21.2317
-20.3574
-19.6207
-18.5044
-17.3641
-16.3098
-15.0747
-14.3323
-13.1363
-12.8261
-11.7208
-11.7228
-10.8359
-10.6987
-10.3657
-10.0939
-9.9543
-9.59816
-9.57908
-9.14244
-9.2327
-8.7001
-8.91005
-8.28726
-8.65841
-7.88313
-8.47139
-7.53127
-8.27308
-7.34956
-7.81684
-7.48198
-7.50175
-7.49924
-7.25078
-7.43326
-7.01733
-7.29714
-6.81036
-7.10208
-6.5749
-6.9208
-6.19672
-6.69806
-5.74584
-6.3307
-5.29287
-5.61762
-4.83876
-4.84383
-4.0688
-3.90191
-2.96942
-2.69235
-1.51913
-1.06191
0.36064
1.14313
2.80665
4.05482
5.99875
7.83404
10.1479
12.6619
15.549
18.7145
22.5639
26.241
31.4643
35.5329
42.6371
46.9848
56.4397
60.9541
73.4261
77.2456
94.93
95.6326
120.228
118.316
146.763
146.675
173.691
11.9277
20.1148
17.3206
21.4925
20.8731
23.138
23.1811
24.5042
24.6771
25.3836
25.6589
25.874
26.3352
26.0989
26.7633
26.3076
26.8472
26.6705
26.6973
26.7655
26.694
26.8157
26.637
26.7464
26.5179
26.5786
26.2885
26.323
25.8788
25.9108
25.2138
25.2076
24.1619
24.0062
22.552
22.0308
20.1069
18.9405
16.4034
14.333
10.9867
7.72219
3.40137
-1.26923
-6.58494
-12.558
-18.5361
-25.0523
-30.4087
-35.6204
-38.3204
-40.1642
-38.5304
-35.9258
-29.9942
-23.8667
-16.3833
-9.84943
-2.88867
2.64731
7.9255
12.0776
15.7905
18.3834
20.4734
22.1981
23.3452
24.4427
24.9556
25.7532
25.8035
26.2492
26.0414
26.2919
25.8755
25.9189
25.4976
25.2647
24.8897
24.4107
24.0852
23.3399
23.0841
22.0377
21.8288
20.4962
20.1445
18.7089
17.9889
16.4283
15.3371
13.57
12.0663
10.0827
8.13718
5.9266
3.5539
1.16842
-1.56614
-4.01427
-6.97121
-9.28427
-12.2497
-14.2191
-16.8602
-18.3101
-20.2725
-21.0545
-22.1716
-22.1186
-22.3793
-21.4772
-20.9633
-19.5128
-18.4168
-16.9493
-15.6513
-14.5468
-13.2522
-12.6431
-11.4507
-11.2059
-10.2063
-10.0787
-9.42542
-9.24012
-8.98764
-8.71314
-8.69434
-8.35023
-8.45619
-8.05684
-8.26315
-7.78876
-8.14951
-7.53144
-8.06591
-7.25641
-7.89875
-7.1914
-7.51351
-7.30712
-7.2241
-7.28961
-7.01101
-7.20997
-6.8089
-7.06997
-6.60825
-6.89434
-6.3717
-6.67614
-6.03327
-6.42165
-5.61199
-6.03175
-5.17311
-5.42747
-4.60615
-4.66826
-3.76572
-3.66885
-2.64709
-2.34784
-1.14915
-0.637548
0.818426
1.61086
3.34161
4.57466
6.61697
8.40032
10.8669
13.2609
16.3691
19.3843
23.4624
26.9894
32.5102
36.3949
43.7649
47.9121
57.5353
61.7304
74.3188
77.5354
94.4623
94.7862
116.478
114.13
136.896
135.755
157.17
11.7273
19.9743
16.7064
21.3276
20.2467
22.8979
22.7015
24.2706
24.4048
25.2212
25.5637
25.805
26.3525
26.1322
26.8428
26.4698
26.9786
26.8928
26.9515
27.0453
26.9576
27.1474
26.9516
27.1685
26.9039
27.1072
26.7764
26.9445
26.4929
26.6677
25.9845
26.123
25.1466
25.1325
23.8131
23.4577
21.7208
20.7835
18.4692
16.6278
13.5197
10.4104
6.25119
1.54306
-3.88835
-10.2834
-16.8595
-24.3804
-31.1911
-38.3313
-43.0537
-46.8295
-46.3512
-44.393
-38.7149
-32.2113
-23.4106
-15.743
-7.28326
-0.44291
5.95411
11.0048
15.285
18.3895
20.4827
22.4144
23.4796
24.6097
24.9725
25.8417
25.8047
26.2158
26.0071
26.1919
25.8464
25.8533
25.5531
25.3208
25.106
24.6441
24.4969
23.7701
23.6831
22.6736
22.5801
21.3383
21.0436
19.692
19.0754
17.5772
16.5853
14.8878
13.4542
11.5215
9.60084
7.41391
4.97998
2.5528
-0.33436
-2.92952
-6.14623
-8.71951
-12.0299
-14.3469
-17.4035
-19.1494
-21.6062
-22.4989
-23.885
-23.8164
-23.9532
-23.0465
-22.1085
-20.7048
-19.1502
-17.7122
-16.0266
-14.9765
-13.4573
-12.9579
-11.7706
-11.6496
-10.8575
-10.7066
-10.3632
-10.1046
-9.97525
-9.6024
-9.65742
-9.16473
-9.31187
-8.71024
-8.97021
-8.28365
-8.68078
-7.9132
-8.46226
-7.60596
-8.19913
-7.51121
-7.75914
-7.6194
-7.46181
-7.62676
-7.25762
-7.56608
-7.06767
-7.49038
-6.89567
-7.35176
-6.74054
-7.21371
-6.50442
-7.02223
-6.25169
-6.7126
-6.02825
-6.22583
-5.6552
-5.72535
-5.09974
-5.06124
-4.351
-4.17816
-3.32457
-2.99747
-1.95053
-1.39282
-0.137833
0.748837
2.27952
3.56384
5.48476
7.19922
9.70455
11.8331
15.2316
17.7059
22.3416
25.0754
31.3668
34.272
42.6664
45.5582
56.7931
58.9335
74.491
74.2656
93.7516
94.1807
114.591
115.095
135.132
14.1976
21.8846
18.3184
22.6636
21.1832
23.6538
23.2109
24.6199
24.6425
25.3693
25.631
25.8736
26.2971
26.1813
26.6829
26.4892
26.8066
26.8129
26.7585
26.946
26.7873
27.0369
26.7835
27.0671
26.7543
27.0382
26.6808
26.9709
26.5382
26.8319
26.2506
26.5126
25.7316
25.8481
24.8215
24.6204
23.2775
22.5287
20.7188
19.1233
16.5573
13.7117
10.0137
5.47441
0.206073
-6.43281
-13.6338
-22.3552
-30.8836
-39.9739
-47.1507
-52.9661
-54.8733
-53.7745
-48.0831
-39.9346
-29.8812
-20.3804
-10.9578
-2.84625
4.32526
10.2939
15.2685
18.9566
21.219
23.1378
24.3919
25.6067
25.9538
26.8849
26.9159
27.2281
27.0924
27.216
26.8543
26.8049
26.4028
26.1117
25.8342
25.3282
25.1455
24.3891
24.3123
23.3301
23.2175
22.1329
21.7978
20.6638
20.01
18.7676
17.7541
16.3135
14.8722
13.167
11.2433
9.21569
6.76816
4.39986
1.4663
-1.19846
-4.51159
-7.28766
-10.7619
-13.422
-16.7006
-18.956
-21.6061
-23.1337
-24.8266
-25.2901
-25.8165
-25.1138
-24.4554
-22.7746
-21.0733
-19.1799
-17.1841
-15.7098
-13.8376
-12.9554
-11.4897
-11.0396
-10.0295
-9.79061
-9.13746
-8.92934
-8.77561
-8.46579
-8.63649
-8.25296
-8.52037
-8.00229
-8.33955
-7.75797
-8.23555
-7.55477
-8.15289
-7.33197
-7.9325
-7.30994
-7.54904
-7.44717
-7.24805
-7.45733
-7.06461
-7.41564
-6.88801
-7.34058
-6.71299
-7.21454
-6.55973
-7.0791
-6.35935
-6.8814
-6.14265
-6.5702
-5.91766
-6.11362
-5.55776
-5.6047
-5.01135
-4.92272
-4.27299
-4.03997
-3.26847
-2.88962
-1.93366
-1.35028
-0.173633
0.693375
2.15658
3.37125
5.23666
6.8134
9.29111
11.214
14.5942
16.7652
21.4181
23.7708
30.0229
32.4731
40.7128
42.9882
53.9628
55.0231
69.5557
69.3466
85.7588
85.6631
102.862
103.021
119.998
14.2302
22.3392
18.1909
23.0663
20.9976
23.9665
23.0903
24.8143
24.6198
25.4952
25.6945
25.9925
26.4199
26.3411
26.8218
26.6535
27.0397
27.0219
27.0213
27.1914
27.0282
27.3092
27.042
27.3886
27.0417
27.4174
27.0127
27.3926
26.9189
27.3164
26.7297
27.0958
26.3619
26.6024
25.6776
25.6307
24.4587
23.9146
22.3433
21.0174
18.7772
16.2547
12.9168
8.64773
3.59585
-2.97946
-10.305
-19.5008
-29.3855
-40.7015
-50.9223
-60.3787
-65.3623
-66.7227
-61.3575
-53.0013
-40.7334
-29.0666
-16.89
-6.7186
2.02306
9.24072
15.0535
19.5584
21.9584
23.7003
24.8024
25.8645
26.0315
26.9513
26.7952
27.147
26.8628
27.0494
26.6481
26.5794
26.3912
26.0519
25.9567
25.4422
25.4728
24.6999
24.7812
23.8755
23.8132
22.842
22.5481
21.5095
20.9355
19.7805
18.8741
17.5231
16.1922
14.5728
12.7518
10.7887
8.3985
6.04209
3.07497
0.330323
-3.15981
-6.15639
-9.93762
-12.9551
-16.6896
-19.323
-22.5889
-24.4006
-26.5257
-27.1668
-27.7095
-27.0008
-25.8784
-24.1874
-21.9094
-19.8647
-17.3641
-15.8375
-13.7147
-12.9763
-11.5579
-11.3593
-10.7075
-10.5748
-10.2427
-10.0341
-9.81421
-9.50864
-9.59119
-9.13676
-9.35077
-8.69241
-8.96775
-8.21305
-8.62527
-7.88133
-8.40654
-7.61495
-8.15275
-7.54022
-7.72698
-7.663
-7.42645
-7.6825
-7.24253
-7.65259
-7.08797
-7.60883
-6.95074
-7.51262
-6.84923
-7.42959
-6.71338
-7.30306
-6.58734
-7.08847
-6.53601
-6.73058
-6.29159
-6.40467
-5.92694
-5.96935
-5.42522
-5.39835
-4.75324
-4.62109
-3.82814
-3.53848
-2.58517
-2.0591
-0.868466
-0.0926469
1.47184
2.48711
4.58364
5.84618
8.68926
10.1539
14.0903
15.6482
21.046
22.5863
29.8887
31.2391
41.1453
41.6592
54.1567
55.2089
69.4242
70.9309
86.0914
87.2417
103.105
16.444
24.4403
19.7457
24.5393
21.9997
24.907
23.6787
25.3337
24.9137
25.7504
25.8111
26.084
26.4294
26.3454
26.7578
26.5976
26.9242
26.9354
26.8798
27.1152
26.883
27.1961
26.8862
27.2589
26.901
27.3063
26.9208
27.372
26.9385
27.4111
26.9126
27.3603
26.7849
27.1302
26.4556
26.5461
25.7289
25.3903
24.3045
23.2776
21.6489
19.5416
16.9079
13.1488
8.70429
2.33572
-5.13161
-15.0775
-26.0845
-39.5479
-53.4624
-67.2383
-76.8735
-81.745
-78.5939
-68.5719
-53.5952
-39.2272
-25.0338
-12.3068
-2.09753
7.0348
13.7636
20.0921
23.1225
24.8871
26.0954
27.0175
27.2466
28.3053
28.167
28.4983
28.2762
28.2908
27.8944
27.5794
27.3463
26.8631
26.7448
26.0146
26.1131
25.2506
25.3427
24.4592
24.4403
23.5254
23.3243
22.4028
21.8659
20.923
20.0453
18.9396
17.6451
16.2641
14.4735
12.7022
10.3118
8.04607
5.02615
2.23858
-1.38667
-4.58467
-8.60327
-11.9843
-16.0706
-19.2231
-22.8896
-25.3864
-28.0845
-29.3861
-30.6061
-30.323
-29.7784
-27.887
-25.4225
-22.7017
-19.5842
-17.4201
-14.5166
-13.1005
-11.078
-10.4477
-9.27291
-9.18194
-8.53816
-8.3648
-8.3202
-8.07351
-8.40764
-8.1569
-8.56729
-8.04202
-8.40236
-7.74707
-8.30324
-7.58133
-8.227
-7.345
-7.98133
-7.33988
-7.57929
-7.52308
-7.2686
-7.58242
-7.09659
-7.56254
-6.94773
-7.5399
-6.80474
-7.48405
-6.69337
-7.39267
-6.60353
-7.29092
-6.50559
-7.06771
-6.46876
-6.72172
-6.33924
-6.39876
-6.03977
-5.9738
-5.62384
-5.43836
-5.03634
-4.76219
-4.22938
-3.85854
-3.13246
-2.6207
-1.62206
-0.926435
0.424107
1.30326
3.18911
4.2204
6.92369
7.94277
11.7426
12.7952
17.956
18.9538
25.6575
26.554
35.2614
36.2126
46.6227
47.7338
59.6565
60.8865
74.0976
75.1412
89.239
16.3883
25.3619
20.0014
25.2133
22.2849
25.5005
23.8864
25.8797
25.0725
26.2116
25.9683
26.4604
26.6251
26.6301
26.9967
26.8468
27.2016
27.1935
27.0983
27.3867
27.0813
27.4916
27.0631
27.5763
27.0936
27.5791
27.1506
27.6432
27.1729
27.7132
27.2107
27.7431
27.1894
27.6417
27.03
27.2523
26.5767
26.3985
25.5387
24.742
23.4497
21.6896
19.5144
16.2667
12.446
6.81
-0.0164746
-9.57972
-21.3629
-36.6019
-53.7635
-72.5104
-88.1919
-99.6689
-101.469
-91.3052
-73.4656
-53.0519
-34.8219
-18.415
-5.6487
5.40203
12.9397
21.1793
24.3056
25.7507
26.6984
27.4393
27.4317
28.0783
27.8633
28.1992
28.0121
27.8352
27.6292
27.2958
27.2466
26.699
26.8909
26.1301
26.3998
25.5714
25.7795
24.9585
25.0105
24.183
23.9911
23.2421
22.7133
21.9221
21.1136
20.1582
18.9802
17.7404
16.1022
14.4855
12.2521
10.1062
7.19312
4.44193
0.785583
-2.51446
-6.74324
-10.391
-14.9201
-18.5066
-22.8377
-25.8254
-29.1488
-31.0008
-32.5256
-32.6303
-31.5797
-29.8811
-26.5497
-23.575
-19.5749
-17.4027
-14.1758
-12.8724
-11.1413
-10.7623
-10.2052
-10.3616
-9.96794
-9.92863
-9.4893
-9.09525
-9.35244
-9.013
-9.48347
-8.64181
-9.01715
-7.98493
-8.51018
-7.7889
-8.38271
-7.60105
-8.14675
-7.50963
-7.69103
-7.65226
-7.38976
-7.7084
-7.22125
-7.71218
-7.0847
-7.69134
-6.95826
-7.64644
-6.90492
-7.6011
-6.82416
-7.55926
-6.7922
-7.41575
-6.88734
-7.10735
-6.82843
-6.90465
-6.63414
-6.64091
-6.38109
-6.30289
-6.0125
-5.87595
-5.46392
-5.26998
-4.71351
-4.43689
-3.62322
-3.29957
-2.08724
-1.72712
-0.0499126
0.324791
2.72141
3.14314
6.33707
6.77447
11.1424
11.5948
17.4315
17.8802
25.3762
26.0742
35.2421
36.3821
46.9536
48.5497
60.3939
61.7361
75.2035
18.5063
27.3075
21.5274
26.6053
23.2708
26.4176
24.4669
26.405
25.412
26.4557
26.1526
26.5318
26.6869
26.6352
26.974
26.7962
27.1356
27.1005
27.0722
27.2715
26.993
27.3757
26.9428
27.4661
26.9353
27.522
26.9786
27.6328
27.0936
27.7413
27.2338
27.832
27.3856
27.8976
27.4904
27.7736
27.3858
27.3317
26.8801
26.3093
25.557
24.1829
22.6867
20.0152
17.0119
12.1393
6.26082
-2.62765
-13.8897
-30.1604
-50.1853
-73.2865
-96.1297
-116.053
-126.373
-118.089
-96.6427
-72.8615
-50.4577
-30.2066
-15.0674
0.223971
7.98839
21.4158
23.1623
28.8137
27.8577
28.9136
28.9178
29.4297
29.6999
29.8543
29.8623
29.4425
29.0262
28.2987
28.2407
27.3464
27.4939
26.595
26.8192
25.9824
26.1493
25.3586
25.4326
24.7333
24.5047
23.939
23.4176
22.8323
22.0869
21.369
20.2872
19.2963
17.7468
16.3717
14.2256
12.2491
9.37516
6.65836
2.90021
-0.588707
-5.09193
-9.13609
-14.1568
-18.2831
-23.2514
-27.0013
-31.1606
-33.8235
-36.4364
-37.2196
-37.3548
-35.74
-32.6848
-28.5263
-23.4502
-20.1742
-15.6515
-12.8651
-9.97936
-8.89269
-7.62179
-7.99088
-7.52492
-7.67024
-7.6038
-7.3931
-7.77333
-8.00156
-8.60944
-8.33714
-8.57985
-7.80452
-8.29611
-7.53362
-8.25827
-7.33053
-8.03369
-7.31742
-7.60909
-7.51152
-7.28863
-7.61622
-7.1079
-7.64923
-6.97115
-7.66358
-6.85625
-7.65641
-6.79193
-7.61172
-6.74462
-7.59412
-6.73981
-7.48145
-6.8247
-7.1905
-6.92684
-6.98523
-6.80524
-6.74772
-6.63249
-6.46956
-6.35748
-6.14558
-5.9733
-5.7266
-5.44764
-5.1415
-4.59196
-4.23723
-3.36321
-3.03153
-1.62564
-1.37237
0.695273
0.911862
3.76706
3.87114
7.89412
7.90705
12.9199
13.0118
19.5566
19.6385
27.8329
27.9446
37.589
37.9126
49.0536
49.307
62.1008
18.4205
28.5489
21.8531
27.5678
23.8348
27.1778
25.0769
26.9878
25.9521
26.9171
26.6018
26.9049
27.0625
26.9284
27.3212
27.0657
27.4616
27.3406
27.2804
27.5608
27.1751
27.6709
27.0923
27.7128
27.1145
27.6685
27.1106
27.7185
27.2034
27.8493
27.3483
28.0205
27.5512
28.1477
27.7608
28.1336
27.8437
27.8629
27.5804
27.1415
26.6672
25.5711
24.5081
22.3776
20.0678
16.1205
11.2585
3.67225
-6.58821
-21.5963
-41.8319
-67.111
-95.1687
-124.724
-147.988
-151.596
-125.08
-93.5239
-63.6111
-37.8239
-20.6455
-2.79855
5.68079
18.1459
26.5258
26.5655
30.3235
29.0209
28.4387
28.7839
28.6725
29.1117
29.0315
28.9754
28.7089
28.0999
28.0992
27.3477
27.6113
26.7247
27.1171
26.2632
26.6033
25.821
25.9272
25.3028
25.1127
24.6419
24.1418
23.6808
23.0072
22.4327
21.4668
20.645
19.2775
18.0881
16.1799
14.4057
11.7442
9.19832
5.57353
2.14782
-2.4202
-6.47571
-11.7766
-16.2799
-21.7933
-26.0134
-30.9618
-34.4551
-37.7632
-39.6539
-39.7587
-39.2042
-34.938
-30.5253
-23.2618
-20.1135
-15.5724
-12.8034
-10.5653
-9.32671
-9.03968
-9.53089
-10.0781
-9.85853
-9.21935
-8.22143
-8.36923
-8.47983
-9.96785
-8.76181
-9.28584
-7.6673
-8.30466
-7.55827
-8.49005
-7.63917
-8.22649
-7.43073
-7.64409
-7.61682
-7.34594
-7.72615
-7.19096
-7.77226
-7.03529
-7.77345
-6.92078
-7.78309
-6.88305
-7.75585
-6.87024
-7.73398
-6.91559
-7.71693
-7.08517
-7.41662
-7.23355
-7.27444
-7.20006
-7.12138
-7.15561
-6.9929
-7.01904
-6.84721
-6.77945
-6.59219
-6.52245
-6.25023
-6.05073
-5.79187
-5.19224
-4.98719
-3.99813
-4.0465
-2.35156
-2.517
-0.233725
-0.557946
2.69201
2.40299
6.2966
6.20425
11.3917
11.4482
18.2387
18.7804
26.5711
27.4967
36.9347
37.5665
49.5287
20.5473
30.2779
23.2804
28.7309
24.7206
27.8909
25.6271
27.3765
26.3052
27.0418
26.8614
26.8801
27.2093
26.8758
27.3833
26.968
27.5055
27.3004
27.2494
27.5185
27.077
27.6467
26.9697
27.7047
26.9047
27.725
26.9646
27.7349
27.1338
27.7945
27.2578
27.9603
27.5377
28.149
27.9106
28.2377
28.18
28.2074
28.2424
27.8975
27.8179
26.9801
26.4039
24.724
23.0872
19.935
16.1807
9.95092
1.48148
-11.7312
-29.7114
-54.5058
-84.5981
-118.181
-149.801
-164.475
-149.507
-119.706
-86.5967
-53.7675
-31.6792
-15.8639
-0.45462
12.0132
24.1338
28.8255
29.588
31.837
30.2134
30.4638
31.0031
30.9905
31.2519
30.4009
30.2172
28.9619
28.9144
27.8201
28.0673
26.9537
27.3627
26.474
26.8558
25.9735
26.2643
25.5799
25.5351
25.1076
24.6678
24.369
23.7718
23.4233
22.581
21.9996
20.7629
19.8371
18.0839
16.5975
14.1376
11.8003
8.25511
4.85644
0.122323
-4.33172
-10.1268
-15.1372
-21.6125
-26.625
-32.4355
-36.8716
-41.4558
-44.4227
-46.2968
-46.8946
-44.9348
-39.3291
-30.1495
-24.4594
-18.0459
-12.5875
-8.13113
-5.89159
-3.95033
-5.38066
-5.48491
-7.94088
-7.71895
-6.95019
-6.37847
-6.92571
-8.51693
-9.28914
-9.41823
-8.11801
-8.09105
-7.18713
-8.11704
-7.34099
-8.19613
-7.35426
-7.61659
-7.39726
-7.3081
-7.55587
-7.13114
-7.68686
-6.98346
-7.7235
-6.89145
-7.73529
-6.8571
-7.72445
-6.85697
-7.70838
-6.86297
-7.76144
-7.05314
-7.56732
-7.28169
-7.37596
-7.33804
-7.23096
-7.34483
-7.11495
-7.29079
-7.01458
-7.16414
-6.93681
-7.11248
-6.87427
-6.84383
-6.52469
-6.34649
-6.09766
-5.34052
-5.43712
-4.16439
-4.33086
-2.46712
-3.21312
-0.143579
-0.780365
2.36312
1.77453
6.27423
5.30042
11.5253
10.5588
17.9966
16.9771
25.9121
24.8149
36.8824
20.3829
31.772
23.9234
29.7991
25.6466
28.6761
26.5914
27.9231
27.1698
27.4478
27.5409
27.2201
27.7539
27.1445
27.8606
27.1298
27.7599
27.586
27.3996
27.8479
27.1447
27.9733
26.9787
28.0004
26.863
27.9427
26.8784
27.9585
26.9781
28.0144
27.2908
28.0374
27.5414
28.2574
27.9868
28.4437
28.449
28.4373
28.5813
28.246
28.327
27.6432
27.3433
26.0434
24.8627
22.4009
19.5151
14.6365
8.0125
-2.33964
-17.1228
-37.9242
-63.568
-94.5188
-127.676
-152.316
-148.815
-120.55
-91.9959
-60.0665
-34.6903
-20.5035
-5.47942
8.25151
20.8563
29.264
26.9101
30.0507
29.2225
28.6829
28.6889
29.5349
30.2661
30.047
29.8637
29.1669
28.7961
27.7806
28.2717
27.0925
27.6274
26.6982
27.2525
26.3863
26.6209
26.0352
26.014
25.5857
25.1805
24.9631
24.4248
24.1868
23.4417
23.0325
21.9813
21.2549
19.7524
18.4648
16.297
14.2372
10.9814
7.78466
3.14976
-1.02985
-6.98731
-12.2183
-18.852
-24.1188
-30.5186
-35.5703
-40.8322
-45.0088
-47.2943
-50.289
-48.0023
-43.4542
-29.2439
-24.3761
-20.0357
-14.755
-10.4352
-7.41124
-6.7794
-7.42122
-9.25556
-10.4962
-9.19971
-7.38042
-6.4887
-6.73136
-10.1047
-9.58202
-10.1464
-7.55652
-7.96099
-7.19178
-8.5773
-7.79651
-8.35703
-7.38956
-7.59306
-7.48659
-7.32212
-7.74436
-7.1226
-7.81746
-6.94933
-7.81738
-6.87779
-7.82332
-6.87653
-7.80748
-6.88176
-7.78864
-6.93898
-7.78048
-7.17447
-7.66288
-7.39982
-7.47925
-7.55188
-7.35473
-7.6216
-7.37647
-7.63822
-7.36669
-7.53051
-7.29755
-7.56224
-7.34329
-7.58749
-7.43311
-7.31854
-7.03062
-6.67981
-6.97692
-5.87247
-6.26649
-4.81537
-5.93003
-3.56656
-4.11594
-2.35518
-2.87839
0.260417
-1.14079
4.15502
3.84629
8.66191
9.08748
14.4649
14.5301
23.8673
22.2898
32.7977
24.9985
30.4259
26.3256
28.8752
27.1749
27.9327
27.6191
27.4369
27.7988