/*--------------------------------*- C++ -*----------------------------------*\
| =========                 |                                                 |
| \\      /  F ield         | OpenFOAM: The Open Source CFD Toolbox           |
|  \\    /   O peration     | Version:  4.1                                   |
|   \\  /    A nd           | Web:      www.OpenFOAM.org                      |
|    \\/     M anipulation  |                                                 |
\*---------------------------------------------------------------------------*/
FoamFile
{
    version     2.0;
    format      ascii;
    class       volScalarField;
    location    "1458";
    object      p;
}
// * * * * * * * * * * * * * * * * * * * * * * * * * * * * * * * * * * * * * //

dimensions      [0 2 -2 0 0 0 0];

internalField   nonuniform List<scalar> 
204246
(
135.138
5.36473
53.873
42.3464
40.7161
50.3383
43.7536
55.798
46.8433
60.4254
49.2667
64.3228
49.496
65.6408
52.4052
64.1999
59.4688
54.0199
66.4827
51.9541
67.918
52.4594
66.6183
53.2116
66.4546
52.924
67.2232
51.0053
67.9769
50.5555
67.7849
50.8113
66.6535
53.1757
62.6545
59.1203
52.2005
64.6322
50.7121
64.0955
50.8982
64.0052
50.4147
64.7252
48.4297
65.3749
48.102
64.8259
49.164
62.2511
51.1103
59.4644
56.4568
49.0319
61.5588
47.2991
60.6131
47.0751
60.005
45.9994
60.0191
43.2089
59.6524
41.9712
57.4768
42.4997
53.2936
42.0214
49.0241
44.3027
37.135
44.0622
34.0676
40.5805
29.5111
36.4441
24.1614
32.3
17.2068
27.6435
11.8415
22.2468
7.68823
16.0314
4.53194
10.2975
6.90002
-1.96634
8.96631
-3.78121
10.0922
-3.73329
12.822
-3.86637
16.2589
-1.30159
18.8186
2.43852
20.7499
6.81014
21.5196
10.4347
23.159
13.5529
23.2986
18.9031
15.3939
25.5615
13.8028
28.5031
12.0957
29.9425
12.9407
29.8081
13.4438
30.0357
13.7089
30.1915
14.214
29.874
15.9007
27.4673
22.0131
17.2019
28.53
14.7842
30.1542
14.289
30.6175
14.2381
30.7953
14.3
30.9004
14.3985
30.984
14.9315
30.521
16.6016
28.078
22.7803
17.7729
29.2557
15.5497
30.9111
15.3234
31.6415
15.4497
32.1098
15.8471
32.5903
16.4751
33.1159
17.5483
33.4188
20.0756
31.8927
27.2606
23.1347
35.149
22.5714
38.6104
24.611
41.0314
28.2596
43.6895
32.9205
47.5632
38.6742
52.6702
45.6592
58.9779
54.6388
66.9606
66.1954
76.4504
82.976
85.212
99.074
103.604
116.918
126.659
140.037
154.371
169.279
189.213
207.047
235.331
257.992
301.893
330.837
418.569
434.492
641.533
45.0854
32.0065
33.2861
40.698
37.8296
46.0946
43.6944
51.4409
48.2113
55.2275
51.4872
58.1794
54.2517
59.0611
57.0875
58.0104
61.2722
56.4289
61.8908
57.0416
61.9375
57.773
61.699
57.6724
61.8879
57.2532
62.2869
56.7219
61.9777
56.6818
61.4511
57.0267
60.2417
58.3545
58.1059
61.0247
55.4402
60.3158
55.7396
59.691
55.4454
59.6708
54.9111
59.9326
54.336
59.4628
54.3731
58.6516
54.926
57.3938
55.7023
55.3316
58.2724
52.5569
57.3527
52.6163
56.4224
51.9636
55.9679
50.9318
55.6118
49.6921
54.2301
48.8619
52.1359
48.0319
50.1139
47.2314
46.1072
47.5624
42.3988
42.4091
38.5602
39.5708
34.4575
35.5575
29.5662
31.0318
24.0626
25.4419
18.9468
19.4625
14.3617
13.4402
10.511
7.17753
9.8133
2.21775
5.27107
0.454248
4.84586
0.182452
6.40391
1.33678
8.38446
4.20134
10.9807
7.58048
13.6184
10.9291
15.8071
13.7403
17.6007
16.7107
17.9747
20.6296
16.8027
21.9797
17.3772
23.2712
17.7806
23.4837
18.5863
23.7129
18.9312
24.0356
19.1969
24.1612
19.7863
23.6941
21.2945
21.963
24.3788
19.404
24.6234
19.5191
24.7903
19.677
24.9221
19.7957
25.0158
19.9089
25.0681
20.0847
24.9564
20.6203
24.3779
22.0485
22.5864
25.1043
20.0591
25.2906
20.2471
25.5065
20.5133
25.8301
20.824
26.1397
21.2161
26.4986
21.7883
26.8402
22.7928
26.8606
24.9309
25.9438
28.771
24.5879
30.2516
26.2504
32.0521
28.564
34.3288
31.2915
37.234
34.7116
40.9305
39.2214
45.6651
45.0296
51.0618
52.7751
58.0061
62.5432
66.1781
74.9315
78.6166
87.6964
94.2526
103.779
113.458
123.921
136.954
148.543
165.716
178.535
201.74
215.166
250.422
257.062
331.786
297.226
431.905
21.1934
35.4906
34.8724
40.5084
39.2568
46.1764
43.987
51.2211
48.6975
55.2486
52.4714
58.1765
55.0034
59.0446
57.7264
58.6725
60.3053
58.0835
61.5017
57.8174
62.0655
57.9485
62.1088
57.8896
62.1367
57.6085
62.2108
57.183
62.0395
57.0019
61.5944
57.219
60.587
58.1104
58.7169
59.5007
56.7349
59.8009
55.9802
59.7315
55.509
59.6454
55.0474
59.6181
54.5748
59.335
54.4557
58.7198
54.7648
57.5713
55.4438
55.8078
56.7013
53.7549
56.803
52.7941
56.4447
51.9996
55.9486
51.0713
55.3436
49.9652
54.234
48.9954
52.5112
48.2848
49.7886
47.7102
46.4115
46.1011
42.927
43.3729
39.6009
39.3045
35.7525
35.0284
31.1087
30.2158
25.8502
24.715
20.6115
18.8327
15.6007
13.0417
11.1867
7.78189
7.55704
3.06043
4.86951
0.713847
4.50056
0.112177
5.72503
1.15607
7.80997
3.78004
10.3592
7.42293
13.031
11.2465
15.4699
14.4201
17.4306
17.2219
18.0505
19.9916
18.1807
21.6937
18.1197
22.9978
18.2645
23.6276
18.7226
23.9711
19.0667
24.2807
19.3344
24.3504
19.9138
23.9201
21.096
22.624
23.0469
20.7577
24.0487
20.0375
24.6509
19.844
24.9249
19.8597
25.0554
19.9563
25.1083
20.1551
25.0146
20.6484
24.5196
21.7658
23.1955
23.7039
21.3602
24.7203
20.7331
25.4026
20.6808
25.8475
20.8925
26.2116
21.2649
26.5847
21.8496
26.9261
22.8381
27.0087
24.6765
26.4872
27.559
25.8207
29.7374
26.6468
32.0097
28.4949
34.2542
31.3925
36.8142
35.2784
40.2906
40.0524
44.9326
46.0157
50.9613
53.4746
58.4647
62.9905
68.0772
74.6004
79.6163
88.6264
95.2321
105.471
115.137
126.398
139.941
152.47
171.047
184.926
210.581
225.259
264.967
272.889
349.049
327.778
416.559
4.69375
22.3907
24.7124
33.6496
34.1709
42.6116
41.2838
48.9182
46.8393
53.2191
51.3037
56.0014
55.1281
57.2136
57.7554
57.4413
59.6967
58.2267
60.3124
58.8205
60.2688
59.2258
60.2964
59.1806
60.3652
58.9657
60.3617
58.8078
60.0207
58.7912
59.5145
58.9951
58.7393
59.5313
57.796
59.9537
57.312
59.1166
57.3201
58.5702
57.0563
58.3238
56.7237
58.1337
56.506
57.6441
56.4807
57.0122
56.6493
56.2781
56.9016
55.251
57.2716
54.6297
56.3063
54.442
55.5321
53.8957
54.9365
53.1702
54.2479
52.4384
53.0498
51.6495
51.5149
50.5205
49.8866
49.4798
47.393
47.7717
44.8629
44.5013
41.7824
40.9673
38.1643
36.7275
33.748
31.8891
28.7326
26.2278
23.2741
20.2268
17.6872
14.2374
12.4957
8.57235
8.17111
4.38291
3.77915
1.38647
2.13298
0.642835
2.69113
1.79223
4.38717
4.63185
7.00878
8.2416
9.99071
11.7767
12.9629
14.7433
15.3844
17.286
16.8316
19.3921
18.05
20.6455
18.8968
21.2301
19.6066
21.4698
20.1915
21.7394
20.5433
22.0443
20.8618
22.1485
21.4328
21.8968
22.3679
21.2577
23.3987
20.979
23.185
21.1962
23.0846
21.4067
23.0776
21.5624
23.1015
21.7017
23.0985
21.9064
22.9717
22.3325
22.5924
23.1384
21.8763
24.0696
21.5821
23.8013
21.8244
23.7259
22.1025
23.8306
22.3994
24.0242
22.7454
24.2771
23.2429
24.5177
24.0473
24.5751
25.4511
24.6016
26.9485
25.2991
27.7211
26.7063
28.9877
28.5477
30.8604
30.7548
33.1968
33.5903
36.3071
37.2161
40.334
41.8739
45.2574
48.055
51.5181
55.7765
59.3479
65.5585
69.6932
76.6318
82.7444
90.0825
98.7421
106.574
118.156
126.469
141.675
150.462
171.028
178.113
211.165
206.048
263.537
250.401
321.498
5.96977
19.2104
23.9477
32.3033
33.9261
42.0365
41.48
48.8735
47.5296
53.534
52.0921
56.5136
55.6696
57.8306
58.2044
58.5636
59.7246
59.3509
60.2048
59.7085
60.5171
59.7666
60.7291
59.6285
60.7526
59.4531
60.6078
59.2843
60.27
59.1454
59.7992
59.1562
59.0873
59.3217
58.2797
59.2636
57.9641
58.7654
57.6304
58.4788
57.1977
58.247
56.8408
57.9722
56.6265
57.5557
56.4991
57.0433
56.5072
56.3636
56.5893
55.5637
56.4972
55.1661
55.9059
54.6656
55.4225
54.0066
54.8852
53.2963
54.1645
52.5795
53.1531
51.8451
51.7184
50.8529
49.8864
49.5238
47.8159
47.6165
45.4783
45.0861
42.5079
41.6546
38.9865
37.629
34.7331
32.8577
29.8138
27.3424
24.3005
21.3156
18.5082
15.1209
12.8754
9.23702
7.74396
4.54661
3.66159
1.40824
1.53803
0.191763
1.64037
1.09124
3.26011
3.84144
6.07238
7.66252
9.61414
11.5327
13.0688
14.8488
15.8024
17.4516
17.6553
19.3823
19.0003
20.5238
19.72
21.2464
20.2155
21.7128
20.6106
22.0679
20.9122
22.3426
21.1937
22.4086
21.6493
22.2213
22.2779
21.8338
22.8195
21.7405
22.8228
21.6887
22.9463
21.6812
23.0552
21.7418
23.1254
21.8532
23.1397
22.0442
23.0448
22.3921
22.7738
22.944
22.3574
23.4375
22.3043
23.4376
22.3168
23.6203
22.401
23.8487
22.604
24.1044
22.9136
24.3833
23.4078
24.6522
24.1826
24.7352
25.2937
25.1276
26.5554
25.8472
27.5614
27.0807
28.979
28.7632
30.862
31.0441
33.3795
33.9529
36.6473
37.6869
40.8062
42.5608
46.0264
48.7734
52.6499
56.6718
60.9842
66.4239
71.6431
78.3787
85.2494
92.9967
102.278
110.915
123.361
132.734
149.17
158.821
181.336
189.072
223.434
220.368
269.66
258.297
303.395
-1.72291
11.1192
15.7898
26.7408
28.4996
38.6895
38.1001
46.747
45.7071
51.5139
50.9169
55.0755
55.0258
56.7889
57.6056
57.8352
58.9008
59.0116
59.4682
59.563
59.7341
59.8156
59.8562
59.8704
59.7963
59.7674
59.6588
59.7079
59.3626
59.6543
59.0099
59.6077
58.5972
59.6304
58.1702
59.3804
58.1163
58.7093
58.0918
58.2091
57.8187
57.8783
57.5713
57.5343
57.4151
57.11
57.2933
56.6806
57.164
56.2586
57.1075
55.7644
56.7986
55.5899
56.1017
55.4103
55.424
54.926
54.8606
54.3425
54.2
53.7135
53.2825
52.9472
52.1742
51.9685
50.814
50.7268
49.0191
48.9869
46.8506
46.4826
44.238
43.3189
40.9145
39.4659
36.8223
34.8044
31.9541
29.2874
26.3543
23.0735
20.2497
16.4913
14.0428
10.0828
8.1855
4.60166
3.10855
0.744226
0.0538514
-0.922395
-0.460621
-0.221511
1.08516
2.396
4.1523
6.16242
7.99213
10.2912
11.754
14.0059
14.8295
16.9045
16.9721
18.9299
18.6367
19.9805
19.6786
20.4933
20.3083
20.7785
20.7348
21.0205
21.0574
21.272
21.3907
21.421
21.8331
21.4649
22.3342
21.4034
22.6896
21.6869
22.519
21.9166
22.4259
22.0894
22.3837
22.2252
22.371
22.3566
22.3499
22.5264
22.2747
22.7873
22.1362
23.124
21.9886
23.299
22.2118
23.0481
22.4474
22.9532
22.6544
22.9843
22.8791
23.0989
23.1362
23.2727
23.5146
23.5173
24.0483
23.711
24.7984
24.0966
25.4712
24.9963
26.1877
26.0022
27.2205
27.3402
28.6263
29.0351
30.5435
31.2004
33.0448
34.0398
36.2383
37.8011
40.304
42.6714
45.4675
48.863
52.0945
56.5459
60.6822
65.8079
71.5039
77.0873
84.9307
90.8809
101.351
107.616
121.402
127.366
146.214
149.426
179.858
173.409
214.59
212.083
252.675
-1.73778
10.0435
14.6503
25.6103
27.7827
38.1328
38.2032
46.6188
46.3682
51.9484
51.8739
55.5991
55.7684
57.7164
58.2626
58.9731
59.5521
60.0025
60.152
60.5291
60.4021
60.6692
60.4837
60.5466
60.3794
60.3288
60.1271
60.1334
59.7931
59.9276
59.4061
59.7691
58.9119
59.5664
58.4539
59.17
58.3883
58.635
58.2258
58.1619
57.9103
57.8218
57.6251
57.4699
57.4172
57.0881
57.2395
56.6916
57.063
56.2726
56.8453
55.86
56.4938
55.7375
55.9429
55.4735
55.3985
54.9915
54.851
54.4463
54.2052
53.8394
53.3872
53.0932
52.3418
52.1266
51.0443
50.9274
49.4844
49.2969
47.5953
47.0918
45.164
44.2373
42.0639
40.6627
38.2073
36.2282
33.5127
30.8737
27.9384
24.6706
21.651
17.9074
15.0152
11.136
8.56521
5.15483
3.11518
0.574943
-0.495163
-1.81031
-1.65139
-1.70725
-0.391333
0.732656
2.88518
4.92228
7.27787
9.73165
11.6968
14.0201
15.3002
17.1984
17.7285
19.3083
19.4388
20.3752
20.3989
20.9583
20.9232
21.2998
21.2859
21.5132
21.5509
21.6923
21.8009
21.762
22.1018
21.7922
22.3915
21.85
22.5707
22.0444
22.4356
22.2072
22.4022
22.3033
22.4226
22.4001
22.4456
22.5104
22.4451
22.6549
22.3976
22.854
22.3207
23.07
22.3039
23.1448
22.5669
22.9678
22.7762
22.9774
22.9177
23.0832
23.0924
23.2703
23.2984
23.4658
23.6447
23.703
24.1823
24.0079
24.8478
24.4856
25.5878
25.148
26.3765
26.2003
27.4521
27.593
28.9662
29.3663
31.0004
31.6496
33.6525
34.6234
36.99
38.5422
41.2437
43.5751
46.6946
49.9406
53.665
57.8659
62.6098
67.6305
73.9688
79.633
88.0767
94.2792
105.371
111.878
126.336
132.426
152.077
154.281
182.225
178.881
210.09
206.252
235.051
-10.2579
2.76683
7.3445
20.6625
22.7584
34.6772
35.0971
44.5067
44.7126
50.2479
50.7508
54.5886
55.0333
56.9077
57.5387
58.3526
58.8922
59.408
59.4932
60.0503
59.7279
60.3009
59.7933
60.3245
59.718
60.2438
59.5244
60.1457
59.2705
60.0175
58.9963
59.8542
58.715
59.6911
58.4494
59.2496
58.4897
58.6965
58.4217
58.2664
58.1717
57.8509
57.9479
57.4775
57.7578
57.1029
57.5742
56.743
57.3874
56.4244
57.1814
56.1088
56.754
56.0786
56.2107
55.8714
55.7264
55.4947
55.1872
55.0457
54.5907
54.5023
53.8886
53.8332
53.0405
53.0113
51.9259
51.9197
50.5212
50.4276
48.7952
48.3782
46.5989
45.7341
43.7386
42.3541
40.0909
38.0896
35.5278
32.8362
29.9768
26.5812
23.4912
19.5027
16.3371
12.0689
9.06241
5.03203
2.53727
-0.541633
-2.07279
-3.73966
-3.92697
-3.96631
-2.909
-1.47636
0.448818
2.9558
5.23743
8.21622
10.2529
13.0923
14.4182
16.7834
17.2758
19.1041
19.1843
20.1743
20.1996
20.5697
20.6473
20.7787
20.8887
20.9238
21.1273
21.0588
21.4481
21.2278
21.8252
21.409
22.1599
21.5902
22.4046
21.9628
22.2675
22.2133
22.1839
22.3635
22.1247
22.4783
22.0947
22.5905
22.0801
22.6966
22.0755
22.8025
22.0548
22.98
22.0881
22.9375
22.4121
22.6807
22.6495
22.5896
22.8029
22.5977
22.9511
22.6927
23.0874
22.8308
23.3436
22.9954
23.712
23.2108
24.1567
23.5761
24.6092
24.2808
25.0629
25.0546
25.8304
25.9971
26.9257
27.2101
28.376
28.84
30.2588
31.0431
32.7049
33.9541
35.8962
37.7344
40.0497
42.5684
45.4544
48.6237
52.469
56.1499
61.3712
65.441
72.546
76.8946
86.3515
90.8634
103.349
107.147
124.846
125.543
150.128
148.225
176.671
176.586
203.607
-13.1228
0.409505
4.89369
18.8064
21.4997
34.0383
35.423
43.8675
45.5061
50.8564
51.9008
55.3252
56.0086
58.1205
58.4549
59.6264
59.8516
60.6313
60.5146
61.1958
60.7507
61.3235
60.6896
61.1952
60.5014
60.9285
60.1918
60.649
59.8083
60.3413
59.4029
60.0458
58.9724
59.7149
58.6615
59.1932
58.6263
58.6594
58.4778
58.2536
58.2086
57.8445
57.9469
57.4619
57.718
57.0937
57.5066
56.7254
57.2819
56.384
57.0208
56.1426
56.5888
56.0988
56.1144
55.872
55.6986
55.5281
55.209
55.1151
54.6434
54.615
53.983
53.9889
53.1912
53.2214
52.2364
52.2466
51.0474
50.9133
49.6002
49.1244
47.665
46.8075
45.1091
43.7807
41.7802
39.8563
37.4926
34.863
32.0742
28.6976
25.5032
21.4966
18.0022
13.6791
10.1193
6.00619
2.82121
-0.506489
-2.6977
-4.72996
-5.50771
-5.9798
-5.27075
-4.12364
-1.96607
0.654915
3.56579
6.8874
9.63381
12.7376
14.6635
17.0265
17.9914
19.6051
19.9106
20.9031
20.8869
21.4068
21.338
21.6018
21.5949
21.6476
21.7641
21.6459
21.9029
21.6532
22.0974
21.7397
22.3293
21.8524
22.4317
22.1397
22.2877
22.3693
22.2139
22.4949
22.2076
22.6077
22.2035
22.7071
22.2127
22.7669
22.2308
22.8841
22.204
23.0028
22.2974
22.938
22.6167
22.7383
22.8502
22.7034
22.9826
22.7383
23.1166
22.8652
23.2598
23.0094
23.5044
23.2173
23.8464
23.4699
24.2866
23.8571
24.7367
24.4621
25.2955
25.2295
26.1312
26.2331
27.2547
27.5499
28.7456
29.2639
30.7113
31.5136
33.2376
34.4779
36.5139
38.3038
40.7694
43.1743
46.2787
49.2999
53.3691
56.8994
62.4135
66.2993
73.6678
77.814
87.449
91.6276
104.255
107.436
124.377
124.707
146.376
144.029
166.803
165.663
187.084
-24.2283
-8.41697
-3.14176
13.2725
16.0251
30.4945
32.2666
41.7551
44.002
49.2883
50.9493
54.6672
55.2861
57.681
57.7251
59.0788
59.1401
59.9725
59.7243
60.5683
59.9009
60.8218
59.9138
60.7503
59.8441
60.5818
59.6923
60.4249
59.4762
60.2551
59.1994
60.0737
58.9018
59.8124
58.6921
59.2981
58.7333
58.7711
58.6366
58.3815
58.3901
57.9881
58.1456
57.5992
57.9378
57.2284
57.7444
56.8767
57.5357
56.5795
57.2679
56.3803
56.8359
56.3782
56.38
56.2021
55.995
55.9048
55.5619
55.5459
55.0755
55.1124
54.5046
54.5834
53.8118
53.9122
52.9561
53.0275
51.9006
51.8032
50.5903
50.1894
48.8411
48.0764
46.5241
45.2846
43.452
41.6088
39.4046
36.8482
34.176
30.8361
27.6306
23.5176
19.803
15.1153
11.1264
6.31183
2.55923
-1.59658
-4.39625
-7.09006
-8.24858
-8.88974
-8.19831
-6.8251
-4.73516
-1.73378
1.24221
5.1368
8.17156
11.9289
14.1662
17.0166
18.1136
19.8816
20.1792
21.1051
20.9471
21.2609
21.0623
21.133
21.0787
21.0463
21.1889
21.0456
21.4368
21.1801
21.7692
21.4286
22.0877
21.703
22.3134
22.1147
22.2332
22.368
22.1511
22.4624
22.109
22.5424
22.054
22.6552
22.0199
22.7211
22.0332
22.7913
22.0388
22.878
22.1607
22.7674
22.4673
22.5361
22.6855
22.4519
22.7956
22.4471
22.8945
22.4745
22.9908
22.5616
23.1448
22.6865
23.3806
22.8635
23.6484
23.1774
23.8773
23.6674
24.2367
24.1703
24.7939
24.8323
25.5521
25.7151
26.5706
26.9035
27.9439
28.5096
29.7614
30.6482
32.1772
33.4613
35.3847
37.1045
39.6111
41.7449
45.1375
47.6141
52.2466
54.9744
61.2783
64.174
72.5854
75.4576
86.7206
88.858
104.394
104.202
123.651
124.081
144.505
144.986
165.052
-31.937
-14.7152
-8.61609
9.70636
13.6733
29.0018
32.2035
41.073
44.3634
50.4213
52.1388
55.766
56.3918
59.343
58.9694
60.5835
60.441
61.5116
61.0699
62.0197
61.2363
62.0348
61.0791
61.7437
60.8307
61.3375
60.415
60.9772
59.9632
60.624
59.5232
60.2764
59.1199
59.8615
58.8489
59.2939
58.8101
58.7482
58.676
58.3414
58.4156
57.9437
58.152
57.5571
57.9061
57.193
57.6835
56.842
57.4587
56.5299
57.1689
56.3595
56.7399
56.3554
56.3014
56.2097
55.9569
55.938
55.5661
55.6139
55.1201
55.2301
54.6006
54.7582
54.0044
54.173
53.3124
53.4118
52.4711
52.3774
51.4172
51.0267
49.9689
49.2439
48.003
46.8478
45.328
43.6037
41.6702
39.2252
36.7204
33.4359
30.2282
26.0775
22.1521
17.3161
12.8307
7.72803
3.22799
-1.38827
-5.07015
-8.38622
-10.4765
-11.8213
-12.0141
-11.2373
-9.29676
-6.14883
-2.60192
2.02335
6.04176
10.5119
13.6219
16.8485
18.5028
20.4094
20.9322
21.9956
21.8517
22.3497
22.0091
22.223
22.0199
21.9383
21.9945
21.6591
21.9528
21.4826
22.0333
21.6112
22.2455
21.7588
22.3871
22.1367
22.2469
22.4083
22.1655
22.5283
22.1529
22.6448
22.1194
22.7578
22.123
22.7728
22.1353
22.8516
22.1181
22.9009
22.2602
22.8059
22.5727
22.5941
22.8135
22.5299
22.9249
22.5397
23.0303
22.6009
23.1271
22.6656
23.2775
22.7998
23.4911
22.989
23.7526
23.3017
23.9905
23.7777
24.3361
24.2941
24.8822
24.9783
25.6251
25.8622
26.628
27.0097
27.9605
28.5481
29.7221
30.5914
32.0495
33.2664
35.1293
36.7216
39.1982
41.1341
44.5107
46.6874
51.3403
53.6737
59.9247
62.3703
70.6354
72.8506
83.8966
84.9421
99.4218
99.3339
115.687
115.525
132.818
132.871
149.93
-46.4975
-28.421
-20.3682
1.91383
7.37786
23.15
28.6056
38.5297
42.8592
49.0745
51.4388
55.4717
55.8645
58.8553
58.319
59.9712
59.5522
60.7505
60.0877
61.1943
60.2417
61.3372
60.3169
61.0877
60.2496
60.931
59.9978
60.7517
59.7286
60.5463
59.4257
60.3054
59.1298
59.962
58.9358
59.4268
58.9373
58.8877
58.8439
58.4848
58.6052
58.0938
58.3439
57.7092
58.1085
57.3312
57.9042
56.9877
57.684
56.7027
57.3721
56.5727
56.9572
56.5885
56.5215
56.4864
56.2053
56.2507
55.8554
55.9708
55.4656
55.6278
55.0203
55.2071
54.4867
54.6759
53.8704
53.9805
53.1212
53.0346
52.1777
51.8337
50.8957
50.2585
49.1619
48.1294
46.7785
45.2123
43.4681
41.2149
38.8865
35.7854
32.6921
28.6419
24.6553
19.6536
14.8682
9.18501
4.02849
-1.5582
-6.10291
-10.4015
-13.2049
-15.0698
-15.363
-14.3417
-12.3922
-8.90666
-5.12029
0.00551895
4.62454
9.96653
13.7684
17.6772
19.5703
21.5405
21.9827
22.7779
22.441
22.4169
21.7622
21.6906
21.3392
21.2006
21.3596
21.0587
21.47
21.1362
21.723
21.4136
22.0959
21.7439
22.3508
22.2104
22.3128
22.5047
22.1937
22.5515
22.1224
22.6159
22.0284
22.7165
22.0052
22.7605
22.0164
22.7962
22.0395
22.8321
22.1765
22.7207
22.4791
22.4859
22.6928
22.3951
22.7841
22.3655
22.8485
22.3524
22.9052
22.3622
22.9963
22.4252
23.1451
22.5544
23.2925
22.7904
23.3639
23.1653
23.5878
23.4874
23.9575
23.9179
24.464
24.5004
25.1372
25.2886
26.0634
26.3643
27.3148
27.8364
29.0267
29.7988
31.3642
32.3849
34.4914
35.7621
38.5992
40.0644
44.0066
45.5315
50.9529
52.4607
59.8332
61.1101
71.0392
71.6467
84.0585
85.117
99.3877
100.805
116.022
117.099
132.987
-61.473
-41.775
-32.3828
-5.4316
2.54268
20.1514
27.1417
37.1918
42.3085
50.5249
52.4064
57.0388
57.3194
60.6299
60.0984
61.5789
61.456
62.4457
62.0805
62.7658
61.9792
62.5716
61.6759
62.1163
61.223
61.6744
60.7014
61.2645
60.1584
60.8745
59.6925
60.4796
59.3064
60.0291
59.0286
59.4355
58.974
58.8633
58.8578
58.4345
58.6228
58.0435
58.3454
57.6555
58.0942
57.2855
57.8559
56.9437
57.6117
56.6726
57.3084
56.5323
56.9031
56.5549
56.4521
56.4981
56.1668
56.2849
55.8571
56.032
55.5174
55.7411
55.1262
55.3976
54.6905
54.9437
54.2287
54.3648
53.6742
53.6056
52.9549
52.641
51.9499
51.3766
50.5633
49.6427
48.6122
47.2071
45.7844
43.7158
41.6748
38.739
35.8155
31.8057
27.7427
22.527
17.23
11.0119
5.06633
-1.26078
-6.8985
-12.1817
-16.1994
-19.1764
-20.7386
-20.9366
-19.8713
-16.6315
-12.6112
-6.49139
-0.516734
6.28333
11.7319
16.7852
19.7417
22.2642
22.8944
24.1505
23.878
24.1344
23.3713
23.1954
22.9367
22.2919
22.4003
21.6047
21.9209
21.2196
21.8299
21.3892
22.1239
21.6245
22.2983
22.1256
22.2792
22.4636
22.2171
22.5818
22.14
22.7184
22.0695
22.8179
22.0579
22.803
22.0587
22.8188
22.05
22.8433
22.1829
22.7424
22.5046
22.5133
22.7523
22.4215
22.8718
22.3992
22.9559
22.403
23.0109
22.3919
23.0948
22.4346
23.2039
22.5497
23.3682
22.7691
23.4384
23.1867
23.5478
23.4983
23.8461
23.9273
24.2658
24.4582
24.8636
25.1292
25.677
26.0373
26.7802
27.2878
28.2801
28.9665
30.3049
31.2029
33.0779
34.1377
36.8415
37.8615
41.7026
42.6969
47.83
48.809
55.6289
56.4052
65.1874
66.1262
76.4496
77.7352
89.4265
90.8681
103.997
105.024
119.18
-89.3575
-57.4021
-51.0131
-21.0358
-6.75246
11.6835
22.2349
34.0606
40.0804
48.8987
51.6503
56.7907
57.8399
59.3576
59.5245
60.5115
60.5807
61.2695
60.7692
61.8059
60.9808
61.8572
60.9425
61.6227
60.6632
61.3879
60.3294
61.1599
59.9891
60.8829
59.6672
60.5579
59.3838
60.151
59.1934
59.6099
59.1378
59.0186
59.0607
58.5871
58.8211
58.1945
58.5459
57.8046
58.291
57.4136
58.0665
57.0597
57.8283
56.8028
57.5008
56.7026
57.0941
56.7567
56.6223
56.7297
56.3658
56.5417
56.0835
56.3357
55.767
56.0896
55.4033
55.7855
55.0084
55.3525
54.6099
54.7882
54.1604
54.0853
53.5433
53.2447
52.6812
52.1759
51.5149
50.718
49.8735
48.6662
47.4777
45.6769
43.894
41.2647
38.5882
34.8657
30.9827
25.9157
20.6253
14.1537
7.63132
0.395487
-6.24167
-12.8298
-18.0407
-21.9411
-24.1606
-24.4195
-23.2722
-19.7938
-15.5528
-9.18527
-2.4243
5.34377
11.9755
18.2304
21.7812
24.3361
24.8834
25.5213
24.9474
24.166
23.0224
22.073
21.8821
21.4071
21.7539
21.2639
21.5559
20.9718
21.5744
21.2615
22.108
21.7357
22.3671
22.234
22.4595
22.7203
22.2769
22.6511
22.0614
22.6711
21.9583
22.7866
21.9919
22.8033
21.9869
22.7968
22.0044
22.8299
22.1462
22.7189
22.466
22.4676
22.7022
22.3364
22.7933
22.2899
22.8441
22.2376
22.8627
22.2192
22.8939
22.2068
22.9762
22.2473
23.0776
22.4127
23.0104
22.7927
23.0552
22.9776
23.2328
23.2399
23.5066
23.589
23.8854
24.0353
24.418
24.6382
25.1893
25.4584
26.2763
26.5963
27.7879
28.1566
29.8642
30.2318
32.6493
33.0254
36.3136
36.6984
41.0832
41.388
47.4141
47.7349
55.3443
56.0238
65.1629
66.2948
76.9833
78.3027
90.4674
91.4864
105.097
-113.307
-76.0026
-65.2646
-32.7006
-16.2674
6.30249
18.4872
31.0601
38.6199
47.9864
52.0016
58.4852
59.6089
62.205
61.95
62.5406
62.898
63.6251
62.9442
63.7606
62.7782
63.307
62.3151
62.6724
61.6073
62.0509
60.9622
61.5716
60.3511
61.1388
59.8431
60.7027
59.4502
60.2314
59.1753
59.6279
59.1254
58.9813
59.0381
58.5312
58.8199
58.1364
58.539
57.753
58.2974
57.3393
58.0753
56.9746
57.8161
56.7341
57.4646
56.6498
57.0562
56.716
56.5791
56.7167
56.3195
56.5821
56.0475
56.42
55.7593
56.2266
55.4479
55.9852
55.1376
55.6372
54.8454
55.1599
54.539
54.5782
54.1338
53.8869
53.5137
53.0873
52.6599
51.9807
51.4179
50.3883
49.5269
47.9786
46.5716
44.2525
41.9516
38.5028
34.8489
29.8075
24.334
17.4037
10.0617
1.59388
-6.65751
-14.7855
-21.6746
-27.2013
-30.9905
-32.9672
-33.7399
-31.249
-27.3382
-20.4804
-11.9584
-1.78047
7.54981
16.3007
21.9832
25.7631
26.0795
27.6235
27.5814
27.454
25.9026
24.656
24.0105
22.5626
22.6758
21.6765
21.8951
20.8808
21.3619
20.9856
21.8953
21.4248
22.1515
22.0667
22.3323
22.5739
22.5328
22.6804
22.1919
22.8294
22.0304
22.8798
22.0232
22.8455
21.9986
22.8169
21.971
22.818
22.0892
22.732
22.4311
22.4853
22.7181
22.3743
22.8368
22.3158
22.9213
22.2604
22.9367
22.2411
22.9467
22.1719
22.9942
22.1784
23.0799
22.3486
23.0346
22.7355
22.9894
22.9025
23.0714
23.1466
23.2413
23.4218
23.5347
23.7269
23.9281
24.1648
24.5105
24.7928
25.329
25.6611
26.4937
26.8544
28.2284
28.5173
30.6245
30.7827
33.794
33.8656
37.7388
37.6272
43.0501
42.719
49.5645
49.5273
57.6379
57.9484
67.3173
67.8747
78.854
79.3041
92.0636
-129.606
-103.656
-91.4721
-48.3689
-28.0789
-1.83682
11.8004
28.0744
34.9134
45.7335
50.0526
56.3837
59.477
59.7051
61.6115
61.0697
61.0224
61.5748
61.3692
62.4345
61.8027
62.6073
61.661
62.2817
61.2043
61.8671
60.6524
61.5901
60.2866
61.2329
59.9252
60.849
59.5985
60.411
59.3712
59.8097
59.3438
59.1446
59.2665
58.68
59.0331
58.287
58.7447
57.8752
58.5173
57.4477
58.2863
57.0748
58.0058
56.8428
57.6355
56.7781
57.2167
56.8768
56.7394
56.9016
56.4403
56.8194
56.1783
56.6901
55.9026
56.5235
55.6081
56.3036
55.3185
55.9903
55.0552
55.5187
54.8149
54.9462
54.5284
54.3052
54.035
53.6555
53.3592
52.775
52.3837
51.5338
50.8992
49.6172
48.4968
46.5371
44.5981
41.6026
38.3865
33.8015
28.6343
21.7971
14.3294
5.34885
-3.73442
-13.4667
-21.9811
-28.7866
-33.5594
-36.1016
-37.7822
-35.6695
-32.4488
-25.8667
-17.0978
-5.80065
5.7997
17.0618
24.8829
29.3942
29.6365
29.3773
28.5976
26.9465
25.3076
22.4496
22.3086
21.7384
22.3331
21.8103
21.8691
20.5636
21.1184
20.6738
22.1783
21.6532
22.2526
22.1559
22.4596
23.0361
22.5253
22.9803
21.8449
22.6787
21.8165
22.8881
21.9788
22.8829
21.9272
22.8133
21.9169
22.8477
22.0621
22.7498
22.4324
22.4407
22.712
22.2937
22.82
22.2113
22.8783
22.1109
22.8934
22.0891
22.8425
22.0206
22.8672
21.9682
22.918
22.0952
22.7769
22.4826
22.6392
22.6016
22.6308
22.7328
22.6945
22.9221
22.861
23.1147
23.0636
23.3312
23.3812
23.6355
23.9263
24.1332
24.6827
24.806
25.888
25.9351
27.4953
27.3121
29.8171
29.5121
32.5446
32.0226
36.5868
35.8383
41.5053
41.3803
48.1189
48.7213
56.5166
57.267
66.9083
67.3497
79.4439
-116.305
-104.349
-96.3906
-58.7072
-37.3931
-9.97689
7.69558
24.5175
32.5641
42.3825
49.9769
56.1946
61.6986
62.1292
63.9156
63.7721
63.8547
64.4217
63.6476
64.3287
63.387
63.9156
62.9029
63.2186
62.0157
62.4725
61.0798
61.8387
60.4941
61.3722
60.0494
60.933
59.6502
60.4783
59.3491
59.8286
59.3202
59.1159
59.2503
58.636
59.0325
58.231
58.7869
57.8097
58.5666
57.3737
58.3261
57.0022
58.026
56.7766
57.6481
56.7111
57.2135
56.8332
56.7129
56.9157
56.3778
56.8854
56.108
56.7951
55.8579
56.6832
55.6009
56.5099
55.3787
56.2576
55.2265
55.8521
55.0878
55.3211
54.9342
54.7483
54.6239
54.2959
54.1908
53.6956
53.5286
52.8393
52.4967
51.481
50.7479
49.1691
47.7056
45.1507
42.4351
38.2869
33.5079
26.848
19.0868
9.3015
-1.19538
-12.6482
-23.6909
-32.814
-39.1686
-43.4678
-47.7215
-47.3415
-45.6639
-40.8355
-31.5386
-18.2138
-4.03838
11.4913
23.7763
32.0085
30.5284
32.2675
33.7111
33.197
30.7843
27.229
23.8415
21.3424
22.6398
21.8183
22.4264
20.8141
20.4271
19.8193
21.4135
21.28
22.047
21.8394
22.2059
22.6873
23.1456
23.2655
22.4827
22.7714
21.8382
22.8618
22.0232
22.9263
22.0073
22.8279
21.8831
22.7634
21.985
22.7288
22.3949
22.487
22.6962
22.3755
22.8366
22.2826
22.9298
22.2039
22.908
22.1507
22.8816
22.0247
22.8501
21.8899
22.8528
22.0336
22.7732
22.4108
22.6538
22.5175
22.5306
22.652
22.4728
22.7734
22.6003
22.8324
22.6924
22.9264
22.8694
23.1516
23.1275
23.4008
23.5428
23.716
24.4123
24.4432
25.7937
25.3843
27.5728
27.1662
29.6008
28.6208
32.8512
31.2944
36.2572
35.3436
41.2619
40.647
47.7411
46.8464
55.7598
54.7754
66.6349
-91.5211
-90.1639
-95.0697
-61.5329
-45.9271
-16.8234
1.24587
20.2312
29.9651
38.3151
46.4861
52.838
57.9787
61.404
59.8045
61.8258
60.8903
62.1893
61.6009
62.9327
62.5308
63.34
62.3844
62.9092
61.6796
62.4808
60.9675
61.9501
60.5334
61.5047
60.1283
61.1418
59.7945
60.6688
59.6042
60.0163
59.5617
59.2472
59.4906
58.7449
59.2706
58.3113
59.0315
57.8899
58.7891
57.4668
58.5135
57.0915
58.1785
56.8552
57.7886
56.8068
57.3154
56.9848
56.7846
57.1007
56.4345
57.1109
56.1368
57.0384
55.8793
56.9267
55.649
56.7568
55.4532
56.502
55.3271
56.1127
55.2602
55.5846
55.1835
54.9934
54.9559
54.6387
54.6381
54.2019
54.1559
53.5956
53.419
52.6187
52.1266
50.8885
49.8107
47.7747
45.6212
42.1588
38.0638
32.0349
24.9133
15.062
4.1515
-8.77442
-21.5433
-31.767
-38.7381
-42.0676
-47.303
-48.3702
-47.6233
-45.4394
-39.2223
-26.947
-10.3075
7.60566
24.5581
38.4554
37.2176
31.245
30.7446
30.6346
29.6886
24.7579
22.5483
21.2539
22.3799
22.8006
22.427
20.4757
20.1372
19.367
22.013
21.706
22.0706
21.6085
22.2774
23.1187
23.2623
23.4843
21.8284
22.4847
21.6743
22.8661
22.0134
22.9849
21.9254
22.8329
21.8628
22.825
21.985
22.7221
22.4163
22.4317
22.703
22.2922
22.857
22.1566
22.9091
22.0885
22.9189
22.0337
22.8844
21.9534
22.8251
21.8379
22.7674
21.913
22.6294
22.2945
22.4324
22.4502
22.2364
22.474
22.1904
22.5468
22.3044
22.6381
22.2572
22.5177
22.316
22.4981
22.4983
22.6734
22.5988
22.5805
23.1492
23.162
23.8777
23.3186
25.1454
24.7734
26.2202
24.9064
28.5707
26.5228
30.1609
29.1276
33.5489
34.1773
38.3557
39.1221
44.1723
44.6924
53.8339
-69.3774
-69.182
-78.6953
-59.7168
-44.6056
-20.5211
-3.22326
15.9103
26.9938
36.8154
46.2982
54.3159
59.8135
63.5494
64.3871
64.2718
64.5727
64.549
63.7705
64.1074
63.4476
64.2592
63.3981
63.7855
62.1511
62.9064
61.1875
62.0586
60.6411
61.7008
60.2038
61.2327
59.7974
60.772
59.5427
60.0904
59.5672
59.2462
59.5075
58.6868
59.355
58.2301
59.1473
57.8002
58.9037
57.3829
58.6068
57.0293
58.2541
56.8042
57.867
56.7404
57.3417
56.9394
56.7715
57.1272
56.3725
57.183
56.0828
57.1277
55.8331
57.0431
55.6314
56.9059
55.5019
56.7106
55.4432
56.3437
55.4157
55.8231
55.4473
55.2244
55.301
54.9787
55.1111
54.7156
54.8025
54.3432
54.3604
53.7557
53.5329
52.6014
51.9241
50.3313
48.7421
45.9343
42.6687
37.4257
31.1832
21.8283
10.9102
-2.3117
-16.9826
-30.1619
-39.4456
-44.0292
-50.2136
-52.8906
-53.5524
-52.9472
-49.3538
-38.2825
-26.2835
-5.55545
12.4446
32.3157
38.4819
37.4868
38.8358
39.7019
37.6376
31.6145
22.6892
16.972
20.5638
22.4206
25.2979
21.8406
19.3198
16.5631
20.1926
21.8198
22.848
21.4338
20.8698
22.3523
23.8645
25.1893
23.1275
22.3875
21.2217
22.4795
22.0951
23.104
22.2332
22.7575
21.8931
22.5588
22.0039
22.6269
22.3514
22.6071
22.5814
22.5331
22.7321
22.4231
22.789
22.2965
22.8079
22.2042
22.778
22.0691
22.6654
21.9402
22.5766
21.9677
22.5723
22.2076
22.527
22.2971
22.3216
22.3094
22.1706
22.4549
22.1528
22.4406
22.0609
22.3119
21.9807
22.2783
21.9424
22.1585
21.9682
21.7868
21.9217
22.077
23.0113
21.7798
23.2074
23.3704
24.3411
22.4416
26.1499
23.5522
26.2418
24.5626
27.2469
27.6424