/*--------------------------------*- C++ -*----------------------------------*\
| =========                 |                                                 |
| \\      /  F ield         | OpenFOAM: The Open Source CFD Toolbox           |
|  \\    /   O peration     | Version:  4.1                                   |
|   \\  /    A nd           | Web:      www.OpenFOAM.org                      |
|    \\/     M anipulation  |                                                 |
\*---------------------------------------------------------------------------*/
FoamFile
{
    version     2.0;
    format      ascii;
    class       volScalarField;
    location    "10";
    object      epsilon;
}
// * * * * * * * * * * * * * * * * * * * * * * * * * * * * * * * * * * * * * //

dimensions      [0 2 -3 0 0 0 0];

internalField   nonuniform List<scalar> 
204246
(
3.09352
3.31626
3.29364
3.2679
3.22936
3.20063
3.15151
3.11608
3.07296
3.03179
3.00309
2.97136
2.94732
2.93129
2.91615
2.91823
2.91296
2.91261
2.93092
2.94982
2.96783
2.99584
3.01494
3.04808
3.0694
3.10245
3.12512
3.15587
3.18153
3.20965
3.23394
3.25804
3.28274
3.30429
3.32764
3.34968
3.36078
3.39771
3.40425
3.43554
3.44354
3.47307
3.4799
3.50879
3.51335
3.54576
3.55128
3.5815
3.58987
3.61555
3.6265
3.65266
3.66285
3.67874
3.70906
3.72189
3.74487
3.76299
3.78358
3.80285
3.82286
3.84128
3.86463
3.88526
3.90731
3.92979
3.9504
3.9746
3.99516
4.01926
4.0286
4.07005
4.08106
4.11453
4.12968
4.16041
4.17833
4.20756
4.22516
4.25775
4.28005
4.30774
4.33413
4.35859
4.38787
4.41224
4.44161
4.45365
4.5026
4.51607
4.55659
4.57487
4.61269
4.6317
4.6728
4.69811
4.73328
4.76493
4.7968
4.83112
4.8615
4.90013
4.93065
4.96977
5.00131
5.03993
5.06211
5.12384
5.14189
5.19772
5.21776
5.27696
5.30366
5.35547
5.39331
5.43905
5.47881
5.52556
5.56796
5.61511
5.66128
5.70834
5.75743
5.78825
5.868
5.89146
5.96643
5.99507
6.06851
6.10256
6.17442
6.21184
6.28378
6.32419
6.39697
6.44012
6.51314
6.55913
6.63342
6.68209
6.73795
6.82424
6.86656
6.9514
6.99606
7.08188
7.12731
7.21528
7.26119
7.35134
7.39732
7.48967
7.53528
7.63008
7.6754
7.77297
7.81798
7.89392
7.98305
8.03731
8.12736
8.17992
8.27284
8.32312
8.41913
8.46662
8.56693
8.61071
8.71579
8.75658
8.86836
8.90528
9.02574
9.05991
9.19359
9.22198
9.34413
9.43704
9.52155
9.64172
9.72158
9.87099
9.95534
10.138
10.2385
10.4599
10.5909
10.8569
11.0332
11.3194
11.5029
11.6604
11.6806
0.606588
0.854605
0.79813
0.769352
0.768419
0.746471
0.752529
0.749674
0.757775
0.755834
0.756376
0.750325
0.743876
0.733546
0.725217
0.714351
0.708593
0.700174
0.696995
0.696348
0.69737
0.706487
0.714203
0.729906
0.737268
0.752339
0.752661
0.77005
0.767576
0.785373
0.781458
0.79807
0.79316
0.807831
0.802419
0.815351
0.81223
0.810083
0.822712
0.816419
0.82647
0.822603
0.833589
0.83017
0.841894
0.836743
0.850015
0.844314
0.857802
0.852217
0.865783
0.862933
0.878428
0.877065
0.876639
0.891776
0.886777
0.901628
0.898995
0.914504
0.912041
0.927581
0.92319
0.939868
0.934788
0.951901
0.946945
0.96416
0.962039
0.981589
0.98117
0.985295
1.00246
1.00106
1.02035
1.01869
1.03858
1.03689
1.05768
1.05466
1.07625
1.07202
1.09417
1.09006
1.11244
1.11144
1.13688
1.13814
1.14674
1.16785
1.16793
1.19314
1.19282
1.21957
1.21802
1.24603
1.24337
1.27176
1.2687
1.29907
1.29714
1.32813
1.32984
1.36151
1.36344
1.39821
1.4001
1.42563
1.45175
1.45573
1.49193
1.49344
1.53222
1.5322
1.57299
1.57327
1.61676
1.62022
1.66477
1.66925
1.71441
1.71846
1.76974
1.7777
1.81086
1.85059
1.85752
1.91143
1.91968
1.97442
1.98238
2.04136
2.05113
2.11257
2.12347
2.18803
2.19992
2.26775
2.28109
2.35541
2.37271
2.42335
2.48421
2.50021
2.57907
2.59687
2.67876
2.69744
2.78287
2.80274
2.89203
2.91338
3.00435
3.02579
3.12077
3.14368
3.24738
3.275
3.34288
3.4277
3.45216
3.55362
3.57767
3.67983
3.70387
3.80485
3.8281
3.92725
3.94891
4.04511
4.06557
4.15847
4.17729
4.26934
4.29269
4.37954
4.40097
4.43787
4.50532
4.50949
4.57524
4.57216
4.62241
4.61246
4.64781
4.63207
4.66798
4.65595
4.79396
4.91972
5.39711
5.68095
5.82587
0.528709
0.555789
0.566332
0.594159
0.61979
0.641303
0.673671
0.699296
0.726169
0.747263
0.764052
0.770965
0.772626
0.773241
0.76845
0.760456
0.745151
0.734075
0.721047
0.712295
0.706151
0.700836
0.699177
0.697431
0.697528
0.697606
0.699749
0.70279
0.706318
0.709775
0.713943
0.718339
0.723025
0.727547
0.732662
0.736938
0.742413
0.745987
0.752401
0.756014
0.762465
0.76696
0.773326
0.77841
0.784203
0.790034
0.795351
0.801544
0.806618
0.813142
0.818217
0.82512
0.830136
0.837173
0.841419
0.848879
0.853336
0.86051
0.865812
0.872602
0.87867
0.885191
0.891841
0.898206
0.905473
0.911787
0.919663
0.926168
0.934888
0.941597
0.950556
0.956754
0.966071
0.972664
0.981829
0.989286
0.998295
1.00667
1.01557
1.02448
1.03327
1.04282
1.05165
1.06187
1.07106
1.08213
1.09174
1.10316
1.11204
1.1239
1.13317
1.14498
1.15529
1.16704
1.17789
1.18949
1.20093
1.21265
1.2248
1.237
1.2497
1.26193
1.27511
1.28806
1.30195
1.31554
1.32947
1.34233
1.35704
1.36966
1.38507
1.39769
1.41378
1.42644
1.44325
1.45601
1.47368
1.48665
1.50492
1.51776
1.53688
1.54994
1.57059
1.58305
1.6013
1.61721
1.63218
1.65127
1.66416
1.68492
1.69631
1.71892
1.72877
1.75215
1.76136
1.78471
1.79343
1.81683
1.82526
1.84879
1.85671
1.87385
1.88817
1.89644
1.9144
1.9188
1.936
1.93876
1.95361
1.95451
1.96691
1.96599
1.97373
1.97001
1.97438
1.96766
1.97127
1.95768
1.95076
1.94672
1.92457
1.92268
1.8921
1.8877
1.85124
1.8447
1.80344
1.79567
1.75096
1.74232
1.69459
1.68554
1.63515
1.62567
1.57635
1.56746
1.51455
1.491
1.47204
1.43072
1.42504
1.37989
1.37549
1.33341
1.33104
1.29595
1.29749
1.2788
1.28865
1.27736
1.28534
1.17212
1.1299
0.496438
0.546035
0.57094
0.618953
0.651672
0.693799
0.734399
0.779702
0.825561
0.869132
0.910503
0.941635
0.953613
0.958506
0.957738
0.955078
0.94074
0.925907
0.908858
0.895633
0.888947
0.879852
0.876802
0.870835
0.869138
0.86612
0.866136
0.865311
0.867265
0.867074
0.871327
0.872072
0.877695
0.879035
0.885252
0.887042
0.893684
0.897106
0.900629
0.907093
0.90955
0.917176
0.920179
0.928268
0.93148
0.939971
0.942975
0.951593
0.954569
0.963366
0.966634
0.974976
0.97825
0.986763
0.991109
0.996378
1.00306
1.0067
1.01421
1.01735
1.02519
1.02839
1.03646
1.03947
1.04773
1.05081
1.05937
1.06281
1.07128
1.0749
1.08349
1.08823
1.09449
1.10073
1.10581
1.11309
1.11757
1.12558
1.12966
1.13809
1.14186
1.15048
1.15432
1.16322
1.16737
1.17631
1.18062
1.18938
1.19462
1.20168
1.2079
1.21431
1.22124
1.22721
1.23461
1.24009
1.24773
1.25288
1.26064
1.26569
1.27328
1.27826
1.28551
1.2908
1.29767
1.30321
1.3093
1.31463
1.32027
1.32503
1.33077
1.33458
1.34069
1.34332
1.34961
1.35133
1.35721
1.35881
1.36385
1.36487
1.3693
1.36958
1.37352
1.37309
1.37325
1.37436
1.37236
1.37346
1.36942
1.37002
1.36384
1.3639
1.35523
1.35446
1.3433
1.3416
1.32772
1.32485
1.30857
1.30477
1.28396
1.27413
1.25964
1.24056
1.23023
1.20383
1.19499
1.16393
1.15374
1.11975
1.10833
1.07147
1.0588
1.01933
1.00554
0.964458
0.950233
0.905507
0.884252
0.85244
0.820348
0.798103
0.758047
0.743004
0.700726
0.686219
0.645862
0.632346
0.595725
0.583484
0.550596
0.539926
0.510896
0.501832
0.476469
0.468898
0.446778
0.437017
0.423504
0.411585
0.403699
0.389634
0.38572
0.37172
0.368552
0.359591
0.359395
0.359183
0.372908
0.385125
0.407976
0.415588
0.421294
0.49002
0.558515
0.592527
0.656956
0.698422
0.747055
0.790819
0.844743
0.90302
0.957915
1.02195
1.08016
1.13795
1.16672
1.1757
1.17652
1.15664
1.12629
1.09084
1.05901
1.03965
1.02563
1.02015
1.01457
1.01272
1.01049
1.01032
1.00981
1.01131
1.01144
1.01475
1.01541
1.01922
1.02016
1.02411
1.02513
1.02846
1.03003
1.031
1.03348
1.03409
1.03739
1.03854
1.04258
1.04413
1.04876
1.05048
1.0555
1.05741
1.06265
1.0648
1.06981
1.07198
1.07669
1.07906
1.08236
1.08537
1.0876
1.09091
1.0926
1.09594
1.09747
1.10069
1.10211
1.10517
1.10655
1.10954
1.11098
1.11377
1.11517
1.11767
1.11909
1.1208
1.12228
1.12355
1.12505
1.12614
1.12756
1.12855
1.12978
1.13082
1.1317
1.13272
1.13323
1.13444
1.13456
1.13568
1.13558
1.1356
1.1359
1.13526
1.13565
1.13455
1.13484
1.13286
1.13324
1.13047
1.1307
1.12711
1.12718
1.12243
1.12187
1.11658
1.11556
1.10935
1.10796
1.09934
1.09559
1.09025
1.08251
1.07884
1.06793
1.06512
1.05203
1.04862
1.03387
1.02935
1.01389
1.00852
0.991703
0.985712
0.967446
0.961044
0.940143
0.930089
0.914586
0.898345
0.8863
0.864889
0.855646
0.830946
0.82196
0.795786
0.786349
0.75928
0.749534
0.721703
0.71162
0.683473
0.673254
0.643872
0.629907
0.608259
0.58857
0.572331
0.548186
0.536905
0.510652
0.501046
0.475251
0.466121
0.44172
0.433167
0.410392
0.402549
0.38177
0.374779
0.355363
0.346552
0.334106
0.32318
0.315592
0.303496
0.299348
0.28829
0.285041
0.276146
0.273734
0.266743
0.26503
0.259846
0.258841
0.25534
0.255025
0.253037
0.253341
0.252644
0.252849
0.25472
0.254987
0.25798
0.258683
0.261679
0.262349
0.264688
0.265097
0.268388
0.269708
0.276932
0.281758
0.290776
0.294409
0.297013
0.486798
0.555288
0.595574
0.664459
0.711705
0.759408
0.795895
0.841913
0.901056
0.960983
1.03187
1.10117
1.18373
1.26015
1.32818
1.36081
1.37072
1.36736
1.33256
1.26761
1.20334
1.14687
1.11871
1.10021
1.09253
1.08896
1.08827
1.0881
1.0905
1.09133
1.09422
1.09593
1.09837
1.09925
1.10104
1.10134
1.1016
1.10139
1.09968
1.09793
1.09447
1.09207
1.08867
1.08686
1.08405
1.08276
1.08047
1.07952
1.07791
1.07725
1.07623
1.07578
1.07508
1.07464
1.07394
1.07327
1.07209
1.07099
1.06942
1.06806
1.06594
1.06445
1.06162
1.06033
1.05679
1.05566
1.05155
1.0502
1.04576
1.04419
1.03887
1.03588
1.03193
1.02698
1.02388
1.01725
1.01467
1.00699
1.00416
0.99556
0.992849
0.983378
0.98043
0.970232
0.966797
0.956472
0.952713
0.941185
0.935277
0.926933
0.918134
0.911523
0.900431
0.895034
0.882003
0.877629
0.863333
0.858702
0.84369
0.838783
0.822899
0.817256
0.801098
0.7949
0.77797
0.771398
0.752481
0.743612
0.72873
0.715668
0.703319
0.686306
0.677097
0.656791
0.6493
0.627526
0.619411
0.598012
0.589572
0.568214
0.559784
0.538596
0.530272
0.508303
0.497993
0.481635
0.46758
0.455453
0.438311
0.429918
0.411386
0.404455
0.386269
0.379719
0.362576
0.356486
0.340413
0.33473
0.319877
0.314669
0.300456
0.293918
0.284454
0.276136
0.269799
0.260148
0.256454
0.246808
0.243563
0.234933
0.232087
0.224484
0.222017
0.215415
0.213325
0.207644
0.205891
0.200873
0.198672
0.195896
0.193268
0.191827
0.189201
0.188459
0.186405
0.185973
0.184628
0.184509
0.183953
0.184171
0.184116
0.185185
0.185442
0.187293
0.187951
0.19054
0.191615
0.194758
0.196768
0.200276
0.203219
0.207113
0.210998
0.215351
0.220216
0.225047
0.230822
0.236001
0.242462
0.247629
0.252871
0.255192
0.256506
0.453291
0.531245
0.575695
0.647696
0.701318
0.755607
0.790709
0.824939
0.870033
0.918497
0.978562
1.03937
1.11656
1.20202
1.29636
1.38202
1.44776
1.47587
1.48433
1.48098
1.44773
1.37741
1.29167
1.2099
1.1518
1.11943
1.10465
1.09801
1.09621
1.09606
1.09893
1.10172
1.10375
1.10509
1.10554
1.10568
1.10532
1.10401
1.10103
1.09646
1.09033
1.08295
1.07517
1.06726
1.05977
1.05176
1.04415
1.03587
1.02882
1.02077
1.01435
1.00649
1.0009
0.993143
0.98699
0.981568
0.973739
0.969015
0.960468
0.955789
0.946334
0.941591
0.930958
0.926642
0.915064
0.910576
0.898337
0.893425
0.880957
0.875708
0.862363
0.855012
0.844291
0.834236
0.824887
0.812691
0.804199
0.790231
0.782308
0.766507
0.759704
0.742472
0.735769
0.71783
0.710664
0.692857
0.685436
0.666858
0.657401
0.642648
0.630307
0.617994
0.603416
0.59313
0.576293
0.56866
0.550352
0.543498
0.524927
0.518134
0.499588
0.492501
0.474667
0.467504
0.45002
0.44298
0.424959
0.416604
0.402645
0.391881
0.38074
0.367634
0.359891
0.345004
0.339389
0.324336
0.318755
0.305013
0.299679
0.286953
0.282039
0.270318
0.265834
0.254545
0.249508
0.241535
0.235355
0.229792
0.222586
0.219228
0.21182
0.20922
0.2024
0.200115
0.194079
0.192104
0.186781
0.185064
0.180427
0.17896
0.174761
0.172885
0.170468
0.168057
0.16675
0.164211
0.163424
0.16114
0.160525
0.158651
0.158192
0.156708
0.156397
0.155282
0.155113
0.15436
0.154343
0.153945
0.153856
0.154096
0.154045
0.154687
0.15481
0.155829
0.156151
0.157519
0.158047
0.159859
0.160635
0.16291
0.163948
0.16672
0.16805
0.171311
0.172943
0.176661
0.17861
0.182594
0.185199
0.189288
0.192571
0.196782
0.20063
0.205036
0.209463
0.214195
0.219185
0.224229
0.229516
0.23417
0.238176
0.240124
0.241096
0.369934
0.460643
0.517035
0.605446
0.670097
0.739121
0.782351
0.808955
0.838333
0.866105
0.904606
0.946722
1.0062
1.07937
1.16993
1.25869
1.34245
1.40112
1.44955
1.49738
1.52401
1.53092
1.51824
1.46385
1.36829
1.26071
1.16847
1.10151
1.06958
1.05414
1.0484
1.04732
1.04829
1.05073
1.05054
1.05064
1.04953
1.04736
1.04495
1.03798
1.03116
1.0192
1.00803
0.993347
0.981156
0.965743
0.952932
0.936401
0.923508
0.907102
0.894778
0.878919
0.867237
0.851969
0.840218
0.828386
0.815431
0.805449
0.792191
0.782942
0.768989
0.760087
0.744916
0.736557
0.720021
0.712024
0.694399
0.686522
0.668768
0.660783
0.642562
0.632385
0.617426
0.604495
0.591446
0.57647
0.564843
0.548251
0.537706
0.519511
0.51069
0.491363
0.483394
0.463945
0.455882
0.437332
0.429406
0.411102
0.401956
0.387547
0.376828
0.365117
0.353232
0.343891
0.330807
0.324303
0.310697
0.305486
0.29238
0.287572
0.275323
0.27068
0.259646
0.255278
0.24512
0.241101
0.231269
0.226811
0.21956
0.214334
0.208799
0.202713
0.199147
0.192515
0.19008
0.18367
0.181369
0.175808
0.173712
0.168801
0.16696
0.162628
0.161024
0.157007
0.155244
0.152583
0.150574
0.148715
0.146449
0.145408
0.143116
0.142357
0.14031
0.139678
0.137924
0.137409
0.13592
0.135502
0.134259
0.133934
0.132852
0.132388
0.131964
0.131366
0.131243
0.130727
0.130678
0.130326
0.130348
0.130192
0.130299
0.130237
0.130525
0.130544
0.131059
0.13119
0.131919
0.132171
0.133007
0.133624
0.134455
0.13543
0.136366
0.137755
0.138905
0.140675
0.142036
0.144204
0.14586
0.148469
0.150507
0.153621
0.156096
0.159719
0.16267
0.166792
0.170234
0.174746
0.178624
0.183324
0.187462
0.192312
0.196746
0.201717
0.206432
0.211501
0.216431
0.221471
0.226277
0.230632
0.234006
0.235863
0.236683
0.276671
0.35737
0.422437
0.526887
0.610778
0.69691
0.737621
0.747609
0.748515
0.742453
0.740146
0.743656
0.772458
0.832485
0.931211
1.04927
1.17536
1.24239
1.27113
1.29198
1.32537
1.39405
1.47687
1.52596
1.5353
1.52154
1.45034
1.32792
1.19651
1.08719
1.01573
0.970792
0.950306
0.94046
0.935618
0.933437
0.931158
0.928092
0.926074
0.919359
0.913967
0.902553
0.891668
0.875479
0.861671
0.84324
0.827935
0.80736
0.790926
0.769294
0.752471
0.730704
0.714047
0.692738
0.675784
0.658316
0.640569
0.625952
0.608746
0.59583
0.578694
0.567064
0.549584
0.539216
0.520903
0.511401
0.492316
0.483242
0.464341
0.455612
0.436863
0.426849
0.411576
0.399617
0.38669
0.373382
0.362418
0.348271
0.338922
0.323962
0.316593
0.301422
0.295055
0.280501
0.274395
0.261188
0.255513
0.243263
0.237244
0.227965
0.22163
0.214284
0.207821
0.202187
0.195496
0.191711
0.184928
0.182273
0.175925
0.173609
0.167942
0.165817
0.160915
0.158998
0.154647
0.152945
0.148859
0.147024
0.144058
0.141999
0.139731
0.13741
0.135932
0.133408
0.132464
0.130033
0.129161
0.127086
0.126309
0.124517
0.123854
0.122315
0.121758
0.120366
0.119763
0.118928
0.118229
0.117724
0.116975
0.116759
0.116081
0.115923
0.115409
0.115315
0.114945
0.114916
0.114679
0.114703
0.114618
0.114713
0.114686
0.114826
0.115075
0.115162
0.115606
0.115748
0.116327
0.116541
0.117258
0.11755
0.118413
0.118786
0.119799
0.120265
0.121427
0.12202
0.123337
0.124098
0.125499
0.126533
0.127976
0.129294
0.130865
0.132451
0.134168
0.136063
0.137983
0.140264
0.142469
0.145142
0.147683
0.15078
0.153758
0.157369
0.160849
0.165003
0.169026
0.173695
0.178154
0.183259
0.188115
0.193516
0.19861
0.204175
0.209312
0.21483
0.219715
0.224877
0.229079
0.233312
0.235932
0.237797
0.238482
0.191697
0.248383
0.300655
0.389704
0.475632
0.567492
0.615184
0.621877
0.616173
0.588354
0.544371
0.512052
0.506106
0.512129
0.563154
0.673963
0.85122
1.02528
1.09037
1.10686
1.1095
1.11954
1.15047
1.22478
1.3269
1.44855
1.50356
1.51393
1.48997
1.40211
1.26537
1.11694
1.00049
0.910325
0.852259
0.812131
0.793253
0.779965
0.774066
0.766244
0.760896
0.750939
0.741658
0.727068
0.714747
0.697312
0.683392
0.663308
0.647606
0.625516
0.608342
0.585322
0.56745
0.544378
0.525709
0.505822
0.486006
0.468961
0.450192
0.435653
0.417793
0.405319
0.388252
0.378003
0.361366
0.35272
0.336328
0.328488
0.312732
0.305447
0.290376
0.282731
0.27065
0.262229
0.25225
0.243372
0.235147
0.226141
0.219474
0.210357
0.20524
0.196115
0.192116
0.183558
0.179883
0.172392
0.169113
0.162437
0.159178
0.154171
0.15102
0.147094
0.144181
0.141165
0.138362
0.136241
0.133413
0.132025
0.12931
0.128243
0.125779
0.124817
0.122687
0.121826
0.119929
0.119159
0.117365
0.116541
0.115194
0.114302
0.113204
0.112219
0.111424
0.11035
0.109823
0.108755
0.108342
0.107416
0.107063
0.106284
0.105998
0.105352
0.105126
0.104578
0.104349
0.104067
0.103823
0.103715
0.103509
0.103499
0.103378
0.103414
0.103377
0.103496
0.103501
0.103745
0.103803
0.104143
0.104256
0.10469
0.104856
0.105335
0.105685
0.106152
0.106675
0.107157
0.10783
0.108356
0.109168
0.109767
0.11071
0.111405
0.11248
0.113299
0.114513
0.115477
0.116841
0.117976
0.1195
0.120919
0.122618
0.124356
0.126271
0.128315
0.130535
0.132925
0.135505
0.138249
0.141192
0.144312
0.147669
0.151237
0.15507
0.159142
0.163521
0.168133
0.173104
0.178278
0.183662
0.189364
0.195101
0.201224
0.207173
0.213527
0.219444
0.225693
0.231167
0.236809
0.241288
0.245654
0.248366
0.250256
0.250933
0.114363
0.143892
0.165391
0.211414
0.263017
0.312535
0.37001
0.397451
0.403459
0.39701
0.379521
0.352568
0.344694
0.344997
0.370235
0.437657
0.567455
0.754567
0.916404
0.96278
0.968263
0.960912
0.945277
0.944353
0.965895
1.03212
1.1325
1.26141
1.3875
1.44268
1.45033
1.42728
1.34406
1.20585
1.05622
0.915749
0.813368
0.728293
0.665962
0.624924
0.601935
0.588788
0.578291
0.567726
0.557726
0.543975
0.532246
0.515691
0.50356
0.486158
0.473167
0.45471
0.440517
0.421509
0.406125
0.389101
0.371935
0.356865
0.340367
0.327525
0.311955
0.300973
0.286555
0.277689
0.264555
0.257393
0.245458
0.239318
0.228365
0.222788
0.212676
0.207283
0.19901
0.193505
0.186519
0.181146
0.175212
0.17002
0.16509
0.160117
0.156111
0.151273
0.148063
0.14338
0.140808
0.136457
0.134376
0.130441
0.128502
0.125346
0.123586
0.12104
0.119535
0.117475
0.116216
0.114609
0.113473
0.11217
0.111068
0.110005
0.108926
0.108041
0.107008
0.106254
0.105252
0.104624
0.10363
0.103058
0.10222
0.101655
0.10093
0.100365
0.0997719
0.0992153
0.0987497
0.0982136
0.0978627
0.0973976
0.0971498
0.0967603
0.0966011
0.0963063
0.0962029
0.0960114
0.095937
0.0959207
0.0958897
0.0959387
0.0959765
0.0961456
0.0962164
0.096503
0.0966173
0.0969969
0.0971743
0.0976421
0.0978861
0.0984357
0.0987563
0.0993884
0.0997968
0.100489
0.101042
0.10177
0.10246
0.103256
0.10407
0.104953
0.105889
0.106874
0.107937
0.109037
0.110234
0.111468
0.112811
0.114207
0.115713
0.117313
0.119
0.120784
0.122665
0.12465
0.126761
0.128983
0.131414
0.133956
0.136773
0.139757
0.143014
0.146514
0.150279
0.154328
0.158669
0.163302
0.168274
0.173499
0.179152
0.185002
0.191102
0.197553
0.204039
0.210957
0.21767
0.224818
0.231452
0.238408
0.244431
0.25056
0.255273
0.259862
0.262522
0.264486
0.265134
0.0682753
0.0754756
0.0799923
0.0929538
0.114066
0.136917
0.165177
0.188531
0.211196
0.222636
0.232483
0.236011
0.244938
0.253532
0.280566
0.333104
0.446721
0.626821
0.828185
0.89899
0.909474
0.899142
0.85947
0.801033
0.7665
0.762435
0.780023
0.837811
0.930613
1.05929
1.18875
1.31697
1.36806
1.37978
1.36592
1.30204
1.18088
1.02596
0.864967
0.734567
0.627756
0.551095
0.485733
0.444711
0.420449
0.407336
0.396284
0.386446
0.378376
0.368184
0.358747
0.347188
0.337951
0.326764
0.317325
0.307685
0.297125
0.288063
0.277189
0.26918
0.258754
0.251328
0.241451
0.234717
0.225852
0.220103
0.212351
0.207251
0.200249
0.195513
0.18905
0.184684
0.179056
0.174922
0.169739
0.165835
0.16109
0.157436
0.153169
0.149856
0.146076
0.143021
0.13969
0.136948
0.134069
0.131624
0.129129
0.126888
0.124749
0.122725
0.12091
0.119101
0.11762
0.115975
0.114761
0.113191
0.11218
0.110651
0.109735
0.108194
0.107337
0.105823
0.10506
0.103626
0.102951
0.101657
0.101055
0.099902
0.0993236
0.098329
0.0978161
0.0969556
0.0964888
0.0957765
0.0953554
0.0948014
0.0944114
0.0940122
0.0936824
0.0934212
0.09315
0.093012
0.0928361
0.0927588
0.0927064
0.0926984
0.0927095
0.0928239
0.0929125
0.0931067
0.0932815
0.0935429
0.0938067
0.0941341
0.0944815
0.0948859
0.0953073
0.095794
0.0962948
0.0968578
0.0974528
0.0980982
0.0988043
0.0995309
0.100349
0.101177
0.102096
0.103042
0.104064
0.105145
0.106279
0.107513
0.108776
0.110183
0.111597
0.113201
0.114791
0.116628
0.118439
0.12052
0.122601
0.124978
0.127395
0.130086
0.132892
0.135886
0.139139
0.142487
0.146259
0.150086
0.154467
0.158883
0.163973
0.169054
0.174917
0.180695
0.187387
0.193927
0.201148
0.208438
0.216114
0.223997
0.231931
0.240127
0.247944
0.25594
0.262977
0.269967
0.275329
0.28043
0.28335
0.285479
0.286153
0.0609564
0.052867
0.0523438
0.0537835
0.0591585
0.0683662
0.0825237
0.0987658
0.119489
0.138566
0.160654
0.177479
0.194518
0.207129
0.23223
0.289284
0.404924
0.586564
0.801085
0.884769
0.897799
0.884828
0.835042
0.754906
0.662593
0.591072
0.569391
0.569973
0.59062
0.64621
0.729023
0.848407
0.978913
1.11827
1.22915
1.29913
1.31766
1.31602
1.28184
1.19398
1.05442
0.89212
0.729655
0.599789
0.497271
0.429868
0.371516
0.336121
0.310976
0.29942
0.287901
0.28186
0.274406
0.270226
0.264814
0.261874
0.257029
0.254062
0.249756
0.246826
0.242802
0.239219
0.235018
0.231179
0.227125
0.22336
0.219387
0.215642
0.211836
0.207985
0.204206
0.20067
0.196726
0.193716
0.189497
0.186725
0.182317
0.179743
0.175295
0.173106
0.168712
0.166924
0.162924
0.161444
0.15818
0.156979
0.154422
0.153551
0.151828
0.150638
0.149665
0.148275
0.147832
0.146286
0.145988
0.143826
0.143341
0.140426
0.13955
0.135781
0.134474
0.130219
0.128541
0.124306
0.12262
0.118704
0.117195
0.113921
0.112152
0.109667
0.108035
0.106204
0.104504
0.103393
0.101665
0.101013
0.0995374
0.0989906
0.0978516
0.097436
0.0965658
0.0962633
0.0956231
0.0954319
0.0950466
0.0948349
0.0946988
0.0945894
0.0946017
0.0945848
0.0947558
0.0948045
0.095137
0.0952601
0.0957242
0.0959253
0.0965088
0.0968015
0.0974946
0.0978769
0.0987012
0.0992228
0.100096
0.100792
0.101715
0.102599
0.103577
0.104651
0.105696
0.106964
0.108098
0.109571
0.110817
0.112516
0.113899
0.115838
0.117384
0.119598
0.121408
0.123762
0.125934
0.128499
0.131077
0.133913
0.136959
0.140165
0.143737
0.147398
0.151563
0.155772
0.160625
0.16549
0.171154
0.176785
0.183362
0.189828
0.197415
0.204826
0.213093
0.221449
0.230311
0.239418
0.248641
0.258164
0.267322
0.276654
0.284952
0.293086
0.299365
0.305164
0.308452
0.310801
0.311514
0.0798603
0.0543136
0.0520011
0.0523066
0.0547316
0.0611552
0.0710994
0.084942
0.102789
0.121556
0.140992
0.156245
0.168769
0.182867
0.214497
0.283932
0.416691
0.627141
0.845412
0.918004
0.927123
0.899179
0.824531
0.720887
0.611365
0.506509
0.414667
0.376489
0.368829
0.376446
0.402027
0.456121
0.530105
0.634351
0.752246
0.894828
1.02392
1.13495
1.22641
1.27734
1.29487
1.29118
1.25662
1.16972
1.03443
0.878788
0.717109
0.59367
0.489585
0.432589
0.375465
0.347644
0.317419
0.304878
0.291579
0.284655
0.279098
0.27523
0.273173
0.269698
0.268383
0.265318
0.264479
0.262542
0.262407
0.261183
0.261282
0.259972
0.259786
0.257852
0.257389
0.255773
0.254001
0.253306
0.250818
0.250157
0.247428
0.246712
0.24399
0.243452
0.240612
0.240239
0.237752
0.237764
0.236726
0.237401
0.237266
0.239252
0.241382
0.242628
0.246493
0.247737
0.252252
0.253529
0.257507
0.257789
0.259841
0.258668
0.259172
0.254689
0.253447
0.244766
0.241158
0.229861
0.225175
0.213144
0.208359
0.196975
0.190522
0.181926
0.174599
0.169048
0.160771
0.157637
0.149976
0.147406
0.141059
0.138765
0.133536
0.131658
0.127265
0.125727
0.122023
0.120838
0.117981
0.116311
0.114417
0.112739
0.111634
0.109858
0.109392
0.107834
0.107535
0.106418
0.106195
0.105498
0.105423
0.105081
0.105178
0.105049
0.105406
0.105555
0.106023
0.106496
0.107044
0.107843
0.108447
0.109547
0.110237
0.111601
0.112421
0.114033
0.115015
0.116885
0.118056
0.120201
0.121585
0.124032
0.125748
0.128326
0.130489
0.133259
0.135916
0.138938
0.142169
0.145543
0.149412
0.153252
0.157824
0.162264
0.167633
0.172806
0.179119
0.18517
0.192586
0.199639
0.20832
0.216564
0.226168
0.235635
0.246083
0.256541
0.267554
0.278621
0.289704
0.300728
0.310926
0.320714
0.328463
0.335532
0.339374
0.342197
0.343002
0.159474
0.0785786
0.0642201
0.0605971
0.0605077
0.0645222
0.0716491
0.0824828
0.0950033
0.1084
0.120985
0.133352
0.149977
0.182778
0.250931
0.381319
0.583232
0.839053
0.973364
0.997113
0.977891
0.903909
0.793822
0.662849
0.532015
0.412833
0.311117
0.225835
0.183071
0.174653
0.175263
0.18977
0.216214
0.263794
0.323021
0.407343
0.503019
0.621243
0.762828
0.898835
1.03851
1.13389
1.22806
1.2883
1.32819
1.33336
1.31992
1.26943
1.17561
1.05774
0.924054
0.809278
0.699937
0.62836
0.567861
0.523213
0.496562
0.463371
0.449232
0.425696
0.416585
0.400841
0.395884
0.386697
0.385218
0.380497
0.380628
0.37742
0.3775
0.37496
0.375187
0.374381
0.372966
0.373169
0.371572
0.371948
0.371114
0.372152
0.371791
0.374035
0.37379
0.376913
0.376975
0.38138
0.382372
0.388361
0.390496
0.398751
0.404551
0.412138
0.422158
0.429867
0.442996
0.450711
0.465537
0.471534
0.484543
0.4886
0.496749
0.497734
0.499978
0.49789
0.496645
0.487685
0.481727
0.467285
0.459764
0.44378
0.429759
0.41663
0.398919
0.389596
0.370122
0.362892
0.344409
0.338026
0.321508
0.315374
0.300485
0.294946
0.281135
0.276075
0.263234
0.258859
0.247597
0.240751
0.232368
0.223432
0.217771
0.206982
0.203324
0.19236
0.18894
0.179071
0.175608
0.166972
0.163926
0.156457
0.154055
0.147607
0.145792
0.141275
0.138698
0.136142
0.133865
0.132695
0.130817
0.130491
0.129318
0.129355
0.128986
0.129439
0.12941
0.130652
0.130968
0.132786
0.133446
0.135827
0.137009
0.139463
0.141404
0.143978
0.146671
0.149443
0.152914
0.156
0.160273
0.163809
0.168938
0.173086
0.179152
0.184088
0.191251
0.197168
0.205633
0.21273
0.222736
0.231346
0.242512
0.252791
0.265077
0.276819
0.289907
0.302726
0.316021
0.32928
0.341701
0.354048
0.363555
0.372899
0.377455
0.381083
0.382074
0.403359
0.217054
0.159746
0.120934
0.1049
0.100888
0.101506
0.107217
0.11708
0.13222
0.152469
0.184934
0.238682
0.333872
0.476488
0.685825
0.920157
1.05522
1.07624
1.05339
0.981945
0.864757
0.71511
0.556633
0.407653
0.281428
0.179705
0.103193
0.0576433
0.0423109
0.0381044
0.0389105
0.0427263
0.0542114
0.0703088
0.0978357
0.13174
0.179464
0.24361
0.31827
0.421338
0.534887
0.683486
0.819691
0.973008
1.08064
1.195
1.25618
1.33252
1.36742
1.38116
1.3782
1.35947
1.32058
1.26744
1.19362
1.12908
1.05155
0.994974
0.931074
0.888955
0.838078
0.808531
0.763471
0.745207
0.711801
0.700234
0.675455
0.666781
0.648358
0.642336
0.630379
0.622294
0.615458
0.605333
0.601347
0.592146
0.59002
0.585023
0.585486
0.58346
0.586169
0.585486
0.590596
0.591271
0.59877
0.601064
0.611463
0.617848
0.627312
0.639461
0.649607
0.666257
0.67721
0.697121
0.707491
0.728468
0.736942
0.754732
0.760991
0.773332
0.776788
0.781823
0.781576
0.782212
0.778233
0.776751
0.769571
0.760274
0.753309
0.740102
0.734105
0.719428
0.714666
0.700404
0.696328
0.683274
0.679091
0.667012
0.663276
0.651365
0.647791
0.635771
0.632683
0.621954
0.613337
0.605846
0.591774
0.586489
0.567607
0.561871
0.539836
0.532875
0.508871
0.499866
0.474445
0.464639
0.437859
0.427901
0.399369
0.389265
0.363471
0.348428
0.328775
0.310276
0.296528
0.275902
0.267688
0.248316
0.241545
0.225549
0.22023
0.20763
0.203712
0.194294
0.191654
0.185096
0.183596
0.180346
0.178253
0.178022
0.177234
0.177852
0.178107
0.180637
0.181377
0.185389
0.186942
0.192215
0.194688
0.201188
0.204787
0.212606
0.217303
0.226607
0.232577
0.243675
0.251602
0.263789
0.274221
0.287638
0.300507
0.314942
0.329955
0.344897
0.361361
0.375829
0.392263
0.403853
0.416736
0.422777
0.427541
0.428845
0.735483
0.646957
0.556976
0.447384
0.383305
0.333348
0.322558
0.326576
0.346289
0.387698
0.449299
0.546843
0.668415
0.828856
0.983248
1.12046
1.15623
1.15586
1.11832
1.03604
0.899162
0.729538
0.545848
0.378905
0.233269
0.126158
0.0566957
0.0264764
0.0125442
0.00705687
0.00499615
0.00467852
0.00475545
0.00591084
0.00785881
0.0119449
0.0174294
0.025995
0.038997
0.0554438
0.0811194
0.112355
0.159195
0.212758
0.288544
0.371199
0.490472
0.603526
0.749731
0.860324
0.996027
1.08331
1.18311
1.23398
1.29394
1.3284
1.36255
1.39188
1.40822
1.42123
1.42312
1.42062
1.40941
1.38631
1.35803
1.31801
1.28435
1.23957
1.2086
1.16668
1.14212
1.11038
1.0833
1.06066
1.03139
1.01346
0.982666
0.969625
0.94573
0.937525
0.920752
0.916864
0.906137
0.905298
0.89989
0.900663
0.898849
0.902328
0.904887
0.907904
0.915552
0.919795
0.931474
0.937144
0.952368
0.958152
0.974675
0.980559
0.995544
1.00045
1.01197
1.01518
1.0215
1.02241
1.02425
1.02281
1.02309
1.02067
1.01607
1.01329
1.00635
1.00403
0.997276
0.996089
0.991719
0.992247
0.991001
0.993476
0.993833
0.999894
1.00193
1.01067
1.01374
1.02506
1.03113
1.03927
1.04964
1.05527
1.06702
1.07008
1.08054
1.082
1.08934
1.08913
1.09163
1.08791
1.08775
1.07624
1.0739
1.05395
1.0485
1.02645
1.00559
0.985389
0.952318
0.932474
0.888216
0.869346
0.818413
0.798045
0.744675
0.723829
0.669854
0.648711
0.59541
0.57471
0.52443
0.505196
0.46379
0.439437
0.410729
0.384828
0.367001
0.342308
0.333218
0.313212
0.307275
0.293691
0.290551
0.283001
0.282265
0.280025
0.281367
0.282008
0.287656
0.289213
0.297823
0.302015
0.310934
0.319276
0.329147
0.341578
0.352944
0.369014
0.382577
0.401902
0.416828
0.438189
0.452553
0.470642
0.47919
0.485798
0.4876
0.761573
0.875991
0.909245
0.929493
0.938833
0.94296
0.950268
0.976236
1.00954
1.06282
1.11797
1.18262
1.23401
1.27004
1.27383
1.26068
1.21073
1.12082
0.981869
0.815673
0.621474
0.436893
0.266878
0.149182
0.069346
0.0335622
0.0161577
0.00858698
0.00497654
0.00329873
0.00243274
0.00197803
0.0017096
0.00164632
0.00165505
0.00183593
0.00222207
0.00294931
0.0042871
0.00608852
0.00924722
0.0133527
0.0201536
0.0285923
0.0418886
0.0573622
0.0819634
0.108788
0.150045
0.190602
0.249465
0.307636
0.391876
0.470801
0.565191
0.665634
0.749134
0.858048
0.938187
1.05276
1.12835
1.23675
1.30031
1.39474
1.4427
1.51329
1.54349
1.58001
1.59156
1.59537
1.59322
1.58811
1.57196
1.55833
1.53213
1.5131
1.48042
1.45942
1.4255
1.4076
1.37783