/*--------------------------------*- C++ -*----------------------------------*\
| =========                 |                                                 |
| \\      /  F ield         | OpenFOAM: The Open Source CFD Toolbox           |
|  \\    /   O peration     | Version:  4.1                                   |
|   \\  /    A nd           | Web:      www.OpenFOAM.org                      |
|    \\/     M anipulation  |                                                 |
\*---------------------------------------------------------------------------*/
FoamFile
{
    version     2.0;
    format      ascii;
    class       volScalarField;
    location    "10";
    object      k;
}
// * * * * * * * * * * * * * * * * * * * * * * * * * * * * * * * * * * * * * //

dimensions      [0 2 -2 0 0 0 0];

internalField   nonuniform List<scalar> 
204246
(
2.23924
2.33952
2.33345
2.31584
2.30277
2.28431
2.26446
2.24381
2.22655
2.2033
2.19312
2.17429
2.16681
2.15449
2.15212
2.14855
2.15103
2.15098
2.15555
2.16984
2.17385
2.19252
2.19769
2.2173
2.22414
2.2436
2.25097
2.27
2.27714
2.29559
2.30195
2.31851
2.32498
2.34033
2.34685
2.36085
2.36684
2.37875
2.38715
2.39713
2.40464
2.41452
2.4215
2.43101
2.43777
2.44722
2.45529
2.46362
2.47303
2.48004
2.48902
2.49697
2.50562
2.51366
2.52178
2.5333
2.53883
2.55107
2.5563
2.56904
2.57395
2.58717
2.5918
2.60688
2.61085
2.62676
2.6309
2.64581
2.65073
2.66559
2.6706
2.68375
2.69284
2.70326
2.71419
2.72332
2.73546
2.74385
2.75676
2.76469
2.78058
2.78628
2.80395
2.8091
2.82613
2.8321
2.84916
2.85525
2.87063
2.88091
2.89353
2.90586
2.91723
2.93084
2.94152
2.95879
2.96685
2.98677
2.99333
3.01437
3.0212
3.042
3.04979
3.07075
3.07885
3.10061
3.10867
3.12894
3.14125
3.15894
3.17312
3.18989
3.20785
3.2221
3.24314
3.25554
3.27765
3.28996
3.31311
3.32541
3.35002
3.36211
3.38784
3.39981
3.42451
3.44022
3.4627
3.48043
3.50208
3.52191
3.54271
3.56382
3.58442
3.60667
3.62721
3.65061
3.67111
3.69544
3.71617
3.74148
3.7623
3.7871
3.81003
3.83399
3.85765
3.88182
3.90587
3.93041
3.95463
3.97967
4.00391
4.02943
4.05353
4.07963
4.10362
4.13027
4.15429
4.18115
4.2045
4.23162
4.25502
4.28153
4.30564
4.33135
4.35625
4.38099
4.40693
4.43056
4.45798
4.48045
4.50985
4.53103
4.56305
4.58333
4.61945
4.63782
4.67853
4.70063
4.73772
4.76836
4.80384
4.84365
4.88054
4.93062
4.97264
5.03442
5.08612
5.16084
5.22673
5.30656
5.37406
5.4126
5.42925
1.40783
1.50778
1.53321
1.57007
1.61493
1.63936
1.68458
1.70504
1.7268
1.73443
1.73521
1.73306
1.71148
1.68727
1.64651
1.622
1.57416
1.55065
1.50846
1.48556
1.46542
1.4482
1.44123
1.43539
1.43428
1.43491
1.43683
1.44373
1.44557
1.4556
1.45833
1.46984
1.47276
1.48396
1.48675
1.49788
1.50138
1.50583
1.51427
1.51615
1.52482
1.52713
1.53543
1.53776
1.54559
1.54725
1.55538
1.55693
1.56497
1.56651
1.575
1.57728
1.58639
1.58943
1.59288
1.6004
1.6023
1.61148
1.61412
1.62363
1.62654
1.63608
1.63857
1.64865
1.65126
1.66185
1.66469
1.6764
1.68022
1.69299
1.69782
1.70511
1.7164
1.72097
1.73415
1.73891
1.75279
1.75782
1.77225
1.77718
1.79186
1.79677
1.81214
1.81732
1.83386
1.84012
1.85789
1.86526
1.87726
1.89214
1.90029
1.91817
1.9256
1.94483
1.9523
1.97183
1.9794
1.99968
2.00743
2.02911
2.03764
2.06033
2.06995
2.09363
2.10382
2.12899
2.13985
2.16144
2.18029
2.19766
2.2214
2.23514
2.26239
2.27454
2.30407
2.31683
2.34867
2.36242
2.39558
2.41037
2.44468
2.46012
2.49718
2.51431
2.54624
2.57257
2.60051
2.63187
2.65878
2.69312
2.71972
2.75795
2.78472
2.82564
2.85343
2.89666
2.92601
2.97138
3.00304
3.05093
3.08625
3.12859
3.1735
3.21457
3.2621
3.30596
3.35509
3.402
3.45271
3.50297
3.55539
3.60918
3.66192
3.71986
3.77378
3.83659
3.89405
3.96118
4.01313
4.08887
4.14505
4.21571
4.28298
4.34815
4.42515
4.48503
4.56958
4.62557
4.71427
4.76885
4.85756
4.91354
4.99488
5.05409
5.13851
5.19625
5.27907
5.31891
5.41363
5.44992
5.54031
5.57309
5.65889
5.68829
5.77099
5.79751
5.88683
5.91839
6.08572
6.2314
6.64756
6.9059
7.01544
1.5242
1.67346
1.73674
1.86757
1.93886
2.05636
2.13114
2.23777
2.30264
2.39102
2.43372
2.46562
2.47103
2.47455
2.45809
2.43792
2.38765
2.35419
2.30284
2.25714
2.22418
2.17964
2.16296
2.12687
2.11494
2.09221
2.08736
2.07584
2.07721
2.07183
2.07887
2.07697
2.08926
2.08893
2.10441
2.10581
2.12285
2.131
2.13363
2.14927
2.15127
2.16638
2.16886
2.18309
2.18517
2.19954
2.19969
2.21399
2.21382
2.22807
2.22877
2.24067
2.2413
2.2544
2.26073
2.26009
2.27185
2.27167
2.28256
2.28286
2.29396
2.29445
2.30684
2.30637
2.31936
2.31907
2.33295
2.33386
2.34699
2.34852
2.36337
2.37065
2.37345
2.38587
2.38767
2.40151
2.40377
2.41825
2.42084
2.43641
2.4381
2.45456
2.45656
2.47399
2.47729
2.4939
2.49781
2.51603
2.525
2.53187
2.54672
2.5507
2.56758
2.57191
2.58949
2.59296
2.61113
2.61487
2.63363
2.63781
2.65684
2.66177
2.67993
2.68558
2.70428
2.71031
2.73068
2.73956
2.75123
2.76669
2.77294
2.79191
2.7977
2.81723
2.82335
2.84341
2.85036
2.8697
2.87684
2.89638
2.90371
2.924
2.93194
2.95259
2.96235
2.97648
2.99073
3.0008
3.01799
3.02578
3.04383
3.05189
3.06947
3.07758
3.09427
3.1023
3.11814
3.12625
3.14164
3.15
3.16411
3.17093
3.18191
3.18792
3.19697
3.20181
3.20926
3.21103
3.21664
3.21562
3.21825
3.21459
3.21516
3.20446
3.20449
3.18768
3.18642
3.16002
3.14712
3.13146
3.09847
3.08938
3.0435
3.03113
2.97715
2.96175
2.901
2.88341
2.81749
2.79801
2.72747
2.70672
2.63237
2.61095
2.53669
2.51621
2.4368
2.39992
2.36372
2.30065
2.28503
2.21432
2.19999
2.13202
2.11998
2.06014
2.05328
2.0127
2.01679
1.9902
1.9953
1.86096
1.81114
1.71147
1.81055
1.91144
2.05827
2.15325
2.26767
2.3678
2.49359
2.60388
2.72186
2.82653
2.92978
2.99252
3.01762
3.02018
3.02052
3.00573
2.99025
2.96156
2.92956
2.91103
2.88105
2.87046
2.84485
2.8359
2.81622
2.81103
2.79892
2.79795
2.78992
2.79218
2.78901
2.79321
2.79102
2.79632
2.79484
2.79948
2.80199
2.80015
2.80515
2.80391
2.80926
2.80889
2.81526
2.81521
2.82285
2.82222
2.82983
2.82917
2.83672
2.83661
2.84297
2.84288
2.84894
2.85187
2.85097
2.85585
2.85499
2.85888
2.8582
2.86201
2.86138
2.86579
2.8646
2.86896
2.86783
2.87239
2.87185
2.87609
2.87584
2.88028
2.88253
2.88223
2.88569
2.88535
2.88889
2.8887
2.89242
2.89234
2.89642
2.89599
2.89992
2.89955
2.90362
2.90374
2.90763
2.90803
2.91158
2.91331
2.91332
2.91583
2.91589
2.91836
2.91847
2.92078
2.92062
2.92245
2.92223
2.92356
2.92331
2.924
2.92362
2.92375
2.9231
2.923
2.92185
2.92134
2.91978
2.91728
2.91584
2.91262
2.91072
2.90687
2.90434
2.89993
2.89683
2.89175
2.88825
2.88229
2.87812
2.87151
2.866
2.85933
2.85104
2.84221
2.83397
2.82177
2.81406
2.79747
2.79062
2.76978
2.76284
2.73827
2.73019
2.70184
2.69247
2.65987
2.64885
2.61242
2.60011
2.55592
2.53431
2.5024
2.46407
2.4407
2.38986
2.3703
2.31213
2.29062
2.22833
2.20503
2.13885
2.11373
2.04393
2.01716
1.94518
1.91765
1.84034
1.80292
1.74349
1.69026
1.64444
1.57849
1.54516
1.47259
1.4446
1.37253
1.3461
1.27949
1.25513
1.19456
1.17282
1.11862
1.09962
1.05162
1.03521
0.992337
0.972892
0.944678
0.921372
0.902882
0.876112
0.8644
0.837038
0.828371
0.809281
0.806269
0.802107
0.816321
0.833411
0.863437
0.873071
0.880343
1.74526
1.8438
1.97895
2.14382
2.25473
2.36454
2.46599
2.59194
2.72316
2.84935
2.99013
3.12548
3.26537
3.37347
3.42493
3.44291
3.44108
3.42438
3.39251
3.35745
3.33866
3.32421
3.32076
3.31589
3.31541
3.30984
3.30858
3.30226
3.30204
3.29563
3.29602
3.29084
3.29161
3.28681
3.28749
3.28081
3.27912
3.27171
3.26027
3.25594
3.24299
3.23887
3.22778
3.22441
3.21495
3.21263
3.20413
3.2026
3.19518
3.19405
3.18772
3.18624
3.18
3.17818
3.17298
3.16711
3.16386
3.15563
3.15239
3.14349
3.13987
3.13065
3.12691
3.11714
3.11322
3.10323
3.09909
3.0892
3.08467
3.07459
3.06932
3.06012
3.05214
3.04378
3.03442
3.02636
3.01641
3.00832
2.99804
2.98988
2.97921
2.97089
2.96008
2.9515
2.94107
2.93194
2.92179
2.91173
2.90199
2.89069
2.88046
2.86927
2.858
2.84702
2.83416
2.82384
2.80874
2.79926
2.78177
2.77317
2.75298
2.74459
2.72289
2.71398
2.69075
2.68131
2.6543
2.64126
2.61936
2.59925
2.58061
2.5533
2.53917
2.50547
2.493
2.45519
2.44087
2.40184
2.38614
2.34466
2.32795
2.28401
2.26668
2.21744
2.19334
2.15612
2.11902
2.08979
2.04246
2.0192
1.96523
1.94372
1.88678
1.86452
1.80625
1.78348
1.72414
1.70082
1.64119
1.61766
1.55586
1.52601
1.47776
1.43759
1.39905
1.35102
1.3212
1.26718
1.24496
1.18966
1.16835
1.11565
1.09547
1.04579
1.02701
0.981075
0.963968
0.920662
0.90054
0.870104
0.846212
0.825012
0.798215
0.78553
0.759261
0.749945
0.727224
0.719671
0.700832
0.69478
0.679645
0.675074
0.663374
0.660212
0.651644
0.649789
0.64371
0.641413
0.640878
0.639147
0.63993
0.639089
0.64002
0.639095
0.639728
0.638452
0.639888
0.640321
0.649688
0.655431
0.668277
0.673011
0.676821
1.70415
1.82803
1.96241
2.13955
2.26377
2.37013
2.45019
2.54887
2.67412
2.80162
2.95042
3.09671
3.27211
3.43519
3.58483
3.6805
3.72004
3.73131
3.72336
3.6795
3.6203
3.56662
3.54552
3.53606
3.53551
3.54555
3.56156
3.56761
3.57719
3.58022
3.58243
3.58169
3.58205
3.57872
3.57765
3.57057
3.56372
3.55074
3.53295
3.51641
3.49296
3.47447
3.45035
3.4323
3.40921
3.39179
3.36885
3.35316
3.33184
3.31828
3.29858
3.28599
3.26801
3.2557
3.23923
3.22536
3.20971
3.19411
3.17864
3.162
3.14616
3.12896
3.11261
3.09511
3.07805
3.06062
3.04259
3.02553
3.00641
2.98948
2.96876
2.95008
2.93079
2.90961
2.89131
2.86792
2.85016
2.82481
2.80758
2.77967
2.7641
2.73312
2.71895
2.68552
2.6713
2.63732
2.62261
2.58668
2.56657
2.53854
2.51193
2.48822
2.45681
2.43602
2.39975
2.38315
2.34311
2.32752
2.28564
2.26965
2.22619
2.20885
2.16514
2.14684
2.10187
2.08295
2.03408
2.01065
1.97079
1.93838
1.90421
1.86391
1.83616
1.78848
1.76591
1.71339
1.69186
1.6391
1.61696
1.56432
1.54224
1.48999
1.46817
1.41438
1.3887
1.34655
1.3129
1.27971
1.2397
1.21426
1.16956
1.15092
1.1053
1.08751
1.04418
1.02745
0.986498
0.970727
0.932473
0.917814
0.881066
0.863808
0.837211
0.816295
0.796514
0.772831
0.75908
0.734139
0.724276
0.700348
0.691463
0.669967
0.662031
0.642899
0.635901
0.61896
0.612811
0.59746
0.590447
0.580166
0.572269
0.565099
0.556603
0.552328
0.544196
0.541266
0.534424
0.532196
0.527087
0.525588
0.522145
0.521366
0.519552
0.519498
0.519023
0.519927
0.520345
0.522489
0.524626
0.527482
0.531277
0.534893
0.540174
0.544515
0.551289
0.556589
0.564849
0.570955
0.580522
0.58703
0.594477
0.597456
0.599385
1.55994
1.75056
1.87543
2.07599
2.22457
2.35169
2.42252
2.48504
2.5707
2.66208
2.77821
2.89594
3.05195
3.22518
3.42244
3.60255
3.75854
3.83768
3.86898
3.87551
3.85761
3.79952
3.72005
3.6459
3.60174
3.58302
3.57825
3.58214
3.6047
3.623
3.63329
3.64509
3.65113
3.6522
3.65206
3.64935
3.64278
3.63061
3.61189
3.58866
3.55955
3.52779
3.49288
3.45863
3.42321
3.38901
3.35307
3.31945
3.28449
3.25243
3.21959
3.1888
3.15884
3.1292
3.09997
3.07471
3.04403
3.02003
2.98892
2.965
2.93246
2.90839
2.87341
2.85035
2.81303
2.79066
2.75157
2.72925
2.68997
2.66706
2.62654
2.59832
2.56462
2.5305
2.50013
2.46177
2.43331
2.39174
2.36444
2.31957
2.29473
2.24649
2.22349
2.17259
2.15037
2.0994
2.07679
2.02476
1.99699
1.95445
1.91981
1.88331
1.84359
1.81184
1.76727
1.74148
1.69219
1.67127
1.62004
1.59966
1.54844
1.52748
1.47795
1.4569
1.40823
1.38751
1.33765
1.31401
1.27378
1.24417
1.21079
1.17569
1.15019
1.11007
1.09151
1.04949
1.03251
0.992947
0.976621
0.939592
0.924356
0.88986
0.875754
0.842447
0.827166
0.802026
0.784028
0.764929
0.744592
0.730982
0.70903
0.700027
0.678415
0.670287
0.650793
0.643537
0.625977
0.619464
0.603762
0.597963
0.583486
0.576789
0.566859
0.558923
0.551878
0.543149
0.538576
0.529682
0.526332
0.518157
0.515234
0.508092
0.505566
0.499379
0.497223
0.491945
0.490169
0.485657
0.483631
0.481073
0.478723
0.477558
0.475393
0.474844
0.47336
0.473153
0.472519
0.472715
0.472698
0.473954
0.474316
0.476556
0.477412
0.480536
0.481858
0.485781
0.48753
0.491904
0.494613
0.499123
0.502702
0.507477
0.511998
0.517262
0.522804
0.528555
0.535121
0.541471
0.548783
0.554845
0.560319
0.562828
0.564209
1.27208
1.5295
1.67982
1.93451
2.11633
2.28925
2.37229
2.41338
2.45164
2.48433
2.54086
2.60799
2.7168
2.85862
3.05272
3.25154
3.45192
3.59707
3.70626
3.79202
3.86165
3.88703
3.88625
3.84435
3.74487
3.63833
3.55017
3.5006
3.48036
3.47533
3.47998
3.50728
3.52781
3.53794
3.54116
3.54286
3.53985
3.5314
3.51907
3.49559
3.469
3.43131
3.39211
3.34543
3.30057
3.24893
3.20012
3.14447
3.0951
3.03932
2.99103
2.9371
2.89133
2.83974
2.79502
2.75249
2.70686
2.6694
2.62496
2.58981
2.54509
2.51107
2.46448
2.4318
2.38253
2.3506
2.29918
2.26755
2.21639
2.18485
2.13308
2.09666
2.0528
2.01035
1.97088
1.92439
1.88811
1.83856
1.80442
1.75173
1.72135
1.66585
1.63877
1.58159
1.55633
1.50055
1.4757
1.42055
1.39272
1.34787
1.3154
1.27792
1.24224
1.21104
1.17231
1.14835
1.10682
1.0893
1.04788
1.0315
0.992391
0.97655
0.940765
0.92576
0.892442
0.878468
0.846151
0.831127
0.805979
0.788796
0.768572
0.74913
0.734413
0.712801
0.702928
0.680989
0.67226
0.652478
0.644416
0.626598
0.61934
0.603291
0.59678
0.581751
0.5749
0.563799
0.556308
0.547611
0.539458
0.533177
0.524402
0.520199
0.511411
0.507988
0.499908
0.496851
0.48957
0.486816
0.480273
0.477803
0.47173
0.468901
0.464694
0.461355
0.45827
0.454626
0.452527
0.44875
0.447286
0.44375
0.442481
0.439395
0.438313
0.435688
0.4348
0.432689
0.432031
0.430362
0.429641
0.429035
0.428369
0.428312
0.428093
0.428569
0.42887
0.430218
0.430789
0.433014
0.434013
0.437149
0.438708
0.442792
0.444994
0.450046
0.452911
0.458928
0.462418
0.469081
0.47339
0.480222
0.485211
0.492051
0.497695
0.504449
0.510506
0.51719
0.52348
0.529978
0.536073
0.541592
0.545836
0.548112
0.549212
0.970844
1.20197
1.38119
1.68682
1.93175
2.13812
2.20597
2.21493
2.20304
2.15653
2.11881
2.1086
2.12743
2.21443
2.40642
2.65902
2.95649
3.19129
3.30686
3.36885
3.43077
3.54509
3.67785
3.78047
3.80574
3.80153
3.72975
3.59529
3.4511
3.33447
3.26564
3.23667
3.22622
3.2262
3.24008
3.25215
3.2522
3.24774
3.24355
3.22615
3.2075
3.17182
3.13563
3.08522
3.03788
2.97854
2.92533
2.85975
2.80205
2.73257
2.67268
2.60261
2.54296
2.4741
2.41422
2.35521
2.29477
2.2433
2.18599
2.13964
2.08424
2.04178
1.98687
1.94816
1.89212
1.85554
1.79802
1.76211
1.70533
1.67025
1.6143
1.5762
1.52957
1.48685
1.44596
1.40035
1.36427
1.31734
1.2851
1.23666
1.20917
1.15982
1.13679
1.08819
1.06676
1.02163
1.0015
0.959183
0.938177
0.904772
0.88257
0.855239
0.832579
0.810592
0.787325
0.77096
0.746833
0.735364
0.711746
0.702219
0.680445
0.671618
0.652351
0.644279
0.62688
0.61957
0.603151
0.595548
0.582749
0.574482
0.564019
0.555007
0.547113
0.537309
0.531644
0.521453
0.517125
0.50762
0.503635
0.495084
0.491497
0.483795
0.48057
0.473374
0.470054
0.464628
0.461014
0.456668
0.452794
0.449566
0.445465
0.443148
0.438995
0.437283
0.43336
0.431842
0.42832
0.42697
0.423839
0.422655
0.419819
0.418502
0.416585
0.415071
0.413772
0.412209
0.411423
0.409953
0.409453
0.408252
0.407902
0.407044
0.406845
0.406342
0.406309
0.406165
0.406308
0.406491
0.406838
0.407575
0.407946
0.409233
0.409805
0.41158
0.412376
0.414718
0.415815
0.418881
0.420426
0.424248
0.426338
0.431017
0.433804
0.439385
0.442998
0.449399
0.453893
0.460839
0.466191
0.473384
0.479326
0.486562
0.492759
0.500119
0.506528
0.513775
0.520108
0.526845
0.53255
0.537889
0.541601
0.543752
0.544687
0.684774
0.849771
0.988027
1.25343
1.50247
1.75404
1.86048
1.87372
1.85511
1.77405
1.6445
1.51678
1.48128
1.47764
1.54659
1.7455
2.11001
2.54248
2.81936
2.91761
2.95582
2.99682
3.06711
3.2041
3.37054
3.55746
3.6454
3.66638
3.64151
3.53705
3.37319
3.19993
3.05119
2.93784
2.88048
2.85066
2.83245
2.82057
2.81737
2.80581
2.79553
2.76869
2.74278
2.702
2.66327
2.60896
2.56146
2.49799
2.44409
2.37338
2.31311
2.2388
2.17569
2.10022
2.03392
1.96614
1.8972
1.83664
1.77138
1.71762
1.65617
1.60857
1.55068
1.50976
1.45449
1.4184
1.36479
1.33093
1.27934
1.24688
1.19732
1.16409
1.12346
1.08862
1.05398
1.01844
0.988699
0.953658
0.928454
0.893946
0.87315
0.839051
0.822129
0.789492
0.774719
0.745218
0.731844
0.705169
0.692023
0.671063
0.658244
0.641167
0.629112
0.615319
0.603724
0.593103
0.581483
0.573447
0.561834
0.555874
0.544555
0.5396
0.529257
0.524716
0.515282
0.511116
0.502142
0.497884
0.490533
0.486054
0.479668
0.474876
0.469569
0.464504
0.460174
0.454957
0.45143
0.446255
0.443455
0.43841
0.436119
0.431384
0.429303
0.424892
0.422817
0.419298
0.417133
0.414223
0.411985
0.409685
0.407353
0.405591
0.403204
0.401913
0.399568
0.398584
0.396426
0.395561
0.393664
0.392915
0.391237
0.390451
0.389359
0.388505
0.38785
0.387002
0.386692
0.386011
0.385827
0.385443
0.385397
0.385295
0.38539
0.385555
0.385973
0.386339
0.387088
0.387692
0.388724
0.389915
0.391206
0.393021
0.394634
0.397003
0.39911
0.40207
0.404748
0.408264
0.411463
0.415514
0.419282
0.423951
0.428374
0.433773
0.438928
0.4451
0.451007
0.457907
0.464386
0.47188
0.478842
0.486767
0.49404
0.502028
0.509242
0.516866
0.523535
0.530217
0.535712
0.540687
0.544075
0.546121
0.546945
0.424731
0.517709
0.570898
0.71289
0.875039
1.03747
1.21684
1.28894
1.30184
1.2756
1.20925
1.09562
1.03384
1.02016
1.04687
1.17071
1.45349
1.86371
2.28965
2.46159
2.51458
2.5383
2.55181
2.59279
2.67149
2.81396
2.99245
3.20527
3.38203
3.4518
3.4593
3.4221
3.30235
3.12464
2.93485
2.75511
2.59315
2.45406
2.37578
2.33526
2.30843
2.27851
2.25888
2.23272
2.20892
2.16746
2.13269
2.08056
2.04087
1.98337
1.93656
1.87404
1.82243
1.75772
1.7007
1.63965
1.57665
1.52033
1.45934
1.40864
1.35072
1.30526
1.25178
1.21291
1.16454
1.13145
1.08778
1.05843
1.01844
0.991235
0.954027
0.927786
0.896578
0.870636
0.843588
0.818681
0.795059
0.771489
0.751221
0.729135
0.711931
0.691006
0.676497
0.656801
0.644415
0.626265
0.615583
0.598909
0.589312
0.575268
0.566503
0.554679
0.546974
0.53689
0.530216
0.521764
0.515611
0.508307
0.502338
0.495973
0.490099
0.484491
0.47881
0.473836
0.468321
0.463871
0.458451
0.454292
0.449449
0.445432
0.440928
0.43709
0.432929
0.429275
0.425469
0.422005
0.418531
0.415342
0.412223
0.409265
0.406531
0.40375
0.401378
0.39878
0.39666
0.394562
0.39249
0.390816
0.388808
0.387498
0.385571
0.384611
0.382822
0.382043
0.380512
0.37986
0.378582
0.378053
0.377031
0.376625
0.375861
0.375507
0.375145
0.374875
0.374812
0.37473
0.374789
0.374934
0.375261
0.375567
0.376152
0.376642
0.377482
0.378186
0.379292
0.380258
0.381654
0.382945
0.384613
0.386263
0.388171
0.390176
0.392372
0.394786
0.397422
0.400391
0.403566
0.407299
0.41108
0.415659
0.420139
0.425555
0.430817
0.437075
0.443171
0.450232
0.457187
0.46498
0.472544
0.480927
0.488971
0.497736
0.506041
0.514871
0.523056
0.531423
0.538842
0.546
0.551832
0.556948
0.560336
0.562408
0.563188
0.266422
0.289787
0.300095
0.339786
0.409568
0.490229
0.590072
0.676185
0.75419
0.777544
0.780641
0.765281
0.754389
0.753243
0.789411
0.909952
1.17078
1.56721
2.0197
2.20748
2.24862
2.25036
2.21959
2.17304
2.16015
2.17717
2.24559
2.38453
2.56753
2.79559
3.01018
3.17944
3.22793
3.23533
3.19907
3.08343
2.89951
2.67865
2.45723
2.26994
2.09328
1.93744
1.82394
1.7676
1.73743
1.70775
1.68492
1.65638
1.63592
1.60089
1.57237
1.53125
1.50031
1.45985
1.42569
1.3872
1.3455
1.30849
1.26608
1.23198
1.19021
1.15655
1.11647
1.08533
1.04919
1.02162
0.989524
0.96453
0.935397
0.912081
0.885044
0.863327
0.839308
0.818875
0.79651
0.777233
0.756438
0.738485
0.719532
0.703251
0.686118
0.671287
0.655948
0.642831
0.629319
0.617691
0.605672
0.595085
0.584389
0.574684
0.565195
0.556316
0.548132
0.539776
0.532685
0.524473
0.518176
0.510009
0.50408
0.495819
0.490166
0.482036
0.476838
0.469134
0.464427
0.45727
0.453028
0.446414
0.442574
0.436618
0.432949
0.427668
0.424105
0.419502
0.416027
0.412093
0.408687
0.405363
0.402143
0.399333
0.396336
0.393958
0.391162
0.38913
0.386584
0.384945
0.382619
0.381271
0.379203
0.37811
0.376265
0.375358
0.373771
0.372998
0.371677
0.371038
0.369963
0.369452
0.368627
0.368239
0.36767
0.367401
0.367152
0.367028
0.366998
0.367041
0.367268
0.367511
0.367929
0.368416
0.369021
0.369778
0.370599
0.371651
0.372728
0.374107
0.375479
0.377231
0.378941
0.381136
0.383234
0.385931
0.388503
0.391692
0.394795
0.398411
0.402123
0.40622
0.410661
0.415417
0.420692
0.426263
0.432477
0.43893
0.446119
0.453437
0.461613
0.469762
0.478559
0.487423
0.49669
0.506032
0.515504
0.524962
0.5342
0.543174
0.551423
0.559014
0.565295
0.57056
0.574067
0.576155
0.576906
0.232215
0.20423
0.200756
0.203809
0.220072
0.250008
0.296659
0.349159
0.412122
0.463341
0.514898
0.543767
0.571735
0.59132
0.65497
0.79604
1.06788
1.46862
1.92752
2.11709
2.15227
2.14133
2.07205
1.95246
1.8063
1.72237
1.70478
1.72393
1.79334
1.93294
2.11225
2.34607
2.57161
2.80417
2.95198
3.00626
3.01247
2.99242
2.90891
2.74363
2.52259
2.27592
2.03419
1.83693
1.67297
1.53272
1.41044
1.33847
1.30462
1.28387
1.26767
1.25169
1.24112
1.23006
1.22071
1.20906
1.1936
1.18015
1.1653
1.15381
1.13778
1.12148
1.10163
1.08364
1.06425
1.0464
1.02808
1.01066
0.993069
0.974807
0.957128
0.939979
0.92133
0.90634
0.886614
0.87258
0.852041
0.838831
0.818336
0.806978
0.786242
0.776605
0.757373
0.749699
0.733582
0.727219
0.714306
0.709419
0.700212
0.693911
0.687546
0.68022
0.676116
0.667474
0.664732
0.653134
0.649531
0.634758
0.629469
0.61112
0.604091
0.583811
0.575303
0.555207
0.546769
0.528137
0.520483
0.50458
0.496107
0.48365
0.475651
0.465914
0.457671
0.451002
0.442309
0.438079
0.42983
0.426341
0.419293
0.416315
0.410289
0.407736
0.402555
0.400401
0.396135
0.393901
0.390492
0.388555
0.385801
0.383984
0.381903
0.380176
0.378666
0.377071
0.376001
0.374562
0.373851
0.37267
0.372193
0.371319
0.37101
0.370571
0.370325
0.370273
0.370204
0.37041
0.37053
0.371082
0.371337
0.372222
0.372637
0.373876
0.374479
0.376107
0.376934
0.378966
0.380045
0.382504
0.383999
0.386629
0.388688
0.391594
0.394269
0.397538
0.400919
0.404682
0.408832
0.413197
0.418155
0.423251
0.429122
0.435068
0.441982
0.448885
0.456922
0.464813
0.474028
0.482935
0.492902
0.502725
0.513271
0.523716
0.534538
0.545177
0.555783
0.565926
0.575436
0.58399
0.591156
0.596978
0.600793
0.603068
0.603838
0.28368
0.206225
0.194325
0.193062
0.196624
0.21045
0.234245
0.267922
0.311226
0.355613
0.401419
0.438087
0.473699
0.519236
0.60715
0.775589
1.06852
1.49685
1.93764
2.10189
2.12994
2.09746
1.98907
1.8214
1.62604
1.42631
1.25972
1.20563
1.19866
1.23196
1.30992
1.45204
1.62609
1.85335
2.08447
2.33486
2.53644
2.70261
2.79705
2.81976
2.8231
2.79295
2.70495
2.53524
2.3084
2.06614
1.8253
1.63902
1.48662
1.3955
1.30801
1.25554
1.20749
1.18747
1.17455
1.16846
1.16711
1.16644
1.17068
1.17529
1.17635
1.17469
1.17274
1.16926
1.16926
1.16712
1.16769
1.16474
1.16439
1.15782
1.15552
1.14865
1.14085
1.13619
1.12477
1.12054
1.10687
1.10198
1.08771
1.08322
1.06845
1.0646
1.05086
1.04802
1.03853
1.0379
1.0354
1.03849
1.04312
1.0447
1.05388
1.05591
1.06675
1.06869
1.0773
1.07567
1.0788
1.07038
1.06942
1.04634
1.03865
1.00342
0.987535
0.942219
0.922579
0.875478
0.855601
0.810857
0.784087
0.75029
0.72077
0.697282
0.664315
0.65077
0.61966
0.608258
0.581939
0.571664
0.549431
0.54073
0.521605
0.514195
0.497622
0.491488
0.477851
0.470208
0.460001
0.452285
0.444977
0.436575
0.43206
0.4237
0.420779
0.413456
0.41082
0.404901
0.40276
0.397993
0.396398
0.392535
0.391371
0.388785
0.387316
0.385971
0.384716
0.3842
0.383269
0.383117
0.382704
0.382793
0.382752
0.383404
0.383583
0.384793
0.385261
0.386996
0.387759
0.390013
0.391264
0.393699
0.395619
0.398299
0.400933
0.40394
0.407393
0.410877
0.41521
0.419329
0.424592
0.429484
0.435774
0.441549
0.449014
0.455822
0.464615
0.472552
0.482801
0.491994
0.503238
0.513603
0.525658
0.536832
0.549316
0.560837
0.573169
0.584363
0.595501
0.605202
0.613494
0.620337
0.624362
0.627045
0.627859
0.493728
0.280473
0.231616
0.215239
0.212771
0.219805
0.235026
0.259709
0.289234
0.32216
0.355508
0.391589
0.44126
0.530469
0.695842
0.983455
1.39376
1.88388
2.12916
2.17642
2.15721
2.05888
1.88265
1.65378
1.40756
1.17181
0.957559
0.771722
0.673692
0.656452
0.661588
0.708892
0.787481
0.920574
1.07322
1.27793
1.48902
1.73482
1.99573
2.21261
2.4152
2.53563
2.64899
2.68841
2.69985
2.6881
2.64117
2.53786
2.38353
2.20432
2.01405
1.8553
1.71127
1.62187
1.54987
1.49634
1.46869
1.43865
1.42921
1.41977
1.41885
1.41601
1.41904
1.41802
1.42838
1.43133
1.44745
1.45164
1.46467
1.46796
1.47966
1.48527
1.49
1.49636
1.49695
1.50273
1.50249
1.50789
1.50754
1.51442
1.51378
1.52234
1.52219
1.53305
1.53475
1.54977
1.55479
1.57657
1.5925
1.61176
1.63911
1.65842
1.69315
1.7128
1.75069
1.76474
1.79515
1.80269
1.81701
1.81476
1.81712
1.8029
1.78985
1.75335
1.72852
1.67836
1.647
1.59093
1.5409
1.49305
1.43359
1.39515
1.32868
1.3013
1.23689
1.21245
1.15424
1.1308
1.07797
1.05678
1.00786
0.988554
0.943087
0.926045
0.886139
0.86142
0.830237
0.799501
0.776772
0.739613
0.72486
0.686514
0.672934
0.637926
0.624443
0.593366
0.581293
0.553983
0.543945
0.519906
0.51169
0.493409
0.483397
0.471065
0.461832
0.453797
0.444927
0.440908
0.433087
0.430646
0.4249
0.423345
0.419538
0.418702
0.416562
0.416349
0.415592
0.415922
0.41644
0.417089
0.418859
0.41979
0.422739
0.423974
0.428044
0.429835
0.434973
0.437369
0.443606
0.446794
0.454156
0.458354
0.466998
0.47241
0.482544
0.489357
0.50119
0.509714
0.522679
0.532985
0.546899
0.558646
0.573025
0.585753
0.59987
0.61296
0.625636
0.637803
0.647026
0.656186
0.66051
0.663952
0.664923
1.01173
0.640123
0.495667
0.383705
0.337397
0.324131
0.324237
0.337337
0.362188
0.401582
0.455284
0.539168
0.66764
0.877249
1.16658
1.56229
1.96358
2.18959
2.23481
2.21785
2.12459
1.93971
1.68223
1.39369
1.10349
0.842208
0.614144
0.42814
0.268319
0.199632
0.180663
0.182921
0.195855
0.23604
0.290131
0.379227
0.480914
0.616438
0.784034
0.963669
1.19957
1.42676
1.70325
1.92257
2.15553
2.29088
2.43861
2.50256
2.57535
2.59632
2.60165
2.58896
2.55783
2.50534
2.44396
2.36163
2.29616
2.21883
2.17072
2.11932
2.09318
2.05906
2.04467
2.01865
2.01268
1.99864
1.99975
1.9955
1.99944
1.9982
2.00755
2.01303
2.01599
2.02389
2.02407
2.03139
2.03134
2.04067
2.04197
2.05646
2.05895
2.07915
2.08411
2.10795
2.11524
2.14127
2.15117
2.1829
2.20383
2.23276
2.2668
2.29637
2.33978
2.37043
2.42022
2.44785
2.49886
2.51951
2.55866
2.571
2.59075
2.59164
2.59428
2.58575
2.57933
2.55379
2.53698
2.50185
2.46472
2.43109
2.38233
2.35058
2.29403
2.267
2.21123
2.19026
2.13876
2.11851
2.07019
2.05106
2.00329
1.98457
1.93756
1.92057
1.87919
1.8476
1.81544
1.7707
1.74385
1.68506
1.66262
1.59432
1.569
1.49626
1.46624
1.39027
1.35843
1.28063
1.24944
1.16894
1.13794
1.06539
1.02144
0.965158
0.912841
0.871413
0.814665
0.786895
0.732594
0.711289
0.664813
0.647494
0.609839
0.59624
0.566733
0.556447
0.534122
0.526707
0.512232
0.503993
0.496095
0.489905
0.486453
0.481934
0.481094
0.47898
0.479302
0.479097
0.481752
0.482644
0.487538
0.489677
0.496625
0.49985
0.50885
0.513428
0.524601
0.531498
0.543704
0.553535
0.566797
0.579327
0.593247
0.60807
0.621963
0.638305
0.651231
0.667404
0.677298
0.689411
0.694931
0.699108
0.700313
1.52241
1.41133
1.27613
1.09501
0.975702
0.875981
0.85146
0.85855
0.900085
0.986325
1.11009
1.29169
1.5
1.76257
1.99658
2.20945
2.28619
2.30033
2.26349
2.14524
1.92817
1.64612
1.32112
1.00375
0.704713
0.45594
0.25604
0.128532
0.0626071
0.0378864
0.0286332
0.0272813
0.0276242
0.0326814
0.0407108
0.0570984
0.0776802
0.108544
0.152491
0.20436
0.281517
0.367581
0.490228
0.617912
0.792974
0.967346
1.20191
1.39787
1.64682
1.8137
2.01934
2.13315
2.27232
2.33574
2.41972
2.46447
2.51414
2.55934
2.5918
2.63908
2.66548
2.70536
2.72268
2.73389
2.7374
2.73483
2.73484
2.72865
2.72909
2.72595
2.72896
2.73178
2.72973
2.73176
2.72601
2.72569
2.71635
2.71707
2.71446
2.72216
2.72213
2.73886
2.74217
2.7662
2.77324
2.79972
2.80924
2.84052
2.859
2.88536
2.91568
2.94121
2.9792
3.00529
3.04924
3.07347
3.12021
3.14056
3.18035
3.19473
3.22083
3.22732
3.23383
3.23117
3.23027
3.21805
3.21065
3.19091
3.16671
3.14497
3.11152
3.08819
3.04956
3.02866
2.98961
2.97472
2.94388
2.9332
2.91104
2.90454
2.88708
2.88276
2.86887
2.86783
2.86156
2.85539
2.85624
2.84754
2.84872
2.83536
2.83581
2.81531
2.81267
2.78363
2.77459
2.7353
2.72026
2.66908
2.64677
2.57941
2.55164
2.4823
2.42223
2.35904
2.27557
2.21328
2.10943
2.04875
1.93043
1.8719
1.74459
1.68995
1.56261
1.50977
1.3878
1.33717
1.22291
1.176
1.08061
1.02535
0.956327
0.898345
0.852134
0.796516
0.769727
0.722165
0.704526
0.668655
0.656663
0.632199
0.624839
0.609942
0.606305
0.599144
0.598376
0.595641
0.596551
0.598453
0.601317
0.607927
0.613031
0.624365
0.631513
0.647025
0.656753
0.675205
0.687321
0.706875
0.719084
0.734802
0.742279
0.747572
0.749127
1.51525
1.71037
1.7659
1.80096
1.81677
1.83105
1.85016
1.89596
1.94874
2.02709
2.1094
2.20569
2.29108
2.36579
2.38449
2.3768
2.31852
2.19162
1.9831
1.72211
1.40827
1.0885
0.75329
0.480337
0.260624
0.137565
0.0694301
0.039818
0.0249278
0.0180831
0.014437
0.0125499
0.0112069
0.0108583
0.0108485
0.0115989
0.013169
0.0160919
0.0212921
0.0278694
0.039091
0.0527582
0.0747274
0.100201
0.139097
0.18151
0.246625
0.31231
0.410375
0.500045
0.629304
0.749583
0.915821
1.05769
1.22545
1.3967
1.53761
1.71662
1.84449
2.02726
2.14542
2.32173
2.42795
2.58933
2.67531
2.80835
2.87472
2.98115
3.03197
3.11535
3.15558
3.21932
3.24961
3.29454
3.31424
3.33827
3.34662
3.35891
3.36337
3.37787
3.38385
3.40439
3.41122
3.43617
3.44518
3.47116
3.48132
3.50853
3.52483
3.54398
3.56716
3.58242
3.60786
3.62061
3.64647
3.65541
3.67925
3.68653
3.70465
3.7083
3.71571
3.71337
3.71216
3.70185
3.69312
3.67527
3.66193
3.64118
3.61852
3.59745
3.56952
3.54711
3.5163
3.49487
3.46484
3.44749
3.42238
3.41109
3.3973
3.39367
3.39064
3.39212
3.39203
3.39916
3.40657
3.41614
3.43212
3.4444
3.46557
3.47846
3.50344
3.51521
3.54141
3.55186
3.57545
3.58448
3.60487
3.6116
3.62833
3.63084
3.64453
3.64896
3.64765
3.65038
3.64299
3.64276
3.62069
3.61669
3.57981
3.5684
3.5136
3.49013
3.41482
3.37359
3.27639
3.2199
3.10048
3.02902
2.90669
2.78503
2.67146
2.51712
2.40465
2.23325
2.12716
1.94817
1.85831
1.67622
1.59592
1.42446
1.35127
1.20525
1.14433
1.03179
0.9862
0.910137
0.880383
0.829198
0.801247
0.773358
0.750029
0.739715
0.725136
0.721531
0.718773
0.724067
0.731024
0.745596
0.759633
0.777396
0.789863
0.796454
0.798642
0.880028
1.3082
1.45482
1.6591
1.74602
1.86218
1.91639
1.99622
2.04703
2.09737
2.14054
2.15471
2.14985
2.11145
2.03185
1.89037
1.70792
1.45083
1.1771
0.888932
0.60648
0.38918
0.220479
0.138516
0.0834653
0.0586777
0.0386712
0.0297531
0.0222555
0.0189895
0.0159492
0.0143689
0.0124015
0.0112479
0.00982329
0.00912159
0.00833258
0.00809678
0.00806705
0.00824686
0.00885427
0.00986904
0.0117533
0.0142255
0.0183892