/*--------------------------------*- C++ -*----------------------------------*\
| =========                 |                                                 |
| \\      /  F ield         | OpenFOAM: The Open Source CFD Toolbox           |
|  \\    /   O peration     | Version:  4.1                                   |
|   \\  /    A nd           | Web:      www.OpenFOAM.org                      |
|    \\/     M anipulation  |                                                 |
\*---------------------------------------------------------------------------*/
FoamFile
{
    version     2.0;
    format      ascii;
    class       volScalarField;
    location    "10";
    object      p;
}
// * * * * * * * * * * * * * * * * * * * * * * * * * * * * * * * * * * * * * //

dimensions      [0 2 -2 0 0 0 0];

internalField   nonuniform List<scalar> 
204246
(
-10.9478
-35.9234
-39.4705
-41.4355
-43.1008
-43.9143
-44.2555
-43.4336
-42.4966
-40.9935
-39.173
-37.0243
-34.8841
-32.7817
-30.9524
-29.3571
-28.1378
-26.9223
-25.7479
-25.0853
-24.4366
-24.0316
-23.7363
-23.7108
-23.6905
-23.9551
-24.2933
-24.6962
-24.9092
-25.6663
-25.8073
-26.3768
-26.7514
-27.3728
-28.0313
-29.0822
-29.835
-30.0672
-30.825
-30.9634
-31.6331
-31.8631
-32.4135
-32.8266
-33.2299
-33.5417
-33.8871
-34.1276
-34.386
-34.5115
-34.6646
-34.7945
-35.8407
-36.3398
-36.0809
-36.6595
-36.713
-36.8635
-37.0108
-37.2279
-37.4135
-37.6295
-37.7563
-37.9414
-38.0477
-38.2045
-38.2507
-38.2927
-38.2697
-39.2665
-39.818
-39.6349
-40.0236
-40.0404
-40.1561
-40.2364
-40.3404
-40.3512
-41.0175
-41.0035
-41.1252
-41.1986
-41.3376
-41.3601
-41.3793
-41.3326
-42.3522
-42.8928
-42.6579
-43.0264
-42.9603
-42.95
-42.8673
-43.5258
-43.5199
-43.6368
-43.6463
-43.631
-43.3692
-44.0341
-43.9809
-43.9726
-43.9053
-43.8881
-43.8437
-44.9367
-45.3409
-45.1585
-45.3772
-45.1515
-45.7972
-45.7793
-45.9334
-46.0239
-46.1137
-45.997
-46.5793
-46.2901
-46.8986
-46.8024
-46.7764
-46.6711
-47.8643
-48.381
-48.1962
-48.6087
-48.2956
-48.9979
-49.0846
-49.1752
-49.0511
-49.7274
-49.4999
-50.1614
-49.896
-50.5365
-50.1655
-50.6585
-50.382
-51.6563
-52.2599
-52.1572
-52.6591
-52.3631
-53.0255
-52.7701
-53.4946
-53.1995
-53.8925
-53.6108
-54.3415
-54.4095
-54.5192
-54.4281
-54.2968
-53.9593
-55.1843
-55.4757
-54.8662
-55.0078
-54.3783
-53.8312
-53.0903
-52.3001
-51.2036
-49.9485
-48.2857
-46.3832
-44.0177
-41.39
-38.3436
-35.1044
-30.4863
-25.8427
-20.4481
-14.569
-7.74269
0.181999
8.78212
18.5895
29.5829
42.2302
56.5888
73.1342
91.8327
112.95
136.366
162.649
192.746
232.239
292.234
387.877
516.508
-20.4377
-27.613
-34.5973
-39.3847
-42.4725
-44.1729
-45.0246
-44.984
-44.3598
-43.1151
-41.348
-39.2262
-36.9734
-34.7166
-32.6063
-30.6771
-29.0215
-27.555
-26.3389
-25.3471
-24.6035
-24.0264
-23.6694
-23.4898
-23.4539
-23.5734
-23.8302
-24.1951
-24.5455
-24.974
-25.4162
-25.8842
-26.3898
-26.9846
-27.6276
-28.3304
-29.0154
-29.6186
-30.1822
-30.6724
-31.1221
-31.5722
-32.0379
-32.4694
-32.8854
-33.2813
-33.6383
-33.9368
-34.169
-34.3707
-34.6013
-34.9022
-35.3051
-35.6888
-35.9744
-36.2431
-36.4689
-36.6709
-36.8617
-37.0558
-37.2531
-37.4541
-37.6441
-37.8179
-37.9614
-38.073
-38.1593
-38.2769
-38.4898
-38.8276
-39.1756
-39.4405
-39.666
-39.8374
-39.9782
-40.1032
-40.2429
-40.4197
-40.6452
-40.8462
-41.0112
-41.1418
-41.2368
-41.306
-41.4034
-41.5966
-41.9353
-42.2763
-42.5074
-42.6827
-42.7965
-42.89
-43.0189
-43.2042
-43.3676
-43.4845
-43.556
-43.5947
-43.6526
-43.7987
-43.894
-43.9159
-43.917
-43.9583
-44.1191
-44.4468
-44.7544
-44.946
-45.1062
-45.2591
-45.4522
-45.6279
-45.7751
-45.9051
-46.0126
-46.1366
-46.3172
-46.4667
-46.6312
-46.7145
-46.7961
-46.9955
-47.3801
-47.7655
-48.0328
-48.2585
-48.4501
-48.6844
-48.897
-49.048
-49.2167
-49.4274
-49.638
-49.8774
-50.1016
-50.2971
-50.421
-50.5474
-50.7854
-51.223
-51.6836
-52.0387
-52.3454
-52.5946
-52.8202
-53.0789
-53.3098
-53.5737
-53.7851
-54.0726
-54.3363
-54.6684
-54.8278
-55.015
-54.9485
-55.1516
-55.3595
-55.5706
-55.6514
-55.6208
-55.5422
-55.1334
-54.8168
-54.1715
-53.4866
-52.4915
-51.2734
-49.7367
-47.9141
-45.7915
-43.2827
-40.3925
-36.8927
-32.9321
-28.3347
-23.2121
-17.2233
-10.3846
-2.80315
5.7293
15.1669
25.8448
37.8263
51.565
67.1094
84.7306
104.043
124.814
146.669
171.697
207.603
273.044
369.804
-30.5059
-32.8696
-36.019
-39.4984
-42.3911
-44.1648
-45.2452
-45.5502
-45.0733
-44.0418
-42.5031
-40.5163
-38.2916
-35.9698
-33.7067
-31.5935
-29.6995
-28.056
-26.6831
-25.5808
-24.7177
-24.0729
-23.627
-23.4225
-23.3259
-23.3851
-23.6133
-23.9593
-24.3372
-24.7544
-25.225
-25.7246
-26.272
-26.8731
-27.4996
-28.1327
-28.7534
-29.3651
-29.9437
-30.4787
-30.9623
-31.4247
-31.8914
-32.3242
-32.7409
-33.1467
-33.5195
-33.841
-34.1078
-34.3644
-34.6362
-34.9375
-35.2434
-35.539
-35.8342
-36.0973
-36.3408
-36.5585
-36.7686
-36.9636
-37.1659
-37.3609
-37.5643
-37.7446
-37.9162
-38.0439
-38.1782
-38.3339
-38.5565
-38.7904
-39.0285
-39.2752
-39.4982
-39.6978
-39.8617
-40.0221
-40.1796
-40.3663
-40.5469
-40.7384
-40.9198
-41.0824
-41.2048
-41.3247
-41.4679
-41.6703
-41.8962
-42.1239
-42.3459
-42.5293
-42.6847
-42.8198
-42.9698
-43.1089
-43.2534
-43.371
-43.4698
-43.5523
-43.6623
-43.7576
-43.8511
-43.9051
-43.9625
-44.0549
-44.2191
-44.3962
-44.5788
-44.7676
-44.9474
-45.1307
-45.2965
-45.4706
-45.6286
-45.7791
-45.909
-46.0671
-46.2201
-46.3886
-46.5353
-46.6716
-46.823
-47.0425
-47.2766
-47.5239
-47.7802
-48.0229
-48.2588
-48.4743
-48.6747
-48.8616
-49.0453
-49.2354
-49.443
-49.6623
-49.878
-50.0789
-50.2633
-50.4515
-50.6999
-51.0059
-51.3333
-51.646
-51.9412
-52.1849
-52.4393
-52.6776
-52.9273
-53.1581
-53.4036
-53.6379
-53.9002
-54.1102
-54.3167
-54.4162
-54.5528
-54.6837
-54.9163
-55.0464
-55.0432
-54.9615
-54.7382
-54.429
-53.9767
-53.4038
-52.6383
-51.6496
-50.4012
-48.8369
-47.0248
-44.8426
-42.3573
-39.4132
-36.102
-32.255
-27.8618
-22.7724
-16.9531
-10.4121
-2.98202
5.34578
14.6867
25.0852
36.776
49.9495
64.9631
81.9077
100.717
120.758
141.712
164.163
192.843
235.999
293.201
-36.2815
-37.5495
-39.361
-41.764
-43.9726
-45.6697
-46.7711
-47.1946
-46.9206
-45.9425
-44.3948
-42.3737
-40.0412
-37.5354
-35.0135
-32.6238
-30.4492
-28.5651
-26.9838
-25.7207
-24.726
-23.9778
-23.4523
-23.1112
-22.9999
-23.0341
-23.2193
-23.5265
-23.9094
-24.3446
-24.8379
-25.364
-25.9361
-26.5458
-27.1804
-27.8098
-28.4366
-29.0459
-29.6401
-30.2005
-30.7189
-31.2107
-31.6869
-32.1376
-32.5623
-32.9721
-33.345
-33.6823
-33.9785
-34.2679
-34.5516
-34.8443
-35.1304
-35.4119
-35.6879
-35.953
-36.2031
-36.4296
-36.6482
-36.849
-37.054
-37.2491
-37.4494
-37.6308
-37.8085
-37.9582
-38.1186
-38.2885
-38.4928
-38.7001
-38.9167
-39.1371
-39.3536
-39.556
-39.7359
-39.9144
-40.0837
-40.2683
-40.4432
-40.633
-40.8042
-40.9791
-41.1219
-41.2809
-41.4435
-41.6434
-41.8352
-42.0361
-42.234
-42.4203
-42.5958
-42.7437
-42.9028
-43.0295
-43.1883
-43.2792
-43.4072
-43.4818
-43.6114
-43.6879
-43.8059
-43.8609
-43.954
-44.0499
-44.2147
-44.3434
-44.5098
-44.6751
-44.8382
-45.0316
-45.1749
-45.3688
-45.5017
-45.6884
-45.8072
-45.9977
-46.1358
-46.3227
-46.4573
-46.631
-46.7917
-47.0317
-47.2186
-47.4542
-47.6894
-47.8989
-48.1639
-48.3593
-48.5959
-48.7724
-48.9983
-49.1697
-49.4062
-49.5932
-49.8411
-50.0185
-50.2486
-50.4357
-50.7356
-50.9743
-51.2605
-51.5644
-51.8466
-52.1732
-52.4099
-52.7162
-52.9391
-53.2431
-53.46
-53.797
-54.0218
-54.3461
-54.5286
-54.7871
-54.9433
-55.2277
-55.378
-55.5716
-55.7286
-55.7858
-55.7713
-55.6374
-55.4441
-55.1268
-54.7055
-54.1408
-53.3364
-52.2975
-50.8785
-49.1312
-46.9807
-44.4561
-41.4944
-38.0932
-34.1653
-29.6708
-24.4675
-18.5445
-11.8534
-4.30139
4.13858
13.5809
24.0945
35.8549
48.9501
63.4883
79.4422
96.8477
115.892
137.695
164.975
199.731
238.13
-39.7134
-40.7832
-42.4456
-44.2077
-45.9367
-47.389
-48.4233
-48.8922
-48.733
-47.9291
-46.5011
-44.497
-42.0528
-39.3488
-36.5439
-33.8337
-31.3347
-29.1619
-27.3475
-25.895
-24.7552
-23.8998
-23.2972
-22.9085
-22.734
-22.7362
-22.8944
-23.1674
-23.5445
-23.9862
-24.4945
-25.0334
-25.6262
-26.2403
-26.8857
-27.5187
-28.1573
-28.7756
-29.3796
-29.9578
-30.4995
-31.0159
-31.5072
-31.9788
-32.4151
-32.8379
-33.2128
-33.5673
-33.8797
-34.1895
-34.4772
-34.7675
-35.0393
-35.3131
-35.5826
-35.8438
-36.0994
-36.3258
-36.5522
-36.757
-36.9689
-37.1642
-37.3727
-37.5488
-37.7394
-37.8941
-38.0736
-38.2433
-38.4423
-38.6272
-38.8318
-39.0388
-39.2456
-39.4516
-39.6322
-39.8235
-39.9965
-40.1852
-40.3535
-40.5618
-40.714
-40.9139
-41.0494
-41.2394
-41.4007
-41.6066
-41.7752
-41.971
-42.1625
-42.3398
-42.5287
-42.6693
-42.842
-42.9683
-43.1321
-43.229
-43.3695
-43.4448
-43.5785
-43.6474
-43.7708
-43.8314
-43.9398
-44.0253
-44.1754
-44.2887
-44.4475
-44.6027
-44.7503
-44.9356
-45.0773
-45.2775
-45.4036
-45.5998
-45.7185
-45.9166
-46.0534
-46.2459
-46.3874
-46.5734
-46.7301
-46.9562
-47.139
-47.3673
-47.5884
-47.7941
-48.0468
-48.2366
-48.4815
-48.6595
-48.8962
-49.0701
-49.3113
-49.495
-49.7429
-49.9228
-50.156
-50.3567
-50.6359
-50.8638
-51.141
-51.4141
-51.695
-51.992
-52.2401
-52.5227
-52.7756
-53.0441
-53.303
-53.5749
-53.8416
-54.0892
-54.3211
-54.5055
-54.7099
-54.8947
-55.1139
-55.2936
-55.3936
-55.4256
-55.3617
-55.1955
-54.901
-54.4506
-53.8761
-53.1356
-52.303
-51.266
-50.0498
-48.5397
-46.7307
-44.5441
-41.965
-38.9276
-35.4048
-31.3267
-26.6321
-21.3042
-15.2258
-8.32093
-0.499942
8.30172
18.1285
28.9672
40.7595
53.3911
66.8356
81.1952
97.0746
115.833
139.202
167.222
195.188
-42.3478
-43.4411
-45.0979
-46.5787
-48.0998
-49.3826
-50.3535
-50.8693
-50.806
-50.1105
-48.778
-46.8291
-44.328
-41.4429
-38.3497
-35.2802
-32.4091
-29.8815
-27.7707
-26.091
-24.7905
-23.8156
-23.1234
-22.6715
-22.445
-22.4167
-22.5441
-22.7995
-23.1768
-23.6265
-24.151
-24.7038
-25.3139
-25.9379
-26.5938
-27.2364
-27.89
-28.5218
-29.1396
-29.734
-30.2942
-30.8298
-31.3358
-31.8261
-32.2768
-32.7127
-33.0962
-33.4652
-33.7909
-34.1139
-34.4063
-34.6973
-34.9613
-35.2285
-35.4926
-35.7517
-36.0108
-36.2344
-36.4661
-36.673
-36.8917
-37.0802
-37.3032
-37.4671
-37.6786
-37.8271
-38.0281
-38.1906
-38.3961
-38.5613
-38.7615
-38.961
-39.1528
-39.366
-39.5373
-39.7417
-39.908
-40.1071
-40.2707
-40.4831
-40.6367
-40.8453
-40.9888
-41.1882
-41.3533
-41.5577
-41.7253
-41.915
-42.109
-42.278
-42.4675
-42.613
-42.7825
-42.9143
-43.0765
-43.179
-43.3228
-43.4064
-43.5395
-43.6123
-43.7356
-43.8066
-43.9126
-44.0077
-44.1389
-44.2454
-44.3949
-44.5368
-44.6822
-44.8447
-44.9904
-45.1794
-45.3126
-45.5012
-45.6335
-45.8292
-45.9741
-46.1592
-46.3213
-46.5006
-46.6716
-46.8783
-47.06
-47.2817
-47.4901
-47.7006
-47.9299
-48.1232
-48.3603
-48.5469
-48.7792
-48.9622
-49.1988
-49.3879
-49.6306
-49.8178
-50.0594
-50.2594
-50.5296
-50.7488
-51.0189
-51.2865
-51.5596
-51.8618
-52.1173
-52.4235
-52.6743
-52.9837
-53.2372
-53.561
-53.8213
-54.1507
-54.3906
-54.7345
-54.9654
-55.3035
-55.4552
-55.7
-56.0288
-56.1699
-56.3449
-56.3971
-56.4378
-56.4691
-56.3334
-56.0418
-55.4838
-54.6975
-53.6328
-52.2979
-50.6474
-48.6729
-46.3249
-43.5841
-40.3964
-36.7311
-32.4962
-27.6754
-22.1828
-15.9055
-8.76046
-0.657128
8.4152
18.4358
29.2846
40.8354
53.0343
65.9451
80.0507
96.5378
116.205
138.907
160.438
-44.3708
-45.5134
-47.0617
-48.5884
-49.9914
-51.2157
-52.2065
-52.821
-52.9518
-52.4408
-51.2572
-49.3995
-46.9021
-43.8758
-40.5131
-37.0709
-33.786
-30.8483
-28.3855
-26.4277
-24.9162
-23.7864
-22.9834
-22.4493
-22.1583
-22.0695
-22.1855
-22.4275
-22.791
-23.2484
-23.7991
-24.3706
-24.9936
-25.6253
-26.2922
-26.9486
-27.6199
-28.2679
-28.9015
-29.513
-30.0912
-30.6465
-31.1679
-31.6744
-32.1396
-32.589
-32.9843
-33.3671
-33.7041
-34.0377
-34.336
-34.6328
-34.8925
-35.1562
-35.4156
-35.6729
-35.9349
-36.1543
-36.3912
-36.5924
-36.8204
-37.0048
-37.2292
-37.3984
-37.6125
-37.7693
-37.9719
-38.1388
-38.3395
-38.5057
-38.6988
-38.8953
-39.0746
-39.2848
-39.4585
-39.6632
-39.8305
-40.0314
-40.198
-40.4089
-40.5681
-40.7769
-40.9296
-41.1341
-41.3
-41.5058
-41.6751
-41.8665
-42.0577
-42.226
-42.4179
-42.5668
-42.7392
-42.8727
-43.0369
-43.143
-43.2882
-43.3777
-43.5128
-43.5895
-43.7031
-43.7899
-43.8914
-43.9875
-44.1053
-44.2168
-44.3509
-44.4844
-44.6216
-44.7716
-44.9227
-45.1053
-45.2415
-45.4352
-45.569
-45.761
-45.9103
-46.0986
-46.2555
-46.4493
-46.6138
-46.8234
-46.9973
-47.2055
-47.4132
-47.6145
-47.8469
-48.0391
-48.2673
-48.4581
-48.6811
-48.8723
-49.0954
-49.2931
-49.5189
-49.7192
-49.9454
-50.1582
-50.3986
-50.6278
-50.8816
-51.137
-51.4001
-51.67
-51.9282
-52.2002
-52.4671
-52.7374
-53.0125
-53.2848
-53.5653
-53.831
-54.1037
-54.3468
-54.5982
-54.8045
-55.0713
-55.3101
-55.491
-55.6183
-55.6644
-55.6254
-55.486
-55.2549
-54.9987
-54.6616
-54.303
-53.8035
-53.14
-52.2305
-51.0442
-49.5281
-47.6556
-45.3867
-42.6962
-39.5481
-35.8896
-31.7128
-26.923
-21.4319
-15.1531
-8.01684
-0.00881682
8.84797
18.4763
28.7884
39.7307
51.3808
64.1233
78.7432
95.5717
114.348
131.58
-45.7695
-47.017
-48.4821
-50.0703
-51.4984
-52.7255
-53.7953
-54.5489
-54.9086
-54.6566
-53.7452
-52.0879
-49.698
-46.6218
-43.0491
-39.252
-35.5408
-32.1656
-29.3041
-27.012
-25.2414
-23.9218
-22.9717
-22.3244
-21.9479
-21.7973
-21.8598
-22.0817
-22.4406
-22.8949
-23.4437
-24.0189
-24.6609
-25.3105
-25.9901
-26.6561
-27.3399
-28.0032
-28.6516
-29.2802
-29.8767
-30.4535
-30.9935
-31.5166
-31.9976
-32.4628
-32.871
-33.2655
-33.6141
-33.9632
-34.2676
-34.5711
-34.8294
-35.0917
-35.3479
-35.6023
-35.8637
-36.0822
-36.3195
-36.5222
-36.7464
-36.9402
-37.1605
-37.3388
-37.5506
-37.7141
-37.9169
-38.084
-38.2828
-38.45
-38.6416
-38.8341
-39.0076
-39.2125
-39.385
-39.5881
-39.7568
-39.9572
-40.1263
-40.3362
-40.4991
-40.708
-40.8669
-41.0742
-41.2412
-41.4495
-41.6207
-41.8151
-42.002
-42.1732
-42.3667
-42.5179
-42.6916
-42.8267
-42.991
-43.1017
-43.2445
-43.3389
-43.4686
-43.5502
-43.6626
-43.7519
-43.8536
-43.9484
-44.0623
-44.1622
-44.2924
-44.4183
-44.5482
-44.6944
-44.8321
-45.0057
-45.1437
-45.3209
-45.4677
-45.652
-45.8091
-45.9935
-46.155
-46.3483
-46.5174
-46.7179
-46.8914
-47.1027
-47.3041
-47.504
-47.7246
-47.9225
-48.1502
-48.3412
-48.5682
-48.7588
-48.9875
-49.183
-49.4176
-49.616
-49.8566
-50.0666
-50.3169
-50.5306
-50.7743
-51.037
-51.3047
-51.5863
-51.8538
-52.1449
-52.4188
-52.7201
-53.0027
-53.3156
-53.6084
-53.9329
-54.2357
-54.5685
-54.8714
-55.1978
-55.4701
-55.7781
-56.1013
-56.4102
-56.7092
-56.9608
-57.1746
-57.3156
-57.3243
-57.2027
-56.8976
-56.4352
-55.7833
-54.9399
-53.8584
-52.5153
-50.8565
-48.8537
-46.4621
-43.6565
-40.3757
-36.6098
-32.2796
-27.3152
-21.6671
-15.294
-8.18651
-0.35011
8.16795
17.3204
27.1003
37.604
49.1425
62.1734
76.823
92.7509
107.005
-46.4624
-47.8366
-49.3805
-50.9389
-52.5088
-53.8169
-54.9387
-55.8529
-56.4431
-56.5235
-55.9819
-54.6582
-52.5225
-49.5323
-45.859
-41.7791
-37.6613
-33.8384
-30.5552
-27.9035
-25.8483
-24.3095
-23.1823
-22.3959
-21.9045
-21.6601
-21.6421
-21.8064
-22.1286
-22.5578
-23.0979
-23.6832
-24.3394
-25.0019
-25.6858
-26.3566
-27.0474
-27.7248
-28.3863
-29.0311
-29.6444
-30.2417
-30.8029
-31.3422
-31.841
-32.323
-32.7475
-33.1593
-33.522
-33.883
-34.1939
-34.5038
-34.7669
-35.0304
-35.287
-35.5377
-35.7957
-36.0158
-36.2514
-36.4559
-36.6785
-36.874
-37.097
-37.2757
-37.4907
-37.6562
-37.8617
-38.0281
-38.2277
-38.3938
-38.5847
-38.7731
-38.9446
-39.1467
-39.3163
-39.517
-39.6864
-39.8855
-40.0558
-40.2617
-40.429
-40.634
-40.8011
-41.0062
-41.1813
-41.3844
-41.5612
-41.7533
-41.942
-42.1199
-42.3088
-42.4684
-42.6386
-42.7832
-42.944
-43.0617
-43.2068
-43.302
-43.4307
-43.5118
-43.626
-43.708
-43.816
-43.9012
-44.0139
-44.1057
-44.2287
-44.3517
-44.4719
-44.6162
-44.751
-44.9126
-45.0548
-45.2241
-45.373
-45.5528
-45.7149
-45.8968
-46.0616
-46.2521
-46.4262
-46.6181
-46.7905
-46.9922
-47.1937
-47.3991
-47.6056
-47.8052
-48.0151
-48.2081
-48.4238
-48.6192
-48.8339
-49.0334
-49.2492
-49.4535
-49.6731
-49.8879
-50.1141
-50.3436
-50.5853
-50.8287
-51.0807
-51.3328
-51.5942
-51.8553
-52.127
-52.3984
-52.6802
-52.9602
-53.2503
-53.5349
-53.8295
-54.1155
-54.4175
-54.7148
-55.0334
-55.3191
-55.5532
-55.7612
-55.929
-56.0992
-56.2209
-56.302
-56.3617
-56.3639
-56.3733
-56.2859
-56.075
-55.6764
-55.0614
-54.1849
-53.011
-51.4987
-49.6118
-47.3133
-44.5437
-41.2872
-37.4882
-33.097
-28.0864
-22.4343
-16.1454
-9.2284
-1.7076
6.40756
15.1361
24.5965
35.0246
46.6896
59.6264
73.4434
85.5884
-46.6972
-47.8786
-49.513
-51.1132
-52.7749
-54.2664
-55.5427
-56.6406
-57.4497
-57.8406
-57.6811
-56.7816
-55.0518
-52.3292
-48.733
-44.5024
-40.0468
-35.7954
-32.0981
-29.0881
-26.7348
-24.9556
-23.639
-22.7052
-22.0921
-21.7401
-21.6252
-21.6989
-21.9459
-22.3188
-22.8111
-23.3752
-24.0246
-24.6905
-25.3763
-26.0509
-26.7463
-27.4414
-28.1158
-28.7668
-29.3873
-29.9987
-30.5793
-31.1387
-31.6595
-32.1604
-32.6073
-33.0369
-33.4111
-33.7804
-34.1058
-34.4233
-34.6962
-34.9659
-35.2245
-35.4757
-35.7284
-35.9519
-36.187
-36.3927
-36.6138
-36.8086
-37.0309
-37.2118
-37.4273
-37.5965
-37.8022
-37.9713
-38.1695
-38.3343
-38.5228
-38.707
-38.8802
-39.0756
-39.2464
-39.4402
-39.6122
-39.8054
-39.9791
-40.1788
-40.3511
-40.5519
-40.7247
-40.9262
-41.1085
-41.3021
-41.4858
-41.6771
-41.8671
-42.0535
-42.239
-42.4094
-42.5801
-42.7311
-42.8838
-43.0107
-43.1503
-43.2533
-43.379
-43.4643
-43.578
-43.6583
-43.7659
-43.8482
-43.9558
-44.0441
-44.1601
-44.2773
-44.3957
-44.5355
-44.6648
-44.8232
-44.9612
-45.1322
-45.2784
-45.4572
-45.6198
-45.7957
-45.9697
-46.1545
-46.336
-46.5241
-46.7046
-46.8967
-47.0962
-47.2998
-47.5094
-47.715
-47.9274
-48.1283
-48.3409
-48.5423
-48.7554
-48.9611
-49.179
-49.3892
-49.6132
-49.8294
-50.0588
-50.2754
-50.5113
-50.7614
-51.0181
-51.2869
-51.5526
-51.8349
-52.1096
-52.4052
-52.6931
-53.0037
-53.3056
-53.6306
-53.9456
-54.2848
-54.612
-54.9606
-55.2894
-55.6453
-56.0153
-56.3808
-56.7445
-57.0797
-57.3821
-57.6124
-57.7637
-57.8263
-57.7843
-57.6524
-57.4227
-57.0891
-56.6228
-55.9821
-55.1226
-53.9953
-52.5479
-50.7233
-48.4568
-45.7245
-42.4783
-38.6796
-34.3136
-29.3696
-23.8583
-17.7893
-11.1748
-4.00138
3.7737
12.2739
21.6819
32.1657
43.724
55.9292
66.5328
-46.4119
-47.4984
-49.098
-50.6694
-52.3415
-53.9458
-55.3419
-56.6553
-57.733
-58.4318
-58.6573
-58.1767
-56.8966
-54.5753
-51.2441
-47.0809
-42.4884
-37.9459
-33.9068
-30.5647
-27.9163
-25.8802
-24.3502
-23.2382
-22.4786
-22.01
-21.7971
-21.7877
-21.9592
-22.2621
-22.6816
-23.1829
-23.7738
-24.4058
-25.0716
-25.7459
-26.4535
-27.1432
-27.8103
-28.4666
-29.1009
-29.7313
-30.3351
-30.9112
-31.446
-31.9594
-32.4241
-32.87
-33.2695
-33.6573
-33.9967
-34.3207
-34.6051
-34.8837
-35.1472
-35.4025
-35.6556
-35.8845
-36.1192
-36.3277
-36.5466
-36.7429
-36.9613
-37.1444
-37.3587
-37.5311
-37.7364
-37.908
-38.1004
-38.2675
-38.4523
-38.6354
-38.8135
-38.999
-39.174
-39.3576
-39.5343
-39.7195
-39.8988
-40.088
-40.2679
-40.4589
-40.6409
-40.8349
-41.0228
-41.2153
-41.4011
-41.5937
-41.7852
-41.9754
-42.1621
-42.341
-42.5149
-42.6737
-42.8281
-42.9637
-43.0941
-43.2061
-43.3233
-43.4151
-43.5238
-43.6058
-43.7083
-43.7902
-43.8903
-43.9737
-44.084
-44.1958
-44.3123
-44.4443
-44.5678
-44.7169
-44.8505
-45.0146
-45.1673
-45.3363
-45.5018
-45.6766
-45.8514
-46.0334
-46.2146
-46.4003
-46.5848
-46.7771
-46.9716
-47.1715
-47.3731
-47.5757
-47.7769
-47.9775
-48.1788
-48.381
-48.5849
-48.7891
-48.9956
-49.2052
-49.4157
-49.6294
-49.8449
-50.0686
-50.3007
-50.5345
-50.7767
-51.0218
-51.2759
-51.5336
-51.8017
-52.0735
-52.3566
-52.643
-52.941
-53.2415
-53.5536
-53.8682
-54.1965
-54.5297
-54.8795
-55.2292
-55.5678
-55.9034
-56.2262
-56.5482
-56.8602
-57.1989
-57.5318
-57.8404
-58.1013
-58.268
-58.3215
-58.2469
-58.0315
-57.6625
-57.1088
-56.3323
-55.282
-53.9015
-52.1212
-49.9083
-47.2151
-44.0103
-40.285
-36.0352
-31.2726
-26.0051
-20.236
-13.9413
-7.05686
0.54479
9.01526
18.4717
28.8946
39.8391
49.2766
-45.5243
-46.7969
-48.4406
-50.0498
-51.6004
-53.2382
-54.6666
-56.0442
-57.2934
-58.2181
-58.7598
-58.6689
-57.8276
-55.9702
-53.0584
-49.1944
-44.7159
-40.1038
-35.8712
-32.2846
-29.3853
-27.0972
-25.3382
-24.0232
-23.0941
-22.4825
-22.1388
-22.0196
-22.0977
-22.3235
-22.6778
-23.1244
-23.6558
-24.2306
-24.8512
-25.4995
-26.1781
-26.8394
-27.4899
-28.145
-28.7982
-29.4399
-30.0415
-30.6215
-31.1754
-31.7106
-32.2087
-32.6838
-33.102
-33.4904
-33.8408
-34.1823
-34.4845
-34.7726
-35.047
-35.309
-35.5669
-35.7997
-36.0355
-36.2502
-36.469
-36.6709
-36.8834
-37.0727
-37.2812
-37.462
-37.6605
-37.8384
-38.0228
-38.1965
-38.3775
-38.5586
-38.7391
-38.9201
-39.0961
-39.2757
-39.4519
-39.6345
-39.8137
-39.9992
-40.1793
-40.3676
-40.5506
-40.7431
-40.9309
-41.1246
-41.312
-41.5056
-41.6987
-41.8912
-42.081
-42.2657
-42.4451
-42.6096
-42.7708
-42.9116
-43.0472
-43.1645
-43.2788
-43.3745
-43.4785
-43.563
-43.6583
-43.7417
-43.8376
-43.9184
-44.0207
-44.1268
-44.2409
-44.3666
-44.494
-44.6362
-44.7746
-44.9303
-45.0798
-45.2446
-45.4079
-45.5835
-45.758
-45.9422
-46.123
-46.311
-46.4928
-46.6841
-46.8804
-47.0807
-47.2854
-47.4891
-47.6983
-47.8981
-48.107
-48.3044
-48.5126
-48.7148
-48.9273
-49.135
-49.3534
-49.5648
-49.7866
-49.9983
-50.2256
-50.464
-50.7098
-50.9657
-51.2218
-51.4915
-51.7587
-52.0434
-52.3266
-52.6287
-52.9294
-53.2491
-53.5676
-53.9063
-54.2454
-54.6055
-54.965
-55.3468
-55.7368
-56.1251
-56.5106
-56.884
-57.248
-57.5914
-57.9272
-58.2474
-58.5522
-58.8267
-59.0491
-59.189
-59.2242
-59.133
-58.8896
-58.4588
-57.7941
-56.8407
-55.5324
-53.828
-51.6805
-49.0604
-45.9623
-42.3855
-38.3434
-33.8419
-28.8794
-23.424
-17.4001
-10.6643
-3.07122
5.475
14.9416
24.878
33.4172
-43.5063
-45.378
-47.4509
-49.2603
-50.7801
-52.4214
-53.9066
-55.2522
-56.5359
-57.5858
-58.3081
-58.3845
-57.9473
-56.5139
-54.026
-50.557
-46.3896
-41.9565
-37.7522
-34.0728
-31.0103
-28.5249
-26.5662
-25.0653
-23.9592
-23.1835
-22.6912
-22.4364
-22.3861
-22.4979
-22.7595
-23.1278
-23.5904
-24.1124
-24.6931
-25.3055
-25.9449
-26.5817
-27.2163
-27.8587
-28.4987
-29.1232
-29.715
-30.2964
-30.8673
-31.4275
-31.9403
-32.4194
-32.8615
-33.2801
-33.6644
-34.0192
-34.3281
-34.6236
-34.9115
-35.1804
-35.4461
-35.6897
-35.9296
-36.1513
-36.3721
-36.5802
-36.7935
-36.9886
-37.1966
-37.3819
-37.5796
-37.7602
-37.9454
-38.119
-38.2982
-38.4784
-38.6594
-38.8391
-39.0146
-39.1929
-39.3676
-39.5488
-39.7266
-39.911
-40.0895
-40.276
-40.457
-40.648
-40.835
-41.0293
-41.2177
-41.4125
-41.6067
-41.8009
-41.9943
-42.1823
-42.3657
-42.5352
-42.701
-42.8476
-42.9909
-43.1113
-43.2271
-43.3248
-43.422
-43.5088
-43.5971
-43.6814
-43.768
-43.8512
-43.9467
-44.0451
-44.1547
-44.2714
-44.3965
-44.5303
-44.6682
-44.817
-44.9663
-45.1267
-45.2889
-45.4611
-45.6355
-45.8167
-45.9976
-46.1829
-46.3668
-46.5578
-46.7509
-46.9491
-47.1494
-47.3507
-47.5516
-47.7502
-47.9505
-48.149
-48.3501
-48.5506
-48.7547
-48.9607
-49.1689
-49.378
-49.588
-49.8027
-50.0263
-50.2536
-50.489
-50.7287
-50.9758
-51.2291
-51.4906
-51.76
-52.0394
-52.3279
-52.6271
-52.9357
-53.2552
-53.5845
-53.9263
-54.2816
-54.6546
-55.0472
-55.4514
-55.8717
-56.3027
-56.7427
-57.1838
-57.6226
-58.0538
-58.4769
-58.8875
-59.2782
-59.639
-59.9543
-60.2056
-60.3693
-60.4207
-60.3253
-60.0392
-59.5072
-58.665
-57.4632
-55.8541
-53.8073
-51.3176
-48.3871
-45.0331
-41.2647
-37.0798
-32.4427
-27.2676
-21.395
-14.6558
-6.94836
1.68768
10.8022
18.6456
-39.9739
-42.916
-45.5137
-47.7536
-49.6502
-51.3658
-52.9654
-54.3711
-55.6469
-56.7444
-57.5643
-57.976
-57.5229
-56.3272
-54.195
-51.1402
-47.3918
-43.296
-39.3053
-35.708
-32.6144
-30.0269
-27.9308
-26.2804
-25.0185
-24.0922
-23.4525
-23.0505
-22.8592
-22.8311
-22.9678
-23.2269
-23.5914
-24.0332
-24.5467
-25.1047
-25.7012
-26.3157
-26.9405
-27.569
-28.1911
-28.806
-29.3989
-29.9816
-30.5581
-31.1184
-31.6341
-32.128
-32.5819
-33.014
-33.4112
-33.7835
-34.1194
-34.4396
-34.7426
-35.0271
-35.3016
-35.5532
-35.7959
-36.0259
-36.2551
-36.4711
-36.6894
-36.8872
-37.0972
-37.2852
-37.4866
-37.6687
-37.8603
-38.0339
-38.2147
-38.3948
-38.5751
-38.7559
-38.9301
-39.1093
-39.2833
-39.4642
-39.6403
-39.8245
-40.0012
-40.1873
-40.3656
-40.5555
-40.7402
-40.9332
-41.1194
-41.3144
-41.5102
-41.7053
-41.9037
-42.0922
-42.2805
-42.4548
-42.6286
-42.7794
-42.9321
-43.0571
-43.185
-43.2849
-43.3858
-43.4714
-43.5615
-43.6421
-43.7271
-43.8059
-43.896
-43.9886
-44.0906
-44.2011
-44.3219
-44.4536
-44.5859
-44.7323
-44.8774
-45.0366
-45.1959
-45.3678
-45.5406
-45.723
-45.9032
-46.0902
-46.2717
-46.4624
-46.6563
-46.8542
-47.0564
-47.2591
-47.4658
-47.6634
-47.8687
-48.0632
-48.267
-48.4645
-48.6709
-48.8739
-49.0852
-49.2918
-49.5067
-49.7108
-49.9282
-50.1548
-50.3884
-50.6308
-50.8751
-51.1306
-51.3864
-51.6569
-51.9296
-52.2191
-52.5124
-52.8234
-53.1391
-53.4724
-53.8105
-54.166
-54.5283
-54.9142
-55.318
-55.7404
-56.1816
-56.6391
-57.1118
-57.5957
-58.0905
-58.5897
-59.0916
-59.5887
-60.0759
-60.5428
-60.9781
-61.3644
-61.6811
-61.8977
-61.9734
-61.8533
-61.4741
-60.7749
-59.7028
-58.2214
-56.3225
-54.0095
-51.3056
-48.2321
-44.7948
-40.9626
-36.6426
-31.6511
-25.7806
-18.8931
-11.0187
-2.59395
4.72208
-35.3366
-39.1234
-42.3465
-45.2175
-47.6281
-49.6496
-51.459
-53.0239
-54.3497
-55.4732
-56.304
-56.7045
-56.4685
-55.4789
-53.6657
-51.0341
-47.7636
-44.1328
-40.5091
-37.1221
-34.0975
-31.4918
-29.3249
-27.572
-26.1927
-25.1348
-24.3577
-23.8174
-23.4904
-23.3363
-23.3231
-23.4555
-23.701
-24.038
-24.4586
-24.9413
-25.4728
-26.0379
-26.6268
-27.2312
-27.8374
-28.4502
-29.0521
-29.6426
-30.2173
-30.7738
-31.3012
-31.8043
-32.2778
-32.7335
-33.1506
-33.5405
-33.891
-34.2279
-34.5397
-34.8363
-35.116
-35.3792
-35.6331
-35.8742
-36.1125
-36.3357
-36.56
-36.7681
-36.9774
-37.1717
-37.3711
-37.5603
-37.7521
-37.9324
-38.1171
-38.2993
-38.4802
-38.6614
-38.8365
-39.0181
-39.1919
-39.3743
-39.5491
-39.7348
-39.9085
-40.0963
-40.2706
-40.4614
-40.6413
-40.8341
-41.0146
-41.2103
-41.4065
-41.5977
-41.7991
-41.9852
-42.1775
-42.354
-42.5365
-42.6908
-42.8538
-42.9828
-43.1228
-43.2254
-43.3371
-43.4265
-43.5213
-43.6031
-43.688
-43.7647
-43.8525
-43.9407
-44.0362
-44.14
-44.2544
-44.3792
-44.5046
-44.6457
-44.786
-44.9409
-45.0958
-45.2635
-45.4329
-45.6119
-45.7899
-45.9744
-46.1552
-46.345
-46.5364
-46.7322
-46.9305
-47.1323
-47.3351
-47.5307
-47.7318
-47.9255
-48.1255
-48.3208
-48.5227
-48.7236
-48.9304
-49.1348
-49.343
-49.5467
-49.7612
-49.9803
-50.2083
-50.4428
-50.6835
-50.9313
-51.1831
-51.4464
-51.7157
-51.9987
-52.2897
-52.5968
-52.9137
-53.2482
-53.5927
-53.9545
-54.326
-54.7208
-55.133
-55.5656
-56.019
-56.494
-56.9909
-57.5072
-58.0462
-58.602
-59.175
-59.759
-60.3523
-60.9472
-61.5378
-62.114
-62.6613
-63.1558
-63.5636
-63.8338
-63.9061
-63.7081
-63.1757
-62.2594
-60.9417
-59.2234
-57.1317
-54.7037
-51.9684
-48.9132
-45.4555
-41.3899
-36.4454
-30.4142
-23.2992
-15.4959
-8.5843
-30.536
-34.5546
-38.3025
-41.6618
-44.5853
-47.0223
-49.1325
-50.9624
-52.4405
-53.6513
-54.5353
-55.0056
-54.8989
-54.1302
-52.6568
-50.4828
-47.738
-44.6305
-41.4239
-38.3023
-35.418
-32.8621
-30.6776
-28.8571
-27.3846
-26.219
-25.3281
-24.6723
-24.2296
-23.9535
-23.807
-23.8019
-23.926
-24.1457
-24.4534
-24.8394
-25.2863
-25.7816
-26.315
-26.8762
-27.4511
-28.0405
-28.6311
-29.2201
-29.8017
-30.3673
-30.9148
-31.439
-31.936
-32.4067
-32.8441
-33.2536
-33.6299
-33.9863
-34.3159
-34.6281
-34.9187
-35.1929
-35.4539
-35.7036
-35.9473
-36.1812
-36.4122
-36.6273
-36.841
-37.0416
-37.2443
-37.4378
-37.6317
-37.8169
-38.0056
-38.1902
-38.3732
-38.5552
-38.7332
-38.9144
-39.0912
-39.274
-39.4518
-39.6357
-39.8104
-39.9963
-40.1717
-40.3597
-40.5389
-40.7286
-40.9095
-41.1029
-41.296
-41.4874
-41.6809
-41.869
-42.0627
-42.2417
-42.427
-42.5875
-42.7555
-42.8939
-43.0384
-43.1511
-43.2716
-43.3704
-43.4711
-43.5577
-43.6484
-43.7289
-43.8195
-43.9075
-44.0004
-44.1012
-44.2095
-44.3317
-44.4512
-44.5896
-44.7236
-44.8765
-45.0262
-45.1919
-45.3561
-45.5338
-45.7082
-45.8931
-46.0707
-46.2607
-46.4524
-46.6468
-46.8457
-47.0448
-47.2508
-47.4435
-47.6478
-47.8383
-48.0392
-48.2305
-48.4312
-48.6271
-48.832
-49.0313
-49.2381
-49.4345
-49.6441
-49.8577
-50.0784
-50.306
-50.5403
-50.7819
-51.0248
-51.2812
-51.5402
-51.8158
-52.0971
-52.3971
-52.7055
-53.0345
-53.373
-53.732
-54.1012
-54.4968
-54.9124
-55.3505
-55.8128
-56.2999
-56.8138
-57.3516
-57.9217
-58.517
-59.1422
-59.7909
-60.4662
-61.1636
-61.8827
-62.6177
-63.361
-64.0935
-64.7914
-65.4131
-65.9084
-66.197
-66.2046
-65.8606
-65.1291
-64.0008
-62.4976
-60.6633
-58.557
-56.2091
-53.5829
-50.4886
-46.5832
-41.5256
-35.2683
-28.1049
-21.5757
-26.0168
-30.1493
-34.0775
-37.7531
-40.9593
-43.8703
-46.2644
-48.4062
-50.1326
-51.515
-52.5482
-53.2073
-53.2543
-52.6977
-51.5396
-49.7783
-47.5032
-44.8531
-42.0296
-39.1989
-36.5114
-34.0599
-31.9074
-30.0656
-28.5363
-27.2913
-26.3069
-25.5442
-24.9883
-24.6073
-24.3309
-24.191
-24.2113
-24.3363
-24.5463
-24.8376
-25.1959
-25.6135
-26.0799
-26.5817
-27.1112
-27.6595
-28.2232
-28.7936
-29.365
-29.9248
-30.4752
-31.0059
-31.5208
-32.0093
-32.4743
-32.9127
-33.3204
-33.7049
-34.0596
-34.3954
-34.7051
-34.9977
-35.2729
-35.5337
-35.7855
-36.0258
-36.2613
-36.4834
-36.7022
-36.9076
-37.1136
-37.3086
-37.505
-37.6924
-37.8835
-38.0709
-38.2565
-38.441
-38.6211
-38.8033
-38.9814
-39.1646
-39.3444
-39.5285
-39.706
-39.8899
-40.0666
-40.252
-40.431
-40.6183
-40.7991
-40.9899
-41.1794
-41.3698
-41.5619
-41.7494
-41.9409
-42.1226
-42.3065
-42.4731
-42.6436
-42.7917
-42.9408
-43.0658
-43.1917
-43.2981
-43.4058
-43.4973
-43.5937
-43.6793
-43.774
-43.8641
-43.9579
-44.059
-44.1635
-44.2822
-44.3988
-44.5327
-44.6629
-44.8117
-44.9571
-45.1193
-45.2786
-45.4536
-45.6236
-45.8073
-45.9814
-46.1713
-46.3615
-46.5544
-46.7542
-46.9492
-47.1573
-47.3474
-47.5571
-47.7464
-47.9508
-48.1414
-48.3434
-48.5369
-48.7413
-48.938
-49.1458
-49.3384
-49.5472
-49.757
-49.9717
-50.1939
-50.4196
-50.6571
-50.8913
-51.142
-51.3923
-51.6605
-51.9316
-52.2219
-52.5182
-52.837
-53.1645
-53.5154
-53.876
-54.2661
-54.6763
-55.1113
-55.5732
-56.0641
-56.5872
-57.1373
-57.7285
-58.3493
-59.0126
-59.7064
-60.4434
-61.2164
-62.0362
-62.8937
-63.7899
-64.7096
-65.6404
-66.5553
-67.4204
-68.1573
-68.694
-68.9374
-68.8214
-68.3062
-67.3932
-66.1132
-64.5473
-62.7887
-60.8877
-58.7511
-56.0307
-52.1997
-47.0496
-40.7105
-34.5976
-21.9747
-26.1705
-29.9688
-33.7645
-37.2052
-40.4156
-43.1548
-45.5815
-47.5735
-49.1542