/*--------------------------------*- C++ -*----------------------------------*\
| =========                 |                                                 |
| \\      /  F ield         | OpenFOAM: The Open Source CFD Toolbox           |
|  \\    /   O peration     | Version:  4.1                                   |
|   \\  /    A nd           | Web:      www.OpenFOAM.org                      |
|    \\/     M anipulation  |                                                 |
\*---------------------------------------------------------------------------*/
FoamFile
{
    version     2.0;
    format      ascii;
    class       volScalarField;
    location    "1358";
    object      p;
}
// * * * * * * * * * * * * * * * * * * * * * * * * * * * * * * * * * * * * * //

dimensions      [0 2 -2 0 0 0 0];

internalField   nonuniform List<scalar> 
204246
(
132.985
-14.9218
36.4125
13.3204
10.5463
11.8466
2.73176
4.84294
-5.02278
-1.29046
-12.8801
-7.02985
-21.7363
-12.2517
-26.8833
-18.4214
-23.6175
-32.4327
-17.5639
-31.0174
-15.8521
-24.9754
-11.825
-16.4757
-4.63405
-8.30183
4.31011
-1.98855
12.4424
4.13689
18.8983
9.52478
22.9832
15.0305
23.2905
23.5174
16.8671
30.7249
17.1075
31.2108
18.5247
31.9271
18.7649
33.2117
17.201
34.2273
17.1017
33.9423
18.2181
31.5945
20.3725
28.8494
25.884
18.6188
31.128
17.0657
30.416
17.1039
30.138
16.4075
30.615
14.1444
30.9242
13.5186
29.8242
14.3897
26.6227
15.4295
23.4523
19.4859
13.0045
22.127
10.1894
21.2678
7.93994
19.2985
5.14984
17.3703
1.18273
14.2655
-1.62626
9.86372
-4.29125
4.05141
-7.35801
-2.07595
-6.80286
-15.4316
-9.14336
-20.4758
-12.0762
-26.305
-13.8511
-31.5305
-15.0827
-34.0883
-16.1176
-34.8904
-16.4876
-33.384
-17.6585
-30.4757
-17.2446
-26.8251
-16.4089
-20.7398
-23.1374
-12.656
-23.6537
-8.50533
-24.261
-6.03716
-22.4918
-5.3495
-21.2886
-4.49505
-20.5092
-3.8801
-19.6191
-3.86485
-17.6204
-6.03145
-11.3116
-16.0526
-4.61946
-18.3164
-2.85998
-18.6841
-2.28907
-18.6342
-2.02791
-18.4957
-1.8613
-18.3423
-1.7352
-17.7717
-2.17076
-16.076
-4.59876
-9.88279
-14.8884
-3.39984
-17.1057
-1.74101
-17.3291
-1.01085
-17.2032
-0.545697
-16.8091
-0.0702773
-16.1858
0.451116
-15.1171
0.75057
-12.5935
-0.777485
-5.40971
-9.53629
2.47808
-10.0979
5.93938
-8.05554
8.35789
-4.40462
11.0213
0.254511
14.8958
6.00754
20.0023
12.9909
26.3085
21.9684
34.2902
33.5239
43.7795
50.3036
52.5405
66.3999
70.9328
84.2441
93.9875
107.363
121.699
136.605
156.539
174.373
202.655
225.319
269.215
298.163
385.892
401.817
608.857
43.8293
18.1272
17.2529
18.8677
12.1088
12.3329
6.75058
5.07096
0.114769
-1.68921
-7.02756
-8.67469
-14.5598
-15.7656
-19.3513
-23.3168
-19.8003
-29.0778
-24.2774
-27.2526
-21.7779
-24.0358
-18.4995
-16.316
-11.5651
-8.28655
-2.83669
-0.574295
4.89491
6.27676
11.3123
12.2352
15.6678
17.6251
17.2611
22.947
18.8656
25.5568
21.5705
26.1485
22.6431
27.1399
22.891
28.0981
22.7883
28.0725
23.1247
27.5433
23.9143
26.3709
24.8508
24.4783
27.4913
21.9122
26.7349
22.1479
26.0212
21.7264
25.8623
21.0178
25.9218
20.2185
25.1607
19.9612
23.9593
19.9833
22.494
20.1126
19.9329
21.7905
16.6752
19.7528
15.1715
18.0652
13.3114
16.1649
10.866
13.8612
7.80899
10.7191
4.8648
6.8466
1.94883
1.96596
-1.37438
-4.26906
-2.74066
-10.3991
-9.80911
-15.4755
-13.8657
-20.1643
-17.7505
-24.3036
-20.9381
-26.9472
-22.9072
-28.1964
-23.8013
-27.6556
-23.7418
-26.3673
-22.5985
-24.0063
-21.8871
-19.3088
-22.3381
-16.7078
-20.4727
-14.2329
-18.8946
-12.9014
-17.1122
-11.7491
-16.0117
-10.7229
-15.1861
-10.0956
-14.1933
-10.2084
-12.3877
-11.6609
-9.10934
-14.0019
-8.67595
-13.7172
-8.36094
-13.4172
-8.10327
-13.1791
-7.9042
-12.9683
-7.76806
-12.7173
-7.81712
-12.1274
-8.35113
-10.662
-10.1131
-7.58333
-12.6207
-7.37995
-12.4203
-7.1555
-12.1469
-6.82842
-11.8336
-6.5192
-11.4429
-6.16402
-10.8743
-5.8257
-9.87299
-5.8087
-7.73749
-6.72651
-3.89916
-8.08211
-2.41925
-6.41774
-0.617377
-4.10213
1.66184
-1.37663
4.56549
2.0456
8.26232
6.55595
12.9966
12.3611
18.3939
20.1033
25.3363
29.872
33.5075
42.2595
45.9458
55.023
61.5813
71.1052
80.7858
91.2477
104.281
115.869
133.043
145.861
169.064
182.495
217.744
224.388
299.11
264.549
399.229
15.9755
24.6336
19.4871
18.4025
14.232
12.7749
7.89822
6.72443
1.34237
-0.350103
-5.64038
-7.90848
-13.1337
-15.706
-19.0347
-22.6238
-23.3884
-28.024
-25.2329
-27.939
-23.9824
-24.0524
-19.7337
-17.5768
-12.3453
-9.385
-4.05571
-0.607104
3.9536
7.00874
10.6411
13.1973
15.5953
18.2268
18.4298
22.3152
20.6785
24.8086
22.1579
26.2294
22.9925
27.3386
23.3153
28.0615
23.3259
28.2084
23.4832
27.8454
23.9501
26.8823
24.741
25.2298
26.0949
23.2814
26.3277
22.4467
26.1519
21.845
25.9131
21.1982
25.6762
20.4875
25.1168
20.0894
24.1273
19.9949
22.4759
20.0954
20.2269
20.3728
17.6002
19.4708
15.5855
18.1093
13.6109
16.2223
11.2786
13.8927
8.60286
10.6127
5.89776
6.49999
2.91755
1.80937
-0.403404
-3.65357
-4.58915
-9.12564
-9.5856
-14.2036
-14.5976
-19.1903
-18.27
-23.5254
-21.1763
-26.6302
-23.0246
-28.2453
-23.8985
-28.1557
-23.8225
-26.8161
-23.2083
-23.865
-22.5021
-20.1869
-21.2009
-17.3294
-19.9356
-14.7258
-18.5291
-12.8947
-17.0255
-11.5773
-15.8902
-10.5201
-15.0311
-9.89979
-14.0035
-9.94144
-12.4631
-10.9006
-10.2908
-12.5141
-9.11184
-13.0542
-8.36707
-13.1143
-7.98077
-12.9983
-7.76508
-12.827
-7.64993
-12.5752
-7.70087
-12.046
-8.16889
-10.9041
-9.47567
-8.95248
-11.2986
-7.93018
-11.9178
-7.24441
-11.9661
-6.79952
-11.754
-6.43859
-11.3853
-6.07197
-10.8073
-5.73604
-9.82469
-5.658
-7.99368
-6.18302
-5.11351
-6.8509
-2.9364
-6.02384
-0.663338
-4.17401
1.58163
-1.2704
4.14531
2.61271
7.62221
7.38898
12.2665
13.3476
18.2941
20.8037
25.7953
30.3185
35.4075
41.9277
46.9459
55.9523
62.5607
72.7974
82.4646
93.7247
107.268
119.796
138.373
152.254
177.904
192.589
232.29
240.214
316.373
295.102
383.882
2.43105
17.0681
13.318
16.1303
13.1019
13.07
9.08382
7.85274
3.54345
1.4822
-3.21797
-5.86824
-10.5754
-14.2483
-17.357
-22.0588
-22.8588
-27.402
-27.5805
-29.0239
-27.3956
-26.833
-23.4279
-20.9147
-16.3132
-12.5853
-7.72924
-3.62554
0.544627
4.74124
7.79482
11.6154
13.2283
16.9367
16.8946
20.9981
20.1419
23.1307
22.8789
24.4691
23.9843
25.4507
24.4475
26.0927
24.7434
26.1096
25.0569
25.7813
25.4389
25.182
25.8668
24.3258
26.3577
23.8457
25.5336
23.7859
24.9531
23.4186
24.6167
22.9487
24.2713
22.5485
23.5529
22.2832
22.6646
22.0837
21.5711
21.7394
20.2171
21.4734
19.0105
19.6559
17.6938
17.886
16.0398
16.0091
13.9878
13.6836
11.5804
10.689
8.72812
7.15929
5.38626
3.04338
1.72602
-1.82431
-2.39406
-6.88877
-8.09763
-11.9461
-13.5683
-16.8445
-18.7233
-21.1884
-22.8738
-24.4687
-25.6061
-26.4853
-26.7453
-26.9518
-26.4324
-26.2032
-25.3975
-23.9497
-23.9438
-21.2671
-21.7613
-18.9922
-19.2522
-16.9625
-17.3053
-15.3853
-15.6746
-14.0148
-14.5215
-12.9056
-13.6084
-12.2744
-12.6244
-12.1822
-11.446
-12.5013
-10.2081
-12.5444
-10.2378
-12.1478
-10.1759
-11.7806
-10.0365
-11.4852
-9.8853
-11.2276
-9.78498
-10.9298
-9.83364
-10.4374
-10.1561
-9.58878
-10.8389
-8.62484
-11.1062
-8.87524
-10.8485
-8.94087
-10.5602
-8.83072
-10.2586
-8.63509
-9.91165
-8.38635
-9.4196
-8.14825
-8.61716
-8.09398
-7.21442
-8.06863
-5.72014
-7.36987
-4.95114
-5.9604
-3.6813
-4.11836
-1.8125
-1.90618
0.525998
0.925523
3.63684
4.55327
7.66656
9.20577
12.5889
15.3848
18.8482
23.1052
26.6778
32.8869
37.0228
43.9587
50.0732
57.4091
66.0698
73.9007
85.4827
93.7953
109.001
117.791
138.35
145.445
178.49
173.373
230.861
217.726
288.822
3.81814
17.9688
13.5335
16.1443
14.4001
13.8069
10.6346
9.33368
5.23526
3.22253
-1.37526
-4.30873
-8.87292
-12.8993
-16.6855
-21.2297
-23.9007
-27.7211
-28.829
-30.7313
-29.5529
-29.0941
-25.8775
-23.2479
-18.3043
-14.3843
-8.99319
-4.67079
0.119779
4.23575
7.82709
11.6528
13.7628
17.1987
17.9885
20.9829
21.1851
23.45
23.2718
24.8506
24.4574
25.8565
25.0305
26.4401
25.3661
26.4557
25.5464
26.1974
25.7115
25.6939
25.8461
24.9796
25.8304
24.6428
25.3531
24.1816
25.0027
23.6461
24.6507
23.1324
24.2025
22.6983
23.5727
22.3374
22.7419
22.1013
21.6338
21.6579
20.4261
20.8269
19.3147
19.7443
18.0681
18.0962
16.4566
16.2554
14.4907
14.0253
12.1824
11.2042
9.42583
7.75121
6.09711
3.74066
2.23886
-0.884098
-2.27308
-5.7454
-7.39964
-11.0069
-12.806
-16.0769
-17.9888
-20.564
-22.4549
-24.2038
-25.5743
-26.6597
-27.0663
-27.5515
-27.1584
-26.755
-26.1862
-24.5969
-24.2343
-22.0027
-21.7499
-19.3747
-19.1656
-17.1159
-16.9762
-15.3268
-15.3663
-13.8149
-14.1748
-12.6647
-13.2186
-11.9545
-12.2611
-11.7326
-11.2298
-11.7031
-10.521
-11.5058
-10.3414
-11.383
-10.0757
-11.2646
-9.85708
-11.1091
-9.70322
-10.9248
-9.62502
-10.6816
-9.67332
-10.2992
-9.91702
-9.713
-10.3196
-9.2124
-10.3523
-9.20858
-10.3295
-9.02222
-10.2404
-8.79383
-10.0358
-8.54172
-9.72815
-8.27047
-9.24718
-8.01056
-8.47716
-7.93138
-7.38237
-7.54005
-6.12544
-6.82154
-5.11657
-5.59154
-3.69926
-3.90213
-1.81274
-1.61606
0.709703
1.28864
3.9782
5.025
8.14322
9.89455
13.3615
16.1032
19.9809
23.9991
28.3145
33.7516
38.9741
45.7049
52.5784
60.323
69.6046
78.241
90.686
100.059
116.494
126.152
148.654
156.406
190.757
187.695
236.983
225.621
270.719
2.48775
14.1661
11.0971
14.4771
13.2307
13.6541
11.1422
10.3781
6.90151
4.95112
0.865148
-2.26845
-6.65025
-10.9818
-15.1186
-20.1488
-23.5454
-28.1669
-30.4554
-32.9337
-33.0501
-32.8885
-30.3372
-27.6403
-23.0401
-18.5822
-13.2227
-8.13553
-3.21956
1.7205
5.39887
9.82552
12.1125
15.9045
16.917
20.1066
20.4876
22.6459
22.9775
24.2139
24.4165
25.0999
25.1381
25.5034
25.5213
25.5622
25.7465
25.4012
25.8673
25.1278
25.9304
24.8243
25.769
24.7226
25.178
24.6233
24.6514
24.2635
24.2952
23.917
23.8552
23.6092
23.2893
23.2429
22.6539
22.8558
21.9442
22.3724
21.0745
21.618
20.1323
20.3816
19.0703
18.9307
17.6469
17.2078
15.9075
15.0624
13.7381
12.47
11.0881
9.31088
7.87549
5.47975
4.09406
0.978973
-0.428517
-4.06124
-5.80025
-9.41533
-11.5551
-14.8924
-17.2616
-20.0572
-22.3313
-24.3094
-26.1882
-27.2484
-28.3655
-28.4752
-28.7542
-27.9115
-27.6906
-25.9416
-25.5097
-23.2156
-22.6453
-20.4981
-19.754
-18.0526
-17.389
-16.1338
-15.554
-14.6505
-14.247
-13.5926
-13.2139
-12.955
-12.3664
-12.6052
-11.5938
-12.4255
-11.0569
-11.9097
-11
-11.518
-10.9195
-11.1775
-10.796
-10.8771
-10.6599
-10.6053
-10.559
-10.3236
-10.5446
-9.98505
-10.619
-9.60927
-10.7309
-9.39776
-10.4729
-9.62932
-10.2264
-9.71559
-10.0056
-9.67805
-9.77571
-9.5571
-9.51153
-9.38885
-9.14746
-9.15044
-8.61556
-8.95252
-7.87257
-8.56761
-7.20144
-7.66929
-6.48501
-6.66509
-5.45077
-5.32775
-4.04722
-3.6245
-2.12711
-1.46468
0.375048
1.37529
3.57239
5.13655
7.63792
10.0029
12.7979
16.1915
19.4243
23.8746
28.0129
33.1359
38.8332
44.4156
52.2584
58.2094
68.6785
74.9416
88.7238
94.7032
113.53
116.761
147.183
140.735
181.915
179.407
219.999
6.63485
16.2748
12.8091
15.751
14.3059
14.8544
12.7058
11.9897
8.90076
7.01024
3.16549
0.0180296
-4.35238
-8.79664
-13.4222
-18.6562
-23.1462
-28.0841
-31.5976
-34.8741
-35.869
-36.3688
-34.191
-31.4514
-26.4131
-21.4719
-15.4703
-10.0302
-4.39147
0.778299
5.19159
9.64515
12.6001
16.1725
17.7646
20.4735
21.4258
23.2293
23.6771
24.9869
25.095
25.8916
25.9357
26.2683
26.2873
26.2742
26.3965
26.0535
26.3399
25.7037
26.1498
25.3745
25.8063
25.1823
25.3308
24.8851
24.8213
24.4308
24.3691
24.0283
23.8826
23.6622
23.3431
23.2772
22.7057
22.8302
21.9575
22.2778
21.1616
21.5183
20.3852
20.4947
19.3762
19.1923
18.0756
17.5902
16.4609
15.6269
14.4161
13.2016
11.887
10.2073
8.80663
6.54978
5.06887
2.26211
0.560228
-2.56889
-4.67826
-7.98103
-10.3944
-13.6401
-16.2239
-19.126
-21.6462
-23.9229
-26.0118
-27.4158
-28.7979
-29.1169
-29.675
-28.9757
-28.774
-27.1247
-26.4101
-24.1194
-23.2258
-20.8371
-19.9978
-17.9398
-17.3126
-15.7553
-15.3276
-14.2489
-13.8504
-13.2093
-12.7244
-12.4652
-11.8395
-11.9506
-11.1078
-11.5493
-10.6967
-11.1104
-10.7085
-10.8115
-10.6233
-10.614
-10.5094
-10.4384
-10.4071
-10.2587
-10.3398
-10.0629
-10.3259
-9.84087
-10.3702
-9.58781
-10.3562
-9.49832
-10.0827
-9.66923
-9.86112
-9.66021
-9.71646
-9.55399
-9.54045
-9.3784
-9.32464
-9.17802
-9.01382
-8.95635
-8.48863
-8.65746
-7.83576
-8.185
-7.09597
-7.52391
-6.30653
-6.47289
-5.23135
-5.07251
-3.71685
-3.2914
-1.66615
-1.0158
0.987655
1.95741
4.32745
5.87761
8.58326
10.9074
14.0267
17.2662
20.9937
25.1925
29.942
34.9587
41.2986
46.9612
55.4033
61.6067
72.6938
79.2032
93.6458
99.765
119.392
121.611
149.553
146.206
177.415
173.574
202.376
6.63989
15.5721
12.1593
15.588
14.1677
15.1209
13.4022
13.07
10.4577
8.81136
5.37209
2.30243
-1.92474
-6.44699
-11.3801
-17.0083
-22.289
-28.1442
-32.7956
-37.3322
-39.758
-41.1668
-39.9309
-37.5427
-32.9347
-27.4501
-20.9044
-14.4532
-8.21592
-2.13323
2.64615
7.83754
11.0912
15.1522
16.9425
19.8224
20.9064
22.8006
23.2465
24.5558
24.7381
25.4191
25.55
25.8065
25.9433
25.809
26.0999
25.6613
26.1202
25.4114
26.0243
25.1641
25.7629
25.0928
25.2785
24.9237
24.8851
24.6583
24.4437
24.3952
23.9684
24.0975
23.4912
23.7338
23.0089
23.3452
22.4232
22.8716
21.745
22.1336
21.0527
21.1461
20.1985
19.9655
19.0398
18.5202
17.5638
16.7306
15.7
14.4802
13.3573
11.666
10.4248
8.19945
6.77763
4.01674
2.29379
-0.912444
-3.03561
-6.48629
-9.03947
-12.5219
-15.3652
-18.6128
-21.4501
-24.1557
-26.6051
-28.4406
-30.1137
-30.7943
-31.459
-30.8437
-30.6211
-28.8783
-28.0402
-25.6287
-24.439
-21.9938
-20.793
-18.7656
-17.7731
-16.3496
-15.596
-14.7218
-14.1292
-13.6817
-13.1228
-13.027
-12.3811
-12.6016
-11.8072
-12.2382
-11.4417
-11.693
-11.3288
-11.3137
-11.2097
-10.9825
-11.0891
-10.6655
-10.9553
-10.3907
-10.8281
-10.1549
-10.742
-9.94402
-10.7185
-9.72065
-10.6272
-9.7446
-10.2723
-9.99128
-10.0227
-10.0793
-9.84638
-10.0662
-9.69689
-9.9606
-9.54482
-9.81511
-9.31176
-9.65858
-8.95301
-9.45371
-8.5156
-9.09228
-8.06406
-8.38543
-7.61299
-7.61284
-6.84719
-6.67089
-5.74467
-5.46081
-4.29086
-3.82722
-2.40847
-1.62153
0.041186
1.29188
3.23515
5.07152
7.38368
9.89883
12.7844
15.9519
19.7998
23.4791
28.7002
32.7725
39.8727
44.2236
53.6759
58.1936
70.6564
74.4879
92.1643
92.8671
117.461
115.549
143.997
143.909
170.926
10.6772
17.6628
14.3558
17.4083
15.8654
16.714
15.2423
14.9036
12.6737
11.1339
8.0399
5.12973
1.07123
-3.37276
-8.5207
-14.3575
-20.4593
-27.07
-33.25
-38.9839
-43.0523
-45.7218
-45.6093
-43.6697
-38.8266
-32.7428
-25.2178
-18.0914
-10.6962
-3.93135
1.82317
7.29312
11.3224
15.497
17.7385
20.4127
21.8933
23.7007
24.2045
25.5191
25.7622
26.4006
26.6003
26.8105
26.9083
26.7573
26.941
26.488
26.761
26.1058
26.4237
25.7695
25.952
25.5039
25.4866
25.1967
25.0129
24.8331
24.5138
24.4834
24.0205
24.1294
23.521
23.747
22.9877
23.3214
22.4356
22.8311
21.8759
22.1387
21.3079
21.2763
20.5284
20.2551
19.4905
18.9775
18.1747
17.3713
16.4937
15.3381
14.3455
12.7722
11.6087
9.56063
8.14206
5.62438
3.81133
0.904536
-1.41738
-4.62696
-7.42639
-10.8115
-13.9515
-17.2743
-20.4789
-23.4108
-26.2734
-28.4264
-30.5507
-31.5578
-32.6737
-32.3714
-32.4133
-30.8232
-29.8219
-27.2169
-25.6967
-22.8363
-21.31
-18.9239
-17.7606
-16.1306
-15.3171
-14.3456
-13.6779
-13.1973
-12.51
-12.3782
-11.6034
-11.8033
-10.9327
-11.3519
-10.654
-10.9166
-10.7338
-10.6327
-10.7323
-10.4475
-10.7065
-10.2787
-10.6326
-10.1049
-10.5597
-9.9599
-10.4944
-9.8038
-10.4661
-9.63702
-10.3414
-9.68998
-10.0194
-9.88503
-9.78844
-9.92025
-9.64098
-9.88103
-9.515
-9.78026
-9.36116
-9.63752
-9.13811
-9.43465
-8.81656
-9.19587
-8.40615
-8.81385
-7.96008
-8.20768
-7.39538
-7.44168
-6.55424
-6.43776
-5.42951
-5.11174
-3.92366
-3.40059
-1.95021
-1.1521
0.576636
1.81346
3.85579
5.63877
8.10468
10.4982
13.6055
16.6221
20.6984
24.228
29.7447
33.6354
41.0001
45.153
54.7697
58.9722
71.5487
74.7783
91.6964
92.0247
113.712
111.365
134.132
132.991
154.406
10.8495
18.167
14.6796
17.8053
16.3964
17.2901
16.1763
16.0668
14.2342
12.9977
10.2762
7.62959
3.79881
-0.495
-5.72886
-11.7642
-18.4514
-25.8495
-33.2338
-40.7223
-46.8444
-51.5443
-53.1757
-51.9238
-47.5531
-41.3152
-32.6456
-24.1709
-15.8012
-7.73293
-1.26068
5.24978
9.73941
14.6536
17.3715
19.876
21.6055
23.5241
23.8207
25.185
25.3638
25.9355
26.1382
26.2027
26.4697
26.1699
26.5275
26.0129
26.4343
25.7773
26.2336
25.5003
25.9651
25.3654
25.4783
25.2164
25.0856
24.9819
24.6619
24.7229
24.2273
24.4392
23.7967
24.1162
23.3489
23.7577
22.8545
23.2974
22.37
22.6359
21.8725
21.8445
21.1873
20.9205
20.2696
19.7678
19.094
18.3127
17.5709
16.4512
15.593
14.0732
13.0254
11.0599
9.71931
7.29423
5.51982
2.63371
0.34114
-2.95485
-5.7947
-9.40292
-12.6993
-16.4164
-19.9228
-23.4114
-26.7023
-29.4784
-32.0216
-33.5388
-34.8598
-34.732
-34.6544
-32.9723
-31.8114
-29.0496
-27.1658
-24.079
-22.1318
-19.4947
-17.9848
-16.2421
-15.2664
-14.4114
-13.707
-13.4664
-12.8644
-12.9159
-12.2805
-12.5106
-11.8224
-12.134
-11.4707
-11.6032
-11.3545
-11.2317
-11.2584
-10.9243
-11.1468
-10.6332
-10.9882
-10.3477
-10.8362
-10.1271
-10.7317
-9.94235
-10.6914
-9.79842
-10.5284
-9.90004
-10.2037
-10.1268
-9.97706
-10.2039
-9.85238
-10.207
-9.74806
-10.1576
-9.63369
-10.086
-9.47908
-9.96279
-9.27662
-9.78629
-9.03433
-9.48607
-8.80779
-8.99825
-8.44009
-8.49824
-7.88673
-7.83607
-7.13137
-6.95398
-6.09587
-5.77042
-4.71895
-4.16065
-2.90265
-2.01583
-0.482313
0.801649
2.72068
4.43547
6.93889
9.07022
12.4675
14.9436
19.5772
22.3141
28.6019
31.5122
39.9017
42.7991
54.024
56.1728
71.7241
71.5019
90.9846
91.4108
111.827
112.325
132.368
14.0206
20.0899
17.1938
19.6733
18.4802
19.1836
18.2302
18.0609
16.5481
15.4673
13.1511
10.812
7.35638
3.35773
-1.71657
-7.71171
-14.862
-23.0485
-32.1278
-41.4075
-50.1463
-57.2841
-61.3601
-62.2231
-58.2158
-51.4192
-40.9874
-30.7792
-20.4704
-11.0471
-3.1886
4.03646
9.30023
15.0449
18.099
20.8379
22.5455
24.8292
24.9659
26.3696
26.717
27.1922
27.5052
27.4956
27.7545
27.3504
27.5623
27.0049
27.2092
26.5415
26.7558
26.0637
26.2337
25.7444
25.6629
25.4958
25.1749
25.1455
24.6893
24.8026
24.2284
24.4588
23.7813
24.1157
23.3252
23.7482
22.8899
23.2912
22.5133
22.6866
22.1293
22.0029
21.5384
21.2266
20.7532
20.2478
19.7517
19.0049
18.446
17.4015
16.716
15.3241
14.416
12.6243
11.3741
9.15025
7.40809
4.72727
2.37746
-0.7584
-3.75505
-7.30618
-10.8815
-14.6822
-18.5992
-22.3317
-26.1612
-29.3427
-32.5446
-34.5776
-36.6091
-37.008
-37.5673
-36.2405
-35.142
-32.0988
-29.8147
-26.1002
-23.5022
-20.3816
-18.3236
-16.4371
-15.0515
-14.2169
-13.1936
-12.9573
-12.07
-12.1125
-11.2049
-11.5036
-10.6239
-11.0987
-10.473
-10.7412
-10.6512
-10.5419
-10.7567
-10.4181
-10.8219
-10.2685
-10.7748
-10.0788
-10.6735
-9.95323
-10.5899
-9.80287
-10.5158
-9.70627
-10.3475
-9.79322
-10.0369
-10.0135
-9.8057
-10.0895
-9.69424
-10.0847
-9.59826
-10.0476
-9.47219
-9.97707
-9.34298
-9.8486
-9.15441
-9.66672
-8.95426
-9.35752
-8.72011
-8.89531
-8.35489
-8.37845
-7.80473
-7.69663
-7.06119
-6.81103
-6.04321
-5.65921
-4.69822
-4.11408
-2.9348
-2.06632
-0.602958
0.611719
2.47712
4.05346
6.52972
8.45294
11.8297
14.0043
18.652
21.0139
27.254
29.7156
37.9495
40.2313
51.196
52.2647
66.7861
66.5899
83.0023
82.887
100.107
100.248
117.234
14.6243
20.4955
17.4355
20.3639
18.9581
19.9909
19.1123
19.1883
17.9179
17.1514
15.1473
13.1765
10.0767
6.46645
1.61686
-4.19302
-11.4171
-19.789
-29.7159
-40.8653
-52.2147
-62.8691
-70.5587
-74.1577
-71.8665
-64.5567
-53.0131
-40.6122
-28.5454
-16.7208
-7.58501
1.4835
7.09249
14.6175
17.5295
20.4679
22.5304
24.4325
24.9513
25.8473
26.3569
26.581
26.8899
26.8341
27.0621
26.6903
27.0219
26.4775
26.8437
26.1725
26.6096
25.8223
26.224
25.6702
25.6861
25.5361
25.2672
25.3162
24.85
25.0381
24.4423
24.7498
24.0429
24.4412
23.6365
24.0993
23.2479
23.6442
22.9236
23.0666
22.5878
22.4465
22.0443
21.7485
21.3502
20.8663
20.4621
19.7499
19.2902
18.3074
17.7216
16.4261
15.6184
13.9594
12.8101
10.7468
9.10019
6.56384
4.30125
1.23731
-1.71914
-5.33206
-8.97148
-13.0467
-17.2208
-21.4891
-25.7987
-29.7061
-33.5194
-36.2851
-38.8211
-39.6634
-40.2652
-38.7904
-37.5565
-34.3055
-31.6107
-27.4619
-24.2619
-20.5103
-18.0025
-15.6762
-14.3288
-13.5755
-12.789
-12.8845
-12.4292
-12.6775
-12.1141
-12.3947
-11.6342
-11.983
-11.3066
-11.4774
-11.2091
-11.0694
-11.2188
-10.8221
-11.1742
-10.5842
-11.0118
-10.2752
-10.8115
-10.0814
-10.6966
-9.92763
-10.6314
-9.8131
-10.4714
-9.92228
-10.1659
-10.1651
-9.95024
-10.2708
-9.84676
-10.2868
-9.77206
-10.2851
-9.69109
-10.2655
-9.59834
-10.2098
-9.50132
-10.0838
-9.39233
-9.87219
-9.33318
-9.51044
-9.08888
-9.18159
-8.72441
-8.75027
-8.2186
-8.18386
-7.53231
-7.39329
-6.60072
-6.3043
-5.34975
-4.82443
-3.62661
-2.85258
-1.29171
-0.276581
1.8184
3.08539
5.92354
7.38995
11.3269
12.8863
18.2842
19.8217
27.1287
28.4806
38.3698
38.9121
51.3891
52.4402
66.6697
68.1531
83.3321
84.4666
100.338
17.018
23.0203
19.4158
22.5277
20.7068
21.9114
20.9225
21.0453
20.0378
19.4635
17.9204
16.3104
13.7866
10.6887
6.46948
1.10442
-6.00944
-14.8298
-25.7136
-38.2815
-52.8023
-67.5749
-80.3159
-88.5519
-89.7023
-83.3574
-68.4118
-52.4471
-37.2671
-23.0445
-11.6379
-1.16998
5.33891
14.47
17.2806
22.3129
23.1844
26.3036
26.2285
27.3212
27.9626
28.2023
28.6635
28.4651
28.5497
28.063
28.1876
27.5743
27.6823
26.9072
27.1578
26.3368
26.5283
25.9543
25.8578
25.7198
25.3166
25.429
24.847
25.0857
24.4148
24.7474
24.0091
24.4447
23.6011
24.111
23.264
23.6808
23.0191
23.1645
22.8058
22.6225
22.3707
22.0525
21.8188
21.3321
21.1039
20.4261
20.1531
19.2508
18.8501
17.6806
17.0477
15.5533
14.5511
12.673
11.1417
8.77636
6.56981
3.6229
0.615383
-3.00134
-6.86403
-11.0893
-15.6675
-20.2601
-25.1721
-29.6189
-34.2326
-37.7218
-41.206
-42.8824
-44.4709
-43.7981
-43.1009
-39.7868
-36.6599
-31.7432
-27.3708
-22.759
-19.0055
-16.3493
-14.1131
-13.4402
-12.0098
-12.0177
-11.1917
-11.4694
-10.5301
-11.0157
-10.1129
-10.6928
-10.2325
-10.5121
-10.4948
-10.3726
-10.7215
-10.4265
-10.9727
-10.3058
-10.9193
-10.0878
-10.779
-9.92265
-10.6507
-9.78888
-10.5369
-9.70275
-10.368
-9.80847
-10.0613
-10.0682
-9.85124
-10.1761
-9.74877
-10.2256
-9.66767
-10.2596
-9.56934
-10.2336
-9.51417
-10.1862
-9.4204
-10.0853
-9.35429
-9.86362
-9.28647
-9.51117
-9.14654
-9.16714
-8.8368
-8.75084
-8.41784
-8.22687
-7.81951
-7.5437
-6.98885
-6.62814
-5.88773
-5.37857
-4.38244
-3.68141
-2.32774
-1.45339
0.426776
1.45732
4.15917
5.17413
8.97775
10.0458
15.1809
16.191
22.8946
23.8154
32.4698
33.4707
43.8355
44.9924
56.8817
58.1258
71.3376
72.3735
86.4613
17.0778
23.9449
19.8116
23.3342
21.3228
22.8218
21.826
22.1131
21.2554
20.8843
19.6162
18.338
16.2089
13.603
9.90693
5.24325
-1.16594
-9.2962
-20.2313
-33.8509
-50.878
-69.7754
-87.927
-102.001
-110.236
-106.185
-91.1325
-70.0566
-50.9621
-32.2975
-18.4898
-4.91282
2.62046
12.5184
17.3598
21.9598
24.5163
25.3926
26.3477
26.4497
27.5544
27.0815
27.7886
27.5624
27.8291
27.361
27.6312
26.9817
27.4175
26.6039
27.0471
26.1864
26.5385
25.9949
25.9213
25.877
25.4233
25.648
25.0145
25.3424
24.6299
25.0472
24.2279
24.7727
23.8397
24.4574
23.5165
24.0188
23.3088
23.4742
23.1604
22.9674
22.7678
22.4543
22.2979
21.8191
21.68
21.0312
20.8492
20.013
19.7158
18.6548
18.1377
16.802
15.9307
14.2637
12.8871
10.7678
8.71282
5.99361
3.11903
-0.343351
-4.12911
-8.39412
-13.0909
-18.0399
-23.3674
-28.491
-33.8846
-38.3087
-42.6964
-45.1874
-47.3785
-46.8619
-46.0798
-42.6023
-39.1544
-33.6977
-28.5657
-22.8809
-18.263
-14.6394
-12.4542
-11.8618
-11.0699
-11.7172
-11.6836
-12.5812
-12.0798
-12.3519
-11.3375
-11.5993
-11.0691
-11.2921
-11.0101
-10.6722
-11.0585
-10.6125
-11.2907
-10.5809
-11.0753
-10.2214
-10.7872
-10.0337
-10.6714
-9.93598
-10.6117
-9.7821
-10.4407
-9.88082
-10.1346
-10.1479
-9.93324
-10.2778
-9.84601
-10.3409
-9.77895
-10.3897
-9.70698
-10.3981
-9.67851
-10.403
-9.64532
-10.3588
-9.63172
-10.2167
-9.71278
-9.90421
-9.62982
-9.68612
-9.43161
-9.43233
-9.18599
-9.10826
-8.79422
-8.65782
-8.24074
-8.03607
-7.47304
-7.20573
-6.36886
-6.05814
-4.85663
-4.49259
-2.81054
-2.42868
-0.0369846
0.379276
3.56431
4.02156
8.39318
8.81059
14.6774
15.1359
22.6043
23.314
32.4747
33.6094
44.21
45.7607
57.6388
58.9745
72.4529
18.9549
26.1615
21.4899
25.1316
22.8335
24.3042
23.2836
23.5363
22.9016
22.6152
21.7296
20.7287
19.1286
17.0247
14.0392
10.1021
4.56515
-2.7158
-12.8998
-26.6177
-44.8607
-67.0399
-90.5496
-112.866
-130.771
-134.938
-115.76
-90.3307
-66.3537
-43.6125
-26.2627
-11.1777
-1.26276
9.50026
15.8096
23.7673
25.2925
27.9331
28.0466
28.5453
29.4062
29.3754
29.95
29.471
29.5947
28.807
28.9978
27.9489
28.1951
27.2554
27.5873
26.5261
26.8201
26.149
26.0028
25.9798
25.4369
25.6726
24.9831
25.327
24.5662
25.0526
24.1298
24.7982
23.7387
24.4904
23.4709
24.0687
23.3336
23.5696
23.2773
23.1083
23.0128
22.6866
22.6622
22.18
22.1837
21.5736
21.5404
20.7857
20.6496
19.7163
19.3652
18.2073
17.497
16.0479
14.8367
12.9587
11.0648
8.55354
5.79112
2.42054
-1.41918
-5.79114
-10.7984
-16.1406
-22.1786
-28.0679
-34.4463
-39.8621
-45.4979
-49.1617
-52.8261
-53.5253
-54.0915
-51.0646
-47.3156
-41.2927
-34.4224
-27.398
-20.4194
-15.8685
-11.9412
-11.6128
-9.57075
-9.63982
-9.4376
-10.2466
-9.71665
-10.6157
-9.57848
-10.0304
-9.89446
-10.3252
-10.3927
-10.0801
-10.514
-10.3758
-11.1024
-10.4261
-11.1581
-10.152
-10.8883
-9.84497
-10.6754
-9.73936
-10.5477
-9.64744
-10.3825
-9.75069
-10.0714
-10.0497
-9.86957
-10.2087
-9.7825
-10.3151
-9.70176
-10.4055
-9.64717
-10.418
-9.61702
-10.4147
-9.60632
-10.4063
-9.62649
-10.3065
-9.6742
-9.99298
-9.74588
-9.73789
-9.59983
-9.51786
-9.44647
-9.27242
-9.14952
-8.95191
-8.73909
-8.50111
-8.20044
-7.88738
-7.33813
-7.0029
-6.09643
-5.77671
-4.39621
-4.14065
-2.06048
-1.8669
1.00703
1.12333
5.13102
5.10874
10.1832
10.2758
16.7656
16.8964
25.0498
25.1914
34.8226
35.1371
46.2939
46.5381
59.3115
18.7112
26.9922
21.7349
25.8509
23.2347
25.1893
23.9441
24.3706
23.7762
23.5572
22.8666
22.0892
20.8134
19.1538
16.743
13.5957
9.00793
2.90119
-6.09373
-18.4102
-36.1992
-58.7022
-85.4794
-113.204
-142.111
-158.186
-149.867
-116.975
-85.6426
-56.7964
-35.2263
-15.3504
-5.36707
6.84119
13.7164
21.9512
25.0549
26.3819
28.3261
27.0231
27.8461
27.5335
28.5015
28.3489
28.8195
28.1013
28.421
27.5858
27.9976
27.0749
27.5448
26.5615
26.8449
26.331
26.0778
26.206
25.5549
25.9348
25.1402
25.6131
24.7585
25.3574
24.333
25.1077
23.9327
24.7834
23.6648
24.3472
23.5253
23.856
23.4965
23.3526
23.3109
22.9624
23.0322
22.5338
22.6241
22.0263
22.0697
21.367
21.3281
20.4953
20.256
19.2561
18.6773
17.4397
16.3993
14.789
13.1186
10.9017
8.38135
5.30703
1.69622
-2.49381
-7.40172
-12.8368
-18.9953
-25.3024
-32.3852
-38.7393
-45.4913
-50.2475
-55.0891
-56.7402
-58.1761
-55.5765
-52.0497
-45.5892
-37.9179
-28.9825
-20.0958
-12.9459
-8.64083
-8.46862
-8.13129
-9.71303
-10.2163
-12.6947
-12.7652
-12.266
-11.0943
-10.8043
-10.4389
-11.3392
-10.9298
-10.1403
-10.4446
-10.0343
-11.5025
-10.88
-11.3448
-10.2158
-10.768
-9.95576
-10.7144
-9.94785
-10.6721
-9.72694
-10.4441
-9.783
-10.0982
-10.1175
-9.89248
-10.2985
-9.80385
-10.4152
-9.7347
-10.5126
-9.68348
-10.547
-9.68991
-10.5354
-9.71751
-10.581
-9.7746
-10.5799
-9.94225
-10.2236
-10.0561
-10.0539
-9.97769
-9.91624
-9.9739
-9.81748
-9.82843
-9.64227
-9.56253
-9.35028
-9.29266
-9.01718
-8.7927
-8.53271
-7.9304
-7.79243
-6.74434
-6.78085
-5.08942
-5.30461
-3.01268
-3.32024
-0.0282243
-0.423676
3.55599
3.48964
8.56799
8.71447
15.4413
16.042
23.766
24.7839
34.123
34.8759
46.7627
20.3719
28.821
22.8872
27.2122
24.2794
26.1047
24.818
25.2562
24.7416
24.5394
24.0821
23.4496
22.529
21.1951
19.3273
16.819
13.1421
8.24285
0.793174
-9.47292
-25.1647
-45.7065
-72.3124
-101.907
-135.299
-160.513
-160.77
-135.437
-103.699
-71.7303
-47.4691
-24.2194
-11.9534
0.471364
10.8196
19.5712
27.5253
26.9275
30.3694
29.6522
30.2576
30.272
30.7537
30.2088
30.4275
29.6106
29.6437
28.3809
28.537
27.6409
27.8907
26.8925
26.9933
26.4745
26.1451
26.239
25.5422
25.9054
25.0874
25.5881
24.6694
25.3794
24.2155
25.1472
23.8422
24.8149
23.6367
24.4154
23.5422
23.96
23.6005
23.4322
23.5156
23.1161
23.3175
22.8004
23.0191
22.4346
22.6033
21.9585
22.0544
21.3314
21.2361
20.4085
19.9724
18.964
18.1018
16.768
15.3193
13.4054
11.1232
8.28781
4.86101
0.813136
-4.08307
-9.59072
-16.2423
-23.015
-31.1172
-38.6183
-46.9688
-53.1302
-59.8439
-63.0348
-66.5793
-65.5526
-62.2552
-56.6321
-47.667
-38.3798
-26.2174
-16.702
-7.67545
-7.92991
-5.23159
-4.52118
-5.60661
-7.19698
-9.66961
-11.8224
-9.76767
-9.37059
-8.75532
-9.93333
-11.0549
-10.0866
-10.1175
-9.57455
-10.7883
-10.7876
-11.9537
-10.3987
-10.9683
-9.64232
-10.5652
-9.67472
-10.5668
-9.64335
-10.3923
-9.67775
-10.0106
-9.97741
-9.86853
-10.1918
-9.78102
-10.3583
-9.72601
-10.4961
-9.71097
-10.5425
-9.70876
-10.5232
-9.70832
-10.5649
-9.74725
-10.6807
-10.0014
-10.3484
-10.1412
-10.1045
-10.0918
-9.97769
-10.1432
-9.96968
-10.0971
-9.86374
-9.9413
-9.7292
-9.86903
-9.59661
-9.60108
-9.28424
-9.0321
-8.81543
-8.15356
-8.23612
-6.83082
-7.12695
-5.37196
-5.87906
-2.82509
-3.64453
-0.322415
-0.965876
3.49655
2.53489
8.72892
7.77987
15.2481
14.1882
23.1509
22.0394
34.126
19.8791
29.7492
23.1533
27.7288
24.616
26.943
25.3613
25.8691
25.3583
25.1135
24.767
24.2071
23.4666
22.3951
20.8681
18.899
15.9026
12.0414
6.02432
-2.06256
-14.4578
-31.2781
-53.4129
-78.6861
-107.787
-134.94
-148.584
-135.749
-108.006
-79.7887
-53.2416
-29.2492
-14.3542
-3.96377
7.45626
15.897
23.57
26.4989
25.5202
27.6225
27.1545
28.0693
28.7451
28.9027
29.6473
28.8868
29.2697
28.1717
28.3898
27.5507
27.9425
27.0154
27.1334
26.6591
26.2018
26.5184
25.6449
26.1829
25.2152
25.9172
24.7902
25.6782
24.3858
25.3995
24.002
25.0367
23.7566
24.6112
23.6571
24.1349
23.7274
23.6061
23.7081
23.2786
23.5794
23.0153
23.3528
22.6961
22.9701
22.3176
22.5254
21.8645
21.8848
21.1816
20.8651
20.0529
19.345
18.2785
17.0667
15.4771
13.506
11.0542
7.96744
4.25996
-0.361194
-5.72081
-12.144
-19.1219
-27.4669
-35.4331
-44.5512
-51.5112
-59.2769
-63.1619
-68.3126
-69.1935
-67.3317
-62.2593
-54.3168
-42.2241
-29.0183
-14.057
-1.5972
-3.59654
-5.24503
-7.6054
-7.88476
-11.6121
-13.1596
-13.7256
-11.3516
-9.81038
-8.99552
-11.1952
-11.357
-9.95916
-9.10547
-9.01683
-11.3004
-11.5248
-11.9839
-10.5086
-10.7628
-9.87456
-10.6853
-10.0418
-10.7042
-9.72835
-10.3917
-9.71397
-10.0338
-10.0415
-9.8461
-10.2918
-9.71908
-10.4469
-9.68179
-10.5565
-9.68713
-10.6058
-9.70442
-10.5974
-9.71939
-10.6351
-9.80786
-10.7164
-10.1298
-10.5772
-10.2219
-10.2689
-10.2581
-10.1101
-10.4232
-10.2032
-10.5142
-10.2016
-10.3053
-10.045
-10.3406
-10.1253
-10.3518
-10.1326
-10.0175
-9.90407
-9.44666
-9.63312