/*--------------------------------*- C++ -*----------------------------------*\
| =========                 |                                                 |
| \\      /  F ield         | OpenFOAM: The Open Source CFD Toolbox           |
|  \\    /   O peration     | Version:  4.1                                   |
|   \\  /    A nd           | Web:      www.OpenFOAM.org                      |
|    \\/     M anipulation  |                                                 |
\*---------------------------------------------------------------------------*/
FoamFile
{
    version     2.0;
    format      ascii;
    class       volScalarField;
    location    "1133";
    object      p;
}
// * * * * * * * * * * * * * * * * * * * * * * * * * * * * * * * * * * * * * //

dimensions      [0 2 -2 0 0 0 0];

internalField   nonuniform List<scalar> 
204246
(
137.49
-10.3096
42.8693
21.8655
19.8943
26.2063
15.0593
26.5885
13.6888
26.6017
13.0532
27.3279
11.5189
27.7012
12.8219
25.1116
19.3272
13.8048
26.1567
11.3623
27.4507
11.7752
26.1157
12.5783
26.0203
12.4111
26.9255
10.643
27.8516
10.3698
27.8439
10.7988
26.9155
13.2938
23.0076
19.5228
12.6352
25.153
11.2039
24.6542
11.3756
24.492
10.7509
24.9721
8.46022
25.0872
7.73077
23.3558
8.72774
19.5746
8.63084
15.6017
11.1541
3.20709
12.1945
0.681776
7.5116
-3.64612
2.48748
-9.05873
-2.43684
-16.5377
-7.67537
-22.7781
-13.2609
-27.3965
-19.0097
-29.9635
-23.595
-25.4727
-31.8218
-21.364
-28.7365
-17.215
-23.047
-11.302
-16.831
-3.50983
-11.9229
2.99277
-6.78439
7.80561
-2.005
9.45206
2.07357
9.74239
8.25229
1.82088
12.3408
0.220221
12.5917
-1.59349
12.1751
-5.32679
10.8226
-7.56916
7.55376
-9.57009
3.51034
-11.4314
-1.34723
-14.3511
-5.22313
-16.6477
-9.35637
-15.5688
-21.4295
-12.6602
-25.4307
-12.0191
-28.8716
-11.8939
-29.0252
-12.5962
-28.9065
-12.3864
-28.5738
-11.9156
-27.6997
-11.7597
-25.4635
-13.6717
-18.8576
-23.3715
-11.7942
-25.3197
-9.70599
-25.387
-8.84048
-25.0675
-8.31943
-24.6905
-7.92653
-24.3263
-7.60386
-23.5693
-7.87239
-21.7048
-10.1707
-15.3843
-20.324
-8.78443
-22.448
-7.03384
-22.5913
-6.23136
-22.4001
-5.7106
-21.9549
-5.19357
-21.2938
-4.6422
-20.1985
-4.32127
-17.6549
-5.83629
-10.4611
-14.5821
-2.5663
-15.1412
0.898702
-13.0984
3.32054
-9.44694
5.98147
-4.78562
9.85642
0.968102
14.9636
7.95325
21.2714
16.9328
29.2546
28.4891
38.7449
45.2692
47.5074
61.3667
65.9
79.2112
88.9552
102.33
116.667
131.572
151.508
169.34
197.626
220.286
264.186
293.131
380.863
396.787
603.827
44.899
21.6905
21.5642
25.5426
18.8749
23.4726
18.1286
22.4897
17.6462
22.1436
17.2908
22.2571
17.271
21.3757
18.7281
19.2582
21.967
16.4116
21.9036
16.6682
21.6363
17.2653
21.3013
17.1714
21.5262
16.8412
22.0425
16.4398
21.8863
16.5563
21.5281
17.0675
20.4854
18.5889
18.4417
21.4361
15.9036
20.8669
16.2955
20.3228
16.0368
20.2928
15.4394
20.3972
14.6682
19.519
14.3229
17.9533
13.9332
16.3744
13.6126
12.7001
14.4729
8.96493
9.40999
5.72431
6.40525
1.65143
1.84654
-3.47973
-3.45639
-9.64086
-9.73282
-15.5187
-16.3776
-20.6365
-22.5302
-24.3097
-27.5988
-24.1951
-30.0216
-24.746
-28.0546
-22.432
-22.4854
-17.2307
-16.0916
-10.1924
-9.84656
-4.21645
-4.04347
0.688071
0.937957
3.74148
4.75887
4.71027
8.75118
4.36873
9.28441
4.61949
8.90816
3.52526
8.06115
1.53017
5.77097
-0.582094
3.0066
-3.12861
-0.257049
-5.71662
-3.92746
-8.84275
-8.03413
-11.1865
-12.8812
-11.6112
-18.0408
-15.285
-20.7519
-16.6415
-22.5865
-18.0661
-23.0968
-18.6282
-23.3568
-18.4636
-23.1516
-18.1108
-22.2597
-18.1487
-20.2521
-19.3308
-16.6863
-21.353
-15.9148
-20.7522
-15.2815
-20.1677
-14.7416
-19.6837
-14.2993
-19.2563
-13.9506
-18.8096
-13.8085
-18.0386
-14.1716
-16.4041
-15.7756
-13.1898
-18.1483
-12.8489
-17.8354
-12.5168
-17.4671
-12.1043
-17.0759
-11.7281
-16.6235
-11.321
-16.0092
-10.9441
-14.976
-10.8988
-12.817
-11.7964
-8.96455
-13.139
-7.47214
-11.469
-5.66501
-9.15059
-3.38406
-6.42015
-0.475793
-2.99732
3.2226
1.51361
7.95784
7.3227
13.3549
15.0686
20.3
24.8367
28.4728
37.2243
40.9122
49.989
56.5483
66.0717
75.7535
86.2144
99.2501
110.836
128.012
140.828
164.034
177.461
212.716
219.357
294.08
259.52
394.199
19.9403
27.6497
23.8917
24.9933
21.0361
23.2041
19.0094
22.5398
18.0803
22.2142
17.6363
22.0173
17.6071
21.3635
18.5253
19.838
20.3761
17.8533
21.164
17.1704
21.4746
17.1516
21.4205
17.1112
21.4886
16.9316
21.6899
16.6652
21.6928
16.6762
21.4414
17.09
20.635
18.1828
18.9503
19.7797
17.1067
20.2288
16.4595
20.2562
16.042
20.1786
15.5474
20.0279
14.9253
19.4117
14.5132
18.1207
14.2094
15.969
14.0748
12.9514
12.8311
9.73036
10.401
6.72792
6.36986
2.86918
1.69899
-2.05241
-3.76349
-7.91673
-10.1386
-13.9983
-16.7687
-19.7327
-22.8537
-24.282
-27.4739
-26.731
-29.9969
-26.6491
-28.1108
-23.9688
-23.3222
-18.5414
-16.5052
-11.6195
-9.18932
-5.0679
-2.92557
0.231958
1.99314
3.78659
5.57822
5.3868
8.43721
5.87025
8.94522
5.34729
9.02594
4.10486
8.13458
2.20407
6.25905
0.123694
3.40857
-2.15236
-0.246143
-4.69871
-4.22124
-7.77174
-8.28886
-10.3882
-12.6161
-12.7668
-16.8893
-15.4707
-20.0473
-16.9085
-22.1316
-18.0142
-23.0601
-18.5302
-23.3867
-18.4205
-23.2053
-18.1313
-22.3071
-18.1155
-20.6038
-18.8184
-18.0987
-20.0798
-16.5459
-20.2556
-15.4273
-19.9684
-14.6916
-19.5372
-14.1691
-19.0903
-13.7948
-18.6027
-13.6287
-17.8723
-13.9141
-16.5662
-15.0637
-14.4733
-16.7636
-13.3383
-17.2795
-12.558
-17.2417
-12.0364
-16.9595
-11.6155
-16.5359
-11.2024
-15.9167
-10.833
-14.9063
-10.7316
-13.0519
-11.2403
-10.1621
-11.8939
-7.97645
-11.0645
-5.70004
-9.21403
-3.45569
-6.31359
-0.893695
-2.42703
2.5841
2.34656
7.22653
8.30948
13.2557
15.7677
20.76
25.2828
30.3732
36.8925
41.9122
50.9188
57.5277
67.7643
77.4322
88.6913
102.237
114.763
133.342
147.22
172.875
187.554
227.26
235.183
311.343
290.073
378.853
3.7443
19.0118
15.1217
21.6136
17.7921
21.4593
18.5401
20.936
18.6936
20.508
18.8234
20.2372
19.174
19.562
19.9978
18.6317
20.9033
18.2506
20.4014
18.5169
20.0453
18.7802
19.9315
18.7149
20.0147
18.573
20.11
18.5299
19.9024
18.66
19.5513
19.0254
18.9189
19.7321
18.1172
20.3287
17.7796
19.6342
17.9205
19.2223
17.7492
19.0354
17.4298
18.7865
17.141
18.071
16.848
16.994
16.3042
15.9347
15.7447
13.8954
14.4693
11.6996
11.4963
8.87819
8.19227
5.19986
3.89871
0.47591
-1.47608
-5.18194
-8.00443
-11.519
-15.1091
-17.9897
-21.9873
-23.7056
-27.6048
-27.4921
-30.43
-29.1401
-29.7789
-26.9395
-25.8429
-21.8039
-19.3543
-14.9505
-11.8275
-8.08254
-4.7033
-2.21031
0.976641
2.14497
4.92086
4.72479
7.60145
6.62389
8.43663
6.90113
8.38017
6.27171
7.29195
4.77192
5.34649
2.89186
2.66289
0.53591
-0.595188
-2.41305
-4.04694
-5.80274
-7.90817
-8.96257
-12.0006
-11.9414
-15.542
-15.8771
-18.5586
-18.5419
-20.4047
-20.19
-21.4548
-20.8246
-21.9431
-20.7127
-21.7722
-20.4135
-20.8935
-20.2499
-19.4381
-20.2472
-17.9296
-19.9552
-17.6091
-19.2331
-17.2151
-18.6019
-16.7912
-18.0836
-16.4022
-17.6226
-16.0915
-17.1356
-15.9403
-16.4612
-16.0765
-15.4314
-16.5935
-14.3024
-16.701
-14.4062
-16.3176
-14.3518
-15.9228
-14.1464
-15.5314
-13.8756
-15.1132
-13.5664
-14.5687
-13.282
-13.7343
-13.1971
-12.3059
-13.1435
-10.797
-12.4321
-10.0048
-11.0167
-8.73167
-9.16993
-6.85384
-6.95847
-4.51409
-4.11915
-1.40143
-0.491633
2.62641
4.16685
7.55142
10.3473
13.8131
18.0688
21.643
27.851
31.9885
38.9244
45.0398
52.3755
61.0376
68.8668
80.4519
88.7617
103.971
112.756
133.321
140.411
173.459
168.343
225.831
212.695
283.792
5.51494
19.3022
15.6613
20.5741
18.5697
20.879
19.1565
20.7285
19.1872
20.4791
19.1113
20.158
19.3092
19.6352
19.7461
19.0516
20.1025
18.9341
19.8769
18.8776
19.8241
18.8252
19.8694
18.708
19.9105
18.6187
19.8954
18.6282
19.7348
18.7065
19.4638
18.931
18.9903
19.2834
18.4527
19.4533
18.2906
19.1111
18.0897
18.9954
17.7742
18.8632
17.4804
18.5789
17.2003
18.076
16.9867
17.1044
16.4562
15.7812
15.6833
14.2302
14.2737
12.2965
12.1411
9.6282
8.96312
6.15611
4.90867
1.70184
-0.267175
-3.80069
-6.60328
-10.2416
-13.7717
-17.149
-21.1127
-23.674
-27.5513
-28.6835
-31.5325
-30.8006
-31.7257
-29.0874
-27.8623
-23.6702
-20.8351
-16.0213
-12.5255
-8.27341
-4.84144
-1.81447
1.20822
2.84417
5.36856
5.82015
7.96682
7.43138
8.9831
7.77719
8.87618
7.15093
7.91655
5.85167
6.05304
3.98656
3.44489
1.5826
0.276541
-1.48517
-3.23039
-4.91189
-7.14226
-8.42861
-11.1365
-11.9411
-14.6964
-15.4321
-17.7548
-18.4146
-19.8541
-20.1286
-21.262
-20.8131
-21.944
-20.8553
-21.8103
-20.6041
-20.9674
-20.3408
-19.8303
-19.8992
-18.6562
-19.2982
-18.0394
-18.7678
-17.3108
-18.244
-16.6732
-17.7206
-16.172
-17.2291
-15.8143
-16.7384
-15.6409
-16.1423
-15.7044
-15.4035
-15.9304
-14.7614
-15.8454
-14.6435
-15.7147
-14.3576
-15.5312
-14.0486
-15.2498
-13.7317
-14.8834
-13.4065
-14.3559
-13.1061
-13.5582
-13.007
-12.4329
-12.5996
-11.1562
-11.8755
-10.1508
-10.6294
-8.72893
-8.94701
-6.84406
-6.66505
-4.32572
-3.75436
-1.05707
-0.0201584
3.10195
4.85237
8.32272
11.0647
14.9459
18.9636
23.2804
28.7158
33.9392
40.671
47.545
55.2897
64.5733
73.208
85.6564
95.0267
111.466
121.117
143.626
151.37
185.727
182.664
231.954
220.591
265.69
2.82211
14.5267
11.9637
17.1764
16.1841
18.8307
17.9621
19.4782
18.803
19.5565
19.2715
19.4283
19.6585
19.0911
20.0481
18.8286
20.1657
19.0356
19.7449
19.2727
19.5058
19.38
19.443
19.3505
19.4357
19.3143
19.381
19.3534
19.2007
19.4408
18.9629
19.5976
18.668
19.7672
18.4379
19.7058
18.5782
19.1785
18.6589
18.8865
18.555
18.685
18.3726
18.408
18.1406
18.0378
17.9256
17.4411
17.5021
16.5931
16.7961
15.3564
15.5767
13.6898
13.4805
11.4127
10.7003
8.23828
6.9106
4.02259
1.90779
-1.37021
-4.43584
-7.95923
-11.9384
-15.4191
-20.0051
-22.9783
-27.5243
-29.3928
-32.8993
-33.1869
-34.4486
-32.6558
-31.5055
-27.7813
-24.6508
-19.9592
-15.8045
-11.3973
-7.11872
-3.85347
-0.0655223
1.81454
4.84402
5.48574
7.79251
7.74503
9.0317
8.58264
9.1397
8.24101
8.25675
7.07309
6.55463
5.25083
4.16213
2.75383
1.25959
-0.354772
-2.18853
-3.83743
-6.20196
-7.55145
-10.4096
-11.4074
-14.3886
-15.3357
-17.7738
-18.713
-20.1885
-21.0411
-21.6313
-22.0145
-22.1903
-22.1034
-21.8772
-21.69
-20.9793
-21.0612
-19.9119
-20.4263
-19.0433
-19.4285
-18.5768
-18.6459
-18.1243
-18.0771
-17.693
-17.5819
-17.3129
-17.1118
-16.9932
-16.6456
-16.7601
-16.1289
-16.6032
-15.5593
-16.5703
-15.1321
-16.1074
-15.2032
-15.7396
-15.1612
-15.4013
-15.0229
-15.066
-14.8225
-14.7229
-14.586
-14.2981
-14.2847
-13.7411
-14.0638
-12.9582
-13.6594
-12.2655
-12.7396
-11.5399
-11.722
-10.4973
-10.3799
-9.08477
-8.68013
-7.16577
-6.50991
-4.66273
-3.6677
-1.46702
0.0927048
2.5989
4.96337
7.7625
11.1551
14.3898
18.8382
22.9775
28.1007
33.7991
39.3803
47.2262
53.1734
63.6481
69.9068
83.6963
89.6651
108.503
111.725
142.151
135.703
176.884
174.377
214.969
5.99451
16.3814
13.2599
17.3405
16.7185
18.6764
18.2434
19.3551
18.9964
19.5029
19.3723
19.432
19.6253
19.1938
19.836
19.0445
19.8015
19.2676
19.4694
19.3964
19.3463
19.3943
19.3421
19.3238
19.3373
19.2906
19.2636
19.3287
19.1024
19.3759
18.9074
19.4475
18.6762
19.4679
18.5387
19.263
18.6886
18.8512
18.6663
18.6883
18.4727
18.5753
18.3492
18.3212
18.1658
17.9426
17.8903
17.405
17.4564
16.6699
16.822
15.6782
15.7544
14.3127
14.0955
12.2659
11.6532
9.45499
8.24294
5.62992
3.61614
0.559413
-2.41795
-5.92013
-9.87273
-13.6875
-18.3871
-22.1467
-26.9818
-29.9965
-33.8382
-35.1734
-36.8885
-35.7194
-34.6335
-30.8632
-27.1867
-21.9289
-17.1448
-12.1477
-7.52685
-3.71955
0.0605987
2.41221
5.29455
6.3891
8.40202
8.64007
9.89132
9.51164
10.1226
9.2939
9.36438
8.26759
7.7677
6.50515
5.46763
4.03248
2.57813
0.963471
-0.932285
-2.57082
-4.96471
-6.47757
-9.19853
-10.5805
-13.2668
-14.6556
-16.8829
-18.2375
-19.6698
-20.774
-21.4699
-22.0699
-22.2347
-22.3665
-22.1157
-21.9656
-21.3734
-21.2387
-20.3675
-20.2994
-19.3615
-19.3528
-18.6331
-18.447
-17.9318
-17.717
-17.3542
-17.0836
-16.8889
-16.5646
-16.5296
-16.1343
-16.3093
-15.732
-16.1706
-15.3157
-15.9893
-15.0647
-15.6025
-15.1202
-15.2691
-15.0179
-15.0147
-14.8335
-14.7532
-14.5826
-14.4832
-14.3179
-14.1206
-14.0505
-13.5591
-13.7266
-12.8721
-13.2378
-12.1243
-12.5676
-11.3316
-11.5097
-10.2454
-10.1234
-8.72988
-8.35025
-6.69678
-6.06497
-4.04723
-3.08766
-0.712089
0.832857
3.54051
5.86648
8.99109
12.232
15.9614
20.1576
24.9057
29.9231
36.2644
41.9261
50.3723
56.5727
67.6669
74.1712
88.6257
94.7289
114.367
116.577
144.52
141.175
172.384
168.547
197.345
5.08771
14.4865
11.584
15.8106
15.2393
17.4262
17.2797
18.4608
18.4559
18.9381
19.1628
19.0447
19.6182
18.9963
19.8444
19.0073
19.8075
19.333
19.4753
19.5626
19.3266
19.6297
19.2714
19.633
19.2289
19.6398
19.1443
19.6774
19.0091
19.7007
18.8846
19.7049
18.7237
19.7186
18.6901
19.4678
18.9156
19.0466
18.9909
18.8218
18.9194
18.679
18.7846
18.5547
18.6828
18.327
18.5128
17.9823
18.2209
17.4241
17.7137
16.6196
16.8164
15.4497
15.3536
13.749
13.1834
11.2661
10.0674
7.74742
5.71582
2.90089
-0.151549
-3.53714
-7.69211
-11.6149
-16.7217
-20.9249
-26.4352
-30.3262
-35.2324
-37.7245
-40.4055
-40.2303
-39.6265
-36.4436
-32.7286
-27.3706
-21.7873
-16.1222
-10.3748
-5.89439
-1.05975
1.65446
5.16523
6.35884
8.74212
8.9996
10.3528
10.124
10.6549
10.0537
10.0026
9.12029
8.51773
7.46916
6.33603
5.07762
3.5455
2.03687
0.0805792
-1.54475
-4.02358
-5.64393
-8.51605
-10.1126
-13.0535
-14.634
-17.1607
-18.6391
-20.4687
-21.5772
-22.6136
-23.1275
-23.4132
-23.3998
-23.0015
-22.7764
-21.9524
-21.7681
-20.772
-20.679
-19.7286
-19.503
-19.0427
-18.6796
-18.5144
-18.0865
-18.0863
-17.5529
-17.6882
-17.071
-17.3145
-16.6422
-17.0074
-16.2058
-16.7547
-15.7948
-16.4829
-15.5294
-15.9474
-15.5851
-15.581
-15.5494
-15.2675
-15.4334
-14.9891
-15.2444
-14.7657
-15.0179
-14.4656
-14.8108
-14.0616
-14.56
-13.5912
-14.1733
-13.1254
-13.4495
-12.663
-12.6687
-11.8809
-11.7202
-10.7801
-10.5024
-9.32877
-8.8704
-7.44535
-6.66541
-4.99993
-3.75433
-1.80875
0.0262265
2.34459
4.86001
7.74928
10.9156
14.7635
18.4424
23.6654
27.7338
34.8409
39.186
48.6489
53.1586
65.6353
69.4507
87.1383
87.837
112.422
110.518
138.964
138.88
165.901
7.89586
16.3665
13.0716
16.7916
15.9897
17.7331
17.6744
18.5147
18.6408
18.9066
19.2364
19.0092
19.5829
18.9924
19.7169
19.0486
19.6054
19.3562
19.3217
19.5258
19.2256
19.5799
19.1803
19.5619
19.1591
19.5533
19.0899
19.5702
18.9643
19.5906
18.8219
19.5895
18.6793
19.5006
18.6761
19.2028
18.8555
18.8313
18.854
18.7063
18.7916
18.5684
18.701
18.3933
18.6006
18.1792
18.4412
17.892
18.1958
17.4931
17.7898
16.9086
17.0872
16.0288
15.9374
14.6442
14.1674
12.5799
11.5296
9.55228
7.70838
5.20716
2.35146
-0.853229
-4.88435
-8.92394
-14.1274
-18.926
-24.9234
-29.932
-35.6175
-39.5174
-43.1515
-44.245
-44.3318
-41.5735
-37.4874
-31.4493
-24.7687
-18.3105
-11.7913
-6.60107
-1.47147
1.91637
5.51126
7.24395
9.42405
10.1664
11.3207
11.3496
11.8658
11.3747
11.3585
10.5696
10.003
8.99209
7.95709
6.65971
5.22004
3.69726
1.73208
0.0950523
-2.37086
-4.1266
-6.91095
-8.78189
-11.6224
-13.5948
-16.0676
-17.9887
-19.791
-21.3366
-22.4018
-23.3082
-23.6142
-23.8873
-23.5799
-23.3619
-22.6357
-22.2699
-21.3231
-20.9916
-20.0614
-19.6915
-18.981
-18.5876
-18.0963
-17.7033
-17.4697
-17.0072
-16.9694
-16.4738
-16.6096
-16.0709
-16.4038
-15.7487
-16.2429
-15.4178
-16.0096
-15.2808
-15.5868
-15.3269
-15.2476
-15.2754
-14.9773
-15.1638
-14.7299
-14.9746
-14.5284
-14.7745
-14.2339
-14.5291
-13.8694
-14.2528
-13.4219
-13.8522
-12.9725
-13.2468
-12.405
-12.4844
-11.5627
-11.4811
-10.4397
-10.163
-8.94926
-8.44973
-6.98819
-6.19552
-4.46415
-3.23067
-1.189
0.595433
3.0668
5.46491
8.57566
11.5915
15.6654
19.1922
24.7104
28.5926
35.9661
40.1071
49.7411
53.9323
66.5378
69.7434
86.6679
87.0056
108.67
106.324
129.098
127.958
149.379
7.7021
15.9038
12.2612
16.4358
15.2089
17.2858
17.065
18.1064
18.2709
18.6077
19.0548
18.8413
19.4964
18.9656
19.6913
19.1074
19.6311
19.4266
19.3894
19.6314
19.2982
19.7337
19.2365
19.7598
19.1855
19.7726
19.1327
19.7758
19.0501
19.783
18.9401
19.7782
18.8132
19.6864
18.8618
19.4065
19.0566
19.0599
19.1133
18.8952
19.0863
18.7802
19.0346
18.6862
18.9862
18.5648
18.9016
18.3885
18.7456
18.0917
18.4522
17.6403
17.8949
16.9321
16.9455
15.8161
15.4287
14.0723
13.1094
11.4077
9.66114
7.43186
4.66818
1.66461
-2.34194
-6.35539
-11.7139
-16.8154
-23.2967
-29.1625
-36.0393
-41.5788
-46.9473
-49.7918
-50.9128
-48.816
-44.8443
-38.7586
-31.3458
-23.5428
-15.515
-8.93876
-2.36948
1.58928
5.88212
7.65864
10.2125
10.7265
12.0581
11.9989
12.5114
12.0474
11.9957
11.2648
10.6839
9.77324
8.72862
7.59292
6.10767
4.76464
2.7591
1.19023
-1.32039
-3.13673
-6.0541
-8.10514
-11.1937
-13.3998
-16.2728
-18.3687
-20.7462
-22.3488
-23.8806
-24.7085
-25.2109
-25.2502
-24.7699
-24.3334
-23.2876
-22.7712
-21.667
-21.2307
-20.288
-19.8585
-19.2719
-18.8579
-18.6938
-18.2275
-18.2666
-17.6899
-17.8424
-17.1691
-17.4357
-16.6981
-17.0881
-16.2844
-16.7908
-15.9232
-16.4446
-15.7111
-15.9252
-15.7342
-15.5617
-15.6927
-15.2868
-15.5783
-15.0496
-15.4383
-14.863
-15.2772
-14.6407
-15.0937
-14.373
-14.8835
-14.0864
-14.5517
-13.8459
-14.0565
-13.4757
-13.5488
-12.9104
-12.8791
-12.1499
-11.991
-11.1283
-10.8009
-9.75818
-9.19775
-7.94274
-7.05978
-5.52693
-4.24668
-2.31945
-0.604153
1.90563
4.03662
7.43094
9.90732
14.5392
17.2684
23.5703
26.4708
34.8741
37.7598
49.0053
51.1572
66.6849
66.4945
85.946
86.3729
106.8
107.277
127.346
9.92413
18.0051
13.771
17.7412
16.1413
18.0133
17.5644
18.4262
18.4805
18.7295
19.0784
18.8673
19.4503
18.9275
19.5873
19.0627
19.504
19.3652
19.2717
19.5509
19.1789
19.6281
19.1415
19.6622
19.1166
19.6649
19.0618
19.6846
18.9669
19.6999
18.8463
19.6892
18.7363
19.5351
18.7775
19.2338
18.9483
18.8786
18.9825
18.7422
18.9382
18.6177
18.9103
18.4956
18.8825
18.3895
18.8315
18.2852
18.7324
18.136
18.5435
17.8818
18.1786
17.4485
17.5078
16.6784
16.3836
15.3762
14.5737
13.2588
11.7524
9.92936
7.4708
4.82748
1.1173
-2.73824
-8.01311
-13.4115
-20.3683
-27.2963
-35.4162
-42.6721
-49.7612
-54.7542
-57.9114
-57.6658
-54.0411
-47.3259
-38.2827
-28.909
-19.4233
-11.8374
-4.04298
1.2084
6.09589
8.62659
11.055
12.2924
13.2122
13.562
13.9635
13.6702
13.5615
13.0248
12.3954
11.622
10.5864
9.51218
8.04158
6.72212
4.72661
3.14947
0.672707
-1.26388
-4.09995
-6.39947
-9.45317
-12.0021
-14.9813
-17.5373
-19.9958
-22.1682
-23.8518
-25.2024
-25.8985
-26.2973
-26.0172
-25.5972
-24.6148
-23.842
-22.6444
-22.0274
-20.874
-20.2587
-19.3406
-18.7026
-18.1546
-17.5877
-17.5099
-16.9241
-17.0212
-16.3714
-16.6332
-15.9945
-16.4594
-15.7796
-16.3362
-15.5032
-16.0869
-15.3819
-15.6427
-15.4765
-15.2837
-15.4559
-15.0317
-15.3784
-14.8096
-15.2392
-14.6391
-15.1009
-14.4357
-14.9243
-14.197
-14.7133
-13.9319
-14.389
-13.7083
-13.9264
-13.3566
-13.4216
-12.8066
-12.7355
-12.0647
-11.848
-11.0669
-10.6949
-9.73777
-9.15758
-7.97971
-7.11613
-5.65361
-4.44245
-2.57268
-0.989326
1.4937
3.42522
6.80464
8.97983
13.6346
15.9666
22.2207
24.6638
32.9237
35.1641
46.1807
47.2481
61.7229
61.6264
77.9908
77.8147
95.1184
95.1632
112.227
9.99099
18.087
13.6185
17.813
15.8105
18.1322
17.3143
18.4762
18.3499
18.7408
19.0441
18.8837
19.4538
19.0081
19.6127
19.1619
19.5675
19.4598
19.3646
19.6727
19.2767
19.7769
19.2273
19.8212
19.2013
19.8429
19.1582
19.8703
19.0797
19.8879
18.9816
19.8647
18.8987
19.7095
18.9585
19.4289
19.1332
19.0941
19.2047
18.9279
19.2023
18.8258
19.1498
18.7586
19.1617
18.6812
19.1565
18.6131
19.1174
18.5275
18.9969
18.3846
18.7173
18.0802
18.1914
17.5085
17.2872
16.4778
15.782
14.7161
13.3662
11.8256
9.58134
7.22039
3.74696
0.135395
-4.96414
-10.3154
-17.3183
-24.6878
-33.6195
-42.8065
-52.2165
-60.2253
-65.9792
-67.8463
-64.8225
-57.7948
-47.8917
-36.6495
-24.4808
-14.3065
-5.18279
1.30109
6.91026
9.75065
12.2009
13.1615
14.1871
14.2698
14.6477
14.2826
14.1164
13.5045
12.9204
12.1787
11.1825
10.2737
8.84323
7.75708
5.81977
4.35655
1.97312
0.0404362
-2.84595
-5.18797
-8.48875
-11.2101
-14.5815
-17.4179
-20.5167
-22.918
-25.2198
-26.701
-27.6683
-28.0206
-27.4624
-26.8384
-25.2846
-24.3135
-22.754
-22.0194
-20.8608
-20.2231
-19.6036
-18.9788
-18.8658
-18.3049
-18.4161
-17.8013
-18.0018
-17.2411
-17.4816
-16.6542
-17.0484
-16.2932
-16.7862
-15.9811
-16.4527
-15.7656
-15.9238
-15.7885
-15.5547
-15.7496
-15.2921
-15.6669
-15.0816
-15.5594
-14.9197
-15.4439
-14.7538
-15.3143
-14.5668
-15.1637
-14.408
-14.9035
-14.3405
-14.544
-14.1062
-14.2278
-13.7367
-13.7874
-13.2233
-13.2036
-12.5508
-12.4131
-11.6362
-11.3413
-10.3892
-9.87199
-8.67468
-7.9092
-6.33654
-5.32247
-3.21559
-1.94636
0.892248
2.35634
6.30182
7.82608
13.2479
14.7575
22.109
23.4214
33.3191
33.9465
46.3521
47.4128
61.682
63.098
78.3145
79.3901
95.2758
12.308
20.2044
15.1382
19.2702
16.7932
19.018
17.877
18.9558
18.5965
18.9746
19.0782
18.9812
19.3878
18.9824
19.5245
19.088
19.4678
19.3589
19.2526
19.5685
19.1558
19.6685
19.1156
19.7241
19.1055
19.7642
19.0563
19.7992
18.9784
19.8186
18.8935
19.7898
18.8158
19.6267
18.8506
19.3188
19.015
18.9599
19.0743
18.7731
19.0701
18.6357
19.0522
18.5209
19.0757
18.493
19.0708
18.5071
19.072
18.5377
19.0367
18.5582
18.9375
18.5011
18.6574
18.2403
18.1028
17.6254
17.0831
16.4118
15.3231
14.2469
12.3877
10.5569
7.54779
4.40131
-0.314476
-5.54805
-12.715
-20.7706
-30.7285
-41.4338
-53.4487
-65.0401
-74.9237
-80.9678
-81.2921
-75.0984
-63.5829
-50.0155
-34.7063
-21.3289
-9.32201
-0.540653
7.10811
10.9704
13.745
14.9937
15.7647
15.9718
16.5084
16.2096
15.9197
15.5884
14.8399
14.2818
13.1928
12.3917
10.8693
9.80596
7.87946
6.39771
4.04591
2.05087
-0.824562
-3.33545
-6.6956
-9.74224
-13.2799
-16.5824
-19.9419
-22.9596
-25.6367
-27.7623
-29.1891
-30.0081
-29.8992
-29.2356
-27.8534
-26.2483
-24.5187
-23.4405
-21.9566
-20.8776
-19.6139
-18.6682
-17.9196
-17.1749
-17.3457
-16.75
-16.9985
-16.3031
-16.5637
-15.899
-16.4372
-15.7892
-16.4224
-15.553
-16.1769
-15.4436
-15.7114
-15.5748
-15.3298
-15.57
-15.091
-15.5087
-14.891
-15.4431
-14.7175
-15.3417
-14.6037
-15.2507
-14.441
-15.1287
-14.2761
-14.884
-14.2428
-14.5087
-14.1285
-14.2217
-13.8385
-13.7911
-13.4179
-13.2465
-12.822
-12.5658
-12.018
-11.6617
-10.921
-10.421
-9.42468
-8.74241
-7.3941
-6.50835
-4.62798
-3.57242
-0.863668
0.151328
3.9931
4.99086
10.1228
11.1231
17.8908
18.7354
27.4385
28.4556
38.7217
40.0553
51.716
53.1769
66.2966
67.3187
81.4757
12.407
20.8732
15.2716
19.7677
16.9709
19.428
18.0081
19.3173
18.7046
19.268
19.2087
19.1902
19.5425
19.1555
19.6553
19.215
19.5976
19.4814
19.3645
19.7089
19.2437
19.8354
19.1958
19.9032
19.165
19.9581
19.1258
19.9969
19.0689
20.023
18.9929
19.9838
18.9461
19.8098
19.0096
19.504
19.1865
19.1415
19.2689
18.9152
19.2721
18.8111
19.2518
18.6912
19.2857
18.6448
19.3151
18.6347
19.3593
18.7154
19.3476
18.8467
19.2483
18.8927
19.0554
18.7853
18.6897
18.3908
17.938
17.4795
16.5464
15.7283
14.1282
12.6262
10.0315
7.32118
3.1634
-1.56902
-8.16381
-16.1079
-26.3089
-38.5915
-52.5901
-67.777
-81.8445
-93.4777
-98.1697
-92.3412
-79.0058
-61.2561
-43.2253
-26.2126
-12.446
-1.3155
7.42758
13.4492
14.6644
16.7475
16.797
16.8605
16.9011
16.6801
16.2239
15.9113
14.8984
14.62
13.5816
13.0383
11.7031
10.9166
9.1382
7.9054
5.72709
3.85513
1.10043
-1.35587
-4.7598
-7.89544
-11.7644
-15.3606
-19.3543
-22.8299
-26.2576
-28.8675
-30.7758
-31.9613
-31.651
-31.061
-28.6088
-26.8592
-24.1254
-23.0293
-21.6043
-20.7234
-20.2581
-19.1883
-18.9862
-18.1274
-18.5031
-17.8338
-18.3403
-17.2955
-17.5257
-16.34
-16.878
-16.1612
-16.8053
-16.0498
-16.4989
-15.751
-15.907
-15.7968
-15.5443
-15.7806
-15.3044
-15.718
-15.0871
-15.6442
-14.9302
-15.5465
-14.807
-15.4997
-14.6719
-15.428
-14.5862
-15.2164
-14.6647
-14.8883
-14.6171
-14.7363
-14.4423
-14.4747
-14.1693
-14.1115
-13.7935
-13.6566
-13.2741
-13.0685
-12.5095
-12.2546
-11.4204
-11.1172
-9.9048
-9.54509
-7.84934
-7.48542
-5.05475
-4.6746
-1.40018
-1.01135
3.36785
3.70045
9.69426
10.0377
17.6248
18.314
27.4579
28.5914
39.2803
40.5946
52.7644
53.7831
67.388
14.5589
23.0021
16.7794
21.1623
18.0145
20.2884
18.6278
19.7908
19.0258
19.4663
19.3414
19.2331
19.5465
19.1128
19.6265
19.1196
19.5283
19.3707
19.2609
19.6071
19.1266
19.7397
19.0661
19.8409
19.0426
19.9098
19.0086
19.974
18.9519
19.9872
18.9131
19.9494
18.8737
19.7792
18.9195
19.4448
19.091
19.0293
19.2004
18.7928
19.1811
18.5907
19.1606
18.5022
19.1681
18.5206
19.1766
18.5599
19.2374
18.6792
19.2877
18.8791
19.3737
19.1439
19.3165
19.2537
19.1953
19.1644
18.8148
18.678
17.9552
17.5242
16.2666
15.237
13.1303
11.0013
7.49379
3.4197
-2.49416
-9.88211
-19.814
-32.3648
-48.2255
-67.0617
-87.8948
-107.906
-120.609
-120.957
-108.557
-88.4694
-65.0373
-41.198
-21.4516
-7.3588
7.09958
12.8918
18.2594
18.4083
19.0143
18.875
18.7294
18.8701
18.2172
18.2164
17.1747
16.6874
15.538
15.0079
13.53
12.7508
11.0783
9.80348
7.69524
5.95295
3.1889
0.635329
-2.77878
-6.17006
-10.2615
-14.2676
-18.6879
-22.8525
-26.9046
-30.4099
-33.1849
-35.1384
-35.7578
-35.2062
-33.4449
-30.244
-27.2036
-25.2714
-23.1659
-21.384
-19.8293
-18.3511
-17.2411
-16.2003
-16.6468
-16.37
-16.9173
-16.4814
-16.5592
-15.7897
-16.1272
-15.72
-16.4378
-15.5673
-16.3409
-15.4665
-15.8058
-15.5824
-15.3828
-15.619
-15.1259
-15.5903
-14.9402
-15.5445
-14.7824
-15.4957
-14.6897
-15.4818
-14.5853
-15.4361
-14.5276
-15.2519
-14.6076
-14.9201
-14.674
-14.8236
-14.6159
-14.5804
-14.4498
-14.2755
-14.1458
-13.9398
-13.7649
-13.5129
-13.1967
-12.9162
-12.3755
-12.0543
-11.196
-10.8563
-9.47204
-9.19628
-7.0977
-6.92248
-3.91233
-3.85596
0.0341534
-0.0418972
5.29812
5.05995
11.8159
11.8439
19.9119
20.2672
29.601
30.2023
41.1404
41.6188
54.3628
14.8006
23.8862
17.1404
21.9553
18.5252
20.9299
19.1367
20.3147
19.4774
19.8752
19.7073
19.5337
19.8517
19.3023
19.8975
19.2699
19.7149
19.5216
19.3821
19.7636
19.2056
19.9003
19.1262
20.0003
19.092
20.0843
19.0569
20.158
19.004
20.1847
18.9684
20.1347
18.9729
19.954
19.0601
19.608
19.2582
19.1613
19.3712
18.8707
19.3888
18.6795
19.3757
18.5353
19.3945
18.488
19.4108
18.528
19.4837
18.7417
19.461
19.0182
19.4713
19.3194
19.4797
19.5515
19.5015
19.6154
19.3264
19.3526
18.7599
18.5425
17.5361
16.8264
15.15
13.4936
10.6398
7.23708
2.18252
-4.45529
-13.5564
-25.7063
-41.4083
-61.8351
-85.9601
-113.885
-137.407
-143.77
-133.388
-109.737
-81.7931
-53.4769
-30.3722
-11.7198
2.8474
14.918
17.7087
21.9554
19.8249
19.8723
18.7427
18.8807
18.0835
17.9206
16.8469
16.8853
15.6553
15.5452
14.3594
13.7974
12.3255
11.3893
9.50024
7.8993
5.44812
3.1142
-0.200219
-3.4567
-7.6537
-11.8689
-16.7231
-21.331
-26.2298
-30.3277
-33.8806
-36.8271
-37.8117
-38.2095
-35.058
-32.0514
-25.6975
-23.5405
-22.8221
-21.676
-21.3802
-19.8732
-19.0789
-17.3792
-17.8835
-17.6214
-19.0699
-17.4809
-17.8124
-15.636
-16.3428
-15.6527
-17.0527
-16.245
-16.6756
-15.6791
-15.8379
-15.7837
-15.5537
-15.8438
-15.3074
-15.7867
-15.0527
-15.7054
-14.8675
-15.6656
-14.7896
-15.6421
-14.723
-15.6239
-14.6893
-15.4719
-14.8542
-15.1409
-15.005
-15.1108
-15.0432
-14.9864
-14.9866
-14.7823
-14.798
-14.5714
-14.6161
-14.3767
-14.3067
-14.0753
-13.7802
-13.6006
-12.9825
-12.8643
-11.8248
-11.8294
-10.2018
-10.377
-7.88238
-8.23168
-5.15824
-5.64618
-1.18035
-1.83027
3.76176
3.67473
10.3906
11.0425
18.7836
19.5847
29.176
29.6678
41.7373
16.9644
26.0442
18.5728
23.167
19.4753
21.6472
19.7173
20.6791
19.8045
20
19.8923
19.5189
19.9325
19.2377
19.9171
19.1573
19.6708
19.4225
19.2826
19.6882
19.067
19.8535
18.9768
19.9662
18.9527
20.0679
18.928
20.1678
18.8858
20.2143
18.8717
20.1698
18.894
19.9849
18.995
19.6104
19.2147
19.1093
19.35
18.7748
19.3505
18.4878
19.3373
18.3677
19.2935
18.3333
19.2852
18.3566
19.3539
18.5673
19.4106
18.9017
19.5474
19.4527
19.5405
19.7896
19.7138
20.0397
19.7947
20.0568
19.6064
19.6609
18.9108
18.5431
17.2823
16.1151
13.9207
11.2457
7.20356
1.65625
-5.96882
-16.7298
-30.8149
-50.6474
-76.2539
-108.244
-140.725
-160.049
-158.412
-144.689
-108.427
-73.1988
-45.2246
-22.6443
-4.38183
10.2127
20.8598
21.034
23.8167
21.5418
20.6111
21.2696
20.2487
20.7711
18.9213
18.6409
17.2971
17.0256
15.7908
15.2434
13.9033
12.9888
11.3264
9.97991
7.63105
5.38561
2.24198
-1.06926
-5.34146
-9.86058
-15.2955
-20.637
-26.4006
-31.7563
-36.3979
-40.5373
-42.9414
-44.269
-43.1982
-38.8243
-32.1829
-26.6381
-23.3062
-21.6829
-19.8743
-18.2659
-16.6805
-14.5364
-14.5987
-14.9939
-16.7647
-17.6285
-17.4864
-15.974
-15.4881
-14.8961
-16.0847
-15.7495
-16.8423
-15.6392
-15.871
-15.4032
-15.4094
-15.5727
-15.1858
-15.6715
-14.9771
-15.6173
-14.7984
-15.5642
-14.7286
-15.5794
-14.6878
-15.6109
-14.6806
-15.4923
-14.7919
-15.2086
-14.9755
-15.216
-15.1764
-15.101
-15.2467
-14.923
-15.0928
-14.7852
-14.9761
-14.7113
-14.8245
-14.5876
-14.5894
-14.3324
-14.1379
-13.9768
-13.2531
-13.2631
-11.9911
-12.3373
-10.0762
-10.6066
-8.08781
-9.01692
-4.93287
-6.35444
-1.4769
-2.36741
3.51833
2.97724
10.0318
9.17572
18.0438
17.0897
28.9438
17.2137
27.1084
19.277
24.1986
20.3212
22.3879
20.5587
21.2516
20.5629
20.3998
20.5095
19.8114
20.4301
19.4271
20.2289
19.3653
19.859
19.6242
19.3616
19.9011
19.0826
20.0599
18.9692
20.16
18.9258
20.2588
18.8958
20.3577
18.8597
20.3979
18.8708
20.3407
18.9414
20.1395
19.1034
19.7295
19.3886
19.1589
19.5504
18.8319
19.5428
18.5444
19.5125
18.3383
19.5199
18.2451
19.5161
18.3741
19.4499
18.6533
19.3903
18.9695
19.4154
19.4486
19.5285
19.8916
19.8053
20.2208
20.0167
20.3667
19.9931
20.1724
19.6018
19.4252
18.4787
17.6062
15.9169
13.7656
10.5341
5.94261
-0.354068
-9.33669
-21.2905
-38.3937
-61.8833
-91.4124
-126.279
-152.152
-159.589
-151.655
-120.957
-82.0708
-53.0258
-31.5673
-9.33797
6.34305
20.1202
20.4589
22.0804
22.9595
19.3497
19.489
19.3758
19.43
18.6295
18.7667
17.3272
17.3892
16.5597
16.1079
14.9868
14.3347
12.8474
11.6983
9.81756
7.83102
4.94457
1.90575
-2.25126
-6.62614
-12.1931
-17.8015
-24.1954
-29.9128
-35.3239
-40.6504
-44.1329
-47.6596
-46.125
-42.8296
-29.706
-23.4773
-23.7074
-23.0069
-23.5091
-21.6496
-20.1245
-16.2861
-15.5162
-15.8764
-19.2331
-18.615
-18.8438
-15.1949
-15.0594
-14.8108
-17.0532
-16.5937
-17.0319
-15.8025
-15.8203
-15.5361
-15.6291
-15.8998
-15.3077
-15.8334
-14.9562
-15.7518
-14.804
-15.7131
-14.7476
-15.6899
-14.7326
-15.678
-14.7631
-15.5594
-14.8957
-15.2666
-15.1428
-15.2527
-15.4462
-15.2604
-15.5299
-15.191
-15.365
-15.0451
-15.4012
-15.161
-15.3426
-15.1924
-15.2337
-15.1197
-15.0593
-15.0073
-14.5113
-14.6777
-13.8804
-14.3339
-12.485
-13.0537
-11.4749
-12.6952
-9.25612
-11.1525
-7.52743
-8.63321
-4.10614
-3.59087
0.641295
1.4295
6.48362
6.98822
16.1342
19.2363
28.976