/*--------------------------------*- C++ -*----------------------------------*\
| =========                 |                                                 |
| \\      /  F ield         | OpenFOAM: The Open Source CFD Toolbox           |
|  \\    /   O peration     | Version:  4.1                                   |
|   \\  /    A nd           | Web:      www.OpenFOAM.org                      |
|    \\/     M anipulation  |                                                 |
\*---------------------------------------------------------------------------*/
FoamFile
{
    version     2.0;
    format      ascii;
    class       volScalarField;
    location    "10.5";
    object      epsilon;
}
// * * * * * * * * * * * * * * * * * * * * * * * * * * * * * * * * * * * * * //

dimensions      [0 2 -3 0 0 0 0];

internalField   nonuniform List<scalar> 
204246
(
2.87471
2.94141
2.88448
2.87119
2.8367
2.82639
2.8147
2.81662
2.81424
2.82499
2.84477
2.86492
2.88696
2.90671
2.93591
2.95818
2.99053
3.00423
3.04842
3.05982
3.09696
3.10802
3.13812
3.15784
3.1811
3.2015
3.22353
3.24007
3.26541
3.27798
3.30349
3.3141
3.33971
3.34944
3.37381
3.38417
3.39729
3.42632
3.43415
3.45793
3.46817
3.49156
3.50079
3.5252
3.53214
3.56094
3.57002
3.59562
3.60882
3.62924
3.64606
3.66555
3.68289
3.69133
3.72809
3.73557
3.76237
3.7777
3.79976
3.81789
3.8383
3.85697
3.87954
3.90067
3.92262
3.94496
3.96541
3.98927
4.00961
4.03326
4.04229
4.08316
4.09386
4.12657
4.14134
4.17119
4.18867
4.21692
4.2341
4.26561
4.28783
4.31412
4.34014
4.36408
4.39286
4.4168
4.44578
4.45744
4.50601
4.51939
4.55928
4.57819
4.6149
4.63505
4.67472
4.70158
4.7351
4.76765
4.79947
4.83384
4.86418
4.90276
4.93323
4.9722
5.00366
5.04207
5.06414
5.1256
5.14352
5.19906
5.21885
5.27778
5.3042
5.35572
5.39327
5.43868
5.47817
5.52453
5.56675
5.61342
5.65952
5.70599
5.75511
5.78526
5.86496
5.88794
5.9627
5.99105
6.06411
6.09808
6.1694
6.20688
6.27816
6.31873
6.39077
6.43415
6.50638
6.55263
6.62611
6.67506
6.73011
6.81658
6.85823
6.94313
6.9872
7.073
7.11791
7.20578
7.25122
7.34119
7.38675
7.47886
7.52408
7.61858
7.66352
7.76075
7.8054
7.88097
7.96967
8.02357
8.11319
8.16536
8.25782
8.30771
8.40324
8.45033
8.55013
8.59351
8.69806
8.73847
8.84967
8.88622
9.00606
9.03987
9.17288
9.20093
9.32241
9.41481
9.49876
9.61832
9.69764
9.84632
9.93011
10.112
10.2118
10.4322
10.5626
10.8274
11.0029
11.2878
11.4706
11.6271
11.6473
0.520372
0.746509
0.740567
0.730916
0.720208
0.708027
0.695862
0.685439
0.679122
0.672237
0.672076
0.671871
0.678636
0.687683
0.701932
0.70491
0.723005
0.72239
0.729401
0.744314
0.741605
0.758833
0.75513
0.767695
0.764807
0.77583
0.772054
0.781444
0.775791
0.787309
0.781225
0.79284
0.786482
0.798157
0.792032
0.804451
0.80186
0.799898
0.812176
0.806415
0.818362
0.814922
0.827386
0.824193
0.836652
0.831783
0.84522
0.839742
0.853424
0.848014
0.861789
0.859086
0.874829
0.873596
0.873762
0.889132
0.884315
0.899427
0.896933
0.912678
0.910317
0.926082
0.92176
0.938682
0.933678
0.950994
0.946092
0.963421
0.961301
0.980876
0.980405
0.984368
1.00149
1
1.01912
1.01735
1.03699
1.0352
1.05573
1.05262
1.07394
1.06965
1.09157
1.08745
1.10956
1.10853
1.13385
1.13521
1.14433
1.16533
1.16566
1.19083
1.19065
1.21754
1.21613
1.24425
1.24165
1.27015
1.26714
1.2976
1.29569
1.32675
1.32845
1.36014
1.36203
1.3968
1.39862
1.42401
1.45011
1.454
1.49013
1.49156
1.5303
1.53022
1.57089
1.5711
1.6145
1.61791
1.66237
1.66683
1.71183
1.7158
1.76698
1.77492
1.80814
1.84775
1.85469
1.9085
1.91677
1.97138
1.97931
2.03821
2.04796
2.10929
2.12015
2.18461
2.19647
2.26418
2.27747
2.35168
2.36894
2.41957
2.48031
2.49628
2.575
2.59276
2.6745
2.69312
2.77839
2.7982
2.88732
2.90861
2.99938
3.02074
3.1155
3.13832
3.24178
3.26931
3.33701
3.4216
3.44597
3.54716
3.5711
3.67296
3.69689
3.79755
3.82067
3.91949
3.94103
4.03688
4.05721
4.14976
4.16845
4.26015
4.28336
4.36987
4.39116
4.42782
4.49501
4.49909
4.56458
4.56145
4.61147
4.6015
4.63671
4.62099
4.65685
4.64488
4.78283
4.90842
5.38518
5.66827
5.81277
0.724697
0.756452
0.767021
0.771728
0.77217
0.767059
0.75257
0.733997
0.716238
0.701786
0.689755
0.680952
0.673573
0.670396
0.666878
0.666308
0.665566
0.666243
0.667023
0.670419
0.672651
0.676393
0.679317
0.682999
0.686964
0.690726
0.694865
0.698807
0.703535
0.707697
0.712764
0.717029
0.722548
0.727057
0.732781
0.7374
0.743171
0.747008
0.753479
0.757087
0.763246
0.767446
0.773053
0.77776
0.783006
0.788084
0.793023
0.798579
0.803355
0.809358
0.814281
0.820789
0.825909
0.832608
0.837086
0.844313
0.849036
0.856074
0.861609
0.868396
0.874623
0.881231
0.88799
0.894499
0.901845
0.908323
0.916268
0.922948
0.931649
0.938565
0.947523
0.953907
0.963254
0.970009
0.9792
0.986825
0.995859
1.0044
1.01332
1.02237
1.0312
1.04086
1.04974
1.06
1.06927
1.08033
1.09004
1.10141
1.11034
1.12205
1.13132
1.14303
1.15327
1.16495
1.1757
1.18726
1.19856
1.21027
1.22226
1.23447
1.24703
1.25928
1.27235
1.28532
1.29912
1.31274
1.32657
1.33947
1.35414
1.36677
1.38215
1.39478
1.41085
1.42351
1.44032
1.45308
1.47075
1.48371
1.50199
1.51479
1.53392
1.54693
1.56761
1.57999
1.59823
1.61408
1.62902
1.64806
1.66091
1.6816
1.69293
1.71548
1.72525
1.74855
1.75771
1.78099
1.78967
1.81295
1.82133
1.84477
1.85264
1.86968
1.88396
1.89212
1.91
1.91435
1.93144
1.93413
1.94887
1.94971
1.962
1.96105
1.96864
1.96485
1.96918
1.96233
1.9659
1.95216
1.94523
1.94107
1.91889
1.91697
1.88634
1.88192
1.84546
1.83891
1.79768
1.78993
1.74529
1.73667
1.68904
1.68002
1.62976
1.62031
1.57114
1.56228
1.50955
1.48608
1.4672
1.42603
1.42038
1.37541
1.37104
1.32914
1.32682
1.29189
1.29345
1.27493
1.28482
1.27361
1.28159
1.1687
1.12661
0.901324
0.927203
0.97552
0.994353
1.00117
1.00309
0.995726
0.975641
0.945799
0.917552
0.893523
0.877526
0.86284
0.85409
0.844058
0.840392
0.833346
0.831877
0.830151
0.828706
0.829733
0.829161
0.831998
0.832384
0.836766
0.837919
0.843011
0.844617
0.850748
0.852501
0.859512
0.861641
0.869428
0.871948
0.880185
0.883087
0.891602
0.895965
0.901158
0.90802
0.911312
0.918883
0.921829
0.929378
0.932253
0.939835
0.942336
0.949974
0.952458
0.960303
0.963108
0.9707
0.973626
0.981573
0.985751
0.990653
0.997291
1.00066
1.00815
1.01126
1.01905
1.02225
1.03029
1.03331
1.04155
1.04466
1.0532
1.05667
1.06512
1.06876
1.07735
1.08212
1.08846
1.09471
1.09993
1.10726
1.11191
1.12
1.12429
1.13295
1.13689
1.14582
1.14986
1.15907
1.16341
1.17267
1.17717
1.18619
1.1916
1.19875
1.20506
1.2115
1.21839
1.22431
1.23158
1.23692
1.24438
1.24939
1.25694
1.26186
1.26922
1.27409
1.28114
1.28635
1.29303
1.29852
1.30443
1.30974
1.31529
1.31999
1.32572
1.32945
1.3356
1.33814
1.34447
1.34617
1.35207
1.35367
1.35873
1.35975
1.36421
1.36449
1.36845
1.36802
1.36818
1.36932
1.36732
1.36843
1.36438
1.36498
1.35879
1.35884
1.35016
1.34938
1.33823
1.33653
1.32263
1.31975
1.30347
1.29966
1.27886
1.26902
1.25457
1.23549
1.22522
1.19884
1.19003
1.15904
1.14887
1.11497
1.10359
1.06684
1.0542
1.01485
1.00112
0.960172
0.946006
0.901443
0.880271
0.848606
0.816645
0.79453
0.754655
0.739699
0.697632
0.683213
0.643073
0.629643
0.593228
0.581069
0.548367
0.53777
0.508904
0.499902
0.474681
0.467163
0.445167
0.435464
0.422032
0.410181
0.402349
0.388358
0.384482
0.370558
0.367417
0.358513
0.358331
0.358142
0.371876
0.384072
0.406895
0.414502
0.420199
1.01503
1.04607
1.14046
1.1863
1.24803
1.27142
1.27798
1.27147
1.23292
1.18093
1.12815
1.08757
1.05138
1.03022
1.01251
1.00488
0.994234
0.990436
0.985963
0.983338
0.983207
0.982281
0.98328
0.983079
0.985235
0.985538
0.988081
0.988547
0.991435
0.991858
0.995295
0.996038
1.00033
1.00157
1.00654
1.00827
1.0136
1.01634
1.02009
1.02436
1.02695
1.03191
1.03399
1.03893
1.04096
1.04567
1.04742
1.05189
1.05354
1.05788
1.0596
1.06366
1.06537
1.06928
1.07125
1.074
1.07672
1.07859
1.08172
1.08318
1.08633
1.08776
1.09077
1.09212
1.09498
1.0963
1.0991
1.10048
1.10309
1.10442
1.1068
1.1082
1.10985
1.11136
1.11268
1.11427
1.11551
1.11711
1.11832
1.11983
1.12112
1.12233
1.12373
1.12454
1.12618
1.12663
1.12824
1.12838
1.1287
1.12955
1.12914
1.12966
1.12885
1.1292
1.12731
1.12771
1.12489
1.12509
1.12132
1.12132
1.11624
1.11556
1.10997
1.10881
1.10229
1.10077
1.09189
1.08802
1.08247
1.07466
1.07087
1.05987
1.05703
1.04389
1.04049
1.02575
1.02126
1.00589
1.00058
0.983901
0.977992
0.959911
0.953611
0.932947
0.923014
0.90774
0.891632
0.879811
0.858544
0.849502
0.824986
0.816107
0.790156
0.780824
0.753978
0.744334
0.716725
0.70675
0.678828
0.668715
0.639572
0.625726
0.604295
0.584746
0.568712
0.544719
0.533618
0.507557
0.49805
0.472468
0.46343
0.439226
0.430756
0.408162
0.400393
0.379777
0.372854
0.353591
0.344853
0.332521
0.321679
0.314175
0.302177
0.298075
0.287114
0.283904
0.275088
0.272707
0.265779
0.26409
0.258954
0.257966
0.2545
0.254197
0.252236
0.252548
0.251861
0.252086
0.25396
0.254235
0.257233
0.257942
0.260942
0.261617
0.263963
0.264378
0.267671
0.268995
0.276207
0.281032
0.290033
0.293661
0.29626
0.982075
1.05377
1.14078
1.21694
1.31919
1.39636
1.46957
1.49838
1.50672
1.49557
1.44377
1.36653
1.28234
1.21761
1.1669
1.13945
1.1143
1.10327
1.09316
1.08788
1.08524
1.08298
1.08266
1.08197
1.08217
1.08183
1.08203
1.08128
1.08127
1.07938
1.07875
1.07624
1.0756
1.0736
1.07319
1.07183
1.07157
1.07087
1.07041
1.07031
1.06999
1.07002
1.06978
1.06982
1.06959
1.06958
1.06909
1.06884
1.06808
1.06762
1.06666
1.06604
1.06483
1.06392
1.06254
1.06125
1.05953
1.05812
1.05605
1.05453
1.05197
1.05044
1.04721
1.04594
1.04199
1.04074
1.03623
1.03474
1.0299
1.02818
1.02242
1.01927
1.01508
1.00993
1.00674
0.999978
0.997394
0.989686
0.986911
0.978484
0.975941
0.966837
0.964155
0.954532
0.951449
0.941919
0.938603
0.928021
0.922577
0.915223
0.906986
0.901081
0.890609
0.885663
0.873139
0.869024
0.855007
0.850494
0.835512
0.830597
0.814552
0.808818
0.792436
0.786126
0.768972
0.762298
0.743202
0.734257
0.719262
0.706211
0.693816
0.676873
0.667717
0.647574
0.640183
0.618663
0.61069
0.589631
0.581373
0.56042
0.5522
0.531454
0.523348
0.501852
0.491777
0.47583
0.462042
0.450283
0.433402
0.425333
0.407097
0.400332
0.38247
0.376069
0.359217
0.353257
0.337446
0.331881
0.31727
0.312169
0.298179
0.291749
0.282459
0.274244
0.268051
0.258521
0.254893
0.245372
0.24218
0.233656
0.230853
0.223337
0.220905
0.214373
0.212311
0.20669
0.20496
0.199997
0.197821
0.195083
0.192482
0.19107
0.188474
0.187747
0.185722
0.1853
0.183977
0.183866
0.183325
0.183549
0.183499
0.184578
0.184838
0.186692
0.187353
0.189943
0.19102
0.194163
0.196172
0.199682
0.202621
0.206516
0.210396
0.21475
0.219606
0.224439
0.230203
0.235383
0.241831
0.246994
0.252228
0.254547
0.255859
0.901252
0.96501
1.0307
1.10271
1.20381
1.30428
1.42729
1.52891
1.60719
1.63793
1.64641
1.63893
1.59354
1.51187
1.41322
1.32483
1.247
1.19838
1.16353
1.14324
1.13251
1.12411
1.12049
1.11717
1.11578
1.1141
1.11325
1.11134
1.10962
1.1061
1.10243
1.09672
1.09143
1.08484
1.0792
1.07266
1.06739
1.06165
1.05644
1.05068
1.04545
1.04002
1.03516
1.02982
1.02513
1.01965
1.01564
1.0095
1.00572
0.998756
0.995033
0.987623
0.983632
0.975418
0.96985
0.963649
0.955742
0.950568
0.941535
0.936651
0.926678
0.9219
0.910843
0.906466
0.894494
0.889874
0.877212
0.872125
0.859185
0.853733
0.839888
0.832363
0.821247
0.811037
0.801405
0.789083
0.780501
0.766513
0.758702
0.743009
0.736584
0.719867
0.713553
0.696495
0.68986
0.673229
0.666472
0.649276
0.640534
0.627248
0.615695
0.604632
0.590899
0.581473
0.565441
0.558418
0.540711
0.53417
0.516021
0.509412
0.491094
0.484089
0.466374
0.459249
0.441824
0.43481
0.416876
0.408575
0.394725
0.384109
0.373097
0.360224
0.35265
0.338096
0.332645
0.317991
0.312602
0.299292
0.294165
0.28188
0.277173
0.265878
0.261594
0.250704
0.245859
0.238214
0.232213
0.226929
0.219883
0.216755
0.209526
0.207027
0.200403
0.198204
0.192332
0.190429
0.185246
0.183592
0.179077
0.177663
0.173568
0.171741
0.169397
0.167037
0.165783
0.163297
0.162535
0.160299
0.159703
0.157865
0.157421
0.155966
0.155666
0.154575
0.154416
0.153686
0.153679
0.1533
0.153219
0.153482
0.153435
0.154098
0.154228
0.15526
0.155589
0.156966
0.157499
0.159315
0.160094
0.16237
0.163408
0.16618
0.167509
0.170769
0.172399
0.176115
0.178063
0.182047
0.18465
0.18874
0.19202
0.196231
0.200073
0.204478
0.208898
0.213628
0.21861
0.223648
0.22893
0.233574
0.237576
0.239521
0.240492
0.835846
0.864968
0.901397
0.946687
1.01818
1.10182
1.21229
1.32674
1.43941
1.53354
1.61619
1.68098
1.70926
1.71423
1.69617
1.629
1.52393
1.40999
1.30882
1.22707
1.17561
1.13841
1.12025
1.10584
1.09889
1.09276
1.08937
1.08575
1.08227
1.0782
1.07248
1.06594
1.05691
1.04787
1.03646
1.02576
1.01318
1.00158
0.990641
0.977883
0.966878
0.953855
0.943394
0.930748
0.920751
0.908137
0.89943
0.886799
0.878871
0.865958
0.858264
0.845359
0.837472
0.824035
0.814446
0.803358
0.79114
0.781256
0.767757
0.758427
0.743931
0.734941
0.719293
0.711086
0.694167
0.686487
0.668608
0.660899
0.642818
0.634815
0.616152
0.605947
0.590599
0.577679
0.564325
0.549417
0.537686
0.521362
0.511076
0.493411
0.485205
0.466863
0.459497
0.441416
0.434098
0.41716
0.410091
0.393536
0.385291
0.372605
0.362808
0.352634
0.341647
0.333527
0.321275
0.315694
0.302836
0.298042
0.285585
0.281058
0.269235
0.264765
0.254008
0.249746
0.239779
0.235841
0.226189
0.221821
0.214739
0.209647
0.204242
0.198365
0.194925
0.188546
0.186225
0.180094
0.177918
0.172636
0.170668
0.166023
0.164304
0.160219
0.158728
0.154931
0.153273
0.150781
0.148865
0.147143
0.144953
0.144027
0.141817
0.141108
0.139149
0.138556
0.136879
0.136398
0.134973
0.134585
0.133394
0.133093
0.132056
0.131612
0.131224
0.130653
0.130543
0.130053
0.130015
0.12968
0.129708
0.129572
0.129687
0.129631
0.129933
0.129959
0.130485
0.130624
0.131365
0.131623
0.132471
0.133094
0.133936
0.134915
0.13586
0.137252
0.138408
0.140178
0.141543
0.143708
0.145366
0.147972
0.150011
0.153121
0.155596
0.159214
0.162166
0.166283
0.169724
0.17423
0.178105
0.182798
0.186931
0.191779
0.196208
0.201174
0.205885
0.210945
0.215873
0.220901
0.225706
0.230048
0.233423
0.235275
0.236095
0.727435
0.718258
0.716598
0.723003
0.758991
0.82804
0.934502
1.06185
1.19284
1.28766
1.34603
1.39142
1.47067
1.57956
1.69404
1.73429
1.74133
1.71263
1.62428
1.49373
1.36199
1.24793
1.16859
1.10931
1.07097
1.04224
1.02583
1.01409
1.00586
0.998225
0.990532
0.982657
0.971739
0.96095
0.946615
0.933171
0.916748
0.901485
0.886435
0.869286
0.854116
0.835689
0.820515
0.80208
0.787193
0.768521
0.755022
0.736838
0.724491
0.706614
0.695076
0.677878
0.666649
0.64943
0.636828
0.622509
0.607519
0.594666
0.578555
0.56652
0.54971
0.538462
0.52094
0.510968
0.492649
0.483651
0.464707
0.456282
0.437672
0.429296
0.41071
0.401085
0.385789
0.374324
0.361368
0.348709
0.337785
0.324422
0.31535
0.301439
0.29465
0.280816
0.27514
0.262209
0.256933
0.245509
0.240729
0.230251
0.225127
0.217363
0.21184
0.205811
0.200028
0.195467
0.189276
0.186353
0.180069
0.177734
0.171845
0.169729
0.164356
0.162348
0.157622
0.155768
0.151526
0.149861
0.145866
0.144067
0.141185
0.139192
0.136999
0.13479
0.133379
0.130998
0.13012
0.127849
0.127049
0.125136
0.124434
0.122795
0.122203
0.1208
0.120306
0.119039
0.118497
0.117763
0.117107
0.116676
0.115981
0.115795
0.115171
0.115037
0.114569
0.114496
0.114166
0.114156
0.113958
0.114001
0.113929
0.114063
0.114043
0.114222
0.114471
0.114589
0.115039
0.115187
0.115776
0.115993
0.116717
0.117012
0.11788
0.118256
0.119274
0.119746
0.120914
0.121515
0.12284
0.123606
0.125016
0.126055
0.127506
0.128825
0.130401
0.131984
0.133704
0.135595
0.137516
0.139793
0.141999
0.144668
0.147208
0.150301
0.153279
0.156886
0.160367
0.164515
0.168538
0.1732
0.177659
0.182756
0.187612
0.193001
0.198097
0.203646
0.208785
0.214286
0.219173
0.224319
0.228521
0.232742
0.235361
0.237223
0.237908
0.621586
0.583009
0.510306
0.489687
0.487305
0.503622
0.570646
0.701007
0.884582
1.04459
1.10668
1.12944
1.14637
1.18319
1.27203
1.3988
1.5599
1.68249
1.72056
1.72197
1.67687
1.57069
1.43016
1.28894
1.17457
1.08516
1.02036
0.966474
0.928908
0.900404
0.88305
0.867068
0.854285
0.840027
0.826176
0.810791
0.794088
0.776565
0.760906
0.741345
0.725632
0.70477
0.68823
0.666792
0.649779
0.627937
0.611639
0.590312
0.57495
0.55417
0.539909
0.520451
0.507175
0.488479
0.474769
0.459344
0.444355
0.430982
0.415568
0.403401
0.387769
0.376677
0.360923
0.351366
0.335606
0.327419
0.311756
0.304545
0.289724
0.282953
0.268836
0.261741
0.250279
0.242546
0.232933
0.224891
0.216963
0.208851
0.202449
0.194315
0.189615
0.181664
0.178229
0.171021
0.168014
0.161971
0.159398
0.15414
0.151589
0.147767
0.145214
0.142242
0.139744
0.137397
0.13485
0.133202
0.130552
0.12947
0.126904
0.125935
0.123577
0.122655
0.120557
0.119699
0.117798
0.117018
0.11522
0.114393
0.113073
0.11219
0.111135
0.110217
0.109466
0.108491
0.108011
0.107054
0.106694
0.105882
0.105583
0.104912
0.104678
0.104134
0.103958
0.103502
0.103315
0.103108
0.102902
0.102851
0.102679
0.102689
0.102618
0.102673
0.102652
0.102806
0.102824
0.103093
0.103165
0.10353
0.103657
0.104114
0.104293
0.104788
0.105149
0.105629
0.106154
0.106647
0.107317
0.107852
0.108658
0.109266
0.110204
0.110909
0.111983
0.112812
0.114028
0.115004
0.11637
0.117517
0.119041
0.12047
0.122167
0.123911
0.12582
0.127867
0.13008
0.132472
0.135044
0.13779
0.140728
0.143849
0.147204
0.150773
0.154604
0.158676
0.163052
0.16766
0.172626
0.177792
0.183169
0.18886
0.194589
0.200697
0.206639
0.21298
0.21889
0.225128
0.230593
0.236228
0.240698
0.245061
0.247764
0.249655
0.25033
0.454437
0.474488
0.388314
0.348862
0.338401
0.339724
0.369971
0.45399
0.599391
0.794278
0.928473
0.962148
0.967127
0.96288
0.964108
0.986246
1.06355
1.18654
1.34436
1.51628
1.62536
1.65616
1.65282
1.60757
1.50692
1.36989
1.22921
1.10103
1.00287
0.917885
0.854464
0.794873
0.755258
0.72121
0.700697
0.678879
0.662203
0.641918
0.627386
0.607033
0.592626
0.572482
0.557907
0.538321
0.523029
0.502938
0.487475
0.467753
0.452925
0.433427
0.419375
0.401158
0.388318
0.371229
0.358628
0.344406
0.331659
0.319801
0.307496
0.297153
0.28519
0.275949
0.2643
0.256305
0.245069
0.238286
0.227575
0.221699
0.211718
0.206565
0.197304
0.192426
0.184806
0.179954
0.173489
0.168786
0.163301
0.158813
0.15425
0.149977
0.146307
0.142298
0.139418
0.135724
0.133527
0.130264
0.128611
0.125735
0.124306
0.122024
0.120691
0.118725
0.117487
0.115743
0.114584
0.113069
0.11195
0.110649
0.109584
0.10844
0.1074
0.106401
0.105399
0.104527
0.103565
0.102815
0.101871
0.101192
0.100452
0.0997851
0.0991852
0.0985716
0.0981086
0.0975523
0.0971979
0.0967041
0.0964591
0.0960562
0.0958931
0.0955856
0.0954773
0.0952745
0.0952171
0.0951067
0.0950751
0.0950936
0.0950947
0.0952179
0.0952584
0.0954795
0.0955622
0.0958725
0.0960016
0.0963976
0.0965958
0.0970791
0.0973362
0.0979094
0.0982332
0.0988925
0.0992994
0.100013
0.100562
0.101302
0.101984
0.102786
0.103591
0.104479
0.105408
0.106398
0.107458
0.108568
0.109765
0.111013
0.112355
0.113764
0.115269
0.116878
0.11856
0.120348
0.12222
0.124206
0.126307
0.128531
0.130953
0.133498
0.136314
0.139299
0.14256
0.146059
0.14983
0.153873
0.158217
0.162838
0.167807
0.173017
0.178661
0.184497
0.190584
0.197023
0.203498
0.210406
0.217109
0.224251
0.230875
0.237828
0.243841
0.249971
0.254672
0.259265
0.261915
0.263881
0.264528
0.260231
0.293798
0.264126
0.24722
0.243646
0.248474
0.27708
0.344617
0.467363
0.652775
0.838029
0.893819
0.901116
0.885446
0.841976
0.794139
0.783626
0.795685
0.855963
0.969108
1.11578
1.28941
1.44291
1.54457
1.5702
1.57054
1.53815
1.45967
1.34128
1.19904
1.06398
0.935838
0.838927
0.748665
0.683035
0.617674
0.57386
0.535029
0.513825
0.491053
0.475765
0.458286
0.44461
0.429919
0.416542
0.401654
0.389175
0.375746
0.364733
0.351193
0.340631
0.327842
0.318144
0.306125
0.296739
0.286288
0.277022
0.268196
0.259694
0.252171
0.244268
0.237449
0.229873
0.223682
0.216468
0.210912
0.20417
0.199082
0.192786
0.188027
0.182209
0.177855
0.172774
0.168813
0.1643
0.160855
0.156831
0.153887
0.150342
0.14784
0.144671
0.142525
0.1397
0.137839
0.135319
0.133678
0.131392
0.129868
0.127819
0.126097
0.124183
0.122262
0.120474
0.118321
0.116682
0.114474
0.113079
0.110894
0.109725
0.107654
0.106704
0.104829
0.103977
0.102328
0.101578
0.100151
0.0995006
0.0983022
0.0977092
0.0967122
0.0962088
0.0953909
0.094966
0.0943115
0.0939661
0.0934512
0.093171
0.0928003
0.0925874
0.0923434
0.0921959
0.0920745
0.0919925
0.0919587
0.0919461
0.0919985
0.0920553
0.0921873
0.0923151
0.0925111
0.0927155
0.0929862
0.0932601
0.0936089
0.0939585
0.0943863
0.0948138
0.0953192
0.095831
0.0964033
0.097007
0.0976536
0.0983611
0.0990858
0.0998957
0.100724
0.101632
0.102584
0.103599
0.104691
0.105825
0.10707
0.108339
0.109753
0.111173
0.112779
0.114368
0.116203
0.118007
0.120084
0.122158
0.124532
0.126948
0.129639
0.132449
0.135447
0.138705
0.142057
0.145828
0.149656
0.154027
0.158439
0.163512
0.168585
0.17443
0.180196
0.186873
0.193401
0.200613
0.207893
0.215565
0.223439
0.23137
0.239559
0.24737
0.255361
0.262388
0.269375
0.274724
0.279825
0.282734
0.284863
0.285535
0.143095
0.168136
0.172079
0.179985
0.188429
0.206416
0.233169
0.294824
0.413064
0.599092
0.80708
0.879236
0.889394
0.873363
0.822114
0.738352
0.646895
0.599059
0.590965
0.606426
0.656913
0.754288
0.881229
1.04413
1.19909
1.34565
1.44341
1.48306
1.48961
1.47886
1.43504
1.34945
1.23
1.08602
0.948764
0.813806
0.710659
0.618982
0.547129
0.491329
0.443639
0.411379
0.384901
0.370932
0.355732
0.344522
0.331906
0.324291
0.315955
0.309589
0.302308
0.296749
0.290505
0.285396
0.279621
0.274678
0.269159
0.26461
0.259885
0.255666
0.251245
0.247076
0.242982
0.238735
0.23491
0.230554
0.227184
0.222823
0.21963
0.215127
0.212063
0.20821
0.204526
0.20165
0.197721
0.195836
0.192471
0.19126
0.188655
0.188017
0.186065
0.185941
0.18461
0.184813
0.183932
0.184129
0.183167
0.18327
0.182507
0.180614
0.179485
0.175706
0.174039
0.168388
0.166189
0.159327
0.156781
0.149677
0.147039
0.140288
0.137785
0.131803
0.129439
0.124377
0.122364
0.118122
0.116502
0.113177
0.111386
0.108952
0.107362
0.105569
0.103965
0.102852
0.101208
0.100605
0.0991585
0.0986435
0.0975092
0.097115
0.0962412
0.0959549
0.0953094
0.095134
0.0947493
0.094531
0.0943935
0.0942705
0.0942831
0.0942506
0.0944072
0.0944269
0.0947572
0.0948686
0.0953311
0.0955288
0.0961211
0.0964036
0.0971182
0.0974819
0.0983271
0.0988248
0.0997063
0.100379
0.101301
0.102168
0.103143
0.104209
0.105256
0.106526
0.107665
0.109143
0.110393
0.112094
0.113474
0.115411
0.116948
0.119158
0.120958
0.123312
0.125478
0.12805
0.130628
0.133472
0.136522
0.139733
0.143303
0.146963
0.151117
0.155318
0.160153
0.165012
0.170655
0.176284
0.182842
0.189311
0.19688
0.204293
0.212546
0.2209
0.229749
0.238848
0.248059
0.257571
0.266715
0.276036
0.284319
0.292442
0.298709
0.304499
0.307777
0.310122
0.310832
0.107916
0.132361
0.145351
0.159807
0.173128
0.18821
0.216959
0.280322
0.403985
0.600572
0.824646
0.907456
0.918353
0.897277
0.827999
0.724806
0.613301
0.505366
0.425772
0.402223
0.399991
0.419153
0.463978
0.545207
0.650022
0.786029
0.932151
1.08872
1.21325
1.32289
1.38866
1.42453
1.43159
1.42481
1.39193
1.32104
1.21443
1.08166
0.936468
0.808406
0.688574
0.605236
0.530434
0.482792
0.43549
0.407548
0.378716
0.366589
0.350665
0.344268
0.333617
0.329287
0.321634
0.318585
0.31324
0.310011
0.306917
0.304357
0.303579
0.301755
0.301471
0.299802
0.299696
0.297678
0.297593
0.295487
0.295454
0.293502
0.293295
0.291318
0.291078
0.289808
0.28849
0.28845
0.287364
0.287876
0.287586
0.289221
0.28951
0.292913
0.293652
0.298995
0.300609
0.307655
0.310157
0.317742
0.320531
0.327977
0.33162
0.334435
0.336395
0.335814
0.336068
0.331842
0.329537
0.319249
0.315135
0.301121
0.295778
0.279866
0.273803
0.257736
0.251154
0.236126
0.22999
0.216491
0.211254
0.200076
0.19383
0.185754
0.179189
0.173717
0.166249
0.163335
0.155925
0.15353
0.14708
0.144791
0.139194
0.137195
0.132242
0.130498
0.126148
0.124734
0.121275
0.119263
0.11691
0.114852
0.113425
0.111216
0.11058
0.108637
0.108205
0.106816
0.106493
0.105619
0.105479
0.105023
0.10508
0.104907
0.105186
0.105302
0.105724
0.106165
0.106683
0.107457
0.108045
0.109135
0.109819
0.111185
0.112003
0.113621
0.114598
0.116468
0.117629
0.119771
0.121143
0.123589
0.125298
0.127883
0.130046
0.132828
0.135486
0.138517
0.141746
0.145117
0.148977
0.152807
0.157366
0.161796
0.167152
0.172321
0.178624
0.184675
0.192082
0.199134
0.207802
0.216036
0.225623
0.235072
0.245499
0.255937
0.26693
0.277977
0.289043
0.30005
0.310235
0.320007
0.32775
0.334806
0.338643
0.341459
0.342261
0.108109
0.119532
0.13632
0.143487
0.157687
0.180639
0.230977
0.336681
0.514396
0.765035
0.944045
0.987975
0.984579
0.927924
0.821744
0.695476
0.564648
0.446454
0.343038
0.259714
0.220947
0.214556
0.21755
0.239055
0.278371
0.343422
0.425342
0.53323
0.649155
0.790871
0.925657
1.07137
1.17741
1.27701
1.33886
1.39889
1.42669
1.43235
1.42312
1.38864
1.32285
1.22767
1.1134
0.998984
0.886044
0.797967
0.713733
0.665514
0.610373
0.586895
0.54788
0.531658
0.503667
0.492667
0.474769
0.464011
0.455056
0.446414
0.443604
0.437696
0.436714
0.432909
0.433011
0.429707
0.430192
0.427629
0.428287
0.426531
0.42704
0.426117
0.427329
0.428144
0.428386
0.431242
0.431785
0.436247
0.437534
0.443673
0.445854
0.454362
0.457375
0.468734
0.473174
0.487182
0.493447
0.508984
0.516571
0.532885
0.542693
0.554516
0.565141
0.57191
0.57913
0.580889
0.583043
0.580962
0.580826
0.573039
0.569042
0.555064
0.548725
0.53137
0.523034
0.503717
0.494767
0.475296
0.467396
0.449863
0.438431
0.426088
0.412304
0.404434
0.388734
0.383298
0.367536
0.362531
0.347728
0.342441
0.328254
0.323104
0.308837
0.303582
0.289192
0.284147
0.270861
0.262392
0.252207
0.241104
0.23397
0.220631
0.215863
0.202462
0.198046
0.186157
0.181846
0.171669
0.167984
0.159399
0.156547
0.1493
0.147172
0.142127
0.139291
0.136399
0.133982
0.132597
0.130626
0.13024
0.129006
0.129019
0.128627
0.129037
0.129011
0.130224
0.130528
0.132326
0.132977
0.135349
0.136532
0.138989
0.140937
0.143517
0.146213
0.148987
0.152452
0.155532
0.159794
0.163322
0.168441
0.172585
0.178644
0.183579
0.190736
0.196651
0.205104
0.21219
0.222176
0.230767
0.241908
0.252164
0.264424
0.276145
0.289212
0.302013
0.315296
0.328538
0.340952
0.353281
0.362783
0.372117
0.376667
0.38029
0.381279
0.116801
0.114937
0.137116
0.153662
0.191528
0.261895
0.380355
0.562977
0.794732
1.01073
1.07606
1.07719
1.0233
0.92179
0.782566
0.630462
0.480252
0.348943
0.240778
0.159133
0.0944185
0.0699631
0.0631481
0.0639173
0.0695395
0.0853937
0.109658
0.148791
0.197275
0.26645
0.342409
0.443855
0.548489
0.685174
0.814377
0.963296
1.08339
1.19201
1.28264
1.34271
1.40582
1.44022
1.45611
1.45547
1.44391
1.41453
1.37057
1.31427
1.24648
1.1835
1.11553
1.06262
1.00371
0.964255
0.921332
0.882879
0.855509
0.817693
0.800365
0.769756
0.757809
0.735146
0.727513
0.709695
0.70477
0.690471
0.687007
0.675103
0.671711
0.661634
0.658919
0.653071
0.649187
0.649104
0.648011
0.650283
0.650268
0.6555
0.656756
0.665064
0.667293
0.678753
0.682606
0.697292
0.703199
0.720012
0.727906
0.746322
0.757572
0.772244
0.785996
0.797007
0.81008
0.816018
0.824598
0.826478
0.830119
0.828932
0.829529
0.824672
0.82333
0.814291
0.810328
0.798921
0.793911
0.781865
0.777614
0.767272
0.760359
0.754563
0.746788
0.744663
0.736772
0.735692
0.728269
0.727639
0.720662
0.719551
0.712369
0.711023
0.702613
0.700666
0.690251
0.687769
0.67699
0.666942
0.658414
0.641896
0.634665
0.61214
0.604471
0.578025
0.568875
0.540135
0.528792
0.498715
0.48666
0.455889
0.444066
0.412078
0.400409
0.371892
0.355482
0.333821
0.314267
0.299157
0.277824
0.268812
0.248911
0.241863
0.225513
0.220044
0.207255
0.203255
0.193746
0.191066
0.184486
0.182978
0.179747
0.177668
0.177462
0.176693
0.177318
0.177585
0.18011
0.18085
0.184855
0.186408
0.191675
0.194152
0.200648
0.204242
0.212057
0.216737
0.226036
0.231983
0.243067
0.250973
0.26314
0.273554
0.286947
0.2998
0.314215
0.329211
0.344143
0.36059
0.375045
0.39146
0.403034
0.415901
0.421934
0.426691
0.427993
0.280988
0.240208
0.299393
0.368383
0.478741
0.636827
0.829969
1.04104
1.16256
1.19009
1.17254
1.11127
1.00016
0.849508
0.672549
0.497431
0.340935
0.211579
0.115874
0.0554192
0.025144
0.0133797
0.00900083
0.00828316
0.00840994
0.0101975
0.013557
0.0201479
0.0292054
0.0442832
0.0624918
0.0906432
0.122483
0.170213
0.221747
0.295286
0.372353
0.472483
0.590675
0.707862
0.846213
0.957052
1.08378
1.16605
1.26114
1.30811
1.36373
1.38651
1.41868
1.43041
1.44284
1.44471
1.44459
1.43935
1.43424
1.41629
1.40297
1.37118
1.34646
1.30619
1.27932
1.24043
1.21751
1.18088
1.16336
1.12982
1.11663
1.08665
1.07423
1.04707
1.03583
1.01484
1.00027
0.988119
0.974933
0.970238
0.961693
0.960235
0.956099
0.957292
0.95546
0.959159
0.958484
0.965012
0.966022
0.975073
0.977804
0.989018
0.994756
1.0027
1.01161
1.01743
1.02658
1.02967
1.03574
1.03626
1.03836
1.0365
1.03674
1.03235
1.03148
1.02475
1.02211
1.01405
1.01068
1.00263
0.99985
0.993754
0.99
0.988625
0.987432
0.988803
0.988691
0.99339
0.994845
1.00324
1.00652
1.01668
1.0215
1.03328
1.03928
1.05233
1.05876
1.07301
1.08108
1.09046
1.10115
1.10694
1.11774
1.12026
1.12893
1.12938
1.13422
1.13251
1.1337
1.12617
1.12424
1.10901
1.1046
1.08088
1.07332
1.04799
1.02458
1.00151
0.965909
0.943602
0.896954
0.876043
0.823065
0.801596
0.746606
0.724984
0.669993
0.648371
0.594455
0.57347
0.522926
0.503575
0.462172
0.43785
0.409253
0.38348
0.365724
0.341124
0.332073
0.312139
0.306231
0.292719
0.289604
0.28212
0.281403
0.279207
0.280558
0.281204
0.286848
0.28841
0.297014
0.301207
0.310125
0.318463
0.328327
0.340742
0.3521
0.368155
0.381707
0.401029
0.415942
0.437283
0.451624
0.469688
0.478223
0.484821
0.486621
0.969034
0.845363
0.958081
1.04401
1.1511
1.24496
1.2964
1.30796
1.29752
1.25417
1.15881
1.01643
0.834557
0.638505
0.447999
0.276903
0.151343
0.0683775
0.0322982
0.0160254
0.00820588
0.00461955
0.00289554
0.00220269
0.00198391
0.00197743
0.00208638
0.00250731
0.00325596
0.00476579
0.00681079
0.0103604
0.0146652
0.0218544
0.0300584
0.0434811
0.0588105
0.0805501
0.110369
0.143555
0.191134
0.23901
0.306344
0.372344
0.466628
0.547025
0.659617
0.73718
0.852126
0.919033
1.02723
1.08548
1.18078
1.22957
1.30806
1.35954
1.41716
1.4638
1.5025
1.53628
1.55597
1.56781
1.57019
1.5688
1.56453
1.55349
1.54259
1.52469
1.50959
1.48753
1.4709
1.44999
1.42879
1.41163
1.38945
1.37728
1.35815
1.35066
1.33572
1.33094
1.31809
1.31494
1.30411
1.30204
1.29311
1.29107
1.28334
1.2815
1.27591
1.27053
1.26728
1.26015
1.25753