/*--------------------------------*- C++ -*----------------------------------*\
| =========                 |                                                 |
| \\      /  F ield         | OpenFOAM: The Open Source CFD Toolbox           |
|  \\    /   O peration     | Version:  4.1                                   |
|   \\  /    A nd           | Web:      www.OpenFOAM.org                      |
|    \\/     M anipulation  |                                                 |
\*---------------------------------------------------------------------------*/
FoamFile
{
    version     2.0;
    format      ascii;
    class       volScalarField;
    location    "10.5";
    object      k;
}
// * * * * * * * * * * * * * * * * * * * * * * * * * * * * * * * * * * * * * //

dimensions      [0 2 -2 0 0 0 0];

internalField   nonuniform List<scalar> 
204246
(
2.13092
2.1586
2.13561
2.12435
2.11235
2.10362
2.10136
2.09917
2.1016
2.10395
2.11754
2.12399
2.13906
2.14402
2.16328
2.16937
2.19005
2.19672
2.21315
2.22362
2.23652
2.24672
2.25708
2.2699
2.27751
2.29076
2.29763
2.30984
2.31664
2.32776
2.33456
2.34478
2.35155
2.36142
2.36829
2.37687
2.3838
2.39194
2.40101
2.40742
2.41604
2.423
2.43117
2.43854
2.44647
2.45418
2.46392
2.47009
2.48173
2.4863
2.49795
2.50286
2.51474
2.5194
2.53041
2.53948
2.54675
2.55769
2.56359
2.57581
2.5809
2.5942
2.59847
2.61377
2.61767
2.63351
2.63755
2.65231
2.65711
2.67177
2.67664
2.6895
2.69846
2.70852
2.71927
2.728
2.73995
2.74789
2.76063
2.76807
2.78393
2.78901
2.80652
2.81145
2.82826
2.83404
2.85093
2.85686
2.87207
2.88231
2.89466
2.90726
2.91815
2.93225
2.94233
2.96024
2.96761
2.98791
2.99445
3.0155
3.02232
3.04309
3.05085
3.07176
3.07982
3.10149
3.1095
3.12965
3.14191
3.15948
3.17356
3.19022
3.20806
3.2222
3.24312
3.25538
3.27739
3.28955
3.31262
3.32474
3.34933
3.36119
3.38693
3.39864
3.42333
3.43885
3.46126
3.47887
3.50039
3.52018
3.54079
3.56193
3.58228
3.60459
3.62487
3.64835
3.66857
3.693
3.71344
3.73886
3.75939
3.78427
3.80695
3.83096
3.8544
3.87858
3.90245
3.92697
3.95102
3.97601
4.0001
4.02556
4.04952
4.07554
4.0994
4.12595
4.14984
4.17658
4.19981
4.22681
4.25008
4.27646
4.30044
4.32601
4.35077
4.37538
4.40118
4.42467
4.45195
4.47428
4.50353
4.52458
4.55643
4.57658
4.61252
4.63078
4.67129
4.69327
4.73017
4.76065
4.79597
4.83559
4.87231
4.92218
4.96402
5.02556
5.07706
5.15151
5.21717
5.29672
5.36399
5.40232
5.41894
1.80771
1.75858
1.7541
1.73722
1.69606
1.66423
1.61428
1.57874
1.52765
1.50218
1.46549
1.44911
1.42682
1.41871
1.41026
1.40788
1.40743
1.40856
1.41037
1.41779
1.41985
1.4293
1.43174
1.44109
1.4439
1.45305
1.45557
1.46387
1.46566
1.47447
1.47616
1.48451
1.48588
1.49383
1.49509
1.50353
1.50592
1.50779
1.5144
1.51536
1.52249
1.52399
1.53108
1.53272
1.53959
1.54077
1.54797
1.54917
1.55663
1.55794
1.56629
1.56849
1.57773
1.58082
1.58471
1.59236
1.59443
1.60402
1.60686
1.6168
1.6199
1.62988
1.63253
1.64306
1.64582
1.65683
1.65982
1.6719
1.67585
1.68894
1.69388
1.70141
1.71288
1.71752
1.73088
1.73569
1.74969
1.75473
1.76924
1.77416
1.7888
1.79368
1.80895
1.81409
1.83051
1.83671
1.85429
1.86163
1.8737
1.88815
1.89672
1.91427
1.92168
1.94083
1.9483
1.96778
1.97533
1.99563
2.00338
2.02513
2.03367
2.05647
2.06612
2.08992
2.10013
2.12544
2.13632
2.15798
2.17694
2.19429
2.21821
2.23184
2.25923
2.27137
2.30095
2.31371
2.34558
2.35932
2.39247
2.40724
2.44152
2.45692
2.49392
2.51102
2.54295
2.56915
2.59714
2.62833
2.65533
2.68946
2.71614
2.75422
2.78102
2.82185
2.84959
2.89279
2.92205
2.96744
2.99895
3.0469
3.08205
3.12448
3.16922
3.21036
3.25773
3.30161
3.35062
3.39751
3.44813
3.49832
3.55069
3.60435
3.65705
3.71483
3.76872
3.83134
3.88878
3.95569
4.00761
4.08313
4.13922
4.2097
4.27683
4.34184
4.41865
4.47837
4.56269
4.61853
4.70694
4.76138
4.84976
4.9056
4.9866
5.04564
5.12971
5.18724
5.26969
5.30934
5.40371
5.43981
5.52984
5.56243
5.64787
5.67708
5.75941
5.78576
5.87474
5.90614
6.07313
6.21847
6.63397
6.89164
7.00086
2.55562
2.4738
2.53677
2.55374
2.553
2.53953
2.49235
2.44028
2.37565
2.32441
2.26278
2.22269
2.17176
2.14807
2.10511
2.09136
2.06134
2.0555
2.04531
2.03678
2.03872
2.03452
2.04079
2.03944
2.04913
2.04947
2.06217
2.0636
2.07847
2.07901
2.09491
2.0956
2.1117
2.11241
2.12818
2.12949
2.14478
2.15211
2.15204
2.16506
2.16521
2.17634
2.17654
2.18703
2.18699
2.19827
2.19708
2.20822
2.20705
2.21847
2.2182
2.22857
2.22862
2.24098
2.24698
2.24635
2.25787
2.25772
2.26873
2.26922
2.28057
2.2813
2.29396
2.29373
2.30716
2.30713
2.3216
2.32285
2.33641
2.33828
2.35369
2.36127
2.36479
2.3777
2.37988
2.39435
2.39698
2.41202
2.41494
2.43097
2.43297
2.44975
2.45199
2.46949
2.47287
2.48951
2.49349
2.51147
2.52029
2.52701
2.54146
2.54532
2.56173
2.56592
2.58309
2.58642
2.60424
2.60788
2.6264
2.63052
2.64942
2.65434
2.6725
2.67819
2.69694
2.70304
2.72351
2.73246
2.74431
2.75984
2.76627
2.78534
2.79124
2.81089
2.81712
2.83727
2.8443
2.86372
2.87094
2.89051
2.89791
2.91824
2.92623
2.94685
2.95659
2.97075
2.9849
2.99504
3.01213
3.0199
3.03786
3.0459
3.06336
3.07145
3.08803
3.09604
3.11179
3.11986
3.13515
3.14349
3.15751
3.16428
3.17521
3.18118
3.19016
3.19492
3.20234
3.204
3.20954
3.20846
3.21099
3.20726
3.20779
3.19697
3.19696
3.17999
3.17869
3.15217
3.13922
3.12347
3.09042
3.0813
3.03537
3.02298
2.96899
2.95359
2.89289
2.87531
2.80948
2.79004
2.71963
2.69895
2.62476
2.60342
2.52936
2.50897
2.42978
2.39302
2.35692
2.29405
2.27849
2.208
2.19374
2.126
2.11403
2.05443
2.04764
2.00726
2.0114
1.985
1.99014
1.85618
1.80649
2.975
2.96932
3.13253
3.19348
3.2314
3.24255
3.23497
3.20155
3.14644
3.08837
3.02378
2.97443
2.92621
2.89601
2.85569
2.84033
2.80858
2.7993
2.78249
2.77059
2.76833
2.75916
2.76006
2.75465
2.75635
2.75386
2.75654
2.75475
2.75942
2.75737
2.76339
2.76185
2.76926
2.7683
2.77647
2.77627
2.78468
2.78887
2.7888
2.79639
2.79607
2.80233
2.8021
2.80776
2.80733
2.81309
2.81174
2.81693
2.81547
2.82051
2.8196
2.82391
2.82323
2.82777
2.83018
2.82904
2.83338
2.83245
2.83623
2.8356
2.83954
2.83902
2.84365
2.84262
2.84729
2.84635
2.85127
2.85094
2.85558
2.85553
2.86052
2.86299
2.863
2.86705
2.86698
2.87123
2.87138
2.87586
2.8762
2.88093
2.88086
2.88564
2.88564
2.89063
2.89119
2.89574
2.89655
2.90065
2.90267
2.90303
2.90573
2.9059
2.90833
2.90843
2.91054
2.91032
2.91182
2.9115
2.91249
2.91215
2.91262
2.91198
2.91201
2.91116
2.91096
2.90976
2.90919
2.90767
2.90523
2.90381
2.90074
2.89888
2.89524
2.89277
2.88858
2.88556
2.88073
2.87732
2.87157
2.86752
2.86105
2.85561
2.8491
2.84082
2.83211
2.82398
2.81177
2.80422
2.78754
2.78086
2.75996
2.75305
2.7285
2.72044
2.69215
2.68281
2.65024
2.63925
2.60287
2.59061
2.54648
2.5249
2.49314
2.45482
2.43163
2.38089
2.3614
2.30338
2.28194
2.21984
2.19662
2.13064
2.10561
2.03602
2.00934
1.93759
1.91016
1.8331
1.79582
1.73664
1.68361
1.63803
1.57232
1.53923
1.46697
1.43914
1.36743
1.34115
1.27489
1.25068
1.19043
1.16882
1.11491
1.09602
1.04827
1.03196
0.989303
0.969961
0.941901
0.918711
0.900331
0.873688
0.862057
0.83483
0.82622
0.807258
0.804294
0.800168
0.814441
0.83152
0.861533
0.871174
0.878439
3.09293
3.2357
3.4024
3.5327
3.68529
3.77276
3.81338
3.82257
3.80019
3.73393
3.64744
3.57538
3.50804
3.46294
3.41813
3.39792
3.36622
3.35374
3.33311
3.32017
3.31378
3.30208
3.3001
3.29057
3.28886
3.27962
3.27742
3.26656
3.26408
3.25199
3.24967
3.23855
3.23685
3.22745
3.22643
3.21867
3.21744
3.21317
3.20818
3.2079
3.20184
3.20095
3.1951
3.194
3.18793
3.18685
3.17955
3.17814
3.1703
3.16855
3.16078
3.15835
3.15044
3.14766
3.14113
3.13475
3.13057
3.12209
3.11859
3.1096
3.10585
3.09669
3.0929
3.08327
3.07931
3.06947
3.0653
3.0556
3.05109
3.04125
3.03608
3.02718
3.01948
3.01153
3.00265
2.99513
2.98583
2.97841
2.96897
2.96162
2.95209
2.94469
2.93507
2.92749
2.91819
2.91018
2.90104
2.89221
2.88295
2.87288
2.86322
2.85267
2.84185
2.83122
2.81855
2.80835
2.79326
2.78374
2.76608
2.75733
2.73681
2.72823
2.70619
2.69715
2.67355
2.66398
2.63664
2.62351
2.60142
2.58121
2.56258
2.53507
2.52119
2.48744
2.47506
2.4374
2.42322
2.38445
2.36894
2.32781
2.31133
2.26785
2.25079
2.20208
2.17826
2.14157
2.10478
2.07604
2.02904
2.00621
1.95264
1.93136
1.8749
1.85286
1.79506
1.77251
1.71363
1.69054
1.63136
1.60805
1.54673
1.51712
1.46931
1.42942
1.39131
1.34358
1.31414
1.26049
1.23848
1.18361
1.16249
1.11017
1.09017
1.04086
1.02223
0.976629
0.959667
0.916674
0.896706
0.866521
0.842806
0.821809
0.795195
0.782671
0.756595
0.74737
0.724835
0.717357
0.698667
0.692675
0.677655
0.67313
0.661518
0.658389
0.64989
0.64806
0.642036
0.639763
0.639266
0.637579
0.638387
0.637577
0.638529
0.637628
0.638271
0.637025
0.638494
0.638946
0.648304
0.654069
0.666898
0.671631
0.675437
2.9721
3.16438
3.32464
3.51177
3.71937
3.90403
4.07519
4.17285
4.21116
4.218
4.18787
4.10949
4.00444
3.90998
3.82742
3.78136
3.73877
3.7157
3.69139
3.67614
3.66774
3.65575
3.65191
3.64187
3.63828
3.62746
3.62202
3.60719
3.59771
3.57746
3.56502
3.54194
3.52925
3.50614
3.49391
3.47175
3.45993
3.44138
3.42667
3.41195
3.39582
3.38344
3.36717
3.35575
3.33956
3.32883
3.31209
3.30117
3.28386
3.27248
3.25511
3.24276
3.22533
3.21183
3.19506
3.17981
3.16363
3.14758
3.13153
3.11502
3.09878
3.08198
3.06516
3.0483
3.03057
3.0138
2.99495
2.97846
2.95853
2.94223
2.92077
2.9025
2.88306
2.86212
2.84405
2.82086
2.8037
2.77852
2.76218
2.7344
2.72017
2.6896
2.67699
2.64463
2.63135
2.59928
2.58569
2.55188
2.5331
2.50727
2.48217
2.46014
2.43027
2.41071
2.37573
2.35996
2.32071
2.30552
2.26398
2.24813
2.20459
2.1872
2.14324
2.12483
2.07957
2.06053
2.01146
1.98795
1.948
1.91571
1.88155
1.8415
1.81395
1.76658
1.74449
1.6925
1.67132
1.61935
1.59764
1.54593
1.52434
1.47309
1.45178
1.39904
1.37388
1.33266
1.29959
1.26724
1.2278
1.2031
1.15906
1.1408
1.0959
1.07847
1.0358
1.01938
0.979027
0.96354
0.925854
0.911458
0.875244
0.858248
0.832087
0.811419
0.792007
0.76855
0.755113
0.730415
0.72069
0.697024
0.688252
0.666976
0.659134
0.640184
0.633263
0.616483
0.610401
0.595198
0.588256
0.578089
0.570266
0.56319
0.554768
0.550564
0.542505
0.539613
0.532838
0.530638
0.52558
0.524103
0.520698
0.519935
0.518148
0.518104
0.51765
0.518588
0.51901
0.521187
0.523325
0.526214
0.530005
0.533655
0.538926
0.543302
0.550057
0.555397
0.563632
0.569772
0.579317
0.585837
0.593278
0.596258
0.598185
2.73334
2.87533
2.99251
3.15196
3.35316
3.5808
3.83822
4.07771
4.28265
4.38654
4.42627
4.43221
4.40609
4.32804
4.2209
4.11605
4.01627
3.94275
3.88851
3.85279
3.83354
3.81592
3.80805
3.79779
3.79264
3.78342
3.7762
3.76295
3.74937
3.72836
3.70711
3.67853
3.65204
3.61969
3.59062
3.55668
3.52713
3.49501
3.46506
3.43472
3.40484
3.37709
3.34883
3.32262
3.29516
3.27008
3.24443
3.21911
3.19437
3.16817
3.14398
3.11704
3.09272
3.06407
3.03722
3.01176
2.98104
2.95712
2.9248
2.90131
2.86755
2.84428
2.80848
2.78642
2.74836
2.72702
2.68707
2.66553
2.62517
2.60287
2.56127
2.53361
2.49924
2.46554
2.43482
2.39685
2.36855
2.32755
2.30092
2.25679
2.23318
2.18605
2.16507
2.11622
2.09543
2.04738
2.02646
1.97762
1.95202
1.91274
1.88039
1.84669
1.80936
1.77962
1.73727
1.71297
1.66526
1.6454
1.59521
1.57537
1.52484
1.50417
1.45505
1.43416
1.38573
1.36514
1.31556
1.2921
1.25221
1.22299
1.19001
1.15548
1.1305
1.09109
1.07322
1.03211
1.01564
0.977204
0.961433
0.925552
0.910874
0.877494
0.863926
0.831669
0.8169
0.792646
0.775123
0.756779
0.736864
0.723891
0.702417
0.693697
0.672616
0.664731
0.645689
0.638642
0.621477
0.615148
0.599799
0.594161
0.579993
0.573445
0.563747
0.555959
0.549093
0.540495
0.536052
0.527279
0.523992
0.515931
0.513056
0.506005
0.503516
0.49741
0.495289
0.490089
0.488349
0.483916
0.481927
0.479437
0.477128
0.476019
0.473903
0.473381
0.471945
0.471759
0.471161
0.471371
0.471368
0.472651
0.473023
0.475277
0.476142
0.479281
0.480613
0.484556
0.486317
0.490715
0.493434
0.497972
0.501555
0.506357
0.510868
0.516161
0.521688
0.527458
0.534018
0.540367
0.547687
0.553733
0.559213
0.56172
0.563101
2.49833
2.54734
2.59526
2.68031
2.81773
2.99572
3.24367
3.51353
3.79049
4.01953
4.21643
4.36187
4.4649
4.49693
4.50032
4.45438
4.34719
4.2125
4.08751
3.97938
3.9026
3.84631
3.81409
3.79016
3.77554
3.76268
3.75224
3.73974
3.72473
3.70656
3.68279
3.65458
3.62149
3.58525
3.54481
3.50287
3.45886
3.41474
3.37118
3.32428
3.27962
3.23159
3.1878
3.1412
3.0995
3.05398
3.01617
2.97179
2.93675
2.89287
2.85931
2.81636
2.78302
2.73939
2.70257
2.66475
2.62257
2.58733
2.54306
2.50889
2.46324
2.42986
2.38236
2.35079
2.301
2.27065
2.219
2.18897
2.13723
2.10676
2.05398
2.01828
1.97381
1.932
1.89228
1.84631
1.81023
1.76152
1.72857
1.67731
1.649
1.59535
1.57121
1.51714
1.49391
1.44236
1.41982
1.36925
1.34382
1.30351
1.27361
1.24019
1.20709
1.17914
1.14285
1.1214
1.08214
1.06586
1.02628
1.01076
0.972945
0.95766
0.922752
0.908108
0.875416
0.861725
0.829994
0.815267
0.790681
0.773918
0.754158
0.73532
0.721069
0.700158
0.69077
0.669631
0.661301
0.642382
0.634724
0.617733
0.610862
0.59558
0.589428
0.575086
0.568565
0.558008
0.550806
0.542552
0.534631
0.528727
0.520136
0.516246
0.507668
0.504378
0.496546
0.493605
0.486544
0.483893
0.477533
0.47515
0.46924
0.466489
0.462417
0.459151
0.45616
0.452581
0.45055
0.446833
0.445401
0.441927
0.440685
0.437655
0.436598
0.434029
0.433168
0.431115
0.430484
0.428872
0.428177
0.427621
0.426994
0.426961
0.426758
0.427291
0.427584
0.428981
0.429538
0.431805
0.432791
0.435964
0.437512
0.441627
0.443825
0.448903
0.451766
0.457806
0.461295
0.46798
0.472288
0.479142
0.484134
0.490995
0.496637
0.503393
0.509462
0.51613
0.52244
0.528912
0.535028
0.540523
0.544782
0.547051
0.548151
2.18892
2.1408
2.10173
2.0961
2.13138
2.24564
2.46833
2.76512
3.10076
3.38535
3.59827
3.72999
3.88038
4.06729
4.30544
4.43581
4.4734
4.46529
4.3877
4.24336
4.08164
3.93537
3.8213
3.73318
3.67104
3.6303
3.60213
3.57972
3.55757
3.53948
3.51299
3.48674
3.45021
3.41461
3.36585
3.31934
3.26345
3.21021
3.15565
3.09604
3.04062
2.9784
2.92217
2.85934
2.80368
2.74125
2.68927
2.62874
2.58035
2.5218
2.47654
2.42087
2.37744
2.32262
2.27678
2.22965
2.17887
2.13522
2.0825
2.04051
1.98676
1.94655
1.8918
1.85478
1.79876
1.7641
1.70706
1.67369
1.61766
1.5851
1.52936
1.49318
1.44653
1.40557
1.36507
1.32139
1.28603
1.24101
1.21017
1.16433
1.13926
1.09325
1.07313
1.02893
1.01001
0.97019
0.952787
0.915776
0.897478
0.868691
0.849031
0.825739
0.805287
0.786597
0.765038
0.75141
0.728684
0.719134
0.696719
0.687923
0.667229
0.658863
0.64029
0.632494
0.615557
0.608429
0.592395
0.584961
0.572522
0.564513
0.554378
0.545744
0.538158
0.528817
0.523467
0.513805
0.509738
0.500797
0.497079
0.489062
0.485726
0.478504
0.475505
0.468749
0.46564
0.460573
0.457115
0.453045
0.449317
0.446296
0.442295
0.440161
0.436128
0.434497
0.430726
0.429279
0.425903
0.424622
0.421626
0.420506
0.417796
0.416536
0.414725
0.413239
0.412031
0.410475
0.409762
0.408307
0.407825
0.406659
0.406325
0.405505
0.405325
0.404864
0.40485
0.404738
0.404956
0.405146
0.405555
0.406305
0.406722
0.408018
0.408618
0.410404
0.411209
0.413562
0.414665
0.417745
0.419297
0.423136
0.425237
0.429934
0.432733
0.43833
0.441955
0.448365
0.45287
0.459814
0.465173
0.472357
0.478302
0.485518
0.491744
0.499077
0.505516
0.512732
0.519091
0.5258
0.531523
0.536843
0.540565
0.542711
0.543645
1.90883
1.81884
1.56244
1.47838
1.45945
1.47018
1.5774
1.83308
2.23223
2.67174
2.96693
3.08543
3.1608
3.257
3.44504
3.6878
3.97738
4.22122
4.32457
4.34577
4.31304
4.20046
4.03183
3.85712
3.70146
3.56762
3.45536
3.36932
3.30808
3.26214
3.2212
3.18358
3.14572
3.1098
3.06247
3.01468
2.95871
2.90502
2.84994
2.78595
2.72855
2.66122
2.60157
2.53092
2.46867
2.3968
2.33644
2.26529
2.20729
2.13785
2.08326
2.01819
1.96691
1.90458
1.85308
1.80021
1.74651
1.69924
1.64541
1.60117
1.54738
1.50569
1.45212
1.41448
1.36158
1.32768
1.27576
1.24448
1.19493
1.16583
1.11838
1.08849
1.04934
1.01752
0.984169
0.951676
0.923502
0.891239
0.8676
0.835865
0.817262
0.78644
0.772284
0.743884
0.731418
0.706843
0.695913
0.67407
0.66335
0.64645
0.635699
0.621886
0.611366
0.59992
0.589308
0.580393
0.569488
0.562688
0.551496
0.546406
0.535444
0.530722
0.520652
0.516207
0.5069
0.502772
0.493905
0.489692
0.482519
0.478108
0.471941
0.467397
0.462348
0.457611
0.453541
0.448663
0.445432
0.440609
0.438086
0.433405
0.431314
0.42696
0.425063
0.420989
0.419074
0.415829
0.413808
0.411109
0.408978
0.406849
0.404617
0.402979
0.40067
0.399478
0.397223
0.396293
0.394251
0.393442
0.391664
0.39097
0.389394
0.388654
0.387647
0.38682
0.386223
0.385403
0.38511
0.384457
0.384286
0.383931
0.383902
0.383812
0.383956
0.384136
0.384603
0.384998
0.385791
0.386428
0.387495
0.388716
0.390025
0.391865
0.393483
0.395872
0.397977
0.400957
0.403632
0.407167
0.410373
0.414439
0.418224
0.42291
0.427357
0.432764
0.437944
0.444119
0.450046
0.456943
0.463436
0.470921
0.477896
0.485807
0.493084
0.501058
0.508275
0.515892
0.522558
0.529239
0.534726
0.53971
0.543081
0.545136
0.54596
1.4776
1.52367
1.25792
1.09298
1.03662
1.02806
1.06891
1.23072
1.552
1.99112
2.38755
2.53365
2.59367
2.62184
2.67952
2.78819
2.99147
3.24289
3.54213
3.84459
4.05246
4.12381
4.12678
4.07911
3.95115
3.77793
3.59383
3.41776
3.25947
3.11056
2.98609
2.88492
2.8126
2.75261
2.69718
2.63934
2.58293
2.52974
2.48143
2.41911
2.36511
2.30146
2.24916
2.18416
2.12705
2.05897
2.00245
1.93382
1.87773
1.80893
1.75442
1.68958
1.63849
1.57702
1.52657
1.47376
1.42398
1.37845
1.33102
1.29006
1.2444
1.20661
1.16252
1.12834
1.08612
1.0556
1.01574
0.988097
0.951118
0.925867
0.891698
0.867779
0.839247
0.815979
0.791389
0.769228
0.748015
0.72718
0.709012
0.689474
0.674241
0.656194
0.643593
0.627058
0.616684
0.601994
0.593414
0.580219
0.57265
0.561511
0.554329
0.544443
0.537606
0.528712
0.522211
0.51431
0.508072
0.501067
0.495128
0.488777
0.483068
0.477283
0.471845
0.466538
0.461322
0.45649
0.451388
0.446891
0.442472
0.438128
0.434167
0.430089
0.426592
0.422767
0.419658
0.416065
0.413328
0.410038
0.407626
0.404608
0.402477
0.399709
0.397825
0.395248
0.393499
0.391417
0.389666
0.387953
0.386245
0.384885
0.383227
0.382182
0.380575
0.379841
0.378423
0.377823
0.376652
0.376175
0.375254
0.374896
0.374215
0.373899
0.373599
0.373345
0.373295
0.37322
0.373301
0.373443
0.373793
0.374107
0.374723
0.375242
0.376115
0.37687
0.378006
0.379022
0.380443
0.381768
0.383447
0.385113
0.387018
0.38903
0.391222
0.393641
0.396285
0.399261
0.402469
0.406203
0.41004
0.414612
0.419154
0.424554
0.429863
0.4361
0.442218
0.449258
0.456212
0.463991
0.47154
0.479915
0.487948
0.496711
0.50501
0.513847
0.522024
0.530408
0.537817
0.544996
0.550811
0.555952
0.55932
0.561404
0.562184
0.929809
1.028
0.919607
0.818479
0.781504
0.776874
0.814549
0.954016
1.23986
1.6593
2.10154
2.26073
2.29494
2.29183
2.26546
2.24601
2.26044
2.3372
2.50606
2.75818
3.04994
3.37536
3.64866
3.8216
3.86449
3.86524
3.81433
3.69594
3.5243
3.32757
3.1308
2.93811
2.76713
2.59888
2.45463
2.32765
2.23475
2.16057
2.10796
2.04827
1.99563
1.93956
1.89774
1.84846
1.80326
1.74856
1.70705
1.65598
1.61544
1.56272
1.52174
1.47145
1.43278
1.38537
1.34646
1.30319
1.26467
1.22729
1.1922
1.15936
1.12642
1.09592
1.06443
1.03614
1.00608
0.979913
0.951873
0.927433
0.901221
0.878074
0.853762
0.832397
0.810844
0.791446
0.772028
0.755017
0.737689
0.723185
0.707792
0.695145
0.681057
0.669937
0.657032
0.647276
0.635499
0.626779
0.615798
0.607635
0.597503
0.588162
0.578625
0.568219
0.559064
0.547711
0.53917
0.527646
0.520189
0.508922
0.502531
0.491875
0.486392
0.476593
0.471797
0.462891
0.458612
0.450632
0.446822
0.439799
0.43625
0.430014
0.426822
0.421265
0.418389
0.41357
0.410801
0.406701
0.403995
0.400563
0.39798
0.395125
0.392676
0.390305
0.387963
0.385997
0.383795
0.382193
0.380128
0.378809
0.376912
0.375813
0.374115
0.373214
0.371743
0.371014
0.36979
0.369198
0.368225
0.367763
0.367026
0.366677
0.366164
0.365918
0.365696
0.365581
0.365556
0.365608
0.365815
0.366094
0.366509
0.367047
0.367678
0.368487
0.36936
0.370442
0.371577
0.372961
0.374368
0.376106
0.377833
0.380004
0.382119
0.384795
0.387406
0.390588
0.393746
0.397376
0.401139
0.405263
0.409727
0.414515
0.419779
0.425371
0.431551
0.438011
0.445167
0.452482
0.460639
0.468787
0.477586
0.486451
0.495738
0.505082
0.514579
0.524046
0.533295
0.542285
0.550529
0.55814
0.564402
0.569686
0.573176
0.575271
0.576023
0.526723
0.60531
0.603741
0.597266
0.597689
0.614507
0.678047
0.827495
1.10513
1.51572
1.98284
2.16499
2.19862
2.18377
2.11201
1.98046
1.85169
1.80791
1.8105
1.87818
2.02015
2.25205
2.52229
2.84276
3.12664
3.39383
3.53599
3.58174
3.5815
3.55164
3.46432
3.31632
3.12382
2.90698
2.69455
2.48324
2.30057
2.1292
1.97882
1.84705
1.74198
1.66711
1.61814
1.58241
1.54817
1.50964
1.47953
1.45219
1.43094
1.40394
1.38172
1.35637
1.33676
1.31372
1.29377
1.26958
1.24773
1.22475
1.20537
1.18496
1.1668
1.14719
1.12977
1.10968
1.09272
1.07206
1.05653
1.03587
1.02071
0.999511
0.98481
0.966425
0.949069
0.934735
0.916331
0.90551
0.889064
0.882569
0.869429
0.865348
0.854812
0.852762
0.844687
0.844086
0.837544
0.83691
0.829843
0.828637
0.822175
0.812702
0.805487
0.788574
0.778884
0.754089
0.74237
0.712212
0.700088
0.668617
0.656216
0.626341
0.614598
0.587911
0.576886
0.553987
0.544455
0.524933
0.517032
0.501242
0.49283
0.480681
0.472937
0.463402
0.455611
0.448872
0.440728
0.436209
0.428333
0.424957
0.417911
0.414997
0.408932
0.406423
0.401203
0.399094
0.394815
0.392553
0.389172
0.387149
0.384448
0.382472
0.380478
0.378555
0.377195
0.37541
0.374534
0.373026
0.372396
0.371232
0.370785
0.369951
0.36966
0.369227
0.368975
0.368917
0.368841
0.369022
0.369136
0.369715
0.369962
0.37091
0.371338
0.372645
0.37326
0.374932
0.37576
0.377806
0.378873
0.381333
0.382814
0.38546
0.387519
0.390463
0.393164
0.396474
0.399899
0.403688
0.407867
0.412239
0.417197
0.422288
0.428128
0.434082
0.440954
0.447884
0.45589
0.463824
0.473019
0.481973
0.49193
0.501785
0.512331
0.522789
0.533609
0.544251
0.554848
0.56499
0.574485
0.583036
0.590189
0.596002
0.599806
0.602077
0.602845
0.364786
0.424061
0.449007
0.47985
0.507081
0.549306
0.629688
0.789652
1.07464
1.49426
1.95988
2.14737
2.18003
2.156
2.0526
1.88279
1.68491
1.47813
1.34615
1.3175
1.32333
1.39214
1.51958
1.72564
1.96786
2.26063
2.54577
2.82879
3.04526
3.2252
3.28869
3.30498
3.29733
3.26436
3.18478
3.04755
2.85823
2.63818
2.40946
2.20653
2.01757
1.87131
1.74468
1.6546
1.57408
1.514
1.46031
1.43169
1.40956
1.39844
1.38339
1.37668
1.36625
1.36173
1.35414
1.34709
1.34043
1.3333
1.33148
1.32817
1.32812
1.32477
1.32498
1.31952
1.31922
1.31178
1.31088
1.3022
1.29999
1.28995
1.28714
1.279
1.27146
1.26771
1.25912
1.25768
1.25304
1.25496
1.25427
1.26181
1.26236
1.2758
1.27891
1.29819
1.30432
1.32482
1.33154
1.35076
1.35987
1.36259
1.36596
1.36098
1.35807
1.33622
1.32323
1.28395
1.26518
1.21134
1.18857
1.1286
1.104
1.04285
1.01666
0.959304
0.934864
0.882814
0.861543
0.817715
0.79338
0.760979
0.735197
0.712046
0.68292
0.669111
0.639616
0.628885
0.60241
0.592195
0.568789
0.559662
0.538615
0.530447
0.511609
0.504619
0.48886
0.480033
0.468221
0.459168
0.450747
0.440818
0.435787
0.426066
0.422685
0.414465
0.411502
0.405029
0.402689
0.39759
0.395879
0.391799
0.39056
0.387815
0.386267
0.384809
0.38351
0.382933
0.381991
0.381836
0.381446
0.38155
0.381528
0.382224
0.382417
0.383642
0.384114
0.385844
0.386599
0.388854
0.390118
0.392581
0.394531
0.397264
0.399932
0.402979
0.406458
0.409946
0.414287
0.418385
0.423645
0.42852
0.434808
0.440591
0.448066
0.454901
0.463707
0.471674
0.481931
0.491132
0.502376
0.512725
0.524771
0.535923
0.548392
0.559895
0.572216
0.583395
0.594532
0.604217
0.612519
0.619349
0.623374
0.626051
0.626863
0.330723
0.363231
0.403392
0.424857
0.466067
0.534061
0.663896
0.909144
1.28922
1.78936
2.1373
2.23014
2.23119
2.15419
1.9912
1.77195
1.52747
1.28862
1.06858
0.885676
0.806617
0.797141
0.812692
0.883039
0.998258
1.17576
1.38251
1.63763
1.88956
2.17941
2.42236
2.66591
2.82196
2.96873
3.04439
3.07727
3.08033
3.06745
3.02494
2.94208
2.81904
2.65803
2.47995
2.30657
2.14399
2.01742
1.90173
1.83469
1.76357
1.73326
1.68766
1.67064
1.64733
1.64075
1.63304
1.62669
1.62741
1.6249
1.62928
1.6311
1.64335
1.64659
1.65955
1.66193
1.67459
1.67644
1.68804
1.68967
1.6987
1.69967
1.70856
1.71291
1.71616
1.72595
1.72862
1.74231
1.74645
1.76415
1.77053
1.79447
1.80306
1.83454
1.84691
1.88531
1.9027
1.94431
1.96464
2.0072
2.03315
2.06143
2.08789
2.10074
2.11201
2.11118
2.11285
2.09865
2.09043
2.05549
2.03561
1.9853
1.958
1.89743
1.86262
1.79738
1.76061
1.69421
1.66043
1.60094
1.55708
1.5133
1.4647
1.43323
1.3785
1.35693
1.30117
1.28104
1.22853
1.20787
1.15754
1.13747
1.08756
1.06766
1.01808
0.999127
0.953586
0.923825
0.888107
0.850534
0.824088
0.779198
0.761419
0.715875
0.699303
0.658411
0.642393
0.606818
0.592835
0.56229
0.55092
0.524596
0.515459
0.495649
0.48489
0.471581
0.461943
0.453327
0.444312
0.439959
0.432106
0.429614
0.423821
0.422249
0.418406
0.417553
0.415376
0.415146
0.414375
0.414702
0.415239
0.415932
0.417734
0.418716
0.421691
0.422949
0.427027
0.428821
0.43395
0.436336
0.442579
0.445773
0.453159
0.457372
0.466047
0.471473
0.481621
0.488432
0.500259
0.508765
0.52171
0.531997
0.545887
0.557624
0.571991
0.584716
0.598841
0.611919
0.624618
0.636769
0.646009
0.655169
0.659494
0.662935
0.663905
0.368923
0.365477
0.423147
0.473059
0.572056
0.740776
0.99936
1.3676
1.80545
2.18782
2.30607
2.31493
2.24963
2.09844
1.86495
1.58741
1.29833
1.02523
0.786333
0.591672
0.417403
0.320548
0.291754
0.293229
0.311091
0.363737
0.442006
0.563691
0.705118
0.896146
1.08826
1.33088
1.55838
1.83724
2.06827
2.32211
2.49544
2.64511
2.7596
2.82951
2.88396
2.89813
2.90092
2.88647
2.85746
2.805
2.74202
2.66797
2.58882
2.51744
2.44606
2.39398
2.34082
2.31233
2.28436
2.25887
2.24715
2.22273
2.21528
2.20222
2.20161
2.19857
2.20444
2.20308
2.21295
2.21256
2.22417
2.2249
2.2355
2.23662
2.24847
2.25455
2.25963
2.27319
2.27895
2.29973
2.30833
2.3343
2.34471
2.37593
2.38764
2.42564
2.44075
2.48506
2.50519
2.55284
2.57739
2.62662
2.65862
2.69644
2.73238
2.7593
2.78966
2.80125
2.81327
2.81165
2.81364
2.80231
2.79673
2.76886
2.75284
2.71298
2.68858
2.64274
2.61394
2.56487
2.53692
2.49252
2.45564
2.42373
2.38601
2.36556
2.32724
2.31403
2.27522
2.26311
2.22654
2.21367
2.17789
2.16493
2.12662
2.1122
2.06942
2.05376
2.01218
1.97658
1.94192
1.89118
1.8595
1.79297
1.76412
1.68589
1.65525
1.57135
1.53572
1.44883
1.41158
1.32393
1.28797
1.19922
1.16438
1.08555
1.03796
0.977193
0.921978
0.877564
0.818838
0.789331
0.733763
0.711805
0.664536
0.646877
0.608806
0.59503
0.565335
0.554969
0.532618
0.525198
0.510803
0.502617
0.494825
0.4887
0.485293
0.480817
0.479994
0.477899
0.478229
0.478033
0.480716
0.481631
0.486561
0.488701
0.495698
0.49889
0.507934
0.512472
0.523662
0.53054
0.542742
0.552577
0.565824
0.578367
0.592283
0.607111
0.621015
0.637357
0.650287
0.666458
0.676341
0.688454
0.693972
0.698147
0.699351
0.773467
0.678843
0.813618
0.966159
1.19313
1.49111
1.82559
2.1583
2.35503
2.4116
2.40214
2.32974
2.16293
1.91169
1.60319
1.27656
0.966032
0.683766
0.450468
0.272094
0.133501
0.0731482
0.0505421
0.0466988
0.04695
0.0542225
0.0676995
0.0936494
0.127517
0.181682
0.242693
0.332862
0.426799
0.561509
0.693718
0.875416
1.05019
1.26713
1.49551
1.70567
1.94062
2.11147
2.30097
2.40921
2.53951
2.59494
2.66689
2.69385
2.73911
2.75648
2.78621
2.798
2.82287
2.83522
2.86158
2.87105
2.88146
2.88064
2.88081
2.87464
2.87458
2.87251
2.87737
2.87638
2.88378
2.88289
2.89053
2.88982
2.89526
2.89432
2.90024
2.90446
2.90512
2.91545
2.9183
2.93485
2.94236
2.96549
2.9762
3.00522
3.01569
3.04984
3.06243
3.10077
3.11626
3.15566
3.17379
3.2138
3.23825
3.26781
3.29715
3.31971
3.34677
3.35986
3.37368
3.37416
3.37655
3.36941
3.36641
3.3486
3.3379
3.31067
3.29196
3.25931
3.23603
3.20022
3.17644
3.14352
3.11381
3.08915
3.06091
3.04638
3.0249
3.01885
3.00227
2.99938
2.9876
2.98615
2.97938
2.98027
2.9763
2.9786
2.97605
2.97958
2.97974
2.97448
2.97556
2.96575
2.96588
2.94764
2.94528
2.91815
2.9119
2.87566
2.8626
2.81667
2.79554
2.73835
2.70923
2.63626
2.60088
2.52675
2.45975
2.39134
2.30195
2.23527
2.12627
2.06177
1.93946
1.87831
1.74809
1.69196
1.56262
1.50882
1.38572
1.33454
1.21982
1.1727
1.07729
1.02225
0.953412
0.895765
0.849713
0.794264
0.767626
0.720197
0.70263
0.666913
0.654989
0.630677
0.623375
0.608591
0.604992
0.597878
0.597126
0.594439
0.595365
0.597312
0.600194
0.606836
0.611946
0.623292
0.630439
0.64596
0.655686
0.674161
0.686268
0.705831
0.718013
0.733727
0.741194
0.746488
0.74804
1.97407
1.78808
1.96295
2.09773
2.25176
2.37967
2.47806
2.51783
2.51698
2.46857
2.33637
2.11668
1.82076
1.48274
1.13969
0.803075
0.518242
0.283867
0.143533
0.0735087
0.0402551
0.024665
0.0170031
0.0139327
0.0129471
0.0129346
0.0134136
0.0152524
0.0183562
0.0245506
0.0325174
0.0460568
0.0615402
0.0867028
0.113546
0.156316
0.201875
0.264949
0.345522
0.430487
0.546569
0.655934
0.807737
0.94544
1.13427
1.27961
1.48246
1.61208
1.81017
1.91696
2.09525
2.18417
2.338
2.41687
2.54823
2.64247
2.74604
2.83761
2.91437
2.99363
3.05493
3.1278
3.17858
3.24034
3.27838
3.32645
3.35575
3.39317
3.41565
3.44239
3.45896
3.48007
3.49054
3.51133
3.5211
3.54249
3.55334
3.57719
3.59051
3.6182
3.63034
3.65908
3.66966
3.69746
3.70768
3.73206
3.74102
3.76155
3.77157
3.78175
3.79309
3.79834
3.80503
3.80435
3.80454
3.79646
3.79041
3.77417
3.76211
3.73941
3.72223
3.6946
3.67236
3.64185
3.61685
3.58487
3.55937
3.52944
3.50147
3.47699
3.45135
3.43393
3.41409
3.40599
3.3971
3.39627
3.39486
3.39741
3.39929
3.40806
3.41538
3.43032
3.44169
3.46139
3.47719
3.49457
3.51477
3.53097
3.55339
3.56636
3.58954
3.5991
3.62093
3.62883
3.64694
3.65291
3.66681
3.66999
3.67992
3.67906
3.68561
3.68639
3.6808
3.68087
3.66597
3.66388
3.63691
3.63042
3.58976
3.57592
3.51812
3.49267
3.41528
3.37215
3.27366
3.21558
3.09532
3.02267
2.90001
2.77766
2.66423
2.50978
2.39774
2.22648
2.12081
1.94184
1.85247
1.67056
1.59044
1.41955
1.34664
1.2013
1.14068
1.02874
0.983405
0.907751
0.878151
0.827283
0.799505
0.771798
0.748633
0.738356
0.723873
0.7203
0.717569
0.722954
0.729943
0.744582
0.75858
0.776382
0.788798
0.7954
0.797583
2.42837
2.45841
2.53353
2.56097
2.56886
2.55312
2.49905
2.40642
2.25073
2.05197
1.78736
1.47806
1.14085
0.801945
0.527225
0.291878
0.17173
0.0953282
0.0625002
0.0426076
0.0329144
0.0245753
0.0192365
0.0165638
0.0138965
0.0125536
0.0108637
0.0100205
0.00931197
0.00921398
0.00931852
0.00991705
0.0108875
0.0128749
0.0152637
0.0195904
0.0246391
0.0319718
0.0429424
0.0544779
0.0733046
0.0917351
0.121361
0.149517
0.194559
0.233675