/*--------------------------------*- C++ -*----------------------------------*\
| =========                 |                                                 |
| \\      /  F ield         | OpenFOAM: The Open Source CFD Toolbox           |
|  \\    /   O peration     | Version:  4.1                                   |
|   \\  /    A nd           | Web:      www.OpenFOAM.org                      |
|    \\/     M anipulation  |                                                 |
\*---------------------------------------------------------------------------*/
FoamFile
{
    version     2.0;
    format      ascii;
    class       volScalarField;
    location    "10.5";
    object      p;
}
// * * * * * * * * * * * * * * * * * * * * * * * * * * * * * * * * * * * * * //

dimensions      [0 2 -2 0 0 0 0];

internalField   nonuniform List<scalar> 
204246
(
2.50992
-17.9173
-18.0643
-16.8338
-15.7738
-14.5216
-13.3193
-12.1715
-11.1741
-10.2483
-9.60163
-9.08172
-8.77853
-8.33703
-8.17161
-8.4232
-9.16277
-9.69313
-9.75435
-10.3043
-10.3785
-11.1894
-11.6348
-12.1555
-12.6936
-13.2772
-13.8367
-14.4429
-14.7134
-15.53
-15.8475
-16.2182
-16.5205
-16.9243
-17.337
-18.3862
-18.9762
-18.8793
-19.5308
-19.684
-19.9286
-20.1585
-20.4507
-20.7003
-20.9876
-21.1677
-21.3979
-21.5275
-21.7064
-21.7795
-21.8641
-21.8976
-22.9115
-23.3733
-23.0672
-23.6141
-23.6368
-23.7559
-23.8725
-24.0623
-24.2223
-24.4182
-24.5293
-24.7044
-24.8026
-24.9521
-24.9899
-25.026
-25.0039
-25.9869
-26.5328
-26.3412
-26.7241
-26.7312
-26.836
-26.9017
-26.988
-26.9748
-27.6214
-27.5801
-27.6717
-27.7095
-27.8068
-27.7828
-27.7538
-27.6498
-28.6345
-29.1316
-28.8379
-29.1643
-29.0589
-29.0136
-28.9012
-29.529
-29.5008
-29.6015
-29.6009
-29.5809
-29.3207
-29.9848
-29.9384
-29.9388
-29.8823
-29.8777
-29.8479
-30.9522
-31.3689
-31.1982
-31.4263
-31.207
-31.8609
-31.8473
-32.0035
-32.0933
-32.1802
-32.057
-32.6352
-32.3355
-32.9366
-32.8311
-32.7944
-32.6748
-33.8568
-34.3602
-34.1602
-34.5602
-34.2335
-34.9225
-34.9962
-35.0735
-34.9354
-35.6
-35.3603
-36.0127
-35.7369
-36.3698
-35.9903
-36.477
-36.1923
-37.4606
-38.0586
-37.9499
-38.4477
-38.1477
-38.8068
-38.5481
-39.2707
-38.9736
-39.6645
-39.3772
-40.1107
-40.1764
-40.2841
-40.1912
-40.0583
-39.7193
-40.9439
-41.2341
-40.6231
-40.7635
-40.1327
-39.5844
-38.8424
-38.0511
-36.9535
-35.6974
-34.0338
-32.1307
-29.7648
-27.1367
-24.09
-20.8507
-16.233
-11.5898
-6.19562
-0.317111
6.50843
14.4322
23.0313
32.8379
43.8307
56.4775
70.8359
87.3808
106.079
127.196
150.61
176.892
206.987
246.479
306.472
402.111
530.738
-8.17977
-12.6111
-16.0587
-16.9941
-16.6689
-15.6809
-14.4436
-13.1171
-11.9044
-10.8217
-9.96618
-9.34542
-8.79771
-8.33906
-8.18825
-8.30715
-8.57814
-8.93312
-9.27405
-9.66483
-10.0277
-10.5292
-11.0712
-11.6206
-12.1971
-12.7811
-13.36
-13.9023
-14.4289
-14.9744
-15.4591
-15.8681
-16.2869
-16.723
-17.2185
-17.7678
-18.2588
-18.669
-19.0581
-19.3854
-19.675
-19.9515
-20.221
-20.4948
-20.7631
-21.0111
-21.2291
-21.4115
-21.5637
-21.6866
-21.8398
-22.0627
-22.4131
-22.7492
-22.9915
-23.2228
-23.4126
-23.5806
-23.7407
-23.9083
-24.082
-24.2614
-24.4323
-24.589
-24.7171
-24.8188
-24.9031
-25.0222
-25.2289
-25.559
-25.8994
-26.1573
-26.3775
-26.543
-26.6744
-26.7882
-26.9135
-27.0759
-27.2835
-27.4598
-27.5948
-27.6925
-27.7483
-27.7686
-27.8102
-27.9504
-28.2481
-28.5472
-28.7308
-28.857
-28.9226
-28.9734
-29.0648
-29.2206
-29.3604
-29.4556
-29.5109
-29.5417
-29.5958
-29.7412
-29.84
-29.871
-29.8851
-29.9403
-30.115
-30.4545
-30.7745
-30.9789
-31.151
-31.3145
-31.5155
-31.6973
-31.848
-31.9792
-32.0847
-32.206
-32.3819
-32.5243
-32.6814
-32.7548
-32.8231
-33.0098
-33.3831
-33.7559
-34.0093
-34.2206
-34.3976
-34.6192
-34.8195
-34.9563
-35.1117
-35.31
-35.5106
-35.7384
-35.9525
-36.1377
-36.2546
-36.3715
-36.6007
-37.0318
-37.4861
-37.8356
-38.1376
-38.3828
-38.6045
-38.8604
-39.0879
-39.3499
-39.5585
-39.844
-40.1059
-40.4374
-40.5952
-40.7813
-40.7121
-40.9133
-41.1202
-41.3303
-41.4098
-41.3777
-41.2978
-40.8879
-40.5698
-39.9238
-39.2376
-38.2414
-37.0222
-35.4846
-33.6614
-31.5383
-29.0293
-26.1389
-22.6393
-18.6789
-14.082
-8.9598
-2.97164
3.86602
11.4465
19.9779
29.4147
40.0919
52.073
65.8112
81.3554
98.9761
118.288
139.059
160.913
185.942
221.848
287.29
384.053
-19.5637
-17.8825
-17.7663
-17.7602
-17.247
-16.3148
-15.079
-13.7346
-12.4173
-11.2343
-10.2638
-9.51746
-8.87629
-8.42341
-8.26221
-8.26105
-8.38027
-8.66064
-9.03958
-9.41801
-9.84674
-10.3301
-10.8301
-11.3961
-11.9769
-12.5609
-13.1401
-13.6998
-14.2649
-14.8064
-15.3029
-15.7637
-16.221
-16.6929
-17.181
-17.6459
-18.0736
-18.496
-18.881
-19.2295
-19.5424
-19.8441
-20.1158
-20.3944
-20.6539
-20.915
-21.1402
-21.3512
-21.5226
-21.697
-21.8864
-22.1204
-22.3652
-22.6091
-22.8613
-23.0866
-23.2935
-23.4752
-23.6533
-23.8219
-24.0003
-24.1752
-24.3592
-24.5215
-24.6748
-24.7913
-24.9194
-25.0722
-25.2854
-25.5151
-25.75
-25.9924
-26.2103
-26.4034
-26.5598
-26.7094
-26.8542
-27.024
-27.1895
-27.3613
-27.5186
-27.6514
-27.7373
-27.8142
-27.9032
-28.0547
-28.2307
-28.4105
-28.5848
-28.7191
-28.8254
-28.9174
-29.03
-29.1357
-29.2513
-29.345
-29.4256
-29.4962
-29.6017
-29.6959
-29.7922
-29.8534
-29.9213
-30.0276
-30.2058
-30.3971
-30.5935
-30.7953
-30.9875
-31.1814
-31.3563
-31.538
-31.7015
-31.8542
-31.9818
-32.1385
-32.2874
-32.4507
-32.5893
-32.7152
-32.8551
-33.0636
-33.2855
-33.5199
-33.7623
-33.9921
-34.2151
-34.4179
-34.6056
-34.7739
-34.9447
-35.1193
-35.3115
-35.5172
-35.7264
-35.9194
-36.0956
-36.2762
-36.5178
-36.8174
-37.1388
-37.446
-37.7356
-37.9725
-38.2226
-38.4567
-38.7045
-38.9331
-39.1769
-39.4085
-39.6689
-39.877
-40.0823
-40.1796
-40.3157
-40.4465
-40.6781
-40.8067
-40.8023
-40.7192
-40.4947
-40.1839
-39.7304
-39.156
-38.3892
-37.3991
-36.1497
-34.5845
-32.7717
-30.5889
-28.1031
-25.1588
-21.8476
-18.0007
-13.6077
-8.51863
-2.69979
3.84063
11.27
19.597
28.9372
39.3351
51.0255
64.1989
79.2122
96.1562
114.965
135.005
155.958
178.409
207.09
250.247
307.45
-26.2458
-23.9222
-22.296
-20.7889
-19.2929
-17.7782
-16.1692
-14.5513
-13.0164
-11.6506
-10.5054
-9.61178
-8.88229
-8.37318
-8.09016
-7.99934
-8.06534
-8.26887
-8.57931
-8.96961
-9.42161
-9.9268
-10.4524
-11.0224
-11.6156
-12.2148
-12.8079
-13.3909
-13.9705
-14.532
-15.0587
-15.5501
-16.0372
-16.5201
-17.0059
-17.4599
-17.8926
-18.3043
-18.6922
-19.0518
-19.383
-19.6953
-19.9819
-20.2631
-20.5242
-20.782
-21.0127
-21.2319
-21.4243
-21.6222
-21.8236
-22.0462
-22.2691
-22.4958
-22.7252
-22.9515
-23.1644
-23.3542
-23.5412
-23.7145
-23.8952
-24.0688
-24.2501
-24.4137
-24.5741
-24.7096
-24.8633
-25.027
-25.2249
-25.4273
-25.6402
-25.8581
-26.0713
-26.2706
-26.4445
-26.6159
-26.7742
-26.9455
-27.1041
-27.2778
-27.4268
-27.5749
-27.6719
-27.798
-27.9085
-28.0598
-28.2
-28.3496
-28.4972
-28.6291
-28.7523
-28.8461
-28.974
-29.0598
-29.1849
-29.2511
-29.36
-29.4194
-29.5421
-29.6171
-29.7392
-29.801
-29.9044
-30.0132
-30.1935
-30.3372
-30.5182
-30.6984
-30.8765
-31.0817
-31.235
-31.4381
-31.5771
-31.7673
-31.8863
-32.0754
-32.2099
-32.3918
-32.5186
-32.6821
-32.8314
-33.0618
-33.2368
-33.4557
-33.6782
-33.8746
-34.1232
-34.3068
-34.5305
-34.693
-34.907
-35.0646
-35.2894
-35.4617
-35.6964
-35.864
-36.0851
-36.2626
-36.5551
-36.7874
-37.0678
-37.3663
-37.643
-37.9646
-38.1971
-38.5
-38.7193
-39.0195
-39.2349
-39.5703
-39.7929
-40.1155
-40.2973
-40.5546
-40.7089
-40.9895
-41.14
-41.3324
-41.488
-41.544
-41.5282
-41.3935
-41.1992
-40.8813
-40.459
-39.8934
-39.0876
-38.0474
-36.6271
-34.8789
-32.7278
-30.2029
-27.2412
-23.8401
-19.9126
-15.4187
-10.2162
-4.29403
2.39621
9.94724
18.3864
27.828
38.341
50.1009
63.1956
77.7331
93.6861
111.091
130.135
151.938
179.22
213.977
252.377
-30.6945
-28.0938
-26.1894
-24.1343
-22.0167
-19.8691
-17.7451
-15.7054
-13.8241
-12.1987
-10.8412
-9.769
-8.92671
-8.32695
-7.95304
-7.78602
-7.79242
-7.94986
-8.22622
-8.59623
-9.04599
-9.55252
-10.1019
-10.6838
-11.2921
-11.9041
-12.5181
-13.1172
-13.7157
-14.2918
-14.8501
-15.365
-15.8781
-16.3663
-16.8551
-17.3053
-17.7432
-18.1556
-18.5432
-18.9101
-19.2515
-19.5769
-19.8704
-20.1597
-20.4241
-20.6878
-20.9196
-21.1513
-21.3523
-21.5662
-21.7677
-21.9858
-22.1924
-22.4104
-22.6304
-22.8498
-23.0687
-23.2577
-23.4531
-23.6294
-23.815
-23.9866
-24.1748
-24.3346
-24.5087
-24.6432
-24.8234
-24.9803
-25.1718
-25.3531
-25.5548
-25.7595
-25.9642
-26.1688
-26.3462
-26.5335
-26.6983
-26.8774
-27.0314
-27.2255
-27.3587
-27.5332
-27.632
-27.7805
-27.894
-28.0524
-28.1708
-28.3138
-28.4534
-28.5655
-28.7004
-28.7925
-28.9214
-29.0063
-29.1362
-29.1984
-29.3203
-29.3744
-29.5022
-29.5648
-29.6941
-29.7604
-29.8824
-29.977
-30.1445
-30.2732
-30.4488
-30.6218
-30.7859
-30.9842
-31.1375
-31.3471
-31.4817
-31.6816
-31.803
-31.9997
-32.1346
-32.3215
-32.4564
-32.6327
-32.7776
-32.9918
-33.1667
-33.379
-33.5851
-33.7757
-34.0128
-34.1885
-34.4184
-34.5832
-34.8055
-34.9671
-35.195
-35.3672
-35.6025
-35.7711
-35.9931
-36.1873
-36.4573
-36.6781
-36.9492
-37.2161
-37.4913
-37.7819
-38.0266
-38.305
-38.555
-38.8201
-39.077
-39.3462
-39.6107
-39.8553
-40.0865
-40.2701
-40.4738
-40.658
-40.8758
-41.0544
-41.1532
-41.1836
-41.1181
-40.95
-40.6537
-40.2014
-39.6256
-38.8842
-38.0508
-37.013
-35.796
-34.2851
-32.4754
-30.2884
-27.7091
-24.6716
-21.1491
-17.0715
-12.3776
-7.05062
-0.973188
5.93061
13.7507
22.5515
32.3774
43.2154
55.0069
67.6376
81.0813
95.4399
111.319
130.077
153.446
181.468
209.433
-34.5759
-32.1847
-30.0321
-27.6242
-25.0767
-22.4185
-19.7621
-17.2177
-14.898
-12.9033
-11.2518
-9.96646
-8.98356
-8.2825
-7.81818
-7.57445
-7.5357
-7.63092
-7.87675
-8.23412
-8.68204
-9.18988
-9.75359
-10.3482
-10.9736
-11.6008
-12.2361
-12.8546
-13.4713
-14.0637
-14.6466
-15.1847
-15.7196
-16.2189
-16.7157
-17.1687
-17.6113
-18.0269
-18.4163
-18.7881
-19.1365
-19.4702
-19.7685
-20.0633
-20.3314
-20.5994
-20.8352
-21.0771
-21.2843
-21.5111
-21.7121
-21.9301
-22.1268
-22.3387
-22.5505
-22.7631
-22.9876
-23.1717
-23.3735
-23.5511
-23.7405
-23.9049
-24.1072
-24.2552
-24.4478
-24.5816
-24.7736
-24.9273
-25.1241
-25.286
-25.4843
-25.6819
-25.8717
-26.0851
-26.2556
-26.458
-26.6192
-26.8112
-26.9661
-27.1637
-27.3075
-27.4868
-27.6028
-27.7578
-27.8775
-28.0313
-28.15
-28.2875
-28.4206
-28.5245
-28.6566
-28.7468
-28.8712
-28.9564
-29.081
-29.1479
-29.2675
-29.3299
-29.4528
-29.518
-29.6451
-29.7239
-29.8481
-29.9432
-30.0961
-30.2213
-30.3881
-30.5489
-30.7126
-30.8924
-31.0471
-31.2482
-31.3916
-31.5852
-31.7218
-31.9175
-32.0609
-32.2413
-32.3979
-32.569
-32.7292
-32.9178
-33.1006
-33.3024
-33.4949
-33.6903
-33.9031
-34.0821
-34.3042
-34.4769
-34.6948
-34.8644
-35.0872
-35.2645
-35.4947
-35.6705
-35.9015
-36.0932
-36.3547
-36.5659
-36.8291
-37.0907
-37.3579
-37.6552
-37.9059
-38.2083
-38.4557
-38.7627
-39.0133
-39.3356
-39.5937
-39.9227
-40.1601
-40.5022
-40.7318
-41.0682
-41.219
-41.4629
-41.7902
-41.9304
-42.1039
-42.1554
-42.1952
-42.2262
-42.0891
-41.7958
-41.2362
-40.4482
-39.3822
-38.046
-36.3946
-34.4192
-32.0708
-29.3297
-26.1421
-22.4771
-18.2428
-13.4227
-7.93097
-1.65455
5.48958
13.592
22.6634
32.6831
43.531
55.081
67.2794
80.1898
94.2952
110.782
130.449
153.152
174.683
-38.3051
-36.066
-33.7763
-31.2414
-28.4028
-25.3492
-22.2023
-19.1324
-16.3036
-13.8634
-11.8523
-10.296
-9.11579
-8.27408
-7.70741
-7.37667
-7.23057
-7.32139
-7.54171
-7.88025
-8.32183
-8.83034
-9.4046
-10.0099
-10.6508
-11.2949
-11.9504
-12.5886
-13.225
-13.8348
-14.4384
-14.9986
-15.5539
-16.0677
-16.5771
-17.039
-17.4895
-17.91
-18.3031
-18.6818
-19.0344
-19.3723
-19.6744
-19.9731
-20.245
-20.5202
-20.7573
-21.0085
-21.2147
-21.454
-21.6546
-21.8782
-22.0678
-22.2767
-22.4836
-22.6864
-22.916
-23.0945
-23.3045
-23.4756
-23.6736
-23.8347
-24.038
-24.1894
-24.3841
-24.5256
-24.7163
-24.8723
-25.0668
-25.2282
-25.4206
-25.6151
-25.7936
-26.0053
-26.1804
-26.3853
-26.5508
-26.7458
-26.9069
-27.1056
-27.2545
-27.4405
-27.5676
-27.7339
-27.856
-28.012
-28.1308
-28.2682
-28.392
-28.505
-28.6223
-28.7208
-28.8315
-28.9265
-29.0434
-29.1107
-29.2285
-29.2945
-29.4165
-29.4837
-29.5999
-29.6941
-29.81
-29.9161
-30.0511
-30.1814
-30.3349
-30.4874
-30.6454
-30.8226
-30.9766
-31.1792
-31.3244
-31.5255
-31.663
-31.8562
-32.0037
-32.1889
-32.34
-32.5265
-32.6803
-32.8763
-33.0384
-33.2333
-33.4242
-33.6119
-33.8278
-34.0035
-34.2178
-34.3929
-34.6038
-34.7785
-34.9881
-35.1724
-35.3843
-35.5732
-35.7873
-35.9929
-36.223
-36.4462
-36.6935
-36.9412
-37.1969
-37.4606
-37.7158
-37.9827
-38.2466
-38.5131
-38.7865
-39.056
-39.3352
-39.5989
-39.8703
-40.1112
-40.3617
-40.5671
-40.8332
-41.0711
-41.2508
-41.3768
-41.4215
-41.3808
-41.2395
-41.0064
-40.7493
-40.4113
-40.0519
-39.5514
-38.8868
-37.9763
-36.7891
-35.2722
-33.3992
-31.1299
-28.4394
-25.2916
-21.6336
-17.4577
-12.6689
-7.17892
-0.901345
6.23364
14.2403
23.0958
32.7228
43.034
53.9757
65.6255
78.368
92.988
109.817
128.593
145.825
-41.6087
-39.485
-37.3422
-34.8421
-31.9199
-28.6002
-25.045
-21.4632
-18.0972
-15.1651
-12.7256
-10.8252
-9.40385
-8.39361
-7.69981
-7.2658
-7.05002
-7.068
-7.2478
-7.55887
-7.98942
-8.49217
-9.06852
-9.67878
-10.3304
-10.9875
-11.6581
-12.3139
-12.9698
-13.5982
-14.2203
-14.8
-15.373
-15.9026
-16.4267
-16.9029
-17.3666
-17.7966
-18.1968
-18.5819
-18.939
-19.2811
-19.5873
-19.8926
-20.1672
-20.4484
-20.6847
-20.9415
-21.1488
-21.3903
-21.5951
-21.8228
-22.0117
-22.2191
-22.4261
-22.6207
-22.8451
-23.0287
-23.236
-23.4113
-23.609
-23.7751
-23.975
-24.1296
-24.3241
-24.4701
-24.6611
-24.8161
-25.0085
-25.1697
-25.3606
-25.5523
-25.7257
-25.933
-26.1079
-26.3135
-26.4831
-26.6817
-26.8466
-27.0488
-27.2009
-27.3925
-27.528
-27.7019
-27.829
-27.9806
-28.1093
-28.2438
-28.3647
-28.4794
-28.5925
-28.693
-28.798
-28.8938
-29.0019
-29.0695
-29.1806
-29.2489
-29.3636
-29.4327
-29.5469
-29.638
-29.7554
-29.8589
-29.9937
-30.1131
-30.2662
-30.4143
-30.5625
-30.7364
-30.8859
-31.0733
-31.2251
-31.4117
-31.5645
-31.7531
-31.9084
-32.0915
-32.2474
-32.4331
-32.5913
-32.783
-32.944
-33.1386
-33.324
-33.5094
-33.7155
-33.8952
-34.109
-34.2834
-34.4972
-34.672
-34.888
-35.0686
-35.2918
-35.4762
-35.7076
-35.9082
-36.1493
-36.3521
-36.588
-36.8432
-37.1046
-37.3829
-37.645
-37.9323
-38.202
-38.5004
-38.7799
-39.0909
-39.3814
-39.7046
-40.0054
-40.3375
-40.639
-40.9648
-41.2362
-41.543
-41.8646
-42.1721
-42.47
-42.7207
-42.9337
-43.0738
-43.0811
-42.9579
-42.651
-42.1869
-41.5331
-40.6882
-39.6052
-38.2608
-36.6011
-34.5975
-32.2056
-29.3999
-26.1193
-22.354
-18.0246
-13.0613
-7.41447
-1.04269
6.0633
13.8982
22.4149
31.5662
41.3454
51.8487
63.3871
76.4181
91.0677
106.996
121.25
-44.2308
-42.2938
-40.527
-38.2661
-35.4522
-32.0474
-28.2136
-24.2016
-20.3054
-16.8416
-13.9322
-11.6438
-9.94053
-8.70719
-7.83867
-7.28478
-6.98314
-6.90776
-7.01812
-7.2856
-7.69234
-8.18315
-8.75792
-9.36979
-10.0207
-10.6817
-11.3642
-12.036
-12.7069
-13.3489
-13.9851
-14.5818
-15.1714
-15.7189
-16.259
-16.7518
-17.2312
-17.6747
-18.0862
-18.4794
-18.8434
-19.193
-19.506
-19.8178
-20.0934
-20.3777
-20.6173
-20.8753
-21.0883
-21.3279
-21.5362
-21.7631
-21.9554
-22.1636
-22.371
-22.5633
-22.7827
-22.9665
-23.1741
-23.348
-23.5467
-23.7141
-23.915
-24.0709
-24.2662
-24.4149
-24.6062
-24.7606
-24.9511
-25.1101
-25.2995
-25.4898
-25.6616
-25.8651
-26.0389
-26.2424
-26.4158
-26.6144
-26.7847
-26.9862
-27.1456
-27.3387
-27.4842
-27.6613
-27.7965
-27.95
-28.0799
-28.2126
-28.334
-28.4494
-28.5676
-28.6617
-28.7696
-28.8568
-28.9632
-29.0319
-29.1362
-29.2049
-29.3114
-29.3828
-29.4941
-29.5828
-29.6993
-29.7996
-29.9281
-30.0449
-30.1909
-30.3391
-30.4853
-30.6547
-30.8049
-30.9847
-31.1379
-31.321
-31.4755
-31.6611
-31.8226
-32.003
-32.1638
-32.3464
-32.5094
-32.6931
-32.8511
-33.0375
-33.2257
-33.4154
-33.6071
-33.7842
-33.9789
-34.1541
-34.353
-34.535
-34.7352
-34.921
-35.124
-35.3141
-35.5226
-35.7236
-35.9403
-36.163
-36.3971
-36.6335
-36.879
-37.1257
-37.382
-37.639
-37.907
-38.1753
-38.4545
-38.7323
-39.0205
-39.3034
-39.5967
-39.8816
-40.1825
-40.4786
-40.7958
-41.0801
-41.3133
-41.5203
-41.687
-41.856
-41.9763
-42.0559
-42.1147
-42.116
-42.1244
-42.0359
-41.8236
-41.4236
-40.8073
-39.9294
-38.7544
-37.2413
-35.3538
-33.0552
-30.2858
-27.03
-23.2319
-18.842
-13.8327
-8.18216
-1.89487
5.02047
12.5398
20.6537
29.3813
38.8412
49.2691
60.9341
73.8709
87.6879
99.8326
-45.9965
-44.3506
-43.0244
-41.1761
-38.6764
-35.4393
-31.533
-27.2393
-22.8858
-18.8759
-15.4878
-12.7904
-10.7563
-9.2651
-8.1992
-7.49971
-7.0789
-6.89602
-6.92826
-7.13027
-7.47958
-7.92898
-8.47641
-9.07692
-9.7253
-10.3925
-11.0817
-11.7555
-12.4307
-13.0827
-13.7344
-14.3491
-14.9528
-15.5141
-16.0646
-16.5735
-17.0708
-17.5327
-17.9604
-18.3656
-18.7392
-19.0979
-19.4172
-19.7343
-20.0161
-20.3041
-20.5494
-20.8092
-21.0277
-21.2674
-21.4776
-21.7032
-21.8972
-22.1073
-22.3139
-22.5068
-22.724
-22.9066
-23.1142
-23.2882
-23.4872
-23.6543
-23.8542
-24.0118
-24.2062
-24.3581
-24.5475
-24.7037
-24.8888
-25.046
-25.2325
-25.4203
-25.5944
-25.7908
-25.9679
-26.1662
-26.3438
-26.5396
-26.7148
-26.9128
-27.0795
-27.2704
-27.4265
-27.6042
-27.7513
-27.9035
-28.0367
-28.1704
-28.297
-28.4128
-28.5287
-28.6223
-28.7283
-28.8118
-28.9177
-28.986
-29.085
-29.1527
-29.2506
-29.3245
-29.429
-29.5191
-29.6319
-29.7333
-29.8569
-29.9678
-30.1076
-30.2511
-30.4012
-30.5611
-30.7155
-30.8901
-31.0451
-31.2294
-31.385
-31.5694
-31.7345
-31.9096
-32.0803
-32.2583
-32.4309
-32.6086
-32.7747
-32.9558
-33.1415
-33.3279
-33.5195
-33.7054
-33.8996
-34.0807
-34.2943
-34.471
-34.6748
-34.8587
-35.0646
-35.2591
-35.4739
-35.6777
-35.8975
-36.1016
-36.328
-36.5712
-36.8219
-37.0849
-37.345
-37.623
-37.8934
-38.1859
-38.4708
-38.7792
-39.0788
-39.4022
-39.7158
-40.0539
-40.3799
-40.7277
-41.0557
-41.4109
-41.7801
-42.1445
-42.507
-42.8409
-43.142
-43.3711
-43.5211
-43.5823
-43.5386
-43.4049
-43.1732
-42.8377
-42.3694
-41.7269
-40.8658
-39.7372
-38.2887
-36.4636
-34.1971
-31.4654
-28.2202
-24.4229
-20.0585
-15.1163
-9.60681
-3.53969
3.07322
10.2451
18.0191
26.5186
35.9262
46.4099
57.9682
70.1735
80.7768
-46.7936
-45.5877
-44.6576
-43.2823
-41.2083
-38.3031
-34.5707
-30.2201
-25.6258
-21.2086
-17.3855
-14.29
-11.9024
-10.1306
-8.82672
-7.92688
-7.35858
-7.06248
-7.00501
-7.12278
-7.39917
-7.79318
-8.28767
-8.84911
-9.4701
-10.1195
-10.7925
-11.4652
-12.1483
-12.8155
-13.4759
-14.0901
-14.6995
-15.2724
-15.8407
-16.3722
-16.8853
-17.361
-17.8051
-18.2229
-18.6082
-18.9801
-19.3135
-19.6367
-19.9269
-20.2185
-20.4717
-20.7349
-20.9602
-21.2021
-21.4155
-21.6406
-21.837
-22.0476
-22.2524
-22.4467
-22.6632
-22.8461
-23.052
-23.2268
-23.4231
-23.5916
-23.7891
-23.948
-24.1407
-24.2949
-24.4831
-24.6421
-24.8223
-24.9807
-25.1591
-25.3396
-25.5222
-25.7087
-25.8906
-26.0802
-26.2641
-26.4543
-26.6384
-26.8283
-27.007
-27.1902
-27.3604
-27.5344
-27.6934
-27.8472
-27.9865
-28.1229
-28.2542
-28.3745
-28.4893
-28.5864
-28.6852
-28.7674
-28.8664
-28.9346
-29.0311
-29.0971
-29.1906
-29.2605
-29.3596
-29.4477
-29.5588
-29.6575
-29.7794
-29.8841
-30.0189
-30.1579
-30.3089
-30.4619
-30.6189
-30.7827
-30.9432
-31.1139
-31.279
-31.4542
-31.6244
-31.7995
-31.9722
-32.1485
-32.3217
-32.4954
-32.6647
-32.8425
-33.0228
-33.2082
-33.3922
-33.5762
-33.7555
-33.9302
-34.1171
-34.2979
-34.4906
-34.682
-34.8761
-35.0723
-35.2711
-35.4737
-35.6792
-35.8932
-36.1164
-36.3423
-36.5777
-36.816
-37.0651
-37.3179
-37.5823
-37.8507
-38.1312
-38.4153
-38.7114
-39.0103
-39.3211
-39.6346
-39.962
-40.2945
-40.6436
-40.9926
-41.3303
-41.6649
-41.9866
-42.3072
-42.6176
-42.9553
-43.2873
-43.5951
-43.855
-44.0205
-44.0726
-43.9964
-43.7791
-43.4079
-42.8522
-42.0739
-41.022
-39.6405
-37.8597
-35.6471
-32.9547
-29.7514
-26.028
-21.7803
-17.0198
-11.7544
-5.98725
0.305746
7.1888
14.7895
23.2594
32.7156
43.1384
54.083
63.5204
-46.4681
-45.9144
-45.3534
-44.4107
-42.7889
-40.3096
-36.9636
-32.8059
-28.2229
-23.6355
-19.5131
-16.107
-13.3941
-11.3251
-9.7612
-8.63771
-7.89091
-7.43505
-7.24029
-7.25136
-7.44346
-7.77021
-8.2013
-8.71453
-9.2912
-9.90242
-10.5453
-11.2023
-11.8727
-12.5284
-13.1794
-13.8004
-14.4216
-15.0146
-15.6002
-16.1317
-16.649
-17.1397
-17.6053
-18.045
-18.4531
-18.8407
-19.1858
-19.5119
-19.812
-20.1107
-20.3749
-20.6432
-20.8771
-21.1217
-21.3395
-21.5663
-21.7672
-21.9781
-22.1821
-22.3771
-22.5933
-22.7791
-22.9817
-23.1618
-23.3529
-23.5254
-23.718
-23.8801
-24.0697
-24.2274
-24.4104
-24.5736
-24.7456
-24.91
-25.0838
-25.2603
-25.442
-25.6249
-25.8067
-25.9936
-26.1771
-26.3668
-26.552
-26.7426
-26.924
-27.1098
-27.2845
-27.463
-27.6269
-27.7871
-27.9302
-28.0707
-28.2044
-28.3305
-28.4484
-28.5508
-28.649
-28.7334
-28.8224
-28.8933
-28.9823
-29.0491
-29.1394
-29.2068
-29.3041
-29.39
-29.4927
-29.5938
-29.7079
-29.8162
-29.9418
-30.0768
-30.2227
-30.3742
-30.5328
-30.6981
-30.8586
-31.0297
-31.1936
-31.3682
-31.5377
-31.7155
-31.8891
-32.0694
-32.2432
-32.421
-32.5885
-32.7644
-32.9451
-33.1292
-33.3174
-33.503
-33.6959
-33.8769
-34.0672
-34.2457
-34.4356
-34.6208
-34.8182
-35.0118
-35.2178
-35.4169
-35.628
-35.8286
-36.0462
-36.2765
-36.5152
-36.7647
-37.0149
-37.2797
-37.5427
-37.8239
-38.104
-38.4037
-38.7022
-39.0203
-39.3374
-39.6751
-40.0133
-40.3727
-40.7312
-41.1122
-41.5015
-41.889
-42.2737
-42.6462
-43.0092
-43.3513
-43.6857
-44.0043
-44.3074
-44.5804
-44.8011
-44.9393
-44.9726
-44.8792
-44.6336
-44.2004
-43.5336
-42.5785
-41.2691
-39.5644
-37.4174
-34.7988
-31.7027
-28.1284
-24.0889
-19.5898
-14.6296
-9.17627
-3.15406
3.58045
11.1727
19.7184
29.1847
39.1211
47.6603
-45.6364
-45.5466
-45.325
-44.6718
-43.4925
-41.4369
-38.5147
-34.7062
-30.34
-25.8429
-21.6397
-18.0521
-15.1082
-12.7827
-10.9825
-9.64464
-8.69227
-8.05728
-7.70346
-7.57687
-7.6311
-7.85285
-8.19781
-8.64326
-9.16327
-9.73214
-10.3421
-10.9709
-11.6135
-12.2501
-12.89
-13.5152
-14.1348
-14.7262
-15.3051
-15.8441
-16.376
-16.8822
-17.3713
-17.8337
-18.2578
-18.6495
-19.0095
-19.3614
-19.6747
-19.9767
-20.2503
-20.5223
-20.767
-21.0164
-21.2412
-21.4697
-21.6765
-21.8895
-22.0973
-22.2936
-22.5094
-22.6997
-22.9029
-23.0852
-23.278
-23.4502
-23.6412
-23.8053
-23.993
-24.1561
-24.3329
-24.4993
-24.6697
-24.8336
-25.0056
-25.1801
-25.359
-25.5404
-25.7203
-25.9058
-26.0871
-26.276
-26.4603
-26.6514
-26.8333
-27.0218
-27.1988
-27.3817
-27.5502
-27.7167
-27.8653
-28.0111
-28.1478
-28.2779
-28.3997
-28.5064
-28.607
-28.6932
-28.7774
-28.8511
-28.9286
-28.9983
-29.0762
-29.1482
-29.2341
-29.3188
-29.4145
-29.514
-29.6221
-29.7313
-29.853
-29.9837
-30.1237
-30.2725
-30.4297
-30.5909
-30.7514
-30.9187
-31.0836
-31.2553
-31.4251
-31.6008
-31.7753
-31.9531
-32.1276
-32.3027
-32.4737
-32.6495
-32.8259
-33.0065
-33.1876
-33.3691
-33.5496
-33.7295
-33.9104
-34.0911
-34.2746
-34.4581
-34.6461
-34.8375
-35.0321
-35.2288
-35.4271
-35.6315
-35.8458
-36.0645
-36.2921
-36.5248
-36.7662
-37.0144
-37.2718
-37.5378
-37.8142
-38.1003
-38.3976
-38.7046
-39.0229
-39.3514
-39.6926
-40.0474
-40.4199
-40.8118
-41.2154
-41.635
-42.0652
-42.5043
-42.9446
-43.3825
-43.8126
-44.2345
-44.6437
-45.0329
-45.3921
-45.7057
-45.955
-46.1166
-46.1655
-46.0674
-45.7786
-45.2441
-44.4
-43.1971
-41.588
-39.5423
-37.0546
-34.127
-30.7761
-27.0107
-22.8287
-18.1941
-13.0212
-7.15019
-0.412302
7.2941
15.9295
25.044
32.888
-44.6389
-44.639
-44.7989
-44.4069
-43.4951
-41.7616
-39.2261
-35.832
-31.8142
-27.56
-23.4851
-19.8822
-16.8332
-14.3517
-12.3673
-10.8483
-9.71501
-8.91114
-8.39172
-8.1072
-8.02111
-8.1007
-8.32247
-8.65935
-9.09032
-9.59192
-10.1475
-10.734
-11.3448
-11.9652
-12.5946
-13.212
-13.8225
-14.4119
-14.992
-15.5456
-16.0911
-16.6077
-17.1019
-17.5698
-18.0044
-18.4115
-18.7917
-19.1573
-19.4873
-19.8075
-20.094
-20.3745
-20.6335
-20.8866
-21.1165
-21.3451
-21.5603
-21.7788
-21.9934
-22.1944
-22.4101
-22.6042
-22.8076
-22.9942
-23.1869
-23.3631
-23.5533
-23.7206
-23.9078
-24.0713
-24.2533
-24.4194
-24.5908
-24.7534
-24.9244
-25.098
-25.2748
-25.4557
-25.6328
-25.8174
-25.996
-26.1834
-26.3648
-26.5562
-26.7358
-26.9267
-27.1027
-27.29
-27.4613
-27.6353
-27.7892
-27.9422
-28.0847
-28.22
-28.3469
-28.4568
-28.5662
-28.6577
-28.7501
-28.8231
-28.9037
-28.9702
-29.0477
-29.1146
-29.1954
-29.273
-29.3643
-29.4576
-29.5623
-29.6662
-29.7833
-29.9092
-30.0442
-30.1904
-30.3456
-30.5077
-30.666
-30.8346
-30.9973
-31.1701
-31.3387
-31.5162
-31.6905
-31.8715
-32.0463
-32.2246
-32.3934
-32.5692
-32.747
-32.9271
-33.1104
-33.293
-33.4801
-33.657
-33.8432
-34.0178
-34.2034
-34.3828
-34.5728
-34.7598
-34.957
-35.1501
-35.3531
-35.5455
-35.7524
-35.97
-36.1956
-36.4309
-36.6688
-36.919
-37.1702
-37.4369
-37.7064
-37.9933
-38.2845
-38.5938
-38.9082
-39.2405
-39.578
-39.9331
-40.295
-40.6803
-41.0835
-41.5051
-41.9455
-42.4021
-42.8739
-43.3566
-43.8503
-44.3483
-44.8488
-45.3445
-45.83
-46.2952
-46.7286
-47.1128
-47.427
-47.6408
-47.7133
-47.5901
-47.2079
-46.5065
-45.4334
-43.9524
-42.0552
-39.7451
-37.045
-33.9755
-30.5419
-26.7129
-22.3955
-17.4062
-11.5377
-4.65189
3.22106
11.6457
18.9644
-43.4871
-43.4357
-43.7373
-43.5243
-42.8674
-41.3999
-39.1772
-36.1931
-32.6274
-28.75
-24.9644
-21.5123
-18.471
-15.9178
-13.8153
-12.1575
-10.8787
-9.9179
-9.24674
-8.81102
-8.57492
-8.50947
-8.5974
-8.80849
-9.12247
-9.523
-9.99249
-10.5124
-11.0735
-11.6595
-12.2646
-12.8658
-13.4682
-14.0568
-14.6425
-15.2067
-15.7607
-16.2857
-16.7902
-17.273
-17.7259
-18.1532
-18.5508
-18.9275
-19.2735
-19.6062
-19.9069
-20.1982
-20.4648
-20.7244
-20.9649
-21.1984
-21.4205
-21.6446
-21.8622
-22.0736
-22.2877
-22.491
-22.6941
-22.8859
-23.0793
-23.2616
-23.4493
-23.6227
-23.8059
-23.9751
-24.1558
-24.3257
-24.5
-24.6645
-24.8364
-25.0091
-25.1842
-25.3636
-25.5398
-25.7246
-25.9009
-26.0876
-26.2643
-26.4566
-26.6304
-26.824
-26.9948
-27.185
-27.3554
-27.5341
-27.6917
-27.8522
-28.0012
-28.1426
-28.2769
-28.3916
-28.5087
-28.6031
-28.7038
-28.7829
-28.8699
-28.9394
-29.0182
-29.0843
-29.1639
-29.2374
-29.3248
-29.4124
-29.5135
-29.6122
-29.7252
-29.8446
-29.9736
-30.1142
-30.2645
-30.4238
-30.5781
-30.7446
-30.9045
-31.0759
-31.242
-31.4175
-31.5901
-31.7694
-31.9433
-32.1203
-32.2895
-32.4645
-32.6385
-32.8157
-32.9944
-33.1757
-33.3569
-33.5314
-33.7116
-33.8854
-34.0658
-34.2425
-34.4268
-34.6114
-34.803
-34.9938
-35.1892
-35.3817
-35.5855
-35.7951
-36.0146
-36.2416
-36.4761
-36.7184
-36.9657
-37.2251
-37.4911
-37.7715
-38.0606
-38.3661
-38.6817
-39.0153
-39.3592
-39.7207
-40.0922
-40.4869
-40.899
-41.3312
-41.784
-42.2583
-42.7542
-43.2694
-43.8073
-44.3617
-44.9334
-45.5159
-46.1076
-46.7007
-47.2895
-47.8636
-48.4085
-48.9002
-49.3047
-49.5712
-49.6396
-49.438
-48.9032
-47.9858
-46.669
-44.9534
-42.866
-40.443
-37.7126
-34.6618
-31.2077
-27.1451
-22.2032
-16.1745
-9.06149
-1.25857
5.65861
-41.6904
-41.8017
-42.1581
-42.1115
-41.6559
-40.4549
-38.5679
-36.0073
-32.9461
-29.5559
-26.1442
-22.9162
-19.9613
-17.4038
-15.2422
-13.4827
-12.0855
-10.9935
-10.1861
-9.61161
-9.24135
-9.04956
-8.99747
-9.08459
-9.27776
-9.56552
-9.9306
-10.357
-10.8377
-11.3594
-11.9169
-12.487
-13.0707
-13.6482
-14.2294
-14.7961
-15.3582
-15.898
-16.4198
-16.9237
-17.3996
-17.8503
-18.2688
-18.6633
-19.0281
-19.3746
-19.6925
-19.9956
-20.2766
-20.5473
-20.7975
-21.0379
-21.2658
-21.4946
-21.7147
-21.933
-22.1502
-22.361
-22.5678
-22.7657
-22.9619
-23.1492
-23.3371
-23.5153
-23.6972
-23.8699
-24.0489
-24.2204
-24.3965
-24.5647
-24.739
-24.9113
-25.0862
-25.2644
-25.441
-25.6233
-25.8014
-25.9856
-26.1629
-26.3512
-26.5264
-26.7152
-26.887
-27.0721
-27.2426
-27.4205
-27.5822
-27.7474
-27.9025
-28.0488
-28.1892
-28.3119
-28.4335
-28.535
-28.6417
-28.729
-28.8228
-28.8978
-28.9817
-29.0517
-29.1339
-29.2075
-29.2941
-29.3782
-29.4775
-29.5732
-29.684
-29.7989
-29.9224
-30.0576
-30.2011
-30.3591
-30.5095
-30.6765
-30.833
-31.0056
-31.1692
-31.3452
-31.5154
-31.6961
-31.8692
-32.0497
-32.2181
-32.3956
-32.5711
-32.7475
-32.9273
-33.1057
-33.2904
-33.4614
-33.6445
-33.814
-33.9947
-34.1663
-34.3485
-34.5266
-34.7151
-34.8992
-35.0921
-35.276
-35.4742
-35.6775
-35.8889
-36.1084
-36.3355
-36.5709
-36.8087
-37.0608
-37.3165
-37.5895
-37.8685
-38.1666
-38.4737
-38.8016
-39.1395
-39.4981
-39.8672
-40.263
-40.6787
-41.1166
-41.5786
-42.0652
-42.5784
-43.1152
-43.6841
-44.278
-44.9019
-45.5492
-46.2229
-46.9185
-47.6357
-48.3686
-49.1097
-49.8394
-50.5341
-51.1518
-51.6426
-51.9264
-51.9297
-51.5827
-50.8504
-49.7238
-48.2245
-46.3961
-44.2963
-41.9547
-39.3338
-36.2439
-32.342
-27.2876
-21.0324
-13.8693
-7.3341
-39.2439
-39.8433
-40.3253
-40.4249
-40.1714
-39.2622
-37.7335
-35.5858
-32.995
-30.065
-27.0093
-24.0298
-21.2275
-18.7306
-16.5643
-14.7469
-13.2625
-12.0689
-11.1519
-10.4676
-9.97621
-9.65348
-9.4734
-9.42236
-9.49938
-9.68611
-9.95544
-10.2947
-10.6969
-11.147
-11.6387
-12.154
-12.6975
-13.248
-13.8059
-14.3633
-14.9217
-15.4661
-15.9948
-16.5104
-17.0039
-17.4759
-17.922
-18.3436
-18.7378
-19.1084
-19.4506
-19.7709
-20.0705
-20.3555
-20.6208
-20.8721
-21.1099
-21.3434
-21.5697
-21.7898
-22.0108
-22.2243
-22.4342
-22.6372
-22.8364
-23.0282
-23.2189
-23.3999
-23.5832
-23.7578
-23.9371
-24.1086
-24.2854
-24.4551
-24.6315
-24.8048
-24.9804
-25.1587
-25.3351
-25.5167
-25.6947
-25.8785
-26.0566
-26.242
-26.4184
-26.6033
-26.7766
-26.958
-27.1277
-27.3035
-27.4668
-27.6344
-27.7929
-27.9434
-28.0894
-28.2199
-28.348
-28.4592
-28.5714
-28.6653
-28.7639
-28.8452
-28.935
-29.0105
-29.0965
-29.1718
-29.2589
-29.3412
-29.4383
-29.5326
-29.6424
-29.7542
-29.8737
-30.0041
-30.1394
-30.2903
-30.438
-30.6022
-30.7559
-30.9283
-31.0898
-31.2649
-31.4318
-31.6122
-31.7829
-31.9651
-32.132
-32.3124
-32.4893
-32.666
-32.8476
-33.022
-33.2101
-33.379
-33.5673
-33.7354
-33.9192
-34.0901
-34.2729
-34.4481
-34.6353
-34.816
-35.0089
-35.1882
-35.385
-35.5838
-35.7883
-36.0014
-36.2192
-36.4497
-36.6782
-36.9242
-37.1711
-37.4361
-37.7042
-37.9924
-38.287
-38.6047
-38.9314
-39.2818
-39.6423
-40.0325
-40.4429
-40.8778
-41.3397
-41.8304
-42.3531
-42.9022
-43.4924
-44.1119
-44.7738
-45.4661
-46.2014
-46.9726
-47.7903
-48.6457
-49.5398
-50.457
-51.3849
-52.296
-53.1564
-53.8876
-54.4184
-54.6564
-54.5368
-54.021
-53.1108
-51.8366
-50.2789
-48.5296
-46.6369
-44.5065
-41.7907
-37.9634
-32.8157
-26.4769
-20.3595
-36.3854
-37.5334
-38.2644
-38.3678
-38.455
-37.9098
-36.7651
-35.0387
-32.8747
-30.3651
-27.6624
-24.9533
-22.3357
-19.9336
-17.7891
-15.9453
-14.3972
-13.111