/*--------------------------------*- C++ -*----------------------------------*\
| =========                 |                                                 |
| \\      /  F ield         | OpenFOAM: The Open Source CFD Toolbox           |
|  \\    /   O peration     | Version:  4.1                                   |
|   \\  /    A nd           | Web:      www.OpenFOAM.org                      |
|    \\/     M anipulation  |                                                 |
\*---------------------------------------------------------------------------*/
FoamFile
{
    version     2.0;
    format      ascii;
    class       volScalarField;
    location    "19.5";
    object      p;
}
// * * * * * * * * * * * * * * * * * * * * * * * * * * * * * * * * * * * * * //

dimensions      [0 2 -2 0 0 0 0];

internalField   nonuniform List<scalar> 
204246
(
163.11
5.66853
62.0957
33.2728
29.6914
38.3015
19.7617
38.4774
16.0557
37.8626
14.3429
37.6744
12.733
36.4546
15.1064
31.322
24.5308
16.1397
33.4865
11.6944
35.7297
11.2444
34.6536
11.6408
34.6975
11.1172
35.7815
9.16225
36.6104
9.13899
35.9338
10.5026
33.5413
14.7494
27.0722
24.1426
13.7889
31.8336
10.8241
32.3913
10.4072
32.9268
9.61744
34.1253
7.66414
34.8819
7.96572
33.8369
10.393
30.1306
14.6702
25.2981
23.5015
12.6098
31.1398
9.99908
31.8148
9.82531
32.4966
9.19158
33.81
7.30163
34.6274
7.57145
33.5952
9.85503
29.8981
13.826
25.2138
22.0046
13.2834
27.9765
10.3711
29.9811
9.02459
30.93
7.91159
32.2419
5.7756
33.0075
5.92643
31.9351
8.18832
28.221
12.2268
23.544
20.5771
11.5822
26.8169
8.60169
29.2991
6.87803
31.3853
4.30047
32.8322
3.70491
32.8667
4.05255
31.8831
5.76588
28.9496
7.94782
26.7838
10.5273
23.1653
16.8995
10.8923
24.4578
6.16838
27.5599
2.37856
28.3628
1.58021
26.9934
0.688807
25.3759
-0.343114
22.9978
-0.962226
19.0799
0.0710195
12.3245
5.39454
-3.86316
10.0415
-11.2964
8.62942
-16.3567
4.86881
-20.9045
0.33805
-25.5686
-4.37695
-29.7192
-9.15394
-32.2591
-14.3869
-32.2994
-21.0881
-26.2498
-36.0289
-18.5541
-40.18
-15.5586
-40.5652
-13.2188
-39.4448
-11.0364
-37.3066
-9.07588
-34.4801
-7.62669
-30.7784
-7.33495
-25.1012
-9.65517
-13.8148
-20.6703
-2.627
-22.3525
2.93046
-20.7934
7.00772
-17.5833
10.7935
-12.8494
14.4383
-6.43527
19.1105
1.52234
24.9894
11.7709
31.548
24.996
39.4326
43.0635
47.9556
59.1875
66.9248
76.5712
90.3274
99.352
118.602
128.516
154.685
163.834
204.797
207.065
271.754
273.789
394.306
383.824
610.968
68.3177
26.8917
35.5637
37.8201
26.0432
36.0997
22.5301
33.6894
20.6325
32.1038
19.74
30.7945
20.1208
27.898
22.9984
23.039
28.3629
18.2205
28.9058
17.5488
28.7746
17.7263
28.4671
17.3171
28.7533
16.7522
29.231
16.4311
28.6879
17.1287
27.4031
18.8386
24.7513
22.2642
20.416
26.9118
16.537
27.1067
16.3427
26.9383
15.8032
27.2368
15.1921
27.6251
14.9449
26.8909
15.914
25.3166
18.0628
22.7266
21.0028
18.9975
25.7694
15.4326
26.1506
15.4923
26.1964
15.1734
26.7014
14.7313
27.2563
14.5775
26.6319
15.5409
25.1206
17.5607
22.585
20.2043
18.973
24.4838
15.5782
24.6419
14.7278
25.0321
14.1042
25.3859
13.4163
25.7774
13.0716
25.0158
13.9133
23.4067
15.8898
20.8133
18.5756
17.1741
22.9962
13.749
23.3998
12.8078
24.2152
11.956
25.1269
11.31
25.0527
11.4699
24.5413
12.1084
23.4212
13.3804
21.8249
14.5106
19.9168
16.7374
16.4934
20.9271
12.0063
21.7206
10.4576
22.2374
9.36222
21.3853
8.98277
20.205
8.25421
18.67
7.48147
16.245
7.20803
12.278
7.86168
6.32736
10.4324
-0.116448
7.33053
-4.16266
3.92784
-8.34052
-0.10365
-12.7842
-4.67106
-17.1647
-9.9407
-21.1196
-15.6322
-23.9969
-21.5064
-24.7938
-27.9597
-22.7861
-34.1316
-23.6322
-35.3624
-23.3362
-35.1158
-22.0197
-33.7347
-20.2673
-31.4229
-18.5535
-28.407
-17.3271
-24.5776
-17.0834
-19.412
-18.7692
-12.0234
-20.532
-8.58652
-18.7822
-5.5023
-16.2784
-2.42122
-13.0318
0.927919
-8.90111
4.94715
-4.12515
9.20768
2.62539
14.3021
11.4771
20.1415
22.3768
27.6769
34.6223
40.6512
47.056
57.2029
62.7025
77.1785
82.3457
101.508
106.511
133.432
134.087
172.924
166.684
222.878
198.437
301.195
244.408
382.267
30.3172
44.2433
33.2203
40.0521
28.9516
36.5488
24.7405
34.5854
22.1526
32.9737
20.9996
31.3081
21.1636
28.7578
23.0893
24.9627
26.3084
20.9292
28.0923
18.8351
28.9113
18.0205
29.0346
17.5478
29.1389
17.1564
29.241
16.9656
28.8539
17.4747
27.7489
18.9306
25.5296
21.5749
22.1071
24.7745
18.7164
26.3721
17.0707
27.0996
16.1694
27.4454
15.6209
27.5655
15.4567
27.0726
16.1561
25.8134
17.8566
23.6296
20.4547
20.5953
23.7523
17.5318
25.5045
16.1748
26.4273
15.5146
26.9714
15.1436
27.2563
15.0729
26.8737
15.7659
25.6728
17.3436
23.5205
19.6858
20.5155
22.6114
17.4088
24.1182
15.6127
25.0786
14.5916
25.5824
13.9067
25.7775
13.6175
25.296
14.1832
24.0167
15.7219
21.8151
18.116
18.7852
21.1964
15.6418
22.9567
13.779
24.2731
12.6308
25.1326
11.9234
25.365
11.8317
25.0587
12.287
24.1571
13.2658
22.7136
14.5667
20.7509
16.5871
17.7971
19.3676
14.1835
21.0987
11.7719
22.0579
10.209
21.8613
9.36648
20.9187
8.62278
19.4481
7.96103
17.0738
7.78489
13.4401
8.23188
8.26996
8.78338
2.32272
7.428
-2.54641
4.85909
-6.86748
0.91249
-11.1036
-3.86105
-15.3539
-9.06167
-19.2563
-14.5646
-22.257
-20.1821
-23.6396
-25.9714
-23.9364
-30.9618
-23.6362
-33.3876
-22.5081
-33.8782
-20.8554
-32.8153
-19.0334
-30.5513
-17.2892
-27.5127
-16.0063
-23.7103
-15.6133
-18.7507
-16.4926
-13.0185
-17.5326
-8.53296
-17.0499
-4.63686
-15.2478
-1.20863
-12.3156
2.23685
-8.23461
5.87356
-2.59492
9.81695
4.43204
14.806
13.1122
21.745
23.2849
31.4016
34.8388
43.2673
48.5256
59.2796
64.9981
79.3758
85.3765
104.689
110.115
137.897
140.994
182.337
177.547
244.012
220.633
318.73
295.05
388.028
12.0321
27.0114
22.3387
32.3569
23.2427
32.2811
22.7787
30.614
22.3844
28.8969
22.4182
27.0694
23.3094
24.5879
25.1352
21.8624
26.9613
20.3384
26.5831
20.1435
26.0525
20.2115
25.7618
20.0069
25.7064
19.8536
25.5505
20.0948
24.8077
20.8968
23.5543
22.2965
21.6891
24.2009
19.6366
25.6574
18.6076
25.1498
18.5447
24.7008
18.3359
24.4383
18.202
24.0639
18.5018
23.1117
19.4159
21.7408
20.8816
20.0515
22.6205
18.2522
24.2504
17.4474
23.9908
17.6209
23.8142
17.6449
23.8161
17.7089
23.6682
18.1369
22.8822
19.0832
21.613
20.4699
19.9703
22.0197
18.1516
23.4219
17.1601
23.103
16.7925
22.8458
16.5465
22.6312
16.3822
22.2557
16.6189
21.2721
17.4276
19.8519
18.7492
18.1073
20.3205
16.2349
21.8406
15.2173
21.7291
14.8383
21.7543
14.6193
21.7617
14.6695
21.349
15.0371
20.7002
15.6591
19.7741
16.5053
18.6468
17.4263
17.1504
18.8415
15.1877
20.3729
13.6376
20.1687
12.9859
19.6636
12.673
18.6184
12.4452
17.4051
12.0008
15.8876
11.5071
13.6162
11.2835
10.3585
11.1669
6.38867
10.7005
3.57986
6.81459
0.356375
2.79761
-3.21615
-1.6791
-7.24223
-6.73785
-11.5115
-12.373
-15.8437
-18.1589
-19.9032
-23.5448
-22.9725
-28.3712
-25.1658
-32.4241
-27.4302
-33.7587
-28.0056
-33.657
-27.2605
-32.1724
-25.7754
-29.5702
-24.1571
-26.3285
-22.8955
-22.6461
-22.1067
-18.6636
-21.7082
-14.8441
-20.1658
-12.6356
-18.0402
-10.4453
-15.5082
-8.12469
-12.5724
-5.5027
-9.08295
-2.03751
-5.13521
1.83175
0.167743
6.34563
7.02727
12.3605
14.9488
20.4526
24.4233
31.3348
35.1767
45.02
48.3627
61.8946
64.154
82.5283
82.4202
108.052
102.556
140.329
122.958
182.018
147.114
220.541
197.657
269.47
8.95638
35.2964
21.7373
34.9707
25.0513
33.5921
25.0506
32.0373
24.3154
30.1828
24.0952
28.2863
24.5181
26.1071
25.4457
23.9911
26.2206
22.7342
26.1989
21.8248
26.245
21.1765
26.2878
20.7131
26.2104
20.5451
25.9178
20.7773
25.2651
21.3914
24.2503
22.4265
22.8307
23.6879
21.3668
24.5404
20.5207
24.6099
19.8213
24.7462
19.233
24.6818
18.9852
24.3143
19.2065
23.5596
19.8621
22.5095
20.9219
21.2398
22.19
19.9358
23.2463
19.2936
23.5537
18.8415
23.9494
18.4993
24.142
18.4595
23.9969
18.8181
23.4011
19.5156
22.4389
20.5129
21.1864
21.6376
19.7958
22.5117
18.9375
22.7218
18.1441
22.9196
17.5715
22.9196
17.292
22.6016
17.4477
21.8538
18.0023
20.7729
18.9323
19.4385
20.069
18.0097
21.0562
17.1334
21.4551
16.3494
21.8829
15.8334
22.0682
15.7078
21.9024
15.862
21.4809
16.2783
20.7751
16.9158
19.8304
17.7443
18.5052
18.8456
16.9427
19.7898
15.7946
19.9223
14.8278
19.8529
14.1396
19.3194
13.5959
18.4275
13.0943
17.0876
12.7089
14.993
12.539
12.2371
12.1563
9.00753
10.5965
6.16106
8.24358
2.9641
4.82832
-0.558539
0.629955
-4.37797
-4.29369
-8.572
-9.61647
-12.9524
-15.1274
-17.3368
-20.1402
-21.4639
-24.8226
-24.6149
-28.2654
-26.4189
-30.3704
-26.5015
-31.1418
-25.3626
-30.2447
-23.9184
-27.642
-22.14
-24.3696
-20.5534
-20.937
-19.2614
-17.7254
-17.7056
-14.3383
-16.4443
-11.5803
-15.0489
-8.68251
-13.1402
-5.87059
-10.5211
-2.97362
-7.14618
0.354846
-2.71902
4.34662
2.87786
9.46651
9.46359
16.3317
17.2885
25.029
26.8754
36.0618
38.741
50.0456
53.1994
67.8822
70.8317
90.8263
91.6377
120.111
116.368
158.308
142.803
201.15
180.37
239.735
229.224
273.855
6.725
20.7842
15.7269
25.574
20.3425
27.4008
22.0011
27.3943
22.7999
26.4159
23.3966
25.0253
24.2601
23.407
25.1945
22.0639
25.6117
21.6005
25.095
21.5451
24.5858
21.549
24.2297
21.509
23.9289
21.6083
23.5054
22.0056
22.8028
22.6837
21.8772
23.5677
20.8232
24.3852
20.0085
24.5917
19.8393
23.9826
19.8566
23.4313
19.8157
22.8672
19.9029
22.1666
20.2855
21.2335
20.9538
20.2056
21.801
19.2463
22.5868
18.5513
22.972
18.5654
22.6317
18.8232
22.3936
19.0463
22.1502
19.3776
21.7428
19.9422
21.0381
20.6973
20.1457
21.5355
19.2101
22.2387
18.4241
22.4937
18.1806
22.0429
18.0647
21.5751
18.013
21.054
18.0846
20.372
18.4234
19.4219
19.0064
18.3314
19.748
17.2548
20.4378
16.3938
20.774
16.1437
20.4799
16.09
20.2124
16.1737
19.8663
16.4536
19.3499
16.8651
18.733
17.3817
18.0044
17.9654
17.1961
18.5825
16.2375
19.2508
15.294
19.5747
14.8205
19.0614
14.6302
18.3261
14.5718
17.3238
14.4647
16.1707
14.2112
14.7539
13.9022
12.833
13.4326
10.527
12.6884
8.26582
10.8315
5.88414
7.94163
3.05113
4.19533
-0.214595
-0.247453
-4.1208
-5.3094
-8.60921
-10.9502
-13.5929
-16.8374
-18.7594
-22.4975
-23.6227
-27.4574
-28.0734
-31.2822
-31.1
-33.6372
-31.8503
-34.2275
-31.3132
-32.6785
-29.9115
-29.7985
-27.9216
-26.4777
-25.8099
-23.2944
-24.0343
-20.268
-22.4644
-17.7962
-20.2791
-15.8027
-18.2006
-13.9779
-16.0302
-11.9194
-13.8231
-9.51069
-11.3431
-6.65663
-8.20676
-3.53381
-4.02078
0.561179
0.983208
5.89881
7.13688
12.7413
14.6255
21.5557
23.5401
32.7415
33.8639
46.8625
45.7575
64.4514
59.7546
85.6628
75.615
114.151
92.8208
140.717
121.719
167.348
161.255
202.311
7.59383
30.762
17.0639
30.3088
21.9535
30.1466
23.874
29.4376
24.6232
28.1484
25.0942
26.6642
25.5488
25.1755
25.8909
24.0564
25.8156
23.61
25.3076
23.2285
24.9948
22.837
24.7956
22.5433
24.5323
22.5126
24.1101
22.7956
23.5035
23.2863
22.7898
23.879
22.0507
24.3574
21.5269
24.3285
21.4595
23.9139
21.2724
23.6306
21.0135
23.2408
20.9509
22.6542
21.1809
21.9062
21.6174
21.1397
22.1637
20.4707
22.6315
20.0668
22.8127
20.1241
22.6647
20.1618
22.6852
20.1614
22.6143
20.3426
22.3203
20.7678
21.7879
21.3183
21.1367
21.8814
20.4872
22.3128
19.9419
22.3848
19.7923
22.1138
19.5481
21.886
19.3283
21.5549
19.2794
21.0239
19.4924
20.2831
19.8706
19.4662
20.3318
18.6931
20.7088
18.1025
20.8454
17.9422
20.7018
17.7606
20.6437
17.6678
20.4852
17.7837
20.1681
18.0328
19.745
18.3861
19.2082
18.8094
18.5862
19.2675
17.8425
19.7238
17.1553
19.8488
16.877
19.4697
16.6264
19.0153
16.4025
18.3667
16.1506
17.5232
15.864
16.3656
15.6926
14.761
15.2503
12.9899
14.148
11.0467
12.5465
8.86795
10.3453
6.45352
7.08676
3.39662
3.16914
-0.305673
-1.4927
-4.6308
-6.66891
-9.56437
-12.2965
-14.8309
-17.911
-20.037
-23.0058
-24.7245
-27.1432
-28.0093
-29.8457
-29.4331
-30.9264
-29.2692
-30.1364
-27.7826
-27.5572
-25.3552
-24.2803
-22.6245
-21.188
-20.1581
-18.2524
-18.3114
-15.5884
-16.6527
-13.4162
-14.8179
-11.0908
-12.9202
-8.56096
-10.8285
-5.85011
-8.24052
-2.97942
-4.63644
0.592963
-0.392377
5.17679
4.75267
11.011
11.1211
18.4274
19.0398
27.8805
28.7849
40.1736
40.4154
55.836
54.4513
75.2557
71.474
99.853
90.1167
128.323
114.605
154.502
145.896
179.424
177.375
203.778
5.95036
19.3211
12.9663
22.1839
17.5841
24.1228
20.5503
24.6966
22.2222
24.4608
23.3002
23.7544
24.1418
22.9185
24.661
22.3488
24.639
22.2997
24.1118
22.356
23.6364
22.3827
23.2318
22.4247
22.8238
22.6064
22.3472
22.9863
21.7781
23.4743
21.1975
23.9473
20.6918
24.2043
20.5022
23.9284
20.6278
23.2786
20.7415
22.6628
20.7785
21.9718
20.9023
21.173
21.1795
20.3163
21.5763
19.5611
21.9765
19.0955
22.1598
18.9172
22.0942
19.2071
21.7192
19.5658
21.454
19.9045
21.1429
20.3304
20.7126
20.8685
20.1596
21.4186
19.5921
21.8711
19.1104
22.0985
18.8612
21.8904
18.8897
21.3515
18.9261
20.7847
18.9726
20.1352
19.0993
19.3811
19.3643
18.538
19.6918
17.7193
20.016
17.076
20.1641
16.6987
20.011
16.7449
19.5793
16.8907
19.1861
17.1207
18.7366
17.4682
18.2162
17.8604
17.6802
18.267
17.128
18.6511
16.5906
18.9725
16.0522
19.1804
15.6861
18.9976
15.6429
18.3669
15.7088
17.6168
15.7859
16.7115
15.7835
15.7027
15.6279
14.5105
15.2571
13.1169
14.7257
11.5449
13.693
9.92186
11.8827
7.94689
9.29917
5.57574
6.06094
2.53864
2.03791
-1.16236
-2.82897
-5.78374
-8.38972
-11.1397
-14.5285
-17.1013
-20.9075
-23.1806
-26.9442
-28.8496
-31.9102
-33.181
-35.1529
-35.3095
-36.1066
-35.1457
-34.7444
-33.3536
-31.9019
-30.4883
-28.371
-27.4078
-24.8028
-24.9596
-21.6684
-23.0151
-19.4797
-20.9081
-17.728
-19.0558
-16.0753
-17.2769
-14.2838
-15.6344
-12.3075
-13.8269
-10.1536
-11.4658
-7.56226
-8.42221
-4.22545
-4.62769
0.0874326
0.0977361
5.61116
5.94927
12.8026
12.7669
22.2858
20.6583
34.3598
30.1111
49.0444
41.4593
67.5294
54.7418
86.6702
74.5388
106.272
100.275
129.272
128.882
156.413
9.70876
27.8238
15.4224
27.7938
19.9052
27.5813
22.5847
27.204
24.0796
26.4743
24.9657
25.5549
25.4957
24.6848
25.6493
24.1467
25.3471
24.0599
24.732
23.9426
24.2711
23.7597
23.9048
23.6113
23.5223
23.6394
23.0759
23.8711
22.5984
24.1932
22.1876
24.4745
21.895
24.5219
21.8878
24.2143
22.0967
23.6128
22.1653
23.1114
22.1152
22.5149
22.1476
21.8142
22.2957
21.1052
22.4897
20.5622
22.6371
20.3032
22.645
20.2641
22.4762
20.5733
22.1425
20.8637
21.9668
21.0892
21.7586
21.3968
21.4387
21.8067
21.0287
22.2109
20.6361
22.4955
20.369
22.536
20.2722
22.3192
20.3986
21.8329
20.4354
21.3814
20.4268
20.8741
20.483
20.2623
20.6516
19.5841
20.8418
18.9611
20.9852
18.5235
20.9255
18.3198
20.6595
18.4662
20.2411
18.589
19.9326
18.7373
19.6072
18.9807
19.2337
19.2655
18.8502
19.5589
18.4584
19.826
18.0911
20.0184
17.746
20.0878
17.5549
19.8766
17.6593
19.3126
17.7679
18.7355
17.8288
18.0811
17.7894
17.3642
17.7073
16.4652
17.4638
15.3663
16.8978
14.2866
15.8266
13.0586
14.3912
11.5132
12.3835
9.51885
9.66437
6.92967
6.13738
3.59293
1.89238
-0.737226
-3.16065
-5.95039
-8.95457
-11.8804
-15.2477
-18.1709
-21.4829
-24.1963
-27.0249
-29.0263
-31.0499
-32.089
-32.9916
-32.932
-32.7767
-31.5023
-30.2883
-28.329
-26.3843
-24.5665
-22.3399
-21.3316
-18.978
-19.0935
-16.6286
-17.2862
-14.6712
-15.51
-12.6123
-13.6653
-10.4071
-11.827
-8.14128
-9.76117
-5.74071
-7.13251
-2.8295
-3.98038
0.846192
-0.0981659
5.5163
4.80586
11.4496
10.894
19.4107
18.0764
29.8681
26.7887
42.9194
37.7994
58.7162
50.9988
77.163
68.166
95.8712
89.6501
115.232
112.416
135.116
133.898
153.888
6.11892
19.5283
11.793
20.6498
16.2159
21.9924
19.3004
22.7807
21.3754
22.9956
22.7396
22.8471
23.6201
22.5916
24.0286
22.4908
23.9277
22.6856
23.4325
22.8632
22.9637
22.9556
22.5267
23.0302
22.0868
23.2002
21.6458
23.4998
21.2305
23.8102
20.9366
24.0206
20.7922
24.0057
20.8742
23.611
21.1833
22.9257
21.3941
22.2504
21.4814
21.4951
21.5759
20.6753
21.6642
19.944
21.7445
19.4094
21.7807
19.1747
21.7108
19.1775
21.5005
19.5898
21.1066
20.0382
20.8345
20.4495
20.5315
20.9027
20.1622
21.3802
19.7633
21.7724
19.4472
21.9653
19.2639
21.9438
19.2286
21.5929
19.4251
20.9699
19.5657
20.3343
19.6566
19.6262
19.7681
18.8818
19.9176
18.1562
20.0142
17.5541
20.0191
17.1343
19.9099
16.9429
19.5065
17.1532
18.967
17.4225
18.5079
17.7327
18.0401
18.1022
17.5565
18.4599
17.1098
18.7726
16.7088
19.0024
16.3912
19.1013
16.1461
19.0539
16.047
18.6886
16.2335
17.999
16.4595
17.2763
16.6352
16.4768
16.7118
15.6109
16.6119
14.7169
16.2995
13.7803
15.6491
12.7965
14.6385
11.5513
13.1626
9.98568
11.0451
8.06896
8.2708
5.54753
4.71656
2.13723
0.410189
-2.31869
-4.89401
-7.80779
-11.1774
-14.2634
-18.2228
-21.354
-25.5186
-28.393
-32.2373
-34.4206
-37.1735
-38.1845
-39.447
-39.082
-38.601
-37.1882
-35.3835
-33.4349
-30.8198
-29.1318
-26.1907
-25.6061
-22.548
-23.1502
-20.1818
-21.3719
-18.6266
-19.8032
-17.4205
-18.3253
-16.0214
-17.0722
-14.4452
-15.8651
-12.7575
-14.2609
-10.7473
-12.1215
-8.11675
-9.33141
-4.73952
-5.76289
-0.284257
-1.57291
5.86633
3.28003
13.8314
9.15076
23.5797
16.7514
35.5412
26.3655
48.1124
40.4022
62.7043
57.7096
79.9209
77.8738
100.02
99.5545
120.839
11.1078
26.6152
15.506
25.9708
19.0362
25.6631
21.576
25.4132
23.2643
25.0584
24.3335
24.6139
24.9487
24.2189
25.1217
24.0708
24.8361
24.2219
24.258
24.2826
23.7639
24.2697
23.3045
24.2112
22.8701
24.2466
22.4224
24.4046
22.0694
24.5786
21.9168
24.6747
21.8832
24.6107
22.1229
24.1668
22.5451
23.4899
22.7575
22.9569
22.7903
22.3085
22.7921
21.5699
22.7867
20.8918
22.7515
20.4908
22.6068
20.3219
22.4928
20.3294
22.1887
20.7617
21.7788
21.1975
21.5134
21.5729
21.2453
21.9585
20.9464
22.341
20.6549
22.6363
20.4585
22.7467
20.4167
22.6811
20.5302
22.3018
20.8358
21.722
21.0357
21.1564
21.1388
20.5595
21.2238
19.9139
21.311
19.3126
21.3571
18.8605
21.2417
18.5728
20.9325
18.49
20.465
18.7834
19.9072
19.0604
19.4699
19.3409
19.0664
19.658
18.6808
19.9595
18.3478
20.2053
18.0758
20.3589
17.9044
20.3885
17.8003
20.2608
17.8783
19.8913
18.1869
19.2724
18.4905
18.6694
18.7339
18.0449
18.8541
17.4586
18.797
16.8607
18.5179
16.2555
17.9764
15.5803
17.1767
14.7277
16.014
13.6748
14.3226
12.2199
12.0485
10.1441
9.10378
7.12016
5.39968
3.06656
0.62572
-2.14624
-5.29375
-8.52198
-12.2279
-15.8101
-19.7403
-23.3818
-27.0579
-30.1486
-33.0645
-35.073
-36.7298
-37.3894
-37.5205
-36.7487
-35.0678
-32.95
-29.8884
-27.5111
-24.1598
-22.8235
-19.8836
-19.9217
-17.4404
-17.9935
-15.7569
-16.2001
-13.9747
-14.4426
-11.9838
-12.8481
-10.0434
-11.3715
-8.19357
-9.60915
-6.0289
-7.5585
-3.37693
-4.90753
0.0540252
-1.52866
4.72609
2.41195
11.3028
7.18347
19.7357
13.4069
29.8148
21.9228
41.0045
33.6888
53.6432
47.8795
68.0338
63.955
83.6137
80.8451
99.5345
98.1986
114.723
6.37631
20.0839
11.7031
20.1731
15.7543
20.8732
18.6644
21.5541
20.7185
21.9804
22.1286
22.1797
23.0337
22.3029
23.4393
22.518
23.3884
22.8973
22.9706
23.1891
22.5408
23.3302
22.054
23.437
21.5658
23.5912
21.1693
23.7938
20.8928
23.9253
20.8203
24.0247
20.8865
23.8949
21.1738
23.4562
21.6282
22.77
21.9785
22.1011
22.0629
21.3762
22.0616
20.6028
21.9609
19.8903
21.7949
19.3721
21.6311
19.1276
21.3679
19.3119
21.0986
19.7995
20.6975
20.3372
20.4363
20.8083
20.1575
21.28
19.8616
21.7073
19.5842
21.9973
19.4211
22.0578
19.4365
21.9084
19.5818
21.4803
19.8817
20.8128
20.1052
20.1478
20.207
19.4554
20.2364
18.7391
20.261
18.0615
20.2381
17.5501
20.0892
17.2035
19.7292
17.1658
19.1901
17.4529
18.559
17.8028
18.0567
18.1706
17.5918
18.5576
17.1515
18.8901
16.787
19.1315
16.5093
19.2436
16.3496
19.2036
16.3197
19.0085
16.395
18.5678
16.6951
17.8555
17.0348
17.1545
17.3026
16.4313
17.4582
15.7508
17.3755
15.1827
17.0489
14.619
16.5174
13.9434
15.7409
13.11
14.5529
12.0836
12.8245
10.7173
10.627
8.71594
7.84453
5.78939
4.2214
1.84518
-0.544438
-3.35679
-6.63312
-9.963
-14.0787
-17.8573
-22.5829
-26.4857
-31.3344
-34.8064
-38.7837
-41.0476
-43.2933
-43.81
-43.8034
-42.5153
-40.4393
-38.0136
-34.4481
-31.5844
-27.6746
-25.9087
-22.6476
-22.4878
-20.07
-21.1304
-19.0331
-20.1769
-18.2908
-19.1337
-17.1902
-18.145
-15.9129
-17.3482
-14.6287
-16.3821
-13.0815
-15.016
-11.0846
-13.0689
-8.47288
-10.7213
-4.62016
-8.26769
0.565828
-5.06267
6.82732
-0.502978
13.7544
6.2626
21.6927
15.1199
31.4437
26.4857
43.4452
40.3663
58.0225
56.3638
74.3005
73.8465
91.1169
12.9608
25.8375
16.2979
24.7301
18.9545
24.2619
20.994
24.0637
22.5074
23.9217
23.5731
23.7821
24.2276
23.7142
24.4848
23.851
24.3014
24.1919
23.8311
24.4136
23.4057
24.4767
22.9398
24.4836
22.4096
24.5486
21.9129
24.6375
21.6973
24.6705
21.673
24.7376
21.8409
24.6085
22.261
24.1311
22.8337
23.4294
23.272
22.7796
23.3504
22.2207
23.2864
21.5485
23.1147
20.8847
22.8655
20.462
22.5413
20.2502
22.333
20.2566
21.936
20.7531
21.4733
21.2768
21.1798
21.8038
20.8656
22.2555
20.6016
22.6185
20.4123
22.8334
20.3511
22.8816
20.4536
22.7328
20.7203
22.3133
21.1512
21.7024
21.4704
21.0838
21.6524
20.4371
21.7014
19.7921
21.7118
19.2437
21.592
18.8699
21.3434
18.6027
20.8802
18.6182
20.2793
18.954
19.6288
19.3047
19.1069
19.6647
18.6622
20.0352
18.2837
20.3512
17.999
20.5668
17.8192
20.6488
17.7719
20.5745
17.8332
20.3522
18.0619
19.905
18.5062
19.2595
18.934
18.6509
19.2825
18.0751
19.4855
17.6084
19.4222
17.3025
19.1699
16.9746
18.7759
16.5775
18.1697
16.1197
17.2114
15.5508
15.8765
14.5295
14.1777
12.8853
11.9692
10.4267
8.90506
6.9338
4.67358
2.0883
-1.0258
-4.36417
-8.3509
-12.4297
-17.1025
-21.6721
-26.5281
-30.9341
-35.2343
-38.5805
-41.4851
-43.3229
-44.241
-44.2715
-42.5941
-40.3293
-36.1237
-32.539
-27.389
-24.7967
-20.8352
-20.1229
-17.8865
-18.0353
-16.5573
-16.5639
-15.0511
-14.8963
-13.3558
-13.5287
-11.699
-12.6324
-10.363
-11.6463
-9.0391
-10.6423
-7.26459
-9.37905
-4.79412
-7.85417
-1.09173
-5.94603
3.9345
-3.07928
9.76977
1.70655
16.1064
8.42154
24.0457
16.9947
33.4529
27.3938
44.0968
39.4877
56.0545
53.1388
69.0463
67.8039
82.1464
7.94026
20.6329
12.6027
20.2448
16.0843
20.478
18.5595
20.9292
20.3584
21.3663
21.6689
21.7141
22.5623
22.0414
22.9292
22.4899
22.9839
23.0225
22.6394
23.4643
22.2513
23.6325
21.8568
23.7086
21.3607
23.7996
20.8623
23.931
20.7034
23.9111
20.6968
23.9713
20.9364
23.8348
21.392
23.4106
22.0031
22.7541
22.498
22.0767
22.7008
21.3981
22.6176
20.6982
22.3731
19.9762
21.9511
19.3968
21.5604
19.0381
21.0884
19.3419
20.8422
19.9009
20.4229
20.542
20.1545
21.0955
19.9014
21.5867
19.6819
21.9724
19.5071
22.167
19.4834
22.1691
19.6022
21.9481
19.8738
21.4903
20.2936
20.803
20.6244
20.1114
20.775
19.4006
20.7353
18.7297
20.6387
18.1259
20.4951
17.6427
20.2017
17.3535
19.6697
17.3846
19.015
17.7052
18.2959
18.1146
17.7457
18.5343
17.2803
18.945
16.8788
19.2699
16.5839
19.4653
16.4058
19.5043
16.3668
19.3759
16.4532
19.0858
16.6725
18.59
17.0809
17.8602
17.5235
17.1763
17.8667
16.5364
18.0473
16.0238
17.9522
15.7164
17.7056
15.3906
17.3261
15.0201
16.7405
14.6498
15.7827
14.1682
14.4884
13.2125
13.0114
11.7321
11.0236
9.53273
8.2427
6.36781
4.32585
1.86216
-1.12056
-4.36679
-8.43866
-12.5742
-17.7261
-22.5914
-28.4996
-33.5018
-39.1133
-43.2839
-47.1171
-49.1568
-50.3209
-49.9789
-47.9624
-45.3726
-40.5434
-36.204
-29.9626
-26.2534
-21.6363
-20.6712
-18.792
-20.032
-18.9483
-20.3238
-19.1674
-19.8764
-18.0211
-18.787
-17.0201
-18.0891
-16.2303
-17.4491
-15.1759
-16.687
-13.6716
-15.6894
-11.5527
-14.4995
-8.44911
-13.1349
-4.43191
-10.9261
-0.18912
-7.15066
4.54245
-2.00777
10.2628
4.72467
17.4503
13.5172
26.7351
24.0655
37.8459
36.3712
50.7094
50.3669
64.8663
14.7346
25.2427
17.3217
23.7822
19.2639
23.2663
20.7094
23.1085
21.8882
23.0324
22.8685
23.0279
23.5398
23.1833
23.8437
23.5063
23.7652
24.0362
23.3762
24.479
22.9785
24.6041
22.6369
24.6085
22.1354
24.6111
21.6153
24.6046
21.3964
24.5787
21.4057
24.6302
21.6816
24.5502
22.2574
24.0707
22.9961
23.3444
23.6729
22.6334
23.812
22.1596
23.7237
21.5798
23.4567
20.9808
22.9716
20.4345
22.4894
20.0732
22.1355
20.0286
21.6837
20.5986
21.1204
21.3002
20.7462
21.9463
20.4662
22.4475
20.2641
22.7968
20.1547
22.9398
20.2176
22.9592
20.4269
22.7539
20.8086
22.3241
21.373
21.6944
21.8391
21.0373
22.1178
20.3306
22.0989
19.7096
21.989
19.1791
21.7763
18.8074
21.4109
18.5843
20.8232
18.6513
20.0949
18.9931
19.3267
19.3981
18.7278
19.8306
18.2573
20.2555
17.8934
20.5973
17.6533
20.7956
17.5475
20.8259
17.5968
20.6831
17.7764
20.3878
18.1141
19.8877
18.6626
19.1968
19.2024
18.5731
19.627
18.0407
19.8497
17.6834
19.7993
17.5231
19.6177
17.3711
19.3397
17.2032
18.88
17.0789
18.1224
16.8878
17.0917
16.2435
15.9584
15.1157
14.4188
13.3417
12.1502
10.6503
8.77145
6.59763
3.78331
0.674594
-3.31044
-7.55582
-12.8175
-18.1623
-24.3974
-30.2485
-36.4902
-41.7957
-46.8681
-50.3999
-52.8951
-54.218
-53.4175
-51.8846
-46.955
-41.9689
-33.8978
-28.2495
-21.5102
-19.0065
-16.6754
-16.7518
-16.3544
-16.387
-15.4917
-15.4276
-14.2815
-14.0127
-13.0012
-13.3173
-12.2359
-12.8844
-11.6224
-12.7837
-10.8652
-12.6681
-9.48546
-12.3418
-6.90315
-11.8456
-3.41432
-10.1605
0.0681845
-7.37829
4.17386
-3.47687
9.26323
1.91966
15.4088
8.95597
22.8034
17.7034
31.6354
28.3337
42.1316
40.7144
53.8355
9.89058
21.3799
14.3277
20.607
16.9975
20.5746
18.8231
20.7464
20.2855
21.0464
21.4351
21.4018
22.1986
21.8635
22.5829
22.4106
22.6584
23.1275
22.3128
23.7826
21.9697
23.9828
21.7263
24.0753
21.2357
24.063
20.8066
23.9685
20.5341
23.8645
20.5395
23.8461
20.888
23.7674
21.5271
23.3763
22.3465
22.7294
23.0199
22.1304
23.3666
21.5029
23.2543
20.9302
22.8667
20.2725
22.2292
19.5057
21.5764
18.9831
20.8559
19.305
20.6939
19.9803
20.1694
20.7539
19.891
21.3847
19.6745
21.8974
19.5442
22.2282
19.4782
22.3623
19.5249
22.316
19.7104
22.0514
20.102
21.5475
20.6946
20.8287
21.1977
20.1366
21.4486
19.4326
21.305
18.8255
21.0662
18.262
20.79
17.822
20.3881
17.5773
19.7308
17.6262
18.9495
17.9745
18.1097
18.4275
17.4864
18.8916
17.0133
19.3354
16.6488
19.6706
16.422
19.8304
16.3373
19.8053
16.4002
19.6021
16.5917
19.2418
16.9244
18.6863
17.4473
17.9252
17.9928
17.2415
18.404
16.6686
18.5996
16.2661
18.5569
16.0827
18.3711
15.9441
18.0981
15.8507
17.6659
15.7921
16.9662
15.7638
15.9325
15.2595
15.0271
14.3149
13.7813
12.8534
11.9005
10.6073
9.03737
7.13091
4.64891
1.82486
-1.9064
-5.96858
-11.2396
-16.7234
-23.5221
-29.9828
-37.3981
-43.5851
-49.759
-54.0372
-57.3751
-59.5835
-58.6787
-57.3938
-52.1977
-46.3533
-36.66
-29.1735
-20.4519
-16.908
-15.0907
-16.9224
-17.7443
-21.0596
-20.4396
-20.4795
-18.7595
-18.7878
-17.5896
-18.1361
-17.4172
-17.8089
-16.8277
-17.4181
-15.8959
-17.3083
-14.6441
-17.1234
-12.5551
-16.5848
-9.85443
-15.1649
-7.08096
-12.9828
-3.93787
-9.64474
-0.327631
-5.10347
4.5904
0.804356
10.8477
8.52126
18.2615
17.384
27.5007
27.8236
40.1633
16.732
24.0153
18.6368
22.9642
19.7269
22.5794
20.6705
22.5563
21.3433
22.3464
22.3017
22.376
22.9192
22.7038
23.2074
23.132
23.2357
23.8585
22.8422
24.4799
22.5719
24.707
22.2563
24.7924
21.8756
24.6621
21.4271
24.5474
21.1173
24.467
21.0753
24.5015
21.3939
24.414
22.0873
23.9217
23.0388
23.1572
23.9497
22.4884
24.1326
22.1361
24.0981
21.7271
23.7849
21.2028
23.2256
20.4841
22.5233
19.811
21.9974
19.4972
21.4479
20.3706
20.6523
21.3369
20.162
22.0485
20.0124
22.5274
19.9356
22.8962
19.8846
23.0384
20.0193
23.0001
20.2945
22.7451
20.8031
22.2667
21.5454
21.6036
22.1839
20.9536
22.5876
20.2588
22.4569
19.6623
22.1941
19.0829
21.8855
18.7326
21.4274
18.6013
20.7752
18.6333
19.9015
18.9651
18.965
19.4169
18.2676
19.924
17.7796
20.4088
17.4364
20.7877
17.2484
20.9674
17.2147
20.9482
17.3487
20.7438
17.6192
20.384
18.0544
19.8125
18.7195
19.0291
19.3928
18.3638
19.8898
17.8589
20.1408
17.5473
20.1382
17.4277
19.9788
17.3966
19.7404
17.3947
19.4152
17.5308
18.7913
17.7355
17.9065
17.4565
17.2556
16.7975
16.3393
15.7077
14.9074
13.9489
12.6171
11.0738
8.87796
6.38459
2.87624
-0.99777
-6.30035
-11.8956
-19.3285
-26.4797
-35.0132
-42.7647
-50.7037
-56.4521
-61.0263
-64.9959
-65.7785
-66.1154
-62.5229
-57.1866
-46.0228
-35.9062
-23.1731
-16.5434
-11.9322
-12.557
-13.1759
-14.5058
-16.4274
-16.9872
-15.5164
-14.7515
-13.4739
-13.4746
-13.2061
-13.6824
-13.6506
-14.2972
-13.6525
-14.9598
-13.1997
-15.3037
-11.7628
-15.5076
-9.41039
-15.056
-7.2373
-13.8516
-4.87344
-12.0142
-1.90178
-9.10934
1.60619
-4.8641
6.27363
0.507186
11.8057
6.7052
18.3667
15.2561
27.938
13.8836
21.6891
16.4606
20.9669
18.1759
20.7424
19.5192
20.7766
20.7022
20.7969
21.4791
21.2428
21.9449
21.7697
22.3376
22.2859
22.3359
23.2613
21.9446
23.9683
21.7261
24.4395
21.5032
24.506
21.2376
24.3596
20.8215
24.0977
20.4418
23.8884
20.3058
23.7133
20.8195
23.6671
21.5827
23.2881
22.67
22.5626
23.5055
22.1386
23.9387
21.6882
23.887
21.2405
23.4529
20.6298
22.687
19.7807
21.7508
19.1058
20.8866
19.1219
20.5311
20.1305
19.7923
21.1698
19.4898
21.7552
19.4174
22.2253
19.3926
22.5077
19.4247
22.593
19.5175
22.5175
19.7342
22.1821
20.2721
21.5664
21.1196
20.7723
21.8652
20.128
22.204
19.6107
21.9959
19.0497
21.5783
18.4696
21.1494
18.0298
20.6569
17.8211
19.9671
17.9453
19.0044
18.3452
17.9251
18.8287
17.1877
19.2952
16.7051
19.78
16.3696
20.1502
16.2344
20.2639
16.2614
20.167
16.4295
19.8902
16.726
19.4552
17.1832
18.8105
17.8678
17.9492
18.5423
17.2523
19.0122
16.7458
19.2211
16.4287
19.2053
16.3094
19.0416
16.3195
18.7932
16.3878
18.4917
16.5904
17.9451
16.9306
17.0855
16.7858
16.6078
16.3268
15.9721
15.5263
14.92
14.1954
13.1695
11.9417
10.1611
8.07869
5.03872
1.57736
-3.38055
-8.81333
-16.255
-23.8191
-33.054
-41.4323
-50.3642
-56.5429
-61.7303
-67.085
-68.651
-70.7183
-68.4965
-65.0944
-51.9656
-39.7009
-23.1918
-12.156
-7.3927
-10.0113
-16.9444
-21.1978
-21.4092
-21.8241
-19.5615
-18.7182
-17.255
-17.8568
-17.3679
-17.8502
-16.8948
-17.5554
-16.6559
-18.3311
-16.5717
-18.8295
-15.4956
-18.9417
-13.6777
-18.1637
-12.117
-17.3981
-10.29
-15.866
-8.48727
-13.9845
-6.47164
-10.8636
-2.9611
-5.35305
1.07914
-0.660397
5.63284
5.90754
15.0743
18.9498
23.4826
19.6541
22.649
20.0625
22.1348
20.6017
21.9203
21.2266
21.8577
21.8365
22.0117
22.3419
22.3349
22.6706
22.832
22.7055
23.7577
22.2496
24.4176
22.0263
24.7433
21.9551
24.7813
21.7734
24.737
21.4111
24.5769
21.0586
24.4463
20.7375
24.4418
21.0919
24.2372
21.7337
23.6128
23.0074
22.7138
24.1237
22.2579
24.3437
22.0447
24.3158
21.884
24.1244
21.5497
23.5856
20.7306
22.6702
19.7025
21.8424
19.1693
20.8388
20.3173
19.9092
21.5022
19.5557
22.102
19.5903
22.495
19.634
22.9486
19.5926
23.1113
19.7503
23.045
20.0844
22.6624
20.782
22.0331
21.755
21.3061
22.4914
20.7734
22.9548
20.2764
22.7805
19.7135
22.3059
19.0327
21.8809
18.717
21.468
18.5597
20.7675
18.6259
19.713
19.0224
18.5323
19.4626
17.7315
20.0232
17.2082
20.5555
16.886
20.959
16.7982
21.087
16.8441
21.0166
17.0516
20.7458
17.3965
20.3164
17.9407
19.6346
18.7855
18.6928
19.6062
17.9864
20.1327
17.5413