/*--------------------------------*- C++ -*----------------------------------*\
| =========                 |                                                 |
| \\      /  F ield         | OpenFOAM: The Open Source CFD Toolbox           |
|  \\    /   O peration     | Version:  4.1                                   |
|   \\  /    A nd           | Web:      www.OpenFOAM.org                      |
|    \\/     M anipulation  |                                                 |
\*---------------------------------------------------------------------------*/
FoamFile
{
    version     2.0;
    format      ascii;
    class       volScalarField;
    location    "28";
    object      p;
}
// * * * * * * * * * * * * * * * * * * * * * * * * * * * * * * * * * * * * * //

dimensions      [0 2 -2 0 0 0 0];

internalField   nonuniform List<scalar> 
6750
(
-77.8701
-42.9034
-101.217
-106.648
-123.238
-130.618
-136.632
-140.47
-142.728
-141.791
-143.064
-137.302
-141.224
-68.6587
-144.783
-77.7355
-42.505
-100.851
-106.496
-123.454
-130.926
-137.021
-140.534
-142.691
-141.767
-143.09
-137.436
-141.055
-68.1778
-144.739
-77.6063
-42.1242
-100.571
-106.445
-123.659
-131.176
-137.335
-140.538
-142.652
-141.757
-143.131
-137.41
-140.914
-67.7065
-144.739
-77.4416
-41.6112
-100.2
-106.371
-123.912
-131.474
-137.654
-140.587
-142.6
-141.759
-143.175
-137.244
-140.838
-67.384
-144.608
-77.2851
-41.0429
-99.8429
-106.328
-124.157
-131.736
-137.935
-140.735
-142.676
-141.841
-143.163
-136.654
-140.701
-67.125
-144.474
-77.1513
-40.4674
-99.4933
-106.281
-124.376
-131.987
-138.332
-141.028
-142.664
-141.897
-143.093
-136.873
-140.699
-66.8195
-144.326
-77.0757
-39.9895
-99.2107
-106.232
-124.511
-132.178
-138.589
-141.007
-142.669
-141.962
-142.977
-137.306
-140.656
-66.5361
-144.181
-77.0782
-39.8539
-99.1264
-106.215
-124.554
-132.252
-138.736
-141.12
-142.627
-141.918
-143.017
-137.514
-140.619
-66.2884
-144.092
-77.1475
-40.1109
-99.2854
-106.262
-124.514
-132.212
-138.686
-141.146
-142.658
-141.917
-143.023
-137.335
-140.584
-66.4455
-143.883
-77.2849
-40.6417
-99.6126
-106.334
-124.387
-132.056
-138.405
-141.068
-142.682
-141.93
-143.003
-136.753
-140.5
-66.6669
-143.701
-77.4698
-41.254
-100.001
-106.405
-124.186
-131.806
-138.016
-140.844
-142.719
-141.961
-143.178
-136.668
-140.411
-66.8511
-143.543
-77.6669
-41.8349
-100.382
-106.467
-123.95
-131.545
-137.707
-140.711
-142.707
-141.95
-143.218
-137.177
-140.456
-67.0262
-143.403
-77.8608
-42.3467
-100.77
-106.558
-123.704
-131.25
-137.404
-140.687
-142.805
-142.029
-143.245
-137.623
-140.507
-67.2816
-143.319
-78.0077
-42.723
-101.06
-106.62
-123.502
-131
-137.114
-140.727
-142.848
-142.126
-143.236
-137.748
-140.621
-67.7213
-143.163
-78.1561
-43.1105
-101.434
-106.782
-123.29
-130.691
-136.714
-140.67
-142.935
-142.244
-143.179
-137.684
-140.754
-68.1629
-143.045
-105.196
-30.9078
-103.463
-106.122
-123.753
-130.915
-137.019
-140.668
-143.165
-141.888
-143.76
-136.35
-147.681
-52.0798
-202.14
-105.043
-30.5238
-103.051
-105.91
-123.983
-131.248
-137.465
-140.756
-143.119
-141.86
-143.77
-136.462
-147.466
-51.577
-202.155
-104.913
-30.22
-102.794
-105.842
-124.182
-131.466
-137.766
-140.753
-143.075
-141.849
-143.798
-136.381
-147.261
-51.1263
-202.287
-104.745
-29.7773
-102.406
-105.724
-124.433
-131.753
-138.097
-140.806
-143.011
-141.832
-143.843
-136.243
-147.182
-50.7685
-202.099
-104.601
-29.3006
-102.035
-105.656
-124.669
-131.987
-138.356
-140.914
-143.088
-141.878
-143.852
-135.653
-146.999
-50.4872
-201.921
-104.491
-28.8087
-101.645
-105.583
-124.88
-132.215
-138.733
-141.197
-143.049
-141.893
-143.791
-135.874
-147
-50.1595
-201.717
-104.453
-28.3925
-101.305
-105.519
-125.004
-132.38
-138.974
-141.148
-143.074
-141.946
-143.719
-136.198
-146.94
-49.8817
-201.519
-104.481
-28.2736
-101.199
-105.496
-125.04
-132.44
-139.102
-141.262
-142.988
-141.922
-143.674
-136.376
-146.845
-49.6272
-201.454
-104.541
-28.4899
-101.397
-105.546
-125.003
-132.402
-139.048
-141.27
-143.012
-141.932
-143.68
-136.266
-146.828
-49.756
-201.04
-104.666
-28.9409
-101.779
-105.63
-124.88
-132.266
-138.777
-141.207
-143.033
-141.94
-143.629
-135.766
-146.7
-49.931
-200.682
-104.849
-29.4567
-102.206
-105.726
-124.683
-132.034
-138.399
-140.995
-143.08
-141.973
-143.805
-135.645
-146.557
-50.1019
-200.368
-105.052
-29.9381
-102.596
-105.81
-124.451
-131.799
-138.101
-140.871
-143.033
-141.943
-143.798
-136.101
-146.591
-50.2635
-200.08
-105.261
-30.3772
-102.999
-105.945
-124.205
-131.509
-137.781
-140.825
-143.109
-141.994
-143.82
-136.49
-146.623
-50.5085
-199.915
-105.416
-30.6758
-103.264
-106.022
-124.008
-131.289
-137.495
-140.864
-143.133
-142.05
-143.816
-136.618
-146.782
-50.9001
-199.516
-105.589
-31.0501
-103.681
-106.245
-123.782
-130.954
-137.034
-140.772
-143.245
-142.165
-143.796
-136.597
-146.934
-51.3161
-199.219
-151.011
-6.91441
-105.984
-105.302
-124.72
-131.705
-138.072
-141.248
-144.068
-142.184
-145.171
-134.04
-159.541
-15.7807
-305.314
-150.839
-6.63637
-105.558
-104.996
-124.935
-132.042
-138.554
-141.374
-144.016
-142.159
-145.152
-134.108
-159.232
-15.267
-305.363
-150.716
-6.4926
-105.345
-104.901
-125.104
-132.203
-138.803
-141.356
-143.967
-142.151
-145.151
-133.976
-158.841
-14.8378
-305.641
-150.564
-6.21899
-104.937
-104.704
-125.326
-132.467
-139.129
-141.42
-143.896
-142.121
-145.176
-133.896
-158.772
-14.4505
-305.311
-150.475
-5.94188
-104.54
-104.595
-125.527
-132.65
-139.338
-141.463
-143.945
-142.116
-145.187
-133.371
-158.521
-14.1759
-305.042
-150.436
-5.63308
-104.074
-104.475
-125.704
-132.839
-139.648
-141.689
-143.855
-142.076
-145.107
-133.56
-158.503
-13.8254
-304.702
-150.481
-5.34019
-103.628
-104.392
-125.797
-132.959
-139.838
-141.617
-143.861
-142.083
-145.046
-133.686
-158.379
-13.5281
-304.346
-150.54
-5.24154
-103.477
-104.36
-125.815
-133
-139.924
-141.708
-143.754
-142.082
-144.95
-133.806
-158.114
-13.2284
-304.277
-150.556
-5.38059
-103.753
-104.412
-125.787
-132.961
-139.864
-141.685
-143.766
-142.096
-144.966
-133.751
-158.174
-13.3021
-303.511
-150.63
-5.66615
-104.236
-104.508
-125.684
-132.851
-139.631
-141.653
-143.781
-142.101
-144.876
-133.427
-157.985
-13.3997
-302.834
-150.786
-5.97436
-104.741
-104.647
-125.515
-132.649
-139.299
-141.473
-143.825
-142.122
-145.013
-133.292
-157.737
-13.5113
-302.195
-150.983
-6.23504
-105.147
-104.767
-125.308
-132.457
-139.034
-141.374
-143.724
-142.078
-144.928
-133.631
-157.713
-13.5839
-301.555
-151.208
-6.4964
-105.563
-104.978
-125.087
-132.183
-138.701
-141.29
-143.733
-142.081
-144.909
-133.889
-157.656
-13.7505
-301.169
-151.372
-6.63297
-105.777
-105.08
-124.913
-132.013
-138.447
-141.319
-143.707
-142.075
-144.876
-133.987
-157.953
-14.0641
-300.313
-151.579
-6.90615
-106.204
-105.399
-124.7
-131.67
-137.943
-141.167
-143.796
-142.132
-144.855
-134.008
-158.123
-14.3567
-299.673
-198.164
14.7599
-104.602
-106.165
-126.032
-133.594
-140.145
-142.737
-145.745
-143.223
-147.191
-132.628
-171.54
25.7087
-424.479
-198.008
14.8783
-104.262
-105.806
-126.172
-133.881
-140.572
-142.88
-145.689
-143.21
-147.136
-132.647
-171.074
26.2377
-424.507
-197.925
14.8716
-104.096
-105.694
-126.292
-133.989
-140.743
-142.842
-145.625
-143.197
-147.097
-132.559
-170.33
26.7258
-424.955
-197.849
14.9157
-103.719
-105.445
-126.44
-134.206
-141.017
-142.901
-145.561
-143.174
-147.093
-132.51
-170.313
27.1322
-424.376
-197.891
14.9298
-103.312
-105.316
-126.577
-134.335
-141.161
-142.895
-145.557
-143.118
-147.077
-132.128
-169.996
27.3952
-423.914
-198.02
14.988
-102.785
-105.172
-126.683
-134.478
-141.372
-143.017
-145.414
-143.021
-146.942
-132.21
-169.908
27.7676
-423.306
-198.198
15.0423
-102.232
-105.095
-126.722
-134.554
-141.49
-142.937
-145.364
-142.955
-146.818
-132.152
-169.643
28.1472
-422.65
-198.263
15.0426
-102.027
-105.061
-126.713
-134.573
-141.521
-142.965
-145.221
-142.935
-146.686
-132.227
-169.05
28.6047
-422.506
-198.18
15.0342
-102.381
-105.103
-126.705
-134.529
-141.456
-142.92
-145.203
-142.931
-146.698
-132.138
-169.275
28.6411
-421.184
-198.116
15.0464
-102.959
-105.185
-126.641
-134.441
-141.271
-142.912
-145.221
-142.948
-146.614
-132.002
-169.031
28.6158
-419.975
-198.173
15.0785
-103.526
-105.341
-126.531
-134.27
-141.002
-142.775
-145.241
-142.939
-146.685
-131.908
-168.632
28.5798
-418.787
-198.319
15.1296
-103.939
-105.472
-126.373
-134.116
-140.783
-142.704
-145.115
-142.904
-146.55
-132.119
-168.477
28.605
-417.56
-198.528
15.1063
-104.321
-105.731
-126.217
-133.878
-140.47
-142.595
-145.044
-142.849
-146.472
-132.225
-168.192
28.5852
-416.803
-198.686
15.1177
-104.48
-105.845
-126.083
-133.751
-140.27
-142.61
-144.986
-142.804
-146.422
-132.223
-168.752
28.269
-415.21
-198.901
14.9817
-104.816
-106.215
-125.939
-133.452
-139.808
-142.422
-145.021
-142.78
-146.391
-132.216
-168.942
28.2113
-414.033
-255.447
21.5772
-101.209
-110.675
-128.561
-137.282
-143.898
-145.872
-149.148
-145.861
-150.74
-134.691
-185.896
64.326
-573.912
-255.329
21.6975
-101.01
-110.323
-128.613
-137.501
-144.231
-146
-149.08
-145.85
-150.641
-134.737
-185.29
64.8692
-573.788
-255.294
21.6833
-100.912
-110.212
-128.683
-137.57
-144.325
-145.939
-148.983
-145.811
-150.554
-134.791
-184.195
65.3499
-574.335
-255.352
21.7028
-100.638
-109.961
-128.74
-137.727
-144.52
-145.967
-148.911
-145.789
-150.507
-134.71
-184.27
65.9183
-573.455
-255.577
21.6366
-100.287
-109.838
-128.805
-137.811
-144.597
-145.929
-148.839
-145.691
-150.455
-134.42
-183.897
66.2986
-572.707
-255.812
21.4617
-99.8023
-109.702
-128.825
-137.906
-144.715
-145.955
-148.625
-145.535
-150.229
-134.38
-183.693
66.7325
-571.654
-256.053
21.1406
-99.2622
-109.639
-128.805
-137.943
-144.76
-145.857
-148.494
-145.401
-149.991
-134.244
-183.205
67.2529
-570.484
-256.132
20.9512
-99.0572
-109.606
-128.763
-137.936
-144.739
-145.817
-148.279
-145.326
-149.802
-134.338
-182.202
67.943
-570.014
-256.002
21.1161
-99.4082
-109.643
-128.779
-137.893
-144.666
-145.759
-148.212
-145.288
-149.764
-134.121
-182.517
68.4407
-567.955
-255.783
21.4174
-99.9636
-109.702
-128.76
-137.816
-144.511
-145.756
-148.242
-145.336
-149.74
-134.041
-182.185
68.6349
-565.933
-255.707
21.7346
-100.479
-109.843
-128.72
-137.674
-144.291
-145.652
-148.243
-145.295
-149.734
-133.99
-181.557
68.749
-563.92
-255.8
22.0409
-100.832
-109.954
-128.617
-137.545
-144.11
-145.595
-148.116
-145.261
-149.574
-134.139
-181.15
68.8886
-561.718
-255.98
22.1389
-101.123
-110.207
-128.54
-137.352
-143.837
-145.477
-147.97
-145.14
-149.43
-134.165
-180.462
69.0443
-560.125
-256.128
22.1648
-101.218
-110.312
-128.445
-137.253
-143.686
-145.48
-147.888
-145.079
-149.363
-134.016
-181.241
68.7469
-557.239
-256.338
21.9918
-101.42
-110.675
-128.383
-137.013
-143.294
-145.286
-147.859
-144.978
-149.296
-133.847
-181.283
69.1422
-555.096
-326.998
9.33659
-98.9953
-120.517
-133.14
-143.41
-150.188
-151.512
-155.586
-151.309
-157.766
-142.986
-209.874
89.5303
-768.447
-326.95
9.6285
-98.9109
-120.206
-133.122
-143.563
-150.414
-151.597
-155.451
-151.274
-157.583
-143.08
-209.222
90.278
-767.673
-327.041
9.81689
-98.8762
-120.094
-133.156
-143.608
-150.443
-151.513
-155.287
-151.191
-157.433
-143.292
-208.026
90.7848
-767.972
-327.168
10.0113
-98.7283
-119.869
-133.14
-143.707
-150.55
-151.492
-155.165
-151.151
-157.326
-143.153
-208.005
92.1067
-766.61
-327.378
9.97136
-98.5207
-119.749
-133.148
-143.759
-150.562
-151.435
-155.009
-151.016
-157.203
-142.895
-207.502
92.8723
-765.254
-327.597
9.73295
-98.2191
-119.625
-133.099
-143.807
-150.598
-151.393
-154.676
-150.793
-156.832
-142.758
-207.085
93.5453
-763.329
-327.819
9.21698
-97.8573
-119.573
-133.032
-143.81
-150.58
-151.272
-154.429
-150.599
-156.451
-142.621
-206.358
94.1631
-761.076
-327.899
8.91944
-97.7167
-119.552
-132.963
-143.774
-150.509
-151.171
-154.11
-150.444
-156.167
-142.772
-205.014
94.8838
-759.543
-327.82
9.16046
-97.962
-119.59
-132.997
-143.736
-150.421
-151.103
-153.985
-150.351
-156.025
-142.429
-204.985
96.0973
-756.441
-327.633
9.53361
-98.339
-119.643
-133.01
-143.664
-150.27
-151.075
-154.025
-150.418
-156.066
-142.328
-204.365
96.459
-753.175
-327.553
9.85608
-98.6627
-119.77
-133.023
-143.545
-150.073
-150.968
-154.016
-150.346
-155.998
-142.323
-203.505
96.3612
-749.582
-327.628
10.1625
-98.8717
-119.863
-132.961
-143.425
-149.913
-150.9
-153.886
-150.303
-155.828
-142.499
-202.943
95.9353
-745.598
-327.793
10.1818
-99.0533
-120.082
-132.943
-143.27
-149.675
-150.769
-153.66
-150.086
-155.566
-142.519
-201.908
95.6724
-742.513
-327.924
10.1338
-99.0961
-120.177
-132.872
-143.18
-149.557
-150.76
-153.587
-150.034
-155.512
-142.29
-202.655
95.004
-738.02
-328.124
9.81732
-99.206
-120.499
-132.87
-142.992
-149.234
-150.58
-153.527
-149.88
-155.432
-141.958
-202.424
95.7627
-734.553
-410.932
-13.5548
-101.152
-136.592
-141.169
-153.044
-160.363
-160.815
-166.861
-161.044
-171.417
-159.368
-254.167
103.735
-1017.62
-410.907
-13.2222
-101.099
-136.329
-141.105
-153.144
-160.479
-160.839
-166.572
-160.941
-171.058
-159.454
-253.486
105.135
-1015.58
-410.986
-13.0223
-101.076
-136.215
-141.11
-153.178
-160.455
-160.741
-166.284
-160.79
-170.774
-159.765
-252.295
105.867
-1015.02
-411.059
-12.8091
-101.012
-136.018
-141.054
-153.23
-160.471
-160.668
-166.049
-160.709
-170.523
-159.522
-251.595
108.261
-1012.54
-411.221
-12.8344
-100.939
-135.9
-141.025
-153.259
-160.426
-160.613
-165.802
-160.563
-170.288
-159.292
-250.511
109.815
-1010.05
-411.375
-13.0053
-100.829
-135.794
-140.944
-153.264
-160.39
-160.538
-165.314
-160.274
-169.706
-159.112
-249.631
111.096
-1006.53
-411.55
-13.3591
-100.719
-135.755
-140.856
-153.238
-160.322
-160.405
-164.93
-160.043
-169.17
-159.024
-248.449
112.108
-1002.47
-411.626
-13.5522
-100.691
-135.753
-140.779
-153.175
-160.206
-160.257
-164.489
-159.799
-168.748
-159.299
-246.776
113.021
-998.914
-411.618
-13.3978
-100.805
-135.792
-140.821
-153.154
-160.113
-160.19
-164.34
-159.671
-168.495
-158.87
-245.78
114.732
-993.87
-411.627
-13.0878
-100.952
-135.845
-140.852
-153.096
-159.96
-160.123
-164.404
-159.74
-168.546
-158.739
-244.764
115.325
-987.966
-411.718
-12.8767
-101.073
-135.971
-140.895
-153.003
-159.78
-159.989
-164.405
-159.65
-168.457
-158.744
-243.423
115.579
-982.669
-411.823
-12.7489
-101.15
-136.073
-140.866
-152.889
-159.633
-159.892
-164.284
-159.584
-168.297
-158.928
-242.732
115.816
-976.477
-411.986
-12.8788
-101.269
-136.274
-140.888
-152.766
-159.437
-159.759
-164.04
-159.351
-168.091
-158.968
-241.726
115.705
-970.84
-412.087
-12.9774
-101.304
-136.372
-140.843
-152.675
-159.34
-159.74
-164.01
-159.336
-168.163
-158.832
-242.712
114.349
-961.88
-412.272
-13.3432
-101.412
-136.659
-140.89
-152.532
-159.081
-159.575
-163.945
-159.115
-167.955
-158.138
-242.108
115.806
-955.207
-504.005
-39.1843
-108.424
-158.215
-154.271
-167.286
-176.031
-174.929
-185.41
-176.537
-196.55
-183.635
-329.215
123.335
-1351.17
-504.02
-38.9265
-108.363
-157.996
-154.162
-167.334
-176.027
-174.898
-184.863
-176.381
-196.02
-183.73
-328.62
125.566
-1345.16
-504.168
-38.7569
-108.32
-157.878
-154.13
-167.351
-175.945
-174.796
-184.388
-176.179
-195.557
-184.268
-327.726
126.114
-1341.72
-504.272
-38.5843
-108.287
-157.711
-154.046
-167.364
-175.861
-174.678
-183.958
-176.032
-194.991
-184.141
-326.079
128.535
-1336.24
-504.463
-38.5803
-108.285
-157.604
-153.991
-167.369
-175.752
-174.637
-183.573
-175.886
-194.472
-184.12
-323.956
129.88
-1331.18
-504.635
-38.6087
-108.3
-157.527
-153.903
-167.336
-175.638
-174.548
-182.888
-175.556
-193.621
-184.221
-322.19
131.165
-1324.45
-504.849
-38.7096
-108.352
-157.515
-153.818
-167.282
-175.521
-174.409
-182.329
-175.293
-192.85
-184.277
-320.574
131.444
-1316.54
-505.014
-38.7265
-108.383
-157.536
-153.756
-167.204
-175.36
-174.211
-181.712
-174.967
-192.302
-184.843
-318.566
131.373
-1308.78
-505.133
-38.6622
-108.399
-157.58
-153.805
-167.207
-175.275
-174.152
-181.57
-174.809
-191.827
-184.442
-316.054
133.141
-1301.15
-505.201
-38.5716
-108.404
-157.641
-153.854
-167.176
-175.13
-174.027
-181.648
-174.832
-191.882
-184.475
-313.794
134.535
-1293.59
-505.301
-38.5954
-108.455
-157.779
-153.928
-167.119
-174.974
-173.836
-181.663
-174.669
-191.855
-184.354
-312.528
133.691
-1283.02
-505.396
-38.6332
-108.507
-157.902
-153.946
-167.025
-174.852
-173.691
-181.591
-174.629
-192.045
-184.814
-312.5
130.505
-1270.32
-505.554
-38.8516
-108.629
-158.114
-154.024
-166.938
-174.695
-173.514
-181.265
-174.237
-191.885
-185.05
-311.843
128.237
-1259.1
-505.636
-38.9537
-108.687
-158.228
-154.025
-166.857
-174.625
-173.473
-181.325
-174.199
-192.058
-184.68
-313.608
124.21
-1247.16
-505.822
-39.2827
-108.826
-158.505
-154.144
-166.771
-174.442
-173.328
-181.374
-174.003
-192.007
-184.019
-313.793
125.62
-1236.91
-606.972
-66.6862
-119.913
-185.295
-174.922
-188.492
-200.474
-196.098
-215.345
-199.286
-240.827
-211.763
-456.213
152.702
-1784.93
-607.066
-66.4788
-119.859
-185.121
-174.765
-188.478
-200.307
-196.008
-214.323
-199.084
-239.577
-212.964
-452.606
160.865
-1775.32
-607.318
-66.2952
-119.806
-185.005
-174.69
-188.465
-200.154
-195.934
-213.608
-199.015
-238.745
-213.944
-448.261
161.802
-1766.49
-607.484
-66.1377
-119.807
-184.883
-174.584
-188.451
-199.96
-195.813
-212.926
-198.873
-237.435
-214.392
-442.925
165.962
-1753.38
-607.74
-66.0956
-119.841
-184.818
-174.515
-188.437
-199.794
-195.822
-212.396
-198.814
-236.352
-215.098
-437.743
168.411
-1743.73
-607.962
-66.0477
-119.912
-184.798
-174.448
-188.395
-199.615
-195.763
-211.489
-198.548
-235.039
-215.606
-433.771
171.148
-1730.74
-608.225
-66.056
-120.027
-184.835
-174.409
-188.344
-199.483
-195.665
-210.81
-198.389
-234.131
-216.171
-429.912
172.718
-1717.85
-608.432
-66.0451
-120.097
-184.884
-174.41
-188.293
-199.33
-195.465
-210.041
-198.12
-233.563
-217.222
-426.159
175.161
-1705.14
-608.613
-66.0945
-120.107
-184.942
-174.499
-188.349
-199.345
-195.487
-210.101
-198.034
-233.261
-217.042
-422.647
175.654
-1691.66
-608.75
-66.145
-120.097
-185.02
-174.599
-188.387
-199.319
-195.382
-210.384
-198.047
-233.444
-216.906
-422.601
173.614
-1666.31
-608.928
-66.2878
-120.161
-185.183
-174.748
-188.414
-199.313
-195.219
-210.709
-198.028
-234.173
-217.259
-417.858
175.461
-1655.98
-609.066
-66.3963
-120.219
-185.337
-174.858
-188.395
-199.32
-195.064
-210.812
-197.911
-234.941
-217.262
-419.608
182.536
-1642.87
-609.274
-66.6443
-120.355
-185.586
-175.049
-188.399
-199.332
-194.936
-210.776
-197.739
-236.236
-216.597
-425.024
184.248
-1631
-609.376
-66.7422
-120.42
-185.726
-175.137
-188.385
-199.382
-194.949
-211.242
-197.983
-238.068
-217.012
-436.069
176.568
-1591.7
-609.597
-67.0502
-120.578
-186.021
-175.384
-188.424
-199.39
-194.89
-211.637
-197.825
-238.313
-214.838
-436.238
182.739
-1566.41
-718.154
-97.3
-133.736
-216.807
-202.582
-216.627
-235.571
-225.065
-261.572
-229.794
-312.55
-237.095
-620.606
215.992
-2362.36
-718.352
-97.1093
-133.707
-216.676
-202.378
-216.541
-235.107
-224.897
-259.537
-229.224
-309.848
-235.773
-632.32
223.016
-2331.33
-718.728
-96.889
-133.652
-216.578
-202.257
-216.483
-234.801
-224.852
-258.218
-229.373
-308.155
-241.05
-624.959
234.565
-2324.67
-718.982
-96.7382
-133.683
-216.52
-202.129
-216.45
-234.422
-224.792
-257.031
-229.46
-305.293
-243.626
-609.674
238.106
-2309.4
-719.332
-96.6841
-133.732
-216.519
-202.061
-216.43
-234.163
-224.897
-256.215
-229.599
-302.844
-246.129
-596.594
238.146
-2294.04
-719.635
-96.6361
-133.827
-216.573
-202.039
-216.408
-233.892
-224.891
-254.941
-229.502
-300.796
-248.358
-589.826
236.912
-2271.84
-719.975
-96.6784
-133.958
-216.684
-202.093
-216.401
-233.768
-224.875
-254.065
-229.571
-299.356
-249.195
-585.126
233.314
-2245.86
-720.258
-96.7262
-134.059
-216.786
-202.189
-216.412
-233.672
-224.682
-253.099
-229.467
-299.343
-251.167
-581.206
224.943
-2221.71
-720.54
-96.8523
-134.13
-216.876
-202.359
-216.542
-233.905
-224.842
-253.602
-229.407
-298.791
-250.171
-574.876
225.982
-2191.52
-720.779
-96.9642
-134.17
-216.977
-202.551
-216.674
-234.145
-224.807
-254.382
-229.376
-300.054
-251.251
-569.582
242.572
-2190.16
-721.056
-97.1743
-134.274
-217.183
-202.833
-216.819
-234.44
-224.649
-255.103
-228.926
-301.693
-248.571
-576.437
241.188
-2165.2
-721.265
-97.3226
-134.349
-217.373
-203.079
-216.917
-234.74
-224.512
-255.834
-228.994
-305.644
-247.619
-588.792
222.501
-2123
-721.541
-97.619
-134.511
-217.678
-203.443
-217.068
-235.071
-224.368
-256.237
-228.543
-308.849
-246.636
-592.765
218.269
-2071.03
-721.672
-97.7442
-134.575
-217.848
-203.644
-217.149
-235.341
-224.357
-257.172
-228.147
-310.835
-241.115
-605.538
213.215
-2042.59
-721.934
-98.1
-134.76
-218.195
-204.073
-217.381
-235.72
-224.401
-258.274
-228.002
-312.912
-241.253
-621.606
222.667
-2011.33
-837.153
-136.631
-151.338
-256.001
-240.726
-255.064
-286.839
-265.633
-332.265
-269.375
-420.297
-248.31
-801.926
356.104
-3318.35
-837.478
-136.474
-151.326
-255.935
-240.498
-254.96
-285.982
-265.537
-328.778
-269.31
-414.407
-250.493
-825.902
326.745
-3194.31
-838.002
-136.207
-151.271
-255.884
-240.359
-254.894
-285.489
-265.633
-326.508
-269.7
-411.567
-248.289
-852.535
314.396
-3096.72
-838.389
-136.059
-151.337
-255.905
-240.244
-254.897
-284.871
-265.769
-324.215
-270.577
-405.839
-261.308
-840.614
332.23
-3045.63
-838.868
-136.015
-151.408
-255.979
-240.241
-254.944
-284.569
-266.164
-323.169
-271.577
-401.512
-271.077
-805.79
340.211
-3025.69
-839.297
-136.001
-151.526
-256.123
-240.322
-255.02
-284.291
-266.326
-321.499
-271.96
-398.122
-277.106
-790.829
343.201
-2977.14
-839.758
-136.11
-151.677
-256.333
-240.541
-255.14
-284.336
-266.492
-320.583
-272.232
-396.912
-280.915
-775.823
336.881
-2940.35
-840.167
-136.23
-151.815
-256.527
-240.81
-255.275
-284.521
-266.37
-319.712
-272.172
-397.768
-283.2
-760.469
355.896
-2932.01
-840.588
-136.434
-151.967
-256.71
-241.162
-255.54
-285.27
-266.823
-321.531
-272.642
-400.425
-284.05
-780.906
393.231
-2948.1
-840.954
-136.615
-152.088
-256.885
-241.545
-255.813
-286.123
-267.047
-323.625
-272.576
-403.884
-274.325
-860.771
344.51
-2788.92
-841.342
-136.914
-152.277
-257.178
-242.08
-256.157
-287.163
-267.192
-326.322
-272.851
-412.928
-276.306
-813.777
329.729
-2755.36
-841.632
-137.142
-152.402
-257.427
-242.554
-256.426
-288.133
-267.175
-328.484
-272.655
-418.672
-271.301
-806.104
355.285
-2713.5
-841.976
-137.546
-152.631
-257.827
-243.209
-256.818
-289.254
-267.232
-330.958
-272.312
-431.39
-257.384
-903.072
370.841
-2729.7
-842.143
-137.737
-152.713
-258.037
-243.584
-257.043
-290.101
-267.436
-334.22
-273.018
-447.428
-262.037
-1115.5
307.054
-2539.91
-842.445
-138.199
-152.964
-258.481
-244.298
-257.562
-291.293
-267.847
-337.354
-273.563
-451.808
-255.929
-1163.1
338.944
-2411.03
-957.345
-183.947
-170.084
-299.656
-284.671
-297.484
-348.2
-312.831
-424.903
-312.56
-569.881
-244.286
-1012.04
622.916
-4631.75
-957.827
-183.834
-170.098
-299.673
-284.427
-297.399
-346.722
-312.786
-417.872
-313.751
-544.456
-261.285
-949.253
585.872
-4478.17
-958.536
-183.514
-170.045
-299.68
-284.306
-297.361
-346.051
-313.174
-414.968
-315.783
-542.018
-279.64
-994.708
528.018
-4304.85
-959.101
-183.381
-170.153
-299.789
-284.237
-297.456
-345.173
-313.612
-411.086
-317.064
-534.424
-275.71
-1006.03
503.171
-4153.36
-959.755
-183.358
-170.253
-299.948
-284.342
-297.627
-344.877
-314.414
-409.422
-319.656
-527.544
-292.36
-995.163
522.114
-4099.11
-960.368
-183.389
-170.409
-300.189
-284.581
-297.857
-344.769
-314.923
-407.691
-320.924
-522.592
-300.247
-981.909
505.868
-4018.81
-961.008
-183.559
-170.607
-300.502
-285.027
-298.169
-345.222
-315.402
-407.528
-321.99
-522.206
-303.966
-969.4
534.34
-3992.3
-961.599
-183.756
-170.805
-300.807
-285.545
-298.477
-345.982
-315.498
-407.942
-322.472
-530.423
-304.986
-1017.66
443.458
-3996.02
-962.195
-184.072
-171.054
-301.138
-286.189
-298.91
-347.554
-316.308
-411.947
-322.877
-536.126
-267.058
-1268.85
305.51
-3494.88
-962.714
-184.38
-171.27
-301.44
-286.868
-299.337
-349.371
-316.963
-416.82
-323.775
-551.099
-279.712
-1156.86
340.272
-3401.41
-963.237
-184.835
-171.568
-301.875
-287.771
-299.9
-351.486
-317.364
-421.629
-323.498
-553.016
-270.204
-1054.75
422.185
-3500.94
-963.633
-185.202
-171.768
-302.212
-288.556
-300.339
-353.471
-317.528
-426.983
-323.536
-575.313
-263.699
-1228.2
389.669
-3573.46
-964.067
-185.764
-172.105
-302.749
-289.62
-301.015
-355.745
-317.805
-432.659
-322.416
-606.043
-247.638
-1618.76
203.11
-3185.56
-964.292
-186.053
-172.224
-303.003
-290.21
-301.356
-357.243
-317.979
-436.998
-320.917
-609.831
-207.738
-1488.82
231.229
-2913.44
-964.653
-186.66
-172.59
-303.586
-291.326
-302.218
-359.535
-318.748
-441.982
-320.302
-614.157
-191.599
-1417.24
263.659
-2788.93
-1079.39
-249.228
-197.174
-355.266
-348.028
-357.326
-435.589
-379.922
-560.957
-361.119
-847.78
-176.079
-1760.1
828.51
-6122.17
-1080.04
-249.193
-197.242
-355.405
-347.834
-357.344
-433.352
-380.024
-546.146
-366.424
-757.714
-187.804
-1297.79
921.871
-6229.88
-1080.95
-248.835
-197.208
-355.501
-347.795
-357.386
-432.399
-380.738
-539.186
-373.334
-716.364
-275.484
-1262.28
927.287
-5960.08
-1081.73
-248.753
-197.385
-355.749
-347.865
-357.634
-431.279
-381.714
-532.319
-378.7
-706.371
-313.762
-1252.47
836.096
-5770.12
-1082.59
-248.781
-197.554
-356.039
-348.205
-358.001
-431.266
-383.057
-530.289
-382.398
-705.153
-310.344
-1241.76
836.06
-5566.66
-1083.43
-248.894
-197.803
-356.426
-348.752
-358.449
-431.651
-384.071
-528.638
-386.965
-698.272
-333.189
-1209.15
833.451
-5425.87
-1084.29
-249.161
-198.115
-356.889
-349.608
-359.027
-433.032
-384.97
-529.933
-389.419
-695.071
-344.498
-1213.9
810.779
-5299.46
-1085.1
-249.482
-198.444
-357.35
-350.594
-359.542
-434.884
-385.156
-532.361
-390.473
-707.207
-348.965
-1239.98
731.783
-5093.89
-1085.9
-249.954
-198.857
-357.883
-351.812
-360.178
-437.838
-386.094
-538.873
-389.982
-714.191
-310.807
-1253.73
588.331
-4811.38
-1086.61
-250.434
-199.232
-358.356
-353.07
-360.717
-441.136
-386.559
-546.188
-388.63
-718.664
-285.798
-1163.72
753.956
-4954.15
-1087.29
-251.076
-199.716
-358.984
-354.642
-361.488
-445.016
-386.913
-555.233
-388.183
-742.838
-305.943
-1522.11
561.151
-4971.09
-1087.82
-251.609
-200.06
-359.439
-355.985
-362.016
-448.564
-386.592
-563.748
-384.956
-760.152
-251.756
-1900.54
255.188
-4269.45
-1088.37
-252.349
-200.587
-360.155
-357.733
-362.985
-452.712
-386.848
-573.432
-380.477
-781.363
-193.177
-1659.46
277.714
-3819.83
-1088.67
-252.751
-200.795
-360.467
-358.696
-363.396
-455.315
-386.874
-580.301
-377.328
-798.381
-216.703
-1433.27
246.243
-3646.48
-1089.1
-253.519
-201.356
-361.231
-360.45
-364.66
-459.403
-388.245
-588.999
-376.618
-805.631
-247.891
-1120.35
316.483
-3818.68
-1188.73
-323.64
-225.824
-412.392
-411.671
-412.378
-515.863
-442.717
-683.208
-403.375
-1083.21
-203.159
-2478.46
369.507
-8310.67
-1189.57
-323.726
-225.958
-412.683
-411.623
-412.593
-513.612
-443.765
-668.485
-416.015
-1005.23
-199.398
-2032.75
506.697
-8289.11
-1190.69
-323.377
-225.942
-412.88
-411.715
-412.736
-512.732
-444.844
-659.445
-428.36
-924.752
-264.1
-1763.28
792.272
-7960.31
-1191.7
-323.39
-226.198
-413.291
-412.005
-413.157
-511.804
-446.279
-648.886
-439.476
-876.196
-374.924
-1669.7
905.683
-7561.5
-1192.8
-323.506
-226.44
-413.724
-412.635
-413.712
-512.413
-448.252
-647.468
-446.726
-892.667
-393.432
-1606.05
915.525
-7339.28
-1193.9
-323.744
-226.798
-414.274
-413.574
-414.356
-513.747
-449.512
-646.453
-449.698
-870.418
-366.13
-1527.56
1003.72
-7180.16
-1195.01
-324.153
-227.243
-414.901
-414.922
-415.158
-516.42
-450.99
-650.21
-457.602
-863.15
-382.773
-1519.96
1090.29
-7109.49
-1196.08
-324.647
-227.727
-415.532
-416.514
-415.847
-520.013
-451.436
-657.349
-459.412
-885.351
-352.239
-1631.46
1109.74
-6977.05
-1197.12
-325.318
-228.326
-416.27
-418.479
-416.661
-524.98
-452.912
-671.02
-462.909
-940.819
-402.459
-1877.29
981.479
-6796.97
-1198.05
-326.006
-228.887
-416.918
-420.512
-417.284
-530.524
-453.697
-685.858
-463.183
-976.786
-412.602
-2302.31
715.14
-6194.07
-1198.94
-326.875
-229.594
-417.747
-422.957
-418.22
-536.815
-454.244
-700.865
-463.274
-984.822
-373.16
-2291.8
515.297
-5467.35
-1199.65
-327.614
-230.116
-418.326
-425.035
-418.783
-542.495
-453.843
-714.87
-461.444
-1011.67
-344.047
-2230.31
462.916
-4850.56
-1200.34
-328.585
-230.885
-419.24
-427.666
-420.026
-548.984
-454.418
-728.968
-458.988
-1028.73
-369.848
-1828.38
525.942
-4858.69
-1200.74
-329.137
-231.206
-419.613
-429.11
-420.437
-552.875
-454.368
-737.93
-455.933
-1039.52
-368.896
-1680.24
521.679
-4939.08
-1201.28
-330.128
-232.022
-420.587
-431.699
-422.114
-559.093
-456.359
-749.578
-454.665
-1033.83
-332.309
-1621.8
622.833
-4934.8
-1274.55
-448.189
-279.887
-485.51
-525.546
-509.788
-659.075
-549.961
-843.511
-474.535
-1313.63
-239.956
-3039.23
726.883
-10468.4
-1275.51
-448.533
-280.202
-486.095
-525.971
-510.644
-658.278
-552.669
-833.634
-491.211
-1254.62
-127.58
-2692.98
855.327
-10044.5
-1276.71
-448.352
-280.288
-486.504
-526.447
-511.227
-658.434
-555.8
-828.207
-521.246
-1179.58
-236.797
-2546.86
1336.5
-10431.4
-1277.93
-448.619
-280.727
-487.238
-527.388
-512.207
-659.232
-558.776
-823.036
-542.692
-1141.83
-362.375
-2158.27
1531.08
-10175.4
-1279.21
-448.995
-281.16
-487.946
-528.761
-513.182
-661.59
-561.545
-822.788
-557.405
-1130.44
-447.17
-2067.91
1677.32
-9914.38
-1280.52
-449.549
-281.789
-488.802
-530.711
-514.261
-665.819
-563.885
-833.6
-568.516
-1205.81
-488.271
-2119.23
1732.75
-9588.36
-1281.84
-450.271
-282.557
-489.701
-533.265
-515.352
-671.777
-565.343
-844.429
-573.597
-1201.47
-474.667
-2373.61
1757.04
-9340.7
-1283.11
-451.096
-283.43
-490.577
-536.309
-516.185
-679.592
-565.52
-862.867
-578.135
-1267.18
-503.481
-2680.9
1459.53
-8853.31
-1284.34
-452.083
-284.478
-491.544
-539.931
-517.043
-689.03
-565.432
-883.498
-575.188
-1284.59
-401.419
-2849.96
1014.95
-7853.23
-1285.45
-453.078
-285.512
-492.345
-543.743
-517.455
-699.822
-563.497
-908.447
-564.588
-1281.4
-347.105
-2558.79
1058.16
-7636.64
-1286.49
-454.223
-286.742
-493.33
-548.089
-518.219