/*--------------------------------*- C++ -*----------------------------------*\
| =========                 |                                                 |
| \\      /  F ield         | OpenFOAM: The Open Source CFD Toolbox           |
|  \\    /   O peration     | Version:  4.1                                   |
|   \\  /    A nd           | Web:      www.OpenFOAM.org                      |
|    \\/     M anipulation  |                                                 |
\*---------------------------------------------------------------------------*/
FoamFile
{
    version     2.0;
    format      ascii;
    class       surfaceScalarField;
    location    "28";
    object      phi;
}
// * * * * * * * * * * * * * * * * * * * * * * * * * * * * * * * * * * * * * //

dimensions      [0 3 -1 0 0 0 0];

internalField   nonuniform List<scalar> 
19125
(
74.6989
-1.17104
1401.69
78.9541
-3.37837
1497.45
61.6864
-3.16073
1326.29
50.1207
-1.3213
1041.55
42.8129
2.90727
919.16
32.1782
4.86991
751.839
25.1769
6.64982
695.476
16.8884
1.00038
552.952
2.91612
-1.64198
291.543
-4.76509
-2.02632
119.812
-20.7878
1.20241
364.702
-43.5182
1.7881
738.749
-72.3942
-1.40743
1367.41
-77.036
-3.82419
1607.58
-0.354399
1800.75
74.1964
-1.5527
1401
78.4377
-4.55475
1497.64
61.471
-3.72468
1339.34
50.047
-0.980078
1067.11
42.7664
3.76155
939.017
32.4798
5.82644
759.876
25.1712
8.02525
672.76
16.7479
0.74041
518.361
3.25271
-2.23478
281.32
-4.71758
-1.03641
127.692
-21.4842
2.0332
346.119
-44.0193
-0.26763
723.695
-72.478
-1.46922
1377.69
-77.4798
-4.53681
1594.71
-0.498392
1781.6
73.6836
-1.75322
1401.08
77.9435
-5.46118
1502.01
61.3734
-4.03401
1353.91
50.2529
-0.734297
1085.47
42.9103
4.13771
946.733
33.0989
5.99753
764.044
25.3428
7.93203
637.585
16.129
2.0285
490.751
3.50968
-1.07842
301.483
-5.55849
2.32467
142.715
-23.1544
1.64847
323.479
-44.6586
-4.88382
715.116
-73.0229
-1.14088
1376.69
-79.0206
-3.47794
1575.71
-1.00561
1740.94
73.2339
-1.74883
1396.74
77.6634
-6.11553
1502.5
61.5799
-4.0723
1366.33
50.7264
-0.546787
1102.08
43.2195
4.11745
953.07
33.345
5.7832
763.056
24.5642
8.32562
619.088
14.5665
5.43521
486.615
3.52359
1.75409
342.364
-5.8741
7.47457
168.558
-22.8781
-0.498946
338.555
-44.5889
-6.61319
762.603
-72.961
-1.05604
1380
-78.1642
-2.83203
1594.17
-1.24561
1754.81
72.955
-1.46597
1387.24
77.339
-6.04737
1503.49
61.6991
-3.74309
1381.68
51.0621
-0.499744
1120.52
43.502
3.51607
959.489
33.5647
5.26286
758.956
24.2667
9.27392
610.78
15.317
7.2865
478.94
3.69689
0.510953
275.642
-5.36088
10.1007
150.008
-21.0125
-3.12727
412.81
-44.2677
2.00141
875.079
-73.2173
-0.437888
1368.76
-77.6193
-2.91245
1602.73
-1.32355
1762.07
73.0342
-0.853074
1370.17
77.0673
-4.65151
1501.25
61.7546
-2.77014
1396.96
51.2608
-0.463183
1140.18
43.7749
2.2766
967.91
34.3468
3.93013
759.942
26.1419
7.44581
597.141
17.0726
3.22511
393.16
3.93314
-0.707623
209.547
-4.34553
9.49506
106.381
-21.4823
-3.50649
390.318
-44.5649
7.31057
831.424
-73.3992
-0.346127
1375.62
-77.4915
-2.82837
1610.68
-1.25822
1761.81
73.7015
-0.00907982
1344.14
77.0235
-1.36573
1492.11
61.7565
-0.790523
1407.31
51.1989
-0.0807696
1158.57
43.6453
0.795952
978.532
35.0165
1.67537
770.02
26.0234
3.86007
564.112
16.273
3.0678
381.786
4.33114
-0.754476
234.84
0.813254
-2.49893
49.2213
-24.4092
0.495008
313.969
-45.0195
3.90021
758.414
-73.4851
-0.396349
1388.53
-78.0252
-1.69473
1606.35
-1.17873
1746.87
74.0815
0.832039
1333.24
77.158
2.54735
1485.7
61.8531
1.58047
1407.52
51.2201
0.526208
1163.09
43.5958
-0.640281
981.626
35.3624
-0.802551
777.626
27.0971
-1.54368
556
16.4251
1.24513
346.729
3.60737
1.8658
218.011
-4.38489
-2.19908
75.648
-25.3733
1.03745
293.892
-45.7789
-4.49237
701.863
-73.9819
-0.516806
1389.5
-79.3669
0.876426
1589.78
-1.50924
1715.94
73.5087
1.56407
1351.21
77.0049
5.37106
1493.74
61.7497
3.38024
1405.44
51.2237
0.863445
1155.51
43.742
-2.04764
977.744
35.3869
-3.22709
772.374
27.7413
-7.17427
561.742
18.139
-3.56968
338.612
3.18618
2.90036
180.743
-6.05507
2.18671
114.479
-22.7782
1.31048
343.769
-45.2374
-8.55345
725.49
-73.3636
-0.833152
1395.06
-77.8399
2.05521
1609.68
-1.47961
1750.6
72.9689
2.04259
1376.13
77.067
6.45268
1501.75
61.7235
4.22323
1394.32
51.2579
0.879631
1136.58
43.8982
-3.21432
967.594
34.815
-4.99962
760.532
26.2668
-9.4965
582.232
17.1687
-6.37091
393.735
3.1162
2.19975
197.047
-4.76736
3.01787
122.537
-19.2921
4.38274
460.224
-44.7008
-1.24356
817.142
-73.4711
-0.632543
1378.12
-77.2268
1.948
1613.96
-1.28404
1766.93
72.9583
2.20418
1392.66
77.3302
6.30029
1503.83
61.6416
4.42601
1378.92
51.055
0.882463
1116.83
43.6936
-3.88128
958.098
33.8613
-5.68401
756.327
24.4898
-8.49499
606.765
15.2659
-4.15778
473.406
4.32108
1.66316
274.199
-3.81326
2.99316
105.632
-21.5684
3.08015
410.722
-44.7087
7.60561
888.828
-73.446
0.243416
1373.87
-77.5067
1.99106
1607.6
-1.06739
1763.49
73.2883
2.08579
1401.39
77.6708
5.49004
1502.47
61.5246
4.28489
1363.32
50.7274
1.01667
1098.13
43.4061
-3.97966
950.539
33.5225
-5.89717
759.312
24.7427
-7.61648
618.644
15.1283
-0.81739
489.967
4.0125
3.95571
318.922
-5.82218
9.261
143.426
-22.8449
1.19533
357.873
-45.1503
8.63034
799.029
-73.303
0.743873
1384.49
-78.1111
2.88805
1600.06
-0.863765
1754.67
73.7768
1.77346
1404.93
77.9622
4.50899
1501.93
61.3165
3.89902
1351.06
50.2491
1.19915
1081.55
43.0596
-3.65159
943.425
33.3951
-5.74835
762.408
25.7168
-7.60963
633.091
17.1325
0.518016
494.162
4.41442
4.12299
280.549
-6.76399
16.1348
133.34
-24.4175
-0.683316
313.432
-45.7528
3.52145
728.372
-73.5375
1.17419
1385.23
-78.9721
4.16709
1581.56
-0.961398
1740.95
74.3137
1.30335
1404.22
78.4663
3.30681
1497.54
61.4183
3.26494
1336.59
50.034
1.47412
1063
42.9156
-2.83406
935.482
32.856
-4.82998
758.968
25.9674
-6.65428
667.897
18.087
-0.424782
505.975
5.0191
3.58008
267.596
-5.99069
19.7324
105.893
-23.8534
-1.9058
316.167
-45.3624
-0.339185
730.498
-73.145
1.12225
1386.5
-77.4785
3.56861
1599.8
-0.701338
1781.12
74.8279
1404.43
78.9794
1497.53
61.6236
1324.05
50.081
1037.79
42.9294
915.781
32.5218
751.066
25.7617
690.893
18.3114
552.601
4.42462
279.833
-4.66394
70.4788
-22.2684
346.076
-44.953
745.314
-73.1816
1376.32
-77.0517
1612.21
1800.14
223.362
-3.15311
1338.29
232.753
-9.4717
1491.75
192.401
-9.88307
1370.18
152.336
-5.18813
1083.07
129.316
7.75636
939.049
98.2538
14.1129
777.776
75.819
20.3602
710.101
50.5328
4.64887
577.001
11.6143
-4.93961
332.706
-16.3606
-5.61966
149.217
-62.5883
3.09386
409.632
-131.665
3.77365
807.718
-204.91
-5.38061
1442.71
-225.041
-10.7053
1632.04
0.0474203
1810.12
221.798
-4.10923
1338.57
231.135
-12.588
1491.42
191.693
-11.7175
1380.62
152.213
-4.45718
1105.86
129.323
10.1619
959.502
98.9471
16.6606
787.705
75.6505
24.2088
692.209
49.8281
4.21061
544.623
12.3008
-6.79988
320.711
-15.8857
-3.54501
153.809
-64.5016
4.85779
392.973
-133.258
-1.96177
798.188
-205.447
-5.8252
1450.32
-226.465
-12.7277
1617.75
-0.120174
1791.97
220.318
-4.53899
1339.38
229.563
-14.9294
1495.11
191.169
-12.7997
1393.39
152.579
-3.75156
1123.36
129.703
11.2084
968.565
100.514
17.0362
792.858
76.4206
23.5616
662.327
48.4928
7.2402
515.651
12.0166
-3.1015
334.264
-18.2786
3.99861
165.472
-68.6175
3.10173
375.576
-135.235
-13.7187
793.492
-207.769
-4.22162
1447.63
-231.56
-10.386
1597.16
-2.59305
1752.73
218.97
-4.34112
1335.95
228.525
-16.6348
1494.65
191.584
-13.2881
1403.76
153.911
-3.15612
1139.16
130.702
11.1823
976.307
101.264
16.3238
793.206
74.4342
24.065
645.416
44.1127
16.0129
508.166
11.4718
4.99173
366.915
-18.4794
14.9901
187.522
-67.4854
-2.00776
392.672
-135.027
-17.3297
833.757
-207.086
-3.77249
1451.62
-228.757
-8.82849
1614.28
-3.71115
1766.24
218.189
-3.35233
1327.21
227.521
-16.3288
1493.85
191.707
-12.579
1416.79
154.748
-2.78402
1157.1
131.516
9.50041
984.404
101.87
14.5712
790.356
73.6205
26.0052
637.091
45.7879
21.1427
501.645
12.5801
2.51262
311.333
-17.3013
20.2257
174.661
-63.1194
-6.75896
463.382
-133.896
4.72794
923.799
-207.255
-2.23529
1440.58
-226.939
-8.89038
1622.48
-3.95174
1773.45
218.502
-1.60568
1310.68
226.954
-12.3889
1488.86
191.687
-9.54015
1429.19
155.237
-2.23409
1176.08
132.287
6.06389
994.297
103.868
10.6293
792.305
78.4969
21.0708
627.448
50.5694
11.0464
431.187
14.2172
-1.25421
249.671
-15.0736
18.5998
137.308
-64.5759
-6.23499
439.299
-134.993
18.1244
888.447
-207.718
-2.1873
1448.29
-226.525
-8.3809
1628.98
-3.60124
1772.87
220.558
0.389039
1284.95
227.398
-3.54511
1476.43
191.561
-2.76592
1436.38
155.045
-0.50437
1193.36
131.849
2.09181
1005.7
105.328
4.42163
802.75
78.8782
10.4692
601.166
49.3754
8.80121
413.538
18.0778
-3.47177
268.361
-8.31536
-0.494463
94.7218
-71.722
-0.832355
371.976
-136.555
9.8967
831.476
-208.434
-2.08331
1460.31
-228.274
-5.16397
1622.97
-3.545
1757.86
221.745
2.15979
1274.15
228.007
6.86422
1469.03
191.808
5.44353
1435.51
155.139
1.90482
1197.35
131.678
-1.66305
1008.84
106.121
-2.27404
809.881
81.5942
-4.76151
595.76
50.0418
2.14905
384.937
12.2822
3.61864
248.687
-16.0382
-2.38683
105.871
-74.4369
-0.395525
351.858
-138.969
-10.901
787.194
-210.697
-1.19026
1460.33
-232.609
1.42092
1605.11
-5.86126
1727.99
220.011
3.91599
1292.03
227.146
14.4606
1479.01
191.555
11.4281
1435.05
155.104
3.47929
1190.39
132.085
-5.42378
1004.53
106.227
-8.79185
804.751
83.0557
-20.1884
600.343
54.4886
-11.894
381.226
12.2489
6.65298
219.955
-18.9494
7.16377
136.136
-68.69
0.949574
392.168
-137.405
-21.624
804.929
-208.283
-1.87004
1466.62
-227.682
4.7334
1625.77
-6.13782
1761.34
218.317
5.26964
1316.68
226.852
17.4964
1490.19
191.619
13.9465
1427.03
155.218
3.94718
1172.51
132.56
-8.6169
993.446
105.022
-13.7674
793.047
78.9996
-26.7273
614.795
50.9629
-19.2751
429.156
12.2454
4.51927
237.904
-15.504
8.52229
148.937
-60.0338
10.916
494.79
-135.69
-4.17651
875.352
-208.111
-1.62797
1450.3
-225.659
4.8543
1631.39
-5.31718
1776.58
218.214
5.83633
1332.68
227.486
17.2143
1494.84
191.572
14.2641
1414.52
154.696
4.19138
1153.46
131.982
-10.4636
982.661
102.686
-15.9959
787.854
74.2737
-24.6651
633.117
45.8323
-13.3322
495.908
14.6583
3.0429
306.854
-14.0052
6.7873
136.039
-64.5769
9.25256
462.96
-135.546
19.1031
936.519
-208.325
0.701678
1444.32
-226.546
5.20072
1625.47
-4.41993
1772.29
219.134
5.62072
1340.7
228.563
15.1028
1495.16
191.455
13.4682
1401.23
153.875
4.6252
1135.28
131.149
-10.702
973.504
101.756
-16.7625
789.473
74.8446
-22.8525
643.745
45.4742
-4.57243
510.58
12.9694
9.53564
344.938
-18.6062
19.3957
162.398
-67.9929
5.39304
411.122
-137.009
22.3673
864.782
-208.564
2.50886
1454.24
-228.579
7.5879
1617.69
-3.86938
1762.48
220.578
4.84162
1343.34
229.639
12.5443
1495.43
191.03
12.1551
1390.98
152.525
5.13995
1119.54
130.042
-9.79472
965.003
101.274
-16.4509
790.867
77.348
-23.2284
657.396
50.8123
-1.11529
517.245
14.0999
11.6029
315.2
-21.8288
35.3029
153.373
-72.2034
0.182299
369.022
-138.984
9.9761
807.546
-209.798
4.56655
1453.99
-231.484
10.7312
1600.1
-4.97999
1748.68
222.127
3.60075
1341.89
231.25
9.33775
1491.63
191.569
10.1306
1378.3
152.138
5.67015
1101.91
129.658
-7.49835
955.669
99.8936
-13.9737
786.259
77.6686
-20.4018
687.299
53.2175
-3.35738
532.673
16.1329
10.8867
305.406
-20.6031
44.7664
133.181
-70.8509
-3.56237
370.166
-137.797
0.239604
807.184
-207.913
4.26797
1456.91
-226.61
9.26413
1619.96
-3.77992
1786.89
223.728
1341.11
232.869
1492.05
192.25
1368.33
152.185
1079.49
129.548
935.37
99.1116
776.41
77.3538
705.085
54.2446
575.39
16.4343
321.206
-19.1009
109.377
-67.3943
394.096
-136.612
816.28
-207.809
1449.12
-225.228
1633.36
1804.31
382.334
-4.48829
1184.44
388.864
-13.2199
1489.58
341.322
-16.566
1422.77
263.877
-11.6352
1163.29
218.111
9.53166
981.082
167.023
21.5788
822.298
126.646
33.4278
739.791
83.3039
11.6157
617.67
23.1562
-7.22453
396.001
-33.1057
-7.18009
206.702
-108.692
4.00723
484.12
-228.659
2.73627
929.128
-323.669
-11.5998
1541.87
-381.761
-15.5572
1695.64
1.52977
1763.24
379.54
-5.6059
1186.53
385.718
-17.3459
1489.37
339.825
-19.9912
1429.94
263.656
-11.2841
1181.68
218.43
13.0514
1001.21
167.929
25.2916
834.493
126.184
39.1274
728.255
81.65
11.6106
589.163
23.5769
-10.276
381.837
-32.4221
-5.20567
207.836
-111.926
5.2028
471.283
-231.591
-5.23993
925.83
-325.383
-13.0721
1545.59
-384.511
-18.7331
1680.05
1.45734
1745.97
377.123
-5.75881
1188.52
382.737
-20.3178
1492.47
338.391
-22.309
1440.05
263.601
-10.3895
1197.25
218.842
14.6876
1011.69
169.951
25.7699
841.272
127.853
37.5186
706.036
80.3963
14.6391
560.08
21.7047
-4.40231
387.084
-36.5055
2.84872
215.631
-117.723
0.734129
461.264
-234.914
-20.1675
925.612
-331.603
-8.91699
1540.16
-394.554
-16.5581
1657.93
-3.99053
1707.22
374.834
-4.89125
1186.69
380.499
-22.4871
1491.16
338.548
-24.0619
1447.46
265.541
-9.5506
1211.33
220.671
14.8218
1021.04
171.311
24.6042
843.733
125.351
37.0417
691.854
73.6914
25.7368
548.729
19.9051
7.03488
409.267
-35.5895
13.111
232.758
-115.398
-6.0184
479.235
-234.471
-23.5728
956.236
-329.054
-7.65369
1544.94
-389.069
-14.905
1672.65
-6.51236
1720.94
373.564
-2.97318
1179.4
378.733
-21.8438
1488.04
338.232
-23.5287
1456.76
266.465
-8.44834
1227.77
221.919
12.5335
1031.24
172.228
21.4365
843.215
124.187
38.2376
683.938
75.4567
32.8205
543.293
22.0373
5.04581
366.744
-33.8004
17.2222
226.392
-109.43
-8.95723
541.953
-232.421
4.82161
1018.4
-328.015
-5.97167
1534.5
-385.478
-14.9489
1679.99
-7.15924
1728.51
374.056
-0.35965
1164.09
378.222
-16.3971
1479.25
337.81
-18.3496
1464.43
266.942
-6.36633
1244.87
223.063
7.81833
1042.89
174.833
15.1507
846.822
130.708
30.976
678.836
82.5701
20.2311
491.916
25.8348
-1.36519
312.821
-30.9157
15.5491
195.737
-111.994
-5.92362
517.345
-234.606
21.8276
994.055
-328.458
-6.58111
1542.76
-384.581
-13.9124
1684.07
-6.49702
1727.38
377.801
1.52095
1138.82
380.394
-4.5501
1461.99
337.476
-5.42911
1466.37
266.474
-1.64775
1259.65
222.267
2.68233
1055.05
176.299
6.06241
857.807
132.347
14.6293
661.467
82.2022
13.4988
470.417
30.9428
-4.7308
322.99
-27.066
2.0729
166.213
-121.734
-1.08687
461.81
-237.409
11.9346
957.045
-330.67
-5.82339
1552.81
-387.938
-9.30182
1675.63
-6.71067
1711.6
380.128
2.59518
1127.81
382.146
9.37867
1453.08
337.894
10.5468
1463.78
266.66
4.33144
1262.6
221.978
-1.91917
1058.13
177.136
-3.42399
864.21
135.985
-7.71559
659.258
84.0421
0.723922
449.657
22.7636
3.10932
302.129
-36.2261
0.177
166.762
-126.649
-3.78867
444.985
-241.769
-13.6476
927.897
-336.576
-1.55583
1550.87
-396.291
-1.01727
1656.54
-12.5164
1682.27
377.119
4.51981
1145.36
379.737
19.663
1466.11
337.479
21.7345
1466.12
266.554
8.65347
1256.99
222.534
-6.74614
1053.37
177.363
-12.6482
859.148
137.545
-29.6098
662.057
90.3099
-21.1293
450.316
24.3215
6.2277
282.829
-36.939
11.3338
186.246
-119.489
-3.03541
473.967
-239.284
-27.6099
938.687
-330.623
-2.08022
1558.48
-386.727
3.57571
1677.28
-13.9675
1715.24
374.041
6.70771
1169.47
377.973
23.9034
1482.02
337.732
25.762
1463.25
266.887
10.4683
1241.54
223.319
-11.0526
1041.32
176.292
-20.08
847.507
131.746
-39.4456
669.18
83.6141
-31.4453
487.606
24.0778
2.16928
301.504
-30.935
12.8313
202.458
-107.696
12.462
556.057
-236.54
-6.71506
983.302
-329.351
-2.60961
1543.64
-382.727
4.213
1684.13
-12.716
1729.21
373.734
7.98525
1184.58
378.61
23.6528
1490.22
338.046
25.4744
1455.37
266.311
11.2942
1224.37
222.437
-13.5523
1029.04
173.364
-23.9522
840.8
125.192
-38.166
680.012
75.7562
-23.4642
537.364
25.2559
0.0967105
359.43
-30.8602
9.11623
195.875
-112.206
13.7921
542.978
-236.043
24.1046
1029.54
-330.524
0.547163
1535.65
-384.431
5.01529
1678.58
-11.2153
1723.15
375.183
8.01511
1191.49
380.582
20.837
1492.57
338.41
23.1621
1445.71
265.415
11.8485
1207.72
221.152
-13.7195
1017.94
171.963
-25.2949
840.006
125.721
-36.8876
688.712
75.2127
-12.0087
549.637
21.9814
9.05668
389.215
-36.4203
19.6359
210.29
-117.429
9.39003
496.537
-238.684
29.5085
980.635
-332.475
4.36919
1544.21
-388.416
8.42394
1670.22
-10.4436
1710.93
377.639
7.08736
1192.59
382.977
17.51
1493.43
338.266
20.5113
1438.35
263.447
12.4446
1193.77
219.139
-12.2991
1007.89
170.861
-24.9238
838.776
128.872
-38.112
700.613
82.9344
-8.04321
559.221
23.4875
14.3962
369.315
-41.7125
36.6932
201.525
-124.048
0.881637
459.87
-242.356
14.858
940.507
-336.045
9.68953
1542.36
-394.152
12.449
1654.18
-13.1912
1696.07
380.139
5.38858
1189.91
386.031
13.2124
1490.04
339.722
16.841
1428.28
263.472
12.4663
1178.14
218.698
-8.97055
997.117
169.021
-21.2651
832.28
128.576
-33.5661
723.202
85.8251
-10.5235
577.908
26.5229
14.4881
364.623
-40.0451
48.3233
188.13
-121.999
-5.31755
458.324
-240.493
2.5562
937.982
-330.724
8.77484
1548.06
-384.683
10.8285
1675.54
-10.0834
1732.27
382.984
1187.28
389.194
1490.22
341.182
1421.5
263.575
1160.15
218.201
977.153
167.96
820.113
128.434
734.182
87.8622
614.369
28.7444
383.769
-37.3306
174.986
-117.381
474.014
-238.575
940.643
-329.956
1543.65
-382.065
1689.23
1747.57
536.97
-4.59794
960.254
565.158
-13.2121
1465.14
514.336
-21.1173
1479.41
398.463
-20.1444
1283.66
314.049
5.50257
1062.59
239.431
25.0898
890.061
178.119
43.3996
789.268
115.483
21.586
675.865
35.0463
-7.27989
480.058
-50.8668
-7.63785
293.637
-166.011
3.18992
599.166
-337.447
-1.93493
1104.15
-458.98
-20.956
1671.06
-547.515
-17.5779
1789.81
3.7766
1665.35
533.453
-5.21899
964.221
560.058
-16.7999
1466.35
511.314
-26.172
1483.74
397.516
-21.2985
1296.64
314.548
9.22607
1080.46
240.49
29.6477
903.994
177.439
50.2517
784.455
112.852
22.5458
652.792
34.4451
-11.2844
464.25
-51.0933
-6.41578
292.155
-170.742
2.7519
591.371
-342.048
-10.4597
1105.66
-463.371
-24.3945
1670.35
-551.853
-21.9038
1772.86
3.9617
1648.8
530.538
-4.34531
967.341
555.497
-18.82
1469.53
508.407
-30.0483
1491.02
396.292
-21.0456
1309.11
314.546
11.3374
1091.32
242.449
30.5033
912.513
179.921
47.9131
770.903
112.293
24.1036
626.152
30.5926
-4.2353
461.737
-57.513
0.151657
297.172
-177.859
-4.82842
589.191
-347.332
-24.3456
1108.97
-477.813
-15.8224
1662.07
-567.929
-21.6004
1747.75
-6.0996
1610.22
527.217
-1.86417
967.873
551.386
-20.0716
1468.24
507.413
-33.7827
1495.17
398.184
-20.7371
1320.25
317.173
11.828
1101.57
244.597
29.2886
917.523
177.752
45.8752
760.738
104.093
34.3848
612.108
27.1241
8.51658
473.486
-55.6965
5.85638
309.876
-174.826
-12.6009
606.138
-346.413
-26.3765
1129.86
-470.814
-13.3218
1666.84
-558.621
-21.0441
1759.9
-10.8089
1624.86
525.232
1.49638
963.3
548.526
-18.6847
1463.36
506.039
-34.3156
1499.78
398.505
-18.9846
1333.55
318.557
9.86219
1113.16
245.833
25.0126
920.216
176.482
44.9527
754.213
105.346
41.5561
607.26
29.8565
8.01732
442.735
-52.9412
6.56226
308.486
-167.759
-11.7659
655.937
-343.215
1.53472
1165.94
-466.845
-12.7304
1657.54
-552.602
-21.6552
1766.36
-12.131
1633.12
525.941
3.77152
950.929
548.628
-13.1676
1451.04
505.08
-27.5558
1501.22
398.398
-14.3181
1346.88
319.688
5.67199
1125.79
248.466
17.0725
925.985
183.283
35.8351
753.138
114.189
28.5985
573.97
36.347
-0.313995
398.997
-49.7295
5.51931
282.86
-171.795
-5.90194
633.548
-346.821
17.9729
1152.64
-466.685
-15.1667
1665.06
-550.737
-20.6664
1767.13
-10.9839
1631.25
530.569
2.80203
928.566
554.019
-2.98655
1428.36
505.203
-8.26912
1495.91
397.383
-4.00968
1357.16
318.285
2.0058
1137.81
249.29
6.46184
937.414
186.081
15.8829
744.629
115.313
16.5022
553.283
42.3122
-5.52588
401.206
-47.6766
-0.0971048
261.823
-182.75
-0.911276
591.895
-351.123
9.25823
1134.13
-472.051
-13.0584
1671.63
-555.989
-16.0752
1754.97
-11.6153
1614.03
533.117
0.754745
918.318
557.543
8.25634
1417.42
506.189
15.9719
1490.9
397.679
8.63324
1358.47
317.852
-0.59972
1140.56
249.755
-4.09737
942.866
189.776
-10.0213
745.143
118.609
-2.54337
539.872
33.5932
0.0786852
381.543
-59.3667
1.15037
258.478
-190.172
-7.28674
582.167
-358.028
-13.7468
1118.76
-485.12
-2.16113
1667.07
-569.751
-8.76313
1733.86
-23.051
1584.72
529.469
1.75923
933.595
552.677
17.1549
1434.01
505.087
32.3235
1497.36
397.48
17.8986
1355.33
318.49
-4.0283
1135.79
250.145
-14.4439
937.841
190.971
-34.6697
745.88
125.608
-30.0383
543.176
37.0636
0.951174
370.504
-58.1047
13.0661
269.502
-182.955
-8.77349
600.305
-354.49
-27.1094
1123.59
-471.834
-1.96632
1675.63
-554.729
-3.96612
1755.38
-26.8936
1617.59
526.183
4.95388
954.298
548.463
21.6383
1455.25
505.07
37.2795
1501.69
398.304
21.8448
1344.36
319.754
-7.78628
1123.63
249.803
-23.2292
926.244
184.699
-46.7689
746.384
115.741
-42.015
568.542
35.4289
-5.23626
388.006
-49.6429
14.9634
285.635
-169.962
9.90891
657.695
-350.878
-7.88901
1145
-467.87
-4.69929
1663.36
-548.023
-2.68707
1763
-25.3054
1629.67
526.352
7.5825
966.707
548.865
22.3445
1467
505.972
35.64
1499.91
398.211
23.056
1330.92
318.84
-10.0008
1110.62
246.9
-28.2703
917.782
177.547
-47.7143
750.312
105.517
-33.9083
601.289
33.6518
-7.31579
433.378
-50.8786
10.2763
285.096
-172.882
16.5524
658.339
-349.787
23.1072
1175.45
-471.076
-1.85291
1654.09
-550.566
-1.3391
1756.72
-22.7622
1620.52
528.368
8.51783
971.861
551.833
20.458
1471
507.399
31.0706
1494.72
397.937
22.8748
1317.36
317.409
-9.87647
1098.34
245.106
-29.7922
913.831
177.726
-47.9284
756.305
104.931
-22.6161
611.14
29.0642
2.72844
455.037
-57.7288
15.7454
291.611
-179.999
13.0536
622.304
-354.262
29.9135
1148.09
-477.09
4.64794
1660.54
-557.056
2.3923
1746.46
-21.4464
1604.28
531.563
7.96944
971.172
556.071
17.899
1471.48
508.434
26.6773
1490.38
396.018
22.7041
1306.36
314.516
-8.03934
1087.56
243.053
-29.0681
909.516
180.464
-49.7839
765.058
114.084
-19.7799
622.766
31.2987
10.9288
443.901
-64.455
30.0137
283.013
-188.743
2.55111
594.662
-360.21
17.6208
1124.27
-485.998
15.7886
1657.01
-567.039
6.04586
1731.57
-26.9023
1587.15
534.473
6.25064
967.502
560.804
13.8955
1467.71
511.415
21.3469
1483.01
397.223
21.149
1293.89
314.441
-4.57699
1076.44
241.157
-24.5206
901.018
179.231
-43.7543
779.1
116.526
-21.4298
642.266
35.3556
12.1357
444.59
-61.7224
40.7792
274.446
-186.088
-5.82183
591.065
-357.335
5.89824
1120.95
-473.097
14.1019
1665.51
-551.958
5.17938
1755.27
-20.5927
1620.16
537.991
962.992
565.95
1466.3
514.403
1478.96
398.017
1281.33
313.678
1058.78
239.845
887.099
179.208
783.015
119.292
670.732
39.869
465.308
-56.8867
268.287
-180.979
598.401
-355.007
1118.83
-470.448
1664.51
-547.951
1768.15
1632.27
658.835
-3.41523
733.809
741.845
-11.0773
1384.93
708.339
-21.3427
1518.42
567.022
-27.5328
1431.01
429.756
-4.79058
1199.2
319.254
22.2004
994.553
231.762
48.331
865.164
148.034
32.7589
753.521
46.3173
-4.08925
585.434
-70.3161
-7.46901
411.787
-239.207
1.03152
769.562
-463.142
-9.64889
1334.09
-624.382
-31.3658
1843.84
-714.752
-15.4612
1884.25
5.42442
1544.98
655.933
-2.86536
738.093
735.553
-12.6663
1388.33
703.192
-26.8806
1521.64
564.214
-30.906
1438.99
429.543
-2.33911
1212.68
320.207
27.0547
1008.48
231.021
55.7325
866.241
144.765
34.9509
736.856
44.7875
-8.77115
568.911
-71.5699
-7.85022
408.894
-245.036
-1.90743
767.776
-469.518
-18.0755
1338.57
-632.219
-36.8872
1838.57
-719.527
-20.3941
1865.1
5.97783
1529.7
653.12
0.155969
741.453
729.85
-11.9553
1392.09
698.364
-31.4104
1527.04
560.937
-32.3307
1447.97
428.24
-0.489803
1222.17
321.462
28.5869
1017.76
233.913
53.384
860.801
145.232
34.5109
715.274
39.7257
-2.19153
560.665
-79.6933
-3.67903
412.42
-253.063
-12.1505
772.805
-478.55
-27.9105
1344.29
-656.707
-23.4176
1826.76
-738.147
-25.5382
1834.33
-9.09891
1494.7
650.246
4.38498
743.555
724.276
-9.80827
1392.07
695.223
-36.1124
1528.93
561.53
-33.7622
1455.38
431.099
-0.128655
1231.64
324.445
27.8611
1024.9
232.848
50.1229
855.597
136.576
41.9953
700.897
34.3351
9.88276
563.654
-78.1104
-2.60734
421.25
-249.906
-20.0417
785.825
-475.821
-28.2156
1356.08
-643.086
-20.0806
1830.76
-726.366
-28.0552
1845.7
-16.8227
1509.54
649.207
7.36261
741.627
721.112
-5.43691
1387.09
692.486
-37.0004
1529.29
560.387
-32.172
1464.06
431.861
-1.12342
1242.68
325.867
23.394
1030.68
231.788
46.7219
851.694
137.115
47.4798
696.45
37.4579
10.3456
541.93
-73.9527
-5.25227
422.543
-242.314
-15.3147
819.572
-471.422
-5.05797
1371.89
-634.907
-22.3234
1823.26
-718.798
-29.6513
1851.84
-19.6134
1517.47
649.551
7.64522
734.127
721.994
-0.309592
1373.47
691.417
-29.497
1524.29
559.31
-24.7154
1471.53
432.227
-2.57667
1254.33
327.977
15.24
1038.39
237.873
36.1108
853.854
147.022
34.6207
677.681
47.0647
0.53191
508.769
-70.6144
-5.74227
401.03
-248.053
-7.17602
802.848
-476.083
8.07145
1367.54
-633.271
-28.1331
1828.05
-715.295
-29.2242
1848.73
-18.1802
1514.73
651.746
3.39157
719.683
729.301
2.24976
1348.25
693.506
-8.34158
1510.55
558.343
-7.13272
1474.74
429.826
-0.617875
1264.37
327.423
5.42379
1049.63
240.901
14.728
852.535
149.685
17.6292
661.491
53.787
-7.44292
505.08
-70.0215
-5.58157
385.472
-259.865
-2.43814
777.001
-482.717
2.28598
1362.77
-643.139
-24.9923
1828.91
-721.051
-27.4447
1831.11
-19.3893
1496.83
652.574
-2.11782
712.964
733.469
2.43875
1336.33
695.692
17.8485
1502.49
559.186
14.3466
1473.5
429.313
3.49386
1266.32
327.168
-3.55029
1053.99
243.791
-11.5194
854.768
154.018
-6.69101
653.965
45.095
-5.12305
488.148
-84.4723
-0.749224
383.214
-270.365
-11.2352
776.858
-494.235
-13.2043
1358.12
-665.866
-6.98175
1820.69
-738.647
-26.7904
1805.99
-37.0988
1468.49
650.447
-3.20298
722.658
727.212
5.21685
1354.47
692.914
35.4795
1514.03
558.351
29.7608
1474.48
429.973
5.14295
1262.52
327.847
-12.7414
1049.16
244.562
-35.9862
853.633
160.592
-37.4569
657.913
49.8405
-7.38085
483.515
-82.1261
12.024
388.697
-263.547
-14.2211
784.713
-487.935
-23.6442
1358.41
-643.783
-5.92082
1830.42
-722.555
-23.1285
1830.49
-44.3694
1496.89
648.766
0.625066
735.657
721.499
9.60773
1378.13
691.441
40.5796
1526.65
559.243
35.7239
1470.6
432.032
3.80578
1252.18
328.77
-21.258
1038.02
239.143
-49.3227
849.349
148.529
-50.5205
672.221
46.578
-15.5686
498.146
-71.6323
14.248
401.623
-250.959
5.53559
817.266
-483.932
-8.85061
1363.18
-636.039
-12.3275
1821.88
-714.129
-20.5774
1838.54
-43.0844
1504.95
649.871
5.10458
743.114
721.955
13.1951
1391.33
692.818
38.3831
1531.24
560.069
36.4074
1462.99
431.679
2.43063
1240.39
326.367
-26.4257
1028.26
232.335
-52.8009
847.822
136.482
-43.9928
690.614
41.0583
-17.7544
530.989
-73.5951
9.10436
404.894
-252.245
18.0808
824.444
-483.63
18.1577
1379.82
-642.171
-11.1357
1811.44
-716.553
-18.9151
1829.44
-40.8553
1493.13
652.56
7.22961
745.81
725.881
15.0853
1395.79
695.788
32.9863
1530.21
561.276
34.3194
1453.96
430.846
2.32908
1228.87
324.382
-27.5732
1021.44
231.94
-54.4186
850.367
135.941
-34.8911
698.041
35.6016
-8.32786
545.955
-82.0697
10.2134
408.18
-260.861
16.5025
802.677
-490.543
26.6582
1369.27
-653.855
-0.9896
1813.7
-724.1
-15.9891
1813.78
-40.7913
1473.12
655.588
7.24323
744.101
731.531
15.545
1395.08
698.968
28.0528
1527.88
560.663
32.4097
1446.57
427.645
3.84304
1219.06
321.205
-26.186
1014.57
233.245
-56.1543
854.756
145.191
-33.8748
709.807
38.098
0.969487
541.701
-90.8194
19.9639
402.183
-272.324
4.57601
788.096
-500.29
19.7653
1359.13
-670.159
17.7936
1808.09
-736.749
-14.6032
1796.78
-49.8054
1452.83
657.607
5.87922
740.821
736.988
13.2828
1390.6
703.799
22.1239
1522.12
563.942
28.6079
1437.55
428.824
5.98973
1209.41
319.818
-21.3081
1005.15
231.133
-48.9567
860.589
146.357
-33.8352
727.006
41.4686
3.70918
546.742
-88.9176
28.3241
396.476
-270.114
-5.62331
782.462
-494.906
9.5357
1355.98
-647.894
15.9475
1820.35
-718.466
-12.1155
1823.35
-37.4808
1476.1
660.175
736.251
743.185
1386.84
708.866
1519.01
566.567
1429.94
428.673
1196.21
318.46
991.283
231.02
858.492
149.263
746.814
47.2519
567.142
-82.7852
393.137
-265.374
781.7
-492.599
1351.12
-643.324
1822.25
-714.289
1834.16
1482.31
735.272
-0.476154
582.574
872.132
-9.37586
1250.39
892.046
-18.1957
1502.91
764.008
-30.425
1565.76
580.844
-17.4576
1384.58
418.041
11.8829
1153.42
292.153
46.1654
980.845
183.488
42.5713
854.962
57.6022
0.63623
715.096
-91.4317
-7.24202
563.253
-322.096
-4.28966
1004.02
-591.959
-19.0579
1612.57
-789.391
-38.2863
2055.01
-850.922
-13.6345
1948.01
0.921543
1472.49
733.804
1.60445
585.187
866.567
-8.96256
1255.15
885.588
-22.4918
1506.91
758.627
-35.4363
1570.96
578.409
-17.6269
1393.06
417.964
15.9144
1164.89
291.198
53.4938
985.679
179.813
46.065
844.748
54.688
-4.18816
698.861
-95.6298
-9.02936
560.999
-332.137
-9.09836
1009.09
-603.198
-27.4961
1618.07
-800.726
-46.4323
2044.25
-853.522
-20.5888
1924.85
1.9103
1458.84
733.059
4.3801
587.194
861.856
-4.82275
1259.16
879.698
-25.0291
1511.74
752.952
-38.2031
1577.48
574.624
-17.2197
1400.09
417.462
17.7729
1173.06
293.731
51.888
986.138
181.198
44.0885
829.785
49.2543
1.131
687.29
-105.74
-7.40416
565.79
-344.358
-19.8215
1022.15
-620.171
-32.2209
1624.83
-832.148
-33.8223
2026.13
-870.002
-36.6207
1888.22
-15.6627
1430.77
732.26
7.11467
588.81
857.02
1.88721
1260.6
874.812
-27.0356
1513.14
751.064
-40.9016
1581.82
576.323
-18.0555
1407.21
420.768
17.4304
1180.8
294.151
48.3487
985.753
173.158
48.3587
817.621
43.2063
10.8334
683.903
-103.393
-10.3979
570.844
-339.023
-27.5237
1029.16
-613.486
-31.391
1629.71
-814.778
-31.462
2029.7
-861.599
-42.9319
1898.83
-26.9991
1440.53
732.429
8.1711
588.391
854.688
9.87201
1256.85
871.434
-25.4349
1510.95
748.159
-39.2979
1585.73
575.374
-18.1726
1415.58
421.702
13.7111
1188.07
293.447
43.2081
985.091
173.114
51.1332
814.009
47.083
10.2573
668.538
-97.1265
-15.396
571.751
-330.765
-20.3021
1045.99
-607.782
-14.9752
1632.49
-804.055
-36.4289
2024.5
-855.384
-44.1912
1904.43
-33.3979
1445.1
732.109
6.81661
585.855
855.335
14.586
1245.54
870.838
-18.1046
1501.46
746.587
-29.8011
1586.29
574.374
-15.3975
1423.77
422.559
7.54086
1196.37
298.045
32.0111
989.566
183.195
38.0182
805.646
58.5386
-0.999597
644.684
-95.3171
-15.4709
554.961
-338.658
-10.8887
1036.78
-612.908
-6.53467
1633.36
-800.801
-44.9009
2024.42
-850.286
-43.1518
1897.17
-34.1369
1440.87
730.502
2.44547
581.14
860.481
8.35247
1224.51
874.742
-3.31389
1481.5
747.269
-8.00469
1580.42
571.528
-4.50454
1429.22
420
2.5435
1206.16
299.824
11.7783
992.944
186.647
17.2221
795.466
64.2813
-11.0711
637.519
-98.1553
-12.6382
545.077
-352.394
-7.02802
1027.38
-622.983
-9.12424
1635.95
-812.921
-42.915
2016.87
-852.848
-45.9119
1873.79
-35.8554
1423.75
728.962
-2.39866
579.21
862.952
-4.09872
1214.8
877.525
13.3545
1471.25
749.289
18.0258
1575.71
571.504
10.0887
1429.52
418.995
-0.281425