/*--------------------------------*- C++ -*----------------------------------*\
| =========                 |                                                 |
| \\      /  F ield         | OpenFOAM: The Open Source CFD Toolbox           |
|  \\    /   O peration     | Version:  4.1                                   |
|   \\  /    A nd           | Web:      www.OpenFOAM.org                      |
|    \\/     M anipulation  |                                                 |
\*---------------------------------------------------------------------------*/
FoamFile
{
    version     2.0;
    format      ascii;
    class       volVectorField;
    location    "28";
    object      U;
}
// * * * * * * * * * * * * * * * * * * * * * * * * * * * * * * * * * * * * * //

dimensions      [0 1 -1 0 0 0 0];

internalField   nonuniform List<vector> 
6750
(
(1.90266 -0.00422515 15.981)
(0.388885 -0.012179 16.8523)
(1.07067 -0.0120778 14.7169)
(0.47556 -0.00586013 11.5808)
(0.587893 0.0106827 10.2743)
(0.401078 0.0183311 8.36304)
(0.319065 0.0243445 7.78015)
(0.248266 0.00465408 6.13181)
(0.105205 -0.00558408 3.11864)
(0.0565215 -0.009031 1.25675)
(-0.286684 0.00363338 3.93578)
(-0.0775027 0.00901496 8.0557)
(-1.12061 -0.00532168 15.0671)
(-0.0436227 -0.0136753 17.9806)
(-2.61108 -0.00149639 20.2212)
(1.89545 -0.00833682 15.9701)
(0.385529 -0.0241162 16.8582)
(1.06365 -0.0213419 14.8756)
(0.475652 -0.00750327 11.8787)
(0.586222 0.0204978 10.4934)
(0.401994 0.033423 8.44502)
(0.322714 0.0463033 7.50391)
(0.247473 0.00513322 5.73509)
(0.102211 -0.0121173 3.01136)
(0.0635774 -0.0117532 1.36038)
(-0.29217 0.00969382 3.72072)
(-0.0855927 0.00854232 7.86086)
(-1.12158 -0.00959938 15.1933)
(-0.042474 -0.0274503 17.843)
(-2.63303 -0.00218357 20.0015)
(1.88739 -0.00931237 15.9682)
(0.382176 -0.0277472 16.9107)
(1.05739 -0.0213957 15.0467)
(0.477581 -0.00423998 12.0874)
(0.588931 0.0222117 10.574)
(0.403074 0.0330084 8.4882)
(0.332949 0.044737 7.08661)
(0.244857 0.00451116 5.43297)
(0.0930344 -0.0132278 3.26728)
(0.0689925 -5.05758e-05 1.5434)
(-0.316393 0.0129572 3.44332)
(-0.0926394 -0.0113787 7.74676)
(-1.12973 -0.00675985 15.1873)
(-0.0411888 -0.0230431 17.6375)
(-2.68921 -0.00405205 19.5366)
(1.88263 -0.0102217 15.9159)
(0.379083 -0.033383 16.9211)
(1.05481 -0.0234975 15.1948)
(0.482911 -0.00370619 12.2766)
(0.593935 0.0239754 10.6389)
(0.405648 0.0337933 8.47199)
(0.334107 0.0440657 6.87259)
(0.229147 0.0190121 5.4015)
(0.0780193 0.00375612 3.76311)
(0.0699966 0.0286531 1.84985)
(-0.315098 0.00446875 3.59949)
(-0.0897529 -0.0458508 8.31157)
(-1.12992 -0.00665956 15.2217)
(-0.0416623 -0.0164258 17.8498)
(-2.66182 -0.00680584 19.694)
(1.88383 -0.00938944 15.8066)
(0.375794 -0.0352258 16.9403)
(1.05133 -0.0223472 15.3768)
(0.486902 -0.00264028 12.4849)
(0.59743 0.0222405 10.7041)
(0.409179 0.0314805 8.42174)
(0.334577 0.0511814 6.77957)
(0.223286 0.0427466 5.30927)
(0.0944472 0.0115289 2.96116)
(0.0665885 0.051449 1.61601)
(-0.294018 -0.00989209 4.44367)
(-0.0796637 -0.0191922 9.67665)
(-1.13396 -0.00432563 15.0949)
(-0.0416552 -0.0158654 17.9473)
(-2.64571 -0.0072549 19.7763)
(1.89557 -0.0069437 15.6125)
(0.372983 -0.0323839 16.926)
(1.04788 -0.0194973 15.5593)
(0.489466 -0.00296867 12.7074)
(0.599461 0.0169504 10.7923)
(0.414237 0.0273338 8.4292)
(0.344919 0.0505299 6.60703)
(0.253974 0.0323291 4.27653)
(0.101217 -0.00318086 2.20188)
(0.0836347 0.0637815 1.09663)
(-0.301764 -0.0251072 4.19954)
(-0.0823909 0.0375172 9.14995)
(-1.13742 -0.00141067 15.1671)
(-0.0435027 -0.0166354 18.0419)
(-2.64021 -0.00757793 19.7741)
(1.92259 -0.00255722 15.3187)
(0.372006 -0.0189355 16.8364)
(1.0464 -0.0110852 15.6874)
(0.48943 -0.0020464 12.9175)
(0.598637 0.00862056 10.9083)
(0.412327 0.0164327 8.54107)
(0.358679 0.0334852 6.20686)
(0.242946 0.011183 4.18464)
(0.0968665 -0.00659237 2.51267)
(0.167214 0.0259378 0.377875)
(-0.353227 -0.0103054 3.30096)
(-0.088724 0.0412436 8.25744)
(-1.13869 -0.00226431 15.3148)
(-0.0449596 -0.0151326 17.9998)
(-2.65732 -0.00639535 19.6054)
(1.93584 0.00240815 15.1956)
(0.372306 0.00378515 16.7687)
(1.04797 0.00239171 15.6938)
(0.489848 0.00130555 12.9702)
(0.598851 0.000398622 10.943)
(0.411233 0.00246662 8.62865)
(0.366346 0.0089484 6.10335)
(0.258691 0.0195525 3.76134)
(0.0862922 0.00157802 2.34326)
(0.106647 -0.0337652 0.764588)
(-0.358245 0.011866 3.08344)
(-0.100336 0.000987916 7.56705)
(-1.14532 -0.00219754 15.3279)
(-0.0461707 -0.00249039 17.8201)
(-2.70135 -0.00751072 19.2527)
(1.91595 0.00695523 15.3975)
(0.371804 0.0243755 16.8515)
(1.04648 0.0150583 15.6644)
(0.489446 0.00441075 12.8829)
(0.599216 -0.00763374 10.9011)
(0.413909 -0.011531 8.56867)
(0.36505 -0.0266694 6.17223)
(0.272839 -0.00589636 3.64821)
(0.103563 0.0169812 1.88317)
(0.0602712 0.00622477 1.23364)
(-0.311994 5.06982e-05 3.68829)
(-0.0978321 -0.0515425 7.85887)
(-1.1349 -0.00386623 15.3889)
(-0.0479364 0.0110149 18.0385)
(-2.64645 -0.00894561 19.6486)
(1.89261 0.0105461 15.6789)
(0.372843 0.0352588 16.9288)
(1.04804 0.0224974 15.5277)
(0.488991 0.00515867 12.667)
(0.600028 -0.0153182 10.791)
(0.415908 -0.0246106 8.43468)
(0.353304 -0.0526349 6.42977)
(0.249217 -0.0346406 4.2966)
(0.106292 0.0164104 2.05663)
(0.0513132 0.0185608 1.29944)
(-0.257747 0.0178902 5.05272)
(-0.0871762 -0.037337 8.98558)
(-1.13555 -0.00531617 15.1969)
(-0.0491679 0.0117124 18.0803)
(-2.62212 -0.00771382 19.8365)
(1.88314 0.0122791 15.8671)
(0.37546 0.0368784 16.9414)
(1.05138 0.0247111 15.3438)
(0.48604 0.00468775 12.4435)
(0.59819 -0.0205964 10.69)
(0.412341 -0.0309437 8.39141)
(0.338218 -0.0522158 6.73398)
(0.223987 -0.0335141 5.24783)
(0.0949963 0.00669445 2.95987)
(0.09421 0.0117619 1.0969)
(-0.302175 0.0265781 4.41096)
(-0.0862229 0.0237184 9.83525)
(-1.13419 -0.00116272 15.1573)
(-0.0501847 0.0103099 18.0071)
(-2.62737 -0.00676647 19.8007)
(1.88386 0.0124534 15.9678)
(0.378595 0.0338535 16.9183)
(1.05517 0.0251512 15.1592)
(0.481852 0.00545943 12.2321)
(0.595044 -0.0229185 10.6116)
(0.408278 -0.0332201 8.42968)
(0.336169 -0.0441301 6.87281)
(0.230118 -0.0130573 5.44237)
(0.0892955 0.0153896 3.49189)
(0.0724875 0.0284582 1.57321)
(-0.313893 0.0099675 3.81838)
(-0.0973459 0.0571524 8.74557)
(-1.1308 0.00331848 15.2787)
(-0.0526751 0.0124366 17.9231)
(-2.64087 -0.00510996 19.7042)
(1.89017 0.0108235 16.0109)
(0.381567 0.0276441 16.908)
(1.05799 0.0225649 15.0129)
(0.476271 0.00563824 12.0432)
(0.590206 -0.0214902 10.5379)
(0.404801 -0.0324591 8.47106)
(0.338346 -0.0414987 7.03779)
(0.247142 0.00329199 5.47845)
(0.11273 0.0256916 3.01847)
(0.0652328 0.0726602 1.45076)
(-0.334236 0.00295061 3.31211)
(-0.107301 0.0376552 7.89187)
(-1.13316 0.00531208 15.2903)
(-0.0549807 0.0204683 17.7118)
(-2.66408 -0.00507229 19.5496)
(1.89926 0.00934346 16.006)
(0.384826 0.0236935 16.8557)
(1.06446 0.0221513 14.8431)
(0.474259 0.00860709 11.8322)
(0.587396 -0.0199615 10.455)
(0.403931 -0.0330875 8.43682)
(0.329567 -0.0452587 7.44893)
(0.257208 0.000515351 5.59368)
(0.124933 0.0229944 2.86079)
(0.0744857 0.109368 1.10561)
(-0.329718 -0.0108434 3.34796)
(-0.102959 0.00312216 7.92801)
(-1.12718 0.00770113 15.2995)
(-0.0579165 0.0256958 17.9088)
(-2.60675 -0.00535431 20.0102)
(1.90719 0.00466575 16.0114)
(0.388045 0.0118674 16.8521)
(1.07146 0.0124206 14.6901)
(0.47391 0.00641384 11.5379)
(0.588762 -0.0104141 10.2376)
(0.402537 -0.0181981 8.35654)
(0.325824 -0.0249843 7.72999)
(0.253608 -0.0034251 6.13254)
(0.133879 0.0142101 2.97961)
(0.0725497 0.100774 0.645322)
(-0.310467 -0.00853202 3.70735)
(-0.0943421 -0.00475017 8.1205)
(-1.12779 0.00422758 15.1751)
(-0.0606348 0.0127418 18.0423)
(-2.58275 -0.00226305 20.2302)
(5.5736 -0.0116408 15.5761)
(1.22557 -0.0354732 16.8186)
(3.15022 -0.0391453 15.1205)
(1.55633 -0.0232824 11.8541)
(1.72699 0.0288434 10.4078)
(1.23962 0.0554915 8.55582)
(0.959419 0.0778488 7.8718)
(0.754633 0.0210356 6.31215)
(0.322008 -0.0169324 3.44537)
(0.148883 -0.0260143 1.44515)
(-0.798215 0.0103978 4.27452)
(-0.324546 0.0223161 8.56031)
(-3.23298 -0.0205618 15.7083)
(-0.0377179 -0.0395129 18.1489)
(-7.72523 -0.0011178 20.3472)
(5.55389 -0.0223523 15.5717)
(1.20996 -0.0675243 16.8176)
(3.13271 -0.0672459 15.256)
(1.55423 -0.031259 12.1315)
(1.72561 0.0552172 10.6353)
(1.24227 0.0966475 8.65449)
(0.967659 0.141534 7.6367)
(0.74899 0.0273526 5.93084)
(0.31113 -0.0368308 3.32289)
(0.169757 -0.0333624 1.51909)
(-0.808952 0.0246772 4.07163)
(-0.352737 0.0154653 8.41635)
(-3.23649 -0.0380574 15.8134)
(-0.0422463 -0.0769154 17.997)
(-7.77725 0.00232487 20.1364)
(5.53387 -0.0243831 15.5751)
(1.19522 -0.0757835 16.8633)
(3.11609 -0.0669758 15.4125)
(1.55516 -0.0209331 12.3356)
(1.73268 0.0601269 10.728)
(1.24511 0.0935331 8.70486)
(0.995154 0.133761 7.26221)
(0.745774 0.0233996 5.61174)
(0.286196 -0.0404367 3.52061)
(0.173445 -0.0084529 1.67377)
(-0.864906 0.0299903 3.83944)
(-0.380907 -0.0354276 8.3376)
(-3.25305 -0.0265192 15.7964)
(-0.0662608 -0.0659688 17.7744)
(-7.91297 -0.00660488 19.6861)
(5.52113 -0.0261696 15.5296)
(1.18171 -0.0913835 16.8641)
(3.1083 -0.0757722 15.5438)
(1.56874 -0.0202201 12.5201)
(1.7481 0.0651743 10.8055)
(1.25368 0.096327 8.69876)
(0.999811 0.129528 7.05991)
(0.70185 0.0579996 5.55023)
(0.238373 0.011148 3.94462)
(0.182995 0.0581697 1.94857)
(-0.86017 0.00309252 4.02196)
(-0.367646 -0.124588 8.84167)
(-3.25632 -0.0229143 15.8365)
(-0.0521995 -0.0510089 17.9778)
(-7.84566 -0.0203567 19.8404)
(5.52376 -0.0225726 15.4261)
(1.17101 -0.0956261 16.8679)
(3.09804 -0.0740263 15.7078)
(1.57749 -0.0158496 12.7269)
(1.75793 0.0605297 10.8849)
(1.26376 0.0880464 8.65698)
(1.0013 0.144647 6.9661)
(0.685409 0.125006 5.46988)
(0.280349 0.0354612 3.24532)
(0.180618 0.10422 1.76538)
(-0.819728 -0.0263328 4.84774)
(-0.331288 -0.0531179 10.0084)
(-3.26691 -0.0171222 15.7108)
(-0.042384 -0.0492122 18.0737)
(-7.80516 -0.0216594 19.922)
(5.55248 -0.0148146 15.2359)
(1.16738 -0.0873882 16.8314)
(3.08798 -0.0669197 15.8687)
(1.58285 -0.0153137 12.9464)
(1.76365 0.0456227 10.9857)
(1.27748 0.0750459 8.67143)
(1.02885 0.143318 6.83122)
(0.766455 0.0997445 4.5723)
(0.303746 0.00078709 2.51774)
(0.222722 0.128781 1.30516)
(-0.834873 -0.0480419 4.58529)
(-0.345927 0.0970363 9.55221)
(-3.27692 -0.0100775 15.7923)
(-0.0461293 -0.0501123 18.1575)
(-7.79003 -0.0226039 19.9176)
(5.61822 -0.00327952 14.9444)
(1.17666 -0.0502662 16.7152)
(3.08317 -0.0389072 15.9734)
(1.58195 -0.00949789 13.1502)
(1.76118 0.0226078 11.1086)
(1.27082 0.0439737 8.78628)
(1.06256 0.0940662 6.48812)
(0.751622 0.0381254 4.40876)
(0.292188 -0.0233037 2.77467)
(0.390077 0.06633 0.741619)
(-0.943098 -0.0208353 3.76529)
(-0.377367 0.103384 8.80157)
(-3.2788 -0.0143098 15.935)
(-0.0610154 -0.0443717 18.1018)
(-7.82992 -0.0170854 19.75)
(5.65064 0.00736619 14.8227)
(1.18333 0.0106893 16.6389)
(3.08666 0.0083666 15.9719)
(1.58377 0.00414618 13.1995)
(1.76174 0.00111208 11.1439)
(1.26695 0.00586752 8.87011)
(1.08236 0.0223218 6.40922)
(0.791493 0.0530732 4.04328)
(0.271799 -0.00504002 2.56697)
(0.251154 -0.056649 0.947313)
(-0.953671 0.0124445 3.53278)
(-0.420424 0.00560558 8.21946)
(-3.29313 -0.00817678 15.9437)
(-0.0889397 -0.0110876 17.9089)
(-7.93377 -0.0260732 19.4074)
(5.60286 0.0172086 15.0243)
(1.17192 0.0657384 16.7368)
(3.08362 0.0518808 15.9542)
(1.58179 0.0168958 13.1159)
(1.76261 -0.0199664 11.0981)
(1.27468 -0.0314575 8.81162)
(1.07858 -0.0764846 6.46933)
(0.825951 -0.0278164 3.97362)
(0.328717 0.039986 2.18843)
(0.155127 0.0253829 1.34859)
(-0.8596 -0.0206815 4.05011)
(-0.4028 -0.129685 8.45872)
(-3.27222 -0.00679948 16.0076)
(-0.06733 0.0245927 18.1378)
(-7.80046 -0.0371641 19.7904)
(5.5462 0.0267947 15.3032)
(1.16438 0.0956323 16.8399)
(3.08881 0.0755822 15.8407)
(1.58134 0.0220351 12.9058)
(1.76491 -0.0409154 10.9799)
(1.28144 -0.0674093 8.67915)
(1.05036 -0.148457 6.67293)
(0.757283 -0.107878 4.56521)
(0.32132 0.0365917 2.38166)
(0.14827 0.057445 1.46377)
(-0.73737 0.0390565 5.30537)
(-0.360842 -0.102474 9.39484)
(-3.27612 -0.0134694 15.8185)
(-0.0600973 0.0282867 18.1924)
(-7.73998 -0.0319933 19.9695)
(5.52339 0.032158 15.4872)
(1.16888 0.100456 16.8743)
(3.09876 0.0806398 15.6787)
(1.57486 0.0221296 12.6853)
(1.75938 -0.0555841 10.8678)
(1.27214 -0.0861385 8.6281)
(1.01183 -0.148791 6.92115)
(0.687748 -0.102766 5.40655)
(0.284103 0.00887687 3.2135)
(0.248314 0.0304971 1.28591)
(-0.838026 0.0729481 4.83297)
(-0.354387 0.0577243 10.159)
(-3.27271 -0.00324169 15.763)
(-0.0685142 0.0262801 18.1228)
(-7.75144 -0.0279917 19.9284)
(5.52574 0.0334008 15.5823)
(1.17978 0.0931587 16.8661)
(3.10977 0.0802504 15.5119)
(1.56563 0.0256564 12.4756)
(1.75038 -0.0618869 10.7758)
(1.26058 -0.0945804 8.65674)
(1.00541 -0.130549 7.04953)
(0.703362 -0.0475423 5.58453)
(0.268127 0.0338366 3.68743)
(0.190385 0.0576869 1.65935)
(-0.863742 0.0369403 4.2365)
(-0.393227 0.148775 9.22744)
(-3.26409 0.00962559 15.8798)
(-0.0875772 0.0328985 18.0364)
(-7.78303 -0.0211087 19.8256)
(5.54246 0.0293277 15.6188)
(1.1932 0.0760114 16.8641)
(3.11803 0.0700024 15.3821)
(1.55141 0.0252531 12.2916)
(1.73525 -0.0577629 10.6896)
(1.24944 -0.0921776 8.68507)
(1.00885 -0.125547 7.20969)
(0.751258 -0.00369194 5.64278)
(0.334521 0.0668738 3.29679)
(0.152815 0.154984 1.55459)
(-0.904326 0.0220153 3.74252)
(-0.433698 0.0998862 8.4907)
(-3.26859 0.0196977 15.8845)
(-0.110064 0.0529353 17.831)
(-7.83823 -0.0248376 19.6712)
(5.56515 0.0257512 15.6083)
(1.20806 0.0667833 16.8178)
(3.13514 0.0691893 15.2268)
(1.55041 0.034725 12.0856)
(1.72785 -0.0533766 10.5942)
(1.247 -0.0956245 8.64222)
(0.985054 -0.139325 7.58201)
(0.774234 -0.0138145 5.79332)
(0.368554 0.0692079 3.16269)
(0.168126 0.246195 1.28297)
(-0.891734 -0.0196756 3.76772)
(-0.418102 0.0140276 8.50224)
(-3.25725 0.0305504 15.9046)
(-0.0920738 0.0668888 18.0452)
(-7.69827 -0.02897 20.1146)
(5.58673 0.0131514 15.6071)
(1.22353 0.0348187 16.8202)
(3.15262 0.0399524 15.0968)
(1.55182 0.0250916 11.8122)
(1.72828 -0.0278327 10.3683)
(1.24288 -0.0549177 8.5447)
(0.976543 -0.0797224 7.81846)
(0.770026 -0.01901 6.30307)
(0.395173 0.0455173 3.31789)
(0.16282 0.243026 0.946138)
(-0.852906 -0.0191386 4.08018)
(-0.391749 -0.00878996 8.64267)
(-3.2597 0.0162552 15.7995)
(-0.0927447 0.0341515 18.1904)
(-7.63934 -0.0123076 20.3214)
(9.03872 -0.0171211 14.4635)
(2.30665 -0.0518186 16.7998)
(5.21171 -0.0680304 15.693)
(2.93577 -0.0526769 12.5245)
(2.8407 0.0349655 10.7199)
(2.13132 0.0888227 8.94779)
(1.60808 0.13487 8.10758)
(1.26142 0.0526249 6.67457)
(0.542273 -0.0245937 4.04429)
(0.205691 -0.0350807 1.92756)
(-1.28395 0.015878 4.93857)
(-0.748149 0.0243636 9.62998)
(-5.26631 -0.0441944 16.7311)
(0.0414021 -0.0599014 18.6245)
(-12.8415 0.00241975 20.2819)
(9.01314 -0.0314937 14.4746)
(2.2666 -0.0940069 16.7933)
(5.18488 -0.11356 15.7928)
(2.92622 -0.0734358 12.7603)
(2.84367 0.0694333 10.9526)
(2.13683 0.147281 9.07241)
(1.61837 0.230784 7.93977)
(1.24679 0.0729022 6.32735)
(0.519584 -0.054929 3.897)
(0.234083 -0.0430868 1.957)
(-1.29899 0.0301187 4.76657)
(-0.802872 0.00301348 9.55999)
(-5.27177 -0.0846197 16.7977)
(0.0121251 -0.111199 18.4552)
(-12.9041 0.0158984 20.0835)
(8.99033 -0.0322441 14.4892)
(2.23112 -0.103001 16.8297)
(5.1585 -0.114362 15.9233)
(2.91675 -0.056357 12.9496)
(2.85138 0.0784615 11.0636)
(2.13977 0.140871 9.13797)
(1.65683 0.21404 7.64187)
(1.25162 0.0621962 5.99466)
(0.486442 -0.0615091 4.00414)
(0.215871 -0.0177872 2.0641)
(-1.37137 0.028696 4.60712)
(-0.858413 -0.0587581 9.53338)
(-5.28711 -0.0594146 16.7536)
(-0.101546 -0.0998304 18.2145)
(-13.072 -0.004771 19.6486)
(8.97458 -0.0317707 14.4573)
(2.19957 -0.124696 16.8184)
(5.14277 -0.13511 16.0256)
(2.93271 -0.0588252 13.1208)
(2.87774 0.0860119 11.1603)
(2.15606 0.146695 9.15185)
(1.66785 0.205086 7.46347)
(1.18875 0.100411 5.88762)
(0.403273 0.0163606 4.31509)
(0.239735 0.0525068 2.28482)
(-1.35796 -0.0215689 4.80961)
(-0.831848 -0.174205 9.93406)
(-5.29645 -0.0446941 16.8033)
(-0.0395999 -0.0859999 18.396)
(-12.9862 -0.035919 19.799)
(8.97838 -0.0233536 14.3644)
(2.18016 -0.128492 16.797)
(5.1248 -0.136156 16.1555)
(2.93908 -0.049487 13.3182)
(2.89195 0.0807054 11.2634)
(2.17148 0.131249 9.12991)
(1.671 0.215047 7.37033)
(1.16304 0.193277 5.8218)
(0.458315 0.0544416 3.76393)
(0.244471 0.0917343 2.1791)
(-1.31037 -0.0477877 5.5755)
(-0.768127 -0.0773618 10.7924)
(-5.31235 -0.0383081 16.6813)
(0.00233981 -0.0829347 18.4847)
(-12.9339 -0.0381954 19.8805)
(9.01267 -0.00979621 14.1817)
(2.18311 -0.116924 16.7207)
(5.10845 -0.127909 16.2735)
(2.94145 -0.0451387 13.5253)
(2.9004 0.0596812 11.3848)
(2.19043 0.108955 9.15911)
(1.70803 0.211679 7.2882)
(1.27232 0.165561 5.13433)
(0.506557 0.010775 3.10454)
(0.304117 0.106866 1.80087)
(-1.32668 -0.0504142 5.29578)
(-0.803067 0.122648 10.4531)
(-5.32643 -0.0314224 16.7728)
(0.00180438 -0.0844 18.5463)
(-12.9108 -0.0420417 19.871)
(9.09203 0.00517101 13.893)
(2.2284 -0.0662728 16.5579)
(5.10308 -0.0765096 16.3305)
(2.93656 -0.0263577 13.7104)
(2.89589 0.0283974 11.5185)
(2.17772 0.0613759 9.2794)
(1.74922 0.136989 7.04011)
(1.27632 0.0725313 4.90114)
(0.492504 -0.0340293 3.26861)
(0.466858 0.0645133 1.40884)
(-1.45786 -0.0176508 4.59974)
(-0.867488 0.123592 9.92337)
(-5.32478 -0.0428692 16.9005)
(-0.049138 -0.0724869 18.4669)
(-12.956 -0.0291964 19.7001)
(9.13225 0.0114517 13.7715)
(2.25691 0.0154008 16.4687)
(5.10899 0.0164127 16.313)
(2.93996 0.00811382 13.7512)
(2.8971 0.00207908 11.5542)
(2.17036 0.00681679 9.35632)
(1.77431 0.0268916 6.99773)
(1.33197 0.0726621 4.62336)
(0.481482 -0.0102077 3.03309)
(0.28651 -0.03945 1.45336)
(-1.47809 0.00950011 4.37897)
(-0.953256 0.00856594 9.51052)
(-5.33917 -0.0192053 16.8927)
(-0.156032 -0.029662 18.2588)
(-13.0793 -0.0525965 19.3696)
(9.07686 0.018609 13.9726)
(2.21551 0.0894475 16.5945)
(5.10383 0.100624 16.3198)
(2.9363 0.0402765 13.6778)
(2.89769 -0.0239723 11.5025)
(2.18195 -0.0451855 9.29913)
(1.76891 -0.114103 7.04052)
(1.37124 -0.0618594 4.60958)
(0.57789 0.040532 2.76453)
(0.202268 0.0397725 1.73091)
(-1.37012 -0.0580009 4.7689)
(-0.91396 -0.163274 9.6692)
(-5.32005 -0.00256119 16.9699)
(-0.0509912 0.0158817 18.4934)
(-12.9121 -0.0832784 19.7378)
(9.00943 0.0324567 14.2492)
(2.176 0.130883 16.7422)
(5.1103 0.142536 16.2528)
(2.93899 0.0570629 13.4857)
(2.90152 -0.051823 11.3714)
(2.19437 -0.0974103 9.16815)
(1.73695 -0.217744 7.16188)
(1.26691 -0.178983 5.09568)
(0.535939 0.0305975 2.97539)
(0.221116 0.089362 1.90282)
(-1.2132 0.0316867 5.82438)
(-0.838017 -0.141773 10.316)
(-5.33254 -0.0194563 16.7916)
(-0.0115895 0.0242721 18.5652)
(-12.8326 -0.0742413 19.9021)
(8.98175 0.0426582 14.4264)
(2.17425 0.137546 16.8128)
(5.12664 0.146425 16.1334)
(2.93473 0.0601722 13.2779)
(2.89257 -0.0722418 11.2413)
(2.18198 -0.127187 9.10256)
(1.687 -0.22339 7.32596)
(1.16722 -0.169708 5.75599)
(0.465401 -0.0123649 3.69508)
(0.322248 0.0498479 1.79102)
(-1.33241 0.0984485 5.58061)
(-0.820963 0.0693788 10.9277)
(-5.3303 -0.00780166 16.7132)
(-0.0406427 0.0227662 18.5026)
(-12.842 -0.0691241 19.8472)
(8.98407 0.0470815 14.5115)
(2.1954 0.128897 16.8278)
(5.14617 0.14095 16.0005)
(2.9281 0.0678719 13.0779)
(2.87932 -0.0799581 11.1269)
(2.16444 -0.143436 9.10994)
(1.67571 -0.208099 7.4364)
(1.18645 -0.0956373 5.90782)
(0.442561 0.0219746 4.0786)
(0.245392 0.0596339 2.00991)
(-1.36971 0.0633097 5.01098)
(-0.889336 0.195433 10.246)
(-5.31877 0.0120291 16.8191)
(-0.102624 0.0345319 18.4138)
(-12.8757 -0.0555174 19.728)
(9.00509 0.0423375 14.5343)
(2.2287 0.10465 16.8363)
(5.16292 0.118079 15.8995)
(2.91146 0.0636116 12.9078)
(2.85308 -0.0737467 11.0219)
(2.144 -0.138755 9.11304)
(1.67431 -0.204599 7.5836)
(1.25424 -0.0374465 5.99979)
(0.546469 0.075337 3.80074)
(0.17393 0.158066 1.9115)
(-1.4222 0.0403471 4.55767)
(-0.970102 0.135563 9.69636)
(-5.3219 0.0400042 16.8085)
(-0.180882 0.0605943 18.2239)
(-12.939 -0.0665973 19.5713)
(9.03136 0.0382911 14.5126)
(2.26493 0.0941846 16.798)
(5.18982 0.115757 15.7699)
(2.92095 0.0793776 12.7173)
(2.84479 -0.0655525 10.9075)
(2.14103 -0.145227 9.05232)
(1.64006 -0.22913 7.88425)
(1.27501 -0.0589161 6.1965)
(0.595025 0.0915321 3.71536)
(0.192365 0.258833 1.73024)
(-1.40221 -0.0298151 4.5591)
(-0.940745 0.0326062 9.67699)
(-5.31295 0.0654355 16.8549)
(-0.0847043 0.0783348 18.457)
(-12.7603 -0.0775349 19.99)
(9.05954 0.0202291 14.4956)
(2.30518 0.0515769 16.8048)
(5.21659 0.0689113 15.6747)
(2.92953 0.055919 12.4858)
(2.8402 -0.0326023 10.6766)
(2.13302 -0.0872998 8.92817)
(1.62893 -0.13744 8.04819)
(1.27764 -0.0530425 6.64784)
(0.637365 0.0649316 3.91567)
(0.207159 0.277855 1.53356)
(-1.35174 -0.0297203 4.78566)
(-0.895692 -0.00317035 9.74046)
(-5.31963 0.03295 16.784)
(-0.0670377 0.0416975 18.6123)
(-12.6833 -0.0333295 20.1753)
(11.8465 -0.018302 12.2266)
(4.01054 -0.0539754 16.7554)
(7.2324 -0.088291 16.3273)
(4.8028 -0.0908667 13.6563)
(4.03211 0.0159786 11.3584)
(3.08783 0.10583 9.55726)
(2.28015 0.183009 8.54137)
(1.75639 0.098723 7.22776)
(0.767759 -0.0220169 4.87654)
(0.236148 -0.037822 2.7366)
(-1.71447 0.0162544 5.96171)
(-1.55141 0.00949957 11.2888)
(-7.10146 -0.0778567 17.9692)
(-0.539546 -0.0702788 19.5508)
(-17.5794 0.0074579 19.434)
(11.8315 -0.0314084 12.2625)
(3.94054 -0.093073 16.7567)
(7.19054 -0.14588 16.3888)
(4.77598 -0.131024 13.8345)
(4.03552 0.0443789 11.579)
(3.09651 0.171147 9.70741)
(2.29182 0.296399 8.45022)
(1.73393 0.138786 6.93387)
(0.731494 -0.0586762 4.70529)
(0.25587 -0.0474642 2.73254)
(-1.73974 0.0211034 5.84502)
(-1.63485 -0.0325689 11.285)
(-7.11146 -0.156679 17.9866)
(-0.626671 -0.124146 19.3697)
(-17.6228 0.037377 19.2441)
(11.8205 -0.0278813 12.2922)
(3.88125 -0.0970722 16.7892)
(7.15163 -0.151083 16.4856)
(4.74697 -0.111558 13.9952)
(4.03615 0.0599 11.7035)
(3.0968 0.165655 9.79418)
(2.33289 0.273723 8.24821)
(1.75258 0.119586 6.6122)
(0.69922 -0.0680604 4.71635)
(0.197152 -0.0251814 2.80091)
(-1.82167 0.0101969 5.77871)
(-1.72036 -0.0835974 11.3062)
(-7.13439 -0.111199 17.9088)
(-0.92449 -0.122066 19.113)
(-17.7469 -0.00160848 18.8068)
(11.8109 -0.0200286 12.2832)
(3.82257 -0.114128 16.7702)
(7.12005 -0.18579 16.55)
(4.75383 -0.12324 14.1408)
(4.07041 0.0672869 11.8175)
(3.12257 0.175315 9.83571)
(2.3532 0.262175 8.10773)
(1.68667 0.148733 6.46391)
(0.583165 0.0219577 4.90425)
(0.225884 0.0259844 2.96554)
(-1.79853 -0.0654308 5.98035)
(-1.68649 -0.19406 11.5942)
(-7.14469 -0.0735522 17.9665)
(-0.756966 -0.120592 19.262)
(-17.6768 -0.0600626 18.965)
(11.8168 -0.00118835 12.2126)
(3.78851 -0.11217 16.7213)
(7.09113 -0.194843 16.6298)
(4.7479 -0.111071 14.3136)
(4.08349 0.0655877 11.9442)
(3.14169 0.155343 9.84634)
(2.36041 0.256588 8.02311)
(1.65369 0.241505 6.40758)
(0.637857 0.0684801 4.49915)
(0.240095 0.0395414 2.92817)
(-1.74252 -0.0783062 6.62561)
(-1.59827 -0.0948276 12.134)
(-7.16262 -0.072871 17.8543)
(-0.646484 -0.117664 19.3385)
(-17.6338 -0.0632048 19.0544)
(11.845 0.0177047 12.0501)
(3.80482 -0.097732 16.5992)
(7.07355 -0.190611 16.6841)
(4.73978 -0.101894 14.4908)
(4.0895 0.0450693 12.0847)
(3.16175 0.125151 9.89803)
(2.39814 0.246977 7.99052)
(1.76892 0.219977 5.93941)
(0.720137 0.0283802 3.94528)
(0.317103 0.0374556 2.61661)
(-1.76215 -0.0515838 6.35187)
(-1.66334 0.106169 11.9257)
(-7.17671 -0.0730366 17.9481)
(-0.633176 -0.125369 19.3679)
(-17.6041 -0.0727583 19.0377)
(11.8976 0.0232672 11.77)
(3.90524 -0.0500725 16.3742)
(7.0839 -0.116936 16.6712)
(4.72968 -0.0593603 14.6382)
(4.07823 0.0189078 12.2245)
(3.14154 0.0670472 10.025)
(2.43418 0.156242 7.84803)
(1.80105 0.107638 5.68887)
(0.711522 -0.0374616 4.01052)
(0.472955 0.0254416 2.34323)
(-1.8985 -0.0152909 5.79918)
(-1.75885 0.0987569 11.6232)
(-7.17447 -0.0985891 18.0466)
(-0.755429 -0.107567 19.2576)
(-17.625 -0.0474902 18.8536)
(11.9202 0.00794068 11.6445)
(3.96413 0.0161721 16.2637)
(7.09969 0.0253106 16.6313)
(4.73579 0.0145044 14.6643)
(4.07949 0.00412112 12.2585)
(3.13053 0.00558832 10.0924)
(2.45525 0.0222977 7.84109)
(1.86246 0.0744165 5.50022)
(0.726295 -0.0179343 3.77698)
(0.256692 -0.0279144 2.31208)
(-1.93826 0.00825384 5.64107)
(-1.88952 0.0023855 11.3807)
(-7.19558 -0.040854 18.0116)
(-1.02003 -0.0703374 19.0371)
(-17.7086 -0.0936198 18.5244)
(11.8867 0.00206562 11.8381)
(3.88162 0.0765248 16.4303)
(7.08171 0.152161 16.6761)
(4.72939 0.0823486 14.6111)
(4.0803 -0.0113815 12.2029)
(3.14414 -0.051478 10.0354)
(2.45102 -0.13535 7.86098)
(1.89266 -0.100793 5.52846)
(0.851205 0.0159681 3.61114)
(0.199657 0.0410305 2.47409)
(-1.83454 -0.0951433 5.90267)
(-1.83654 -0.155829 11.4646)
(-7.17283 0.00809468 18.1046)
(-0.74316 -0.0303807 19.2675)
(-17.579 -0.157952 18.8969)
(11.846 0.018638 12.1037)
(3.79968 0.116479 16.6405)
(7.07684 0.209946 16.6783)
(4.73728 0.119274 14.4557)
(4.08959 -0.0338519 12.0628)
(3.16264 -0.111424 9.90448)
(2.42788 -0.254137 7.89963)
(1.77011 -0.240243 5.88118)
(0.755823 -0.00629094 3.82022)
(0.245238 0.103824 2.6665)
(-1.66285 0.00128143 6.69381)
(-1.73646 -0.148324 11.8208)
(-7.19198 -0.0281748 17.9487)
(-0.633314 -0.0145423 19.3494)
(-17.5075 -0.145287 19.0467)
(11.8284 0.0368244 12.2666)
(3.79001 0.126962 16.7553)
(7.09659 0.208541 16.6207)
(4.74282 0.125747 14.2776)
(4.08156 -0.0537579 11.9167)
(3.14948 -0.148801 9.81942)
(2.37792 -0.270199 7.97927)
(1.65724 -0.228844 6.34038)
(0.643567 -0.056857 4.40383)
(0.317429 0.0645511 2.63038)
(-1.76991 0.103534 6.64358)
(-1.70051 0.0621001 12.2492)
(-7.19632 -0.0220818 17.8479)
(-0.702018 -0.0161222 19.2876)
(-17.4987 -0.139912 18.9658)
(11.8281 0.048262 12.3366)
(3.82268 0.125023 16.7933)
(7.12704 0.19321 16.5356)
(4.74891 0.13481 14.1025)
(4.06944 -0.0582938 11.781)
(3.12803 -0.170371 9.79388)
(2.361 -0.268515 8.0642)
(1.67462 -0.154419 6.46438)
(0.619768 -0.0197493 4.6902)
(0.223478 0.0514876 2.73595)
(-1.82433 0.0875429 6.16821)
(-1.80195 0.19389 11.8307)
(-7.18939 -0.00125573 17.9339)
(-0.851789 0.00168264 19.1879)
(-17.5046 -0.11319 18.8093)
(11.841 0.0465804 12.3385)
(3.88146 0.104423 16.8044)
(7.15995 0.155087 16.4709)
(4.74177 0.120433 13.9587)
(4.03496 -0.0526201 11.6599)
(3.09648 -0.162587 9.76305)
(2.3486 -0.267905 8.18462)
(1.74487 -0.0971558 6.58794)
(0.755669 0.0493107 4.52054)
(0.135964 0.126944 2.6373)
(-1.89121 0.0587694 5.79693)
(-1.92329 0.142592 11.478)
(-7.19743 0.0599375 17.9027)
(-1.05103 0.0267224 19.0171)
(-17.5381 -0.136162 18.6308)
(11.8544 0.0440255 12.3006)
(3.94281 0.0981271 16.7674)
(7.20002 0.14768 16.3746)
(4.77127 0.138109 13.7979)
(4.03359 -0.0381382 11.5321)
(3.09511 -0.167658 9.67789)
(2.31027 -0.297153 8.39227)
(1.75064 -0.130996 6.81181)
(0.80936 0.0758326 4.5)
(0.170341 0.211151 2.51666)
(-1.8648 -0.03023 5.76091)
(-1.88206 0.0566992 11.4413)
(-7.1813 0.109732 17.9846)
(-0.78926 0.0379958 19.2647)
(-17.3906 -0.158996 19.026)
(11.8719 0.0239198 12.258)
(4.01362 0.0563553 16.7651)
(7.24181 0.0890701 16.317)
(4.79704 0.0949303 13.6243)
(4.02785 -0.0118656 11.3134)
(3.08266 -0.102821 9.52776)
(2.29676 -0.185662 8.4746)
(1.75951 -0.103572 7.18035)
(0.862239 0.0572827 4.7302)
(0.22207 0.247804 2.41754)
(-1.80562 -0.0350189 5.88701)
(-1.82737 0.00974823 11.4373)
(-7.19104 0.0500892 17.9551)
(-0.726037 0.0214621 19.4162)
(-17.3202 -0.0682119 19.1835)
(13.8389 -0.0142656 9.40335)
(5.97172 -0.0473268 16.2208)
(9.1396 -0.0903068 16.9697)
(7.16247 -0.123282 15.2295)
(5.53069 -0.0302395 12.5525)
(4.16617 0.0932277 10.4712)
(3.00146 0.210391 9.22105)
(2.24861 0.151883 7.98335)
(1.00392 -0.0038802 5.93545)
(0.238236 -0.033861 3.88084)
(-2.11755 0.0126972 7.53114)
(-2.81412 -0.0201605 13.5637)
(-8.75509 -0.115005 19.6503)
(-2.08458 -0.0669428 20.7443)
(-21.5776 0.00938608 18.0802)
(13.8466 -0.0222513 9.45688)
(5.89106 -0.0757069 16.2469)
(9.07929 -0.148019 17.0054)
(7.10844 -0.182549 15.3434)
(5.51926 -0.0239142 12.7341)
(4.17331 0.152903 10.6348)
(3.01356 0.326821 9.20426)
(2.22287 0.212122 7.75842)
(0.956752 -0.0412607 5.75083)
(0.247987 -0.0506496 3.85154)
(-2.15266 0.000682175 7.47218)
(-2.91744 -0.0886935 13.6011)
(-8.78228 -0.237197 19.6171)
(-2.233 -0.103819 20.5439)
(-21.572 0.056292 17.897)
(13.8542 -0.00986881 9.4975)
(5.81875 -0.0678381 16.2854)
(9.02458 -0.156021 17.0721)
(7.05364 -0.167638 15.4631)
(5.49909 -0.00264401 12.8539)
(4.16487 0.153805 10.7395)
(3.04877 0.304132 9.10113)
(2.25499 0.185165 7.48059)
(0.934005 -0.0562751 5.68332)
(0.15392 -0.0361769 3.89624)
(-2.23406 -0.0216684 7.48891)
(-3.03015 -0.115834 13.6536)
(-8.85747 -0.168365 19.5089)
(-2.71247 -0.126442 20.2348)
(-21.5723 -0.0014639 17.4652)
(13.8659 0.012347 9.51782)
(5.74471 -0.0659207 16.2756)
(8.97136 -0.196767 17.1008)
(7.03567 -0.194351 15.568)
(5.52904 -0.00269323 12.9705)
(4.19962 0.166247 10.8107)
(3.0799 0.293873 9.013)
(2.20205 0.20074 7.31313)
(0.793252 0.0310836 5.75989)
(0.169089 -0.00813442 4.01808)
(-2.20712 -0.115754 7.66831)
(-2.99227 -0.198772 13.8359)
(-8.83844 -0.104304 19.5579)
(-2.42002 -0.15941 20.3581)
(-21.5628 -0.091675 17.6359)
(13.8864 0.0354997 9.48442)
(5.70905 -0.0442787 16.2155)
(8.9331 -0.209825 17.1251)
(7.01008 -0.186372 15.6948)
(5.52895 0.000826486 13.105)
(4.2173 0.148002 10.8609)
(3.09358 0.271887 8.95111)
(2.16605 0.273665 7.26055)
(0.838639 0.0768642 5.47286)
(0.197243 -0.0206247 4.0241)
(-2.13843 -0.112119 8.14361)
(-2.89539 -0.114945 14.1087)
(-8.8412 -0.118105 19.4613)
(-2.22938 -0.157487 20.4271)
(-21.5575 -0.100243 17.732)
(13.8996 0.0473004 9.36794)
(5.73252 -0.0166465 16.0597)
(8.92316 -0.205974 17.1028)
(6.99283 -0.175004 15.8171)
(5.52247 -0.0134026 13.2486)
(4.23163 0.114538 10.9388)
(3.12611 0.252414 8.9593)
(2.27025 0.2576 6.97941)
(0.95764 0.0447684 5.04177)
(0.298632 -0.0359091 3.75789)
(-2.1708 -0.0578109 7.9135)
(-2.98889 0.0552406 14.0176)
(-8.8491 -0.135633 19.5359)
(-2.18658 -0.176249 20.4143)
(-21.5236 -0.119431 17.7054)
(13.892 0.0371137 9.145)
(5.84566 0.0113954 15.7733)
(8.96611 -0.123539 16.9963)
(6.99436 -0.10333 15.9009)
(5.50077 -0.0154315 13.3792)
(4.19879 0.0570512 11.069)
(3.14521 0.1539 8.91036)
(2.32206 0.134723 6.7646)
(0.965119 -0.042767 5.0265)
(0.444959 -0.0273872 3.55614)
(-2.31179 -0.0219613 7.52934)
(-3.11018 0.0382277 13.9033)
(-8.87002 -0.182204 19.5855)
(-2.38747 -0.152955 20.2515)
(-21.4814 -0.0804135 17.5012)
(13.8801 0.000569554 9.04031)
(5.90555 0.0124884 15.6375)
(8.9975 0.0310294 16.9242)
(7.0115 0.0233537 15.9049)