/*--------------------------------*- C++ -*----------------------------------*\
| =========                 |                                                 |
| \\      /  F ield         | OpenFOAM: The Open Source CFD Toolbox           |
|  \\    /   O peration     | Version:  4.1                                   |
|   \\  /    A nd           | Web:      www.OpenFOAM.org                      |
|    \\/     M anipulation  |                                                 |
\*---------------------------------------------------------------------------*/
FoamFile
{
    version     2.0;
    format      ascii;
    class       volScalarField;
    location    "8.5";
    object      epsilon;
}
// * * * * * * * * * * * * * * * * * * * * * * * * * * * * * * * * * * * * * //

dimensions      [0 2 -3 0 0 0 0];

internalField   nonuniform List<scalar> 
204246
(
0.568736
0.648605
0.649008
0.650318
0.650321
0.650983
0.650992
0.651781
0.652771
0.654419
0.65969
0.667549
0.685426
0.719311
0.787716
0.926048
1.19507
1.67315
2.41822
3.13594
3.41802
3.50951
3.55899
3.58131
3.60931
3.61067
3.61429
3.59261
3.58601
3.55047
3.53086
3.48069
3.45664
3.42154
3.39215
3.37192
3.34175
3.33923
3.32673
3.3209
3.31437
3.31779
3.31765
3.32528
3.33454
3.34934
3.36867
3.38635
3.4108
3.4293
3.45972
3.4811
3.5156
3.52982
3.58213
3.59598
3.63866
3.65906
3.694
3.72098
3.75074
3.77591
3.80808
3.82908
3.86071
3.8782
3.90925
3.9283
3.95709
3.97526
3.99175
4.03001
4.04073
4.07563
4.08737
4.12265
4.13469
4.17117
4.1811
4.22222
4.23656
4.27337
4.29334
4.32467
4.34972
4.37985
4.40604
4.42378
4.47104
4.48773
4.52811
4.54965
4.58737
4.60985
4.65045
4.67835
4.71378
4.74729
4.78028
4.81583
4.84729
4.88686
4.91834
4.95789
4.99098
5.02906
5.05327
5.11515
5.13344
5.19061
5.21037
5.27147
5.29735
5.35152
5.38811
5.43663
5.47508
5.52477
5.56606
5.61607
5.66131
5.71126
5.75961
5.79333
5.8727
5.89875
5.97384
6.00463
6.07876
6.11444
6.18757
6.22615
6.29985
6.34101
6.41595
6.45957
6.53508
6.5813
6.65838
6.70704
6.76582
6.85245
6.89714
6.98282
7.02944
7.11657
7.16361
7.25324
7.30056
7.39263
7.43989
7.53434
7.58117
7.67818
7.72473
7.82463
7.87086
7.94913
8.03979
8.09627
8.18796
8.24275
8.33744
8.38995
8.4879
8.53757
8.64004
8.68592
8.79339
8.83627
8.95061
8.98962
9.11285
9.14913
9.28586
9.31626
9.44156
9.53719
9.62442
9.74778
9.83031
9.98341
10.0705
10.2574
10.3608
10.587
10.7214
10.9929
11.1731
11.4653
11.6527
11.8144
11.835
0.0582877
0.122
0.120925
0.120795
0.123495
0.12238
0.125711
0.12582
0.132891
0.137522
0.156509
0.179804
0.238801
0.33171
0.529787
0.867396
1.46128
2.03152
2.17748
2.13415
1.79195
1.32266
1.08791
1.00511
0.939363
0.872663
0.799266
0.788495
0.759241
0.756475
0.724019
0.730872
0.723442
0.743825
0.746124
0.772046
0.77677
0.788149
0.799722
0.800745
0.808059
0.80677
0.810536
0.807729
0.810361
0.80934
0.813322
0.816543
0.827284
0.83517
0.850124
0.856975
0.875883
0.88061
0.885474
0.906164
0.904246
0.925249
0.924369
0.942188
0.939777
0.954844
0.949735
0.965378
0.959092
0.974741
0.968778
0.982554
0.979633
0.997279
0.99603
0.995743
1.01366
1.01143
1.02987
1.02776
1.04698
1.04512
1.06529
1.06223
1.08332
1.07917
1.10102
1.09705
1.11943
1.11866
1.1442
1.14566
1.15402
1.17522
1.17532
1.20074
1.20056
1.22749
1.22592
1.25421
1.25159
1.2803
1.2774
1.30799
1.30605
1.33718
1.33877
1.37082
1.37285
1.40748
1.40918
1.4338
1.46017
1.46391
1.50013
1.5015
1.54036
1.54033
1.58117
1.58154
1.62515
1.62876
1.67349
1.67816
1.72366
1.72803
1.77959
1.78779
1.82117
1.8613
1.86843
1.92277
1.9312
1.98647
1.99469
2.05413
2.06408
2.12603
2.13713
2.20227
2.21441
2.28286
2.29648
2.37137
2.3889
2.43949
2.50101
2.51713
2.59668
2.61471
2.69734
2.71629
2.80249
2.82266
2.91269
2.93433
3.02626
3.04809
3.14412
3.16746
3.27221
3.30027
3.36887
3.45474
3.47961
3.58236
3.60688
3.71043
3.735
3.83744
3.86127
3.96198
3.98427
4.08214
4.10328
4.19783
4.21736
4.31113
4.33519
4.42379
4.44596
4.48417
4.55298
4.5577
4.6248
4.62204
4.67356
4.66378
4.69998
4.68423
4.72048
4.70826
4.84664
4.97326
5.45373
5.74106
5.88797
0.00625801
0.0134332
0.0130115
0.0127973
0.0139075
0.0142029
0.0167158
0.0189489
0.025144
0.0341294
0.0529168
0.0848671
0.14662
0.257358
0.464502
0.826816
1.40385
1.75337
1.7793
1.49656
0.920591
0.637686
0.540256
0.509475
0.498165
0.496022
0.494758
0.501155
0.511128
0.522641
0.528387
0.547843
0.567236
0.597417
0.622608
0.658011
0.685485
0.714911
0.739456
0.76123
0.781566
0.795221
0.80954
0.816012
0.822233
0.824885
0.825654
0.826411
0.826138
0.828667
0.82951
0.834668
0.836787
0.842957
0.846164
0.854095
0.859337
0.866934
0.873976
0.881172
0.889575
0.896314
0.904851
0.911282
0.919732
0.925592
0.934164
0.940173
0.949474
0.955548
0.965346
0.971494
0.981599
0.988344
0.997999
1.00559
1.01459
1.02328
1.03173
1.04097
1.04902
1.05878
1.06684
1.07714
1.08558
1.09667
1.10564
1.117
1.1253
1.13707
1.14577
1.15745
1.16722
1.17889
1.18955
1.20104
1.21227
1.22388
1.23608
1.2479
1.26078
1.27271
1.28612
1.29885
1.31299
1.32644
1.34073
1.3535
1.36859
1.38129
1.3969
1.4097
1.42591
1.43879
1.45571
1.46874
1.48647
1.49979
1.51804
1.53127
1.55035
1.56382
1.5844
1.59729
1.61553
1.63177
1.6468
1.66612
1.67915
1.70013
1.71175
1.73452
1.74469
1.76834
1.77778
1.80151
1.81049
1.83434
1.84305
1.86697
1.87513
1.89273
1.90728
1.91602
1.93442
1.9391
1.95682
1.95985
1.97528
1.97647
1.98933
1.98862
1.99709
1.99368
1.99823
1.99202
1.99585
1.98305
1.9761
1.97271
1.9507
1.94901
1.91864
1.91439
1.87799
1.87152
1.83015
1.82239
1.77746
1.76877
1.72073
1.71163
1.66077
1.65119
1.60132
1.5923
1.5387
1.51481
1.49555
1.45357
1.44771
1.40178
1.39719
1.35431
1.35175
1.31592
1.31732
1.29782
1.30749
1.29587
1.30382
1.18906
1.14621
0.000831743
0.00156281
0.00159258
0.00174532
0.00222145
0.00286895
0.00441064
0.0069785
0.0122122
0.0217521
0.0401259
0.0740801
0.137172
0.250566
0.449337
0.775584
1.21373
1.37443
1.36759
1.10625
0.633942
0.46093
0.41174
0.401617
0.400799
0.40135
0.396439
0.3908
0.388766
0.389306
0.38938
0.39759
0.414717
0.447084
0.482047
0.526708
0.568529
0.613706
0.658838
0.700968
0.748586
0.787585
0.832268
0.857153
0.887378
0.904014
0.925973
0.935958
0.949346
0.956951
0.968339
0.977037
0.984343
0.990487
0.997856
1.00315
1.01301
1.01728
1.02673
1.0309
1.04079
1.04506
1.05493
1.05873
1.06789
1.07119
1.0795
1.0826
1.09021
1.09328
1.10125
1.10588
1.11209
1.11869
1.12412
1.13208
1.13693
1.14592
1.15028
1.1595
1.16353
1.17256
1.17651
1.18553
1.18964
1.19848
1.20266
1.21119
1.2162
1.22294
1.2288
1.23477
1.24132
1.24699
1.2542
1.2592
1.26639
1.27103
1.27866
1.28326
1.29069
1.29531
1.30247
1.30757
1.3145
1.3199
1.32618
1.3317
1.33736
1.34247
1.34841
1.35262
1.35904
1.36209
1.36879
1.37084
1.37721
1.37913
1.38466
1.38599
1.39087
1.39145
1.3957
1.39549
1.39598
1.3975
1.39573
1.39692
1.39323
1.39391
1.38803
1.38816
1.37972
1.37901
1.36795
1.36626
1.35247
1.34964
1.33337
1.32958
1.30876
1.29894
1.28427
1.26517
1.25467
1.22809
1.21918
1.1878
1.1775
1.14309
1.1315
1.09417
1.08129
1.04118
1.02709
0.985393
0.970888
0.925321
0.903611
0.871131
0.838327
0.815547
0.774592
0.759152
0.715894
0.700987
0.659642
0.645736
0.608181
0.595573
0.561831
0.550827
0.521026
0.511669
0.485619
0.477793
0.455048
0.444996
0.431067
0.418791
0.410627
0.396161
0.392073
0.377678
0.374374
0.365126
0.364867
0.364537
0.37824
0.390566
0.413579
0.421222
0.426982
0.000684658
0.000748246
0.000806868
0.00097335
0.0012846
0.0018909
0.00309619
0.00541791
0.00996996
0.0187253
0.0355528
0.067226
0.125857
0.230571
0.409354
0.690504
1.0063
1.10069
1.08662
0.881353
0.503378
0.344993
0.292404
0.271859
0.261934
0.25461
0.235091
0.222176
0.218539
0.219356
0.222649
0.238464
0.267583
0.315532
0.367788
0.42007
0.46077
0.496659
0.528453
0.563327
0.594224
0.625198
0.659488
0.705418
0.765745
0.820553
0.879805
0.921445
0.95795
0.977826
1.00576
1.02628
1.04662
1.05831
1.07199
1.08321
1.09584
1.10468
1.11258
1.11912
1.12548
1.131
1.13616
1.14045
1.14492
1.14799
1.15098
1.15193
1.15245
1.15235
1.15234
1.15167
1.1512
1.15119
1.1513
1.1521
1.15287
1.15496
1.15656
1.15918
1.16086
1.16316
1.16474
1.16647
1.1678
1.16882
1.16986
1.16998
1.17014
1.17042
1.16984
1.17002
1.16875
1.16889
1.16672
1.16692
1.16381
1.16379
1.15968
1.15941
1.15415
1.15324
1.14742
1.14608
1.13935
1.13766
1.12871
1.12482
1.11904
1.11147
1.10755
1.09693
1.09415
1.08147
1.07822
1.06396
1.05966
1.0447
1.03954
1.02314
1.01731
0.999299
0.992971
0.972117
0.962053
0.946385
0.930003
0.91761
0.895926
0.886151
0.860907
0.851564
0.824546
0.814678
0.786612
0.776373
0.747444
0.736825
0.707533
0.696782
0.666219
0.651665
0.628907
0.608545
0.591313
0.566392
0.554222
0.526988
0.516866
0.489963
0.480346
0.454897
0.445886
0.422126
0.413864
0.392186
0.384815
0.364565
0.355358
0.342287
0.330898
0.322912
0.310307
0.305938
0.294402
0.290972
0.281691
0.279135
0.271833
0.270006
0.264574
0.26348
0.259786
0.259405
0.25726
0.257508
0.256758
0.256826
0.258673
0.258895
0.261857
0.262527
0.265498
0.266137
0.268453
0.268833
0.272134
0.273433
0.280722
0.285575
0.294681
0.298344
0.300974
0.000634113
0.00066835
0.000722283
0.000843962
0.00108255
0.00156685
0.00253588
0.00445754
0.00826618
0.0157087
0.0301311
0.0574309
0.108019
0.197972
0.350518
0.587986
0.847269
0.92296
0.913001
0.758219
0.453261
0.25461
0.183261
0.14906
0.129493
0.117901
0.111108
0.11001
0.111807
0.126417
0.157975
0.210042
0.273694
0.347485
0.424958
0.500342
0.557391
0.585725
0.597841
0.603614
0.603281
0.599268
0.584131
0.577229
0.575606
0.585355
0.61766
0.674173
0.745927
0.812556
0.877133
0.928002
0.970714
0.999491
1.02589
1.05043
1.0692
1.08795
1.09682
1.10846
1.11341
1.11965
1.12216
1.12514
1.12586
1.12638
1.12581
1.12445
1.12053
1.11551
1.10822
1.1006
1.0926
1.08329
1.07565
1.06593
1.05965
1.05091
1.04682
1.03909
1.03666
1.02915
1.02709
1.01914
1.01664
1.00798
1.00486
0.994349
0.988604
0.980785
0.971991
0.965567
0.954139
0.948618
0.935033
0.930247
0.915094
0.909878
0.89366
0.888012
0.870669
0.864203
0.846535
0.839509
0.821049
0.813663
0.793328
0.783765
0.767528
0.753959
0.740427
0.723073
0.712937
0.692195
0.68437
0.662039
0.653645
0.631684
0.622962
0.600923
0.592146
0.57009
0.561318
0.53826
0.527372
0.509851
0.494985
0.481682
0.463563
0.453995
0.434169
0.426521
0.406841
0.399592
0.380986
0.374224
0.356773
0.350463
0.334333
0.328552
0.313164
0.306052
0.295644
0.286761
0.279626
0.269381
0.265146
0.254855
0.25129
0.242027
0.238911
0.230766
0.228069
0.221011
0.218735
0.212706
0.21082
0.205489
0.203144
0.200153
0.197401
0.195813
0.19304
0.192228
0.190036
0.189549
0.188096
0.187935
0.187292
0.187478
0.187386
0.188391
0.188618
0.190436
0.191073
0.193643
0.194705
0.197835
0.199852
0.203351
0.206318
0.210211
0.214131
0.21849
0.223397
0.228239
0.234062
0.239264
0.24578
0.250983
0.256268
0.258608
0.259933
0.000622345
0.000643218
0.00068097
0.000761363
0.000929043
0.00127162
0.0019731
0.00338775
0.00624343
0.0119227
0.0231404
0.044736
0.0854076
0.158559
0.283773
0.478954
0.710902
0.788487
0.788187
0.683784
0.450007
0.212531
0.114645
0.0784132
0.0650375
0.0620225
0.0620368
0.0676963
0.0838444
0.11746
0.170865
0.246882
0.341931
0.451847
0.566703
0.673746
0.769033
0.849187
0.906257
0.93208
0.938594
0.932961
0.886704
0.808369
0.703064
0.600363
0.528839
0.50387
0.496421
0.503449
0.54701
0.627757
0.716608
0.785177
0.837339
0.887721
0.92075
0.958619
0.977082
1.0005
1.01009
1.01958
1.02138
1.02269
1.02114
1.02058
1.01559
1.01202
1.00259
0.994186
0.979571
0.96588
0.950838
0.933073
0.917677
0.897759
0.883398
0.863897
0.851672
0.833166
0.823947
0.806633
0.799752
0.783277
0.776729
0.760608
0.753857
0.736594
0.727004
0.71256
0.699555
0.686919
0.671333
0.66021
0.641965
0.632883
0.612531
0.604429
0.583307
0.57512
0.553746
0.545158
0.524336
0.515627
0.495132
0.486574
0.465651
0.455851
0.439289
0.427229
0.413821
0.399596
0.389995
0.373762
0.367337
0.350772
0.344508
0.329388
0.323435
0.309407
0.303904
0.290902
0.285837
0.273232
0.267559
0.258434
0.251536
0.244961
0.236968
0.232754
0.224415
0.221329
0.213522
0.210799
0.20388
0.201515
0.195423
0.193366
0.188065
0.186305
0.18153
0.179377
0.176551
0.173849
0.172245
0.169397
0.168451
0.165866
0.165121
0.162991
0.162424
0.160729
0.160329
0.159042
0.158803
0.157902
0.15782
0.157299
0.157153
0.157321
0.157242
0.1578
0.157887
0.158856
0.15915
0.160478
0.160982
0.162762
0.163519
0.165769
0.166795
0.169552
0.170873
0.174129
0.175758
0.179479
0.181429
0.185422
0.188037
0.192137
0.195434
0.199671
0.203541
0.207975
0.21243
0.217195
0.222216
0.227303
0.232624
0.237324
0.241351
0.243318
0.244298
0.000617378
0.000631371
0.000656399
0.000710405
0.000824475
0.00106123
0.00155358
0.00256097
0.00462421
0.00878579
0.017134
0.033454
0.0647167
0.121896
0.221715
0.379789
0.593426
0.689569
0.699638
0.636637
0.459894
0.228886
0.0984133
0.0544147
0.041953
0.0401227
0.042123
0.0518787
0.0728262
0.109663
0.166263
0.246394
0.346502
0.45995
0.578886
0.69953
0.815154
0.916372
0.998796
1.06017
1.09739
1.11287
1.11557
1.10841
1.07906
1.02691
0.941749
0.819263
0.644504
0.479567
0.409019
0.388411
0.386853
0.415936
0.486224
0.573803
0.642762
0.696979
0.734248
0.771932
0.797304
0.823066
0.832966
0.838106
0.837593
0.837585
0.833072
0.82968
0.820228
0.811562
0.795761
0.780328
0.763125
0.742185
0.723908
0.699057
0.680216
0.654569
0.636962
0.611931
0.597093
0.573448
0.561701
0.539891
0.530516
0.511035
0.50261
0.483597
0.4739
0.458394
0.445955
0.432565
0.418269
0.407192
0.391227
0.382723
0.365597
0.358574
0.341703
0.33504
0.319023
0.312534
0.29788
0.291743
0.278223
0.272585
0.259726
0.253795
0.244112
0.237565
0.230011
0.222909
0.217753
0.209997
0.206867
0.199329
0.19652
0.189996
0.187486
0.181749
0.179553
0.174464
0.172529
0.167768
0.165654
0.162354
0.159979
0.157555
0.154891
0.153384
0.150608
0.149594
0.14704
0.146182
0.14398
0.143267
0.141392
0.140804
0.139232
0.138762
0.137404
0.136808
0.136167
0.135405
0.135193
0.134491
0.134363
0.133861
0.133824
0.133515
0.133558
0.13345
0.133624
0.1336
0.134022
0.134112
0.134781
0.134999
0.135788
0.136392
0.137175
0.13815
0.139033
0.140425
0.14153
0.143307
0.144633
0.146806
0.148434
0.151054
0.15307
0.156201
0.158665
0.162315
0.165265
0.169425
0.172873
0.17743
0.181325
0.186073
0.190236
0.195117
0.199579
0.204584
0.209329
0.214436
0.219394
0.22448
0.229314
0.233712
0.237102
0.238976
0.239803
0.000613987
0.000620888
0.000634944
0.000665431
0.000731246
0.000870129
0.00116491
0.00177842
0.00305888
0.00569018
0.0110946
0.0219398
0.0433964
0.08405
0.158187
0.282346
0.469715
0.604367
0.629726
0.602188
0.480386
0.286613
0.114467
0.0537906
0.0341044
0.0298321
0.0302242
0.0364766
0.0528674
0.0842908
0.134095
0.204789
0.292484
0.396331
0.507314
0.626831
0.745177
0.856802
0.950681
1.02453
1.09442
1.14992
1.17011
1.1716
1.15657
1.12621
1.09534
1.06993
1.04177
0.98821
0.878247
0.689477
0.443238
0.323374
0.290007
0.284021
0.297185
0.345276
0.411219
0.474848
0.5199
0.558449
0.585359
0.609857
0.61666
0.620011
0.618636
0.617692
0.611669
0.605398
0.592471
0.579058
0.564761
0.545773
0.530214
0.507231
0.489685
0.465065
0.4479
0.423667
0.408432
0.385442
0.373182
0.35239
0.343033
0.325706
0.318056
0.302806
0.295276
0.283616
0.275489
0.265553
0.256561
0.248675
0.23901
0.233302
0.223105
0.218814
0.209121
0.205237
0.196472
0.192887
0.185237
0.182012
0.175259
0.17242
0.166278
0.163454
0.158956
0.156053
0.152604
0.149639
0.147255
0.144211
0.142719
0.139792
0.138662
0.13613
0.135149
0.132947
0.132102
0.130173
0.129439
0.127654
0.126861
0.125653
0.124744
0.123907
0.122897
0.12244
0.121467
0.121153
0.120342
0.12011
0.119479
0.11933
0.11887
0.118796
0.118503
0.118503
0.11836
0.118336
0.118483
0.118475
0.118803
0.11888
0.119356
0.119514
0.120146
0.12039
0.121183
0.121519
0.122475
0.122913
0.124032
0.124608
0.125896
0.126643
0.128023
0.129048
0.13047
0.131785
0.133334
0.13492
0.136618
0.138514
0.140415
0.142702
0.144892
0.147581
0.150112
0.153234
0.156206
0.159853
0.163337
0.167534
0.171568
0.176287
0.180761
0.185919
0.190788
0.196249
0.201357
0.206978
0.212133
0.217704
0.222606
0.227817
0.232034
0.236307
0.238936
0.240815
0.241504
0.000611548
0.000615135
0.000622919
0.000640102
0.000677329
0.000756992
0.000928301
0.00128968
0.00205415
0.00364607
0.00696683
0.0137567
0.0275213
0.0544075
0.105484
0.195674
0.343093
0.522542
0.582728
0.581018
0.505977
0.355335
0.174
0.0687762
0.0361084
0.0263325
0.0244423
0.0255406
0.0320074
0.0470356
0.0732089
0.11436
0.171454
0.247244
0.335202
0.4337
0.525287
0.603337
0.663344
0.714029
0.791573
0.910406
1.06748
1.12756
1.137
1.12701
1.09325
1.05331
1.04158
1.04216
1.05708
1.06433
1.0488
0.957393
0.756235
0.475736
0.303942
0.245153
0.229114
0.227725
0.242729
0.280353
0.323538
0.363249
0.386726
0.40517
0.410936
0.413766
0.412982
0.411881
0.40628
0.398908
0.391213
0.378594
0.368638
0.35282
0.340981
0.323453
0.311151
0.293498
0.282246
0.265335
0.255924
0.240747
0.233596
0.221377
0.215853
0.205732
0.200818
0.193387
0.188933
0.182888
0.17821
0.17339
0.168427
0.164845
0.159547
0.157044
0.151899
0.14973
0.145114
0.143146
0.13916
0.137424
0.13395
0.132438
0.129323
0.127872
0.125501
0.124088
0.122251
0.120893
0.119553
0.118263
0.117344
0.116111
0.115507
0.114421
0.113977
0.113018
0.112642
0.111792
0.111465
0.110669
0.110311
0.109763
0.10937
0.109014
0.108592
0.10844
0.10807
0.107982
0.107733
0.107699
0.107583
0.107612
0.107585
0.107735
0.107763
0.108048
0.108139
0.108491
0.108785
0.109135
0.109612
0.109993
0.110628
0.111067
0.111854
0.112371
0.113303
0.113929
0.115001
0.115764
0.116984
0.117904
0.119274
0.120373
0.121898
0.123294
0.124994
0.126723
0.128634
0.130677
0.132885
0.135282
0.137847
0.140605
0.143538
0.146677
0.150034
0.153629
0.157474
0.161586
0.165987
0.17065
0.175649
0.180883
0.186294
0.192058
0.197823
0.203999
0.209982
0.216378
0.222335
0.228624
0.234135
0.239814
0.244326
0.248716
0.251457
0.253354
0.254035
0.000610887
0.000612115
0.000615424
0.000623724
0.000641563
0.000680642
0.000765629
0.00094816
0.0013414
0.00217412
0.0039455
0.00764603
0.0153659
0.0309666
0.0619773
0.119954
0.2228
0.38483
0.530176
0.562888
0.540486
0.439333
0.281146
0.121924
0.052487
0.0305436
0.0251175
0.0245057
0.0265733
0.0338571
0.0487516
0.0736402
0.110486
0.161088
0.223055
0.291929
0.354958
0.401218
0.431852
0.459545
0.528241
0.657858
0.850852
0.999199
1.04203
1.04735
1.03789
1.00594
0.957064
0.926992
0.922698
0.936944
0.986389
1.06824
1.10995
1.11001
1.03969
0.85194
0.581365
0.323872
0.223564
0.185245
0.1757
0.175665
0.186156
0.209132
0.233143
0.254675
0.264176
0.267971
0.268147
0.267172
0.265802
0.26135
0.25769
0.250551
0.244983
0.235777
0.228996
0.219035
0.212341
0.202306
0.196143
0.186865
0.181732
0.173801
0.169744
0.163091
0.159679
0.154707
0.151721
0.147953
0.145068
0.14193
0.13901
0.136501
0.133498
0.131439
0.128345
0.126764
0.123757
0.122364
0.119702
0.11847
0.11615
0.115081
0.11303
0.112052
0.110406
0.109522
0.108186
0.107416
0.106377
0.105751
0.104975
0.104468
0.103905
0.103489
0.103097
0.102713
0.10243
0.102045
0.101855
0.101473
0.101297
0.101047
0.100857
0.100731
0.100582
0.100553
0.100493
0.10052
0.100545
0.100697
0.100794
0.101054
0.101241
0.1016
0.101882
0.102347
0.102722
0.103271
0.103804
0.104412
0.105091
0.105781
0.106589
0.107387
0.108321
0.109244
0.110306
0.111367
0.112565
0.113779
0.115129
0.116512
0.118027
0.119621
0.121315
0.123101
0.124977
0.126968
0.129062
0.131297
0.133705
0.136266
0.139071
0.142077
0.145339
0.148867
0.152652
0.156738
0.161109
0.165788
0.170793
0.176069
0.181757
0.187659
0.193794
0.200292
0.206819
0.213775
0.220535
0.227716
0.234395
0.241389
0.247455
0.253624
0.258374
0.262987
0.265679
0.267651
0.268304
0.000610296
0.000610515
0.0006119
0.000615729
0.000624351
0.000642972
0.000683914
0.000772618
0.00096573
0.00137919
0.00226882
0.00415035
0.00814266
0.016398
0.0333621
0.0665391
0.129367
0.238147
0.403992
0.526385
0.547488
0.517961
0.413037
0.259969
0.115379
0.0535119
0.0340528
0.029523
0.029765
0.0342771
0.0456388
0.0647109
0.0934948
0.131458
0.176469
0.221422
0.258835
0.280997
0.298526
0.331317
0.418704
0.567171
0.770801
0.929632
0.975804
0.982214
0.973382
0.939691
0.885989
0.820556
0.763184
0.744735
0.745783
0.768759
0.82522
0.922266
1.03223
1.08532
1.08848
1.02859
0.860304
0.608123
0.353208
0.210276
0.160763
0.1416
0.138212
0.13948
0.147531
0.161597
0.176899
0.187283
0.19111
0.191637
0.191863
0.191016
0.19032
0.187948
0.186008
0.18248
0.179848
0.175554
0.172302
0.167551
0.163883
0.159094
0.155385
0.150966
0.147605
0.143887
0.140986
0.138038
0.135569
0.132911
0.130639
0.128297
0.12614
0.124026
0.121886
0.119947
0.117858
0.116024
0.114068
0.112446
0.110748
0.10936
0.107905
0.106708
0.105504
0.104464
0.103477
0.102603
0.101827
0.101168
0.100576
0.100145
0.0997003
0.0994194
0.0990672
0.0988841
0.0985818
0.0984273
0.0981554
0.0980109
0.0977782
0.0976677
0.0974943
0.0974242
0.0973534
0.0973384
0.0973367
0.0974155
0.0975343
0.0976855
0.0979017
0.0981478
0.0984668
0.098803
0.0992192
0.0996569
0.100189
0.100729
0.101384
0.10203
0.102808
0.103565
0.104458
0.105351
0.106358
0.107403
0.108531
0.109744
0.111009
0.112405
0.113827
0.115422
0.117023
0.118853
0.120671
0.122743
0.124832
0.127192
0.129618
0.132301
0.135115
0.138122
0.141386
0.144765
0.148559
0.152421
0.156835
0.161289
0.166414
0.171537
0.177438
0.18326
0.189997
0.196586
0.203858
0.2112
0.218935
0.226869
0.234871
0.243116
0.250999
0.259046
0.266143
0.27318
0.278593
0.283727
0.286677
0.288823
0.289503
0.00061098
0.000610736
0.000611177
0.000612709
0.000616515
0.000624405
0.000641654
0.000678908
0.000761114
0.00093926
0.00132907
0.00216596
0.00397516
0.00779646
0.0158971
0.0323746
0.0653998
0.127338
0.234979
0.400407
0.52065
0.543255
0.520791
0.431379
0.293194
0.150011
0.075867
0.0495011
0.0433077
0.0433385
0.0494822
0.0624616
0.0820047
0.105924
0.132667
0.157866
0.179079
0.19769
0.227889
0.284958
0.391424
0.556863
0.767805
0.913817
0.949592
0.948685
0.916575
0.854814
0.777337
0.698753
0.628491
0.567964
0.543712
0.539508
0.547437
0.581936
0.643482
0.744605
0.857124
0.973677
1.01586
1.02117
0.976489
0.834378
0.621241
0.38595
0.238051
0.174878
0.149433
0.138038
0.135474
0.135444
0.138355
0.144356
0.152113
0.159142
0.164891
0.167332
0.168345
0.168613
0.168685
0.168518
0.167966
0.166895
0.165229
0.163083
0.160486
0.157728
0.154744
0.151415
0.148515
0.145419
0.142975
0.139953
0.137771
0.13482
0.132976
0.130122
0.128479
0.125632
0.124065
0.121212
0.119712
0.117057
0.115798
0.113572
0.112582
0.110766
0.109813
0.108361
0.107515
0.106384
0.105573
0.104816
0.103994
0.10357
0.102813
0.102525
0.101845
0.101599
0.100964
0.100729
0.100136
0.0999222
0.0994408
0.0991784
0.0988356
0.0986357
0.0984536
0.0983241
0.0983071
0.0982672
0.0983565
0.0984404
0.0986759
0.0988362
0.099226
0.099482
0.100011
0.10036
0.101061
0.101552
0.102341
0.103012
0.103889
0.104737
0.105699
0.106744
0.107795
0.109041
0.1102
0.111656
0.112948
0.114631
0.116064
0.117989
0.119582
0.12178
0.123628
0.125966
0.128171
0.13072
0.133342
0.136158
0.139262
0.142457
0.146086
0.149748
0.153973
0.158182
0.163097
0.167966
0.173689
0.179332
0.185978
0.192467
0.200136
0.207589
0.215947
0.224358
0.233318
0.242477
0.251798
0.261373
0.270618
0.28
0.288371
0.296547
0.302884
0.308717
0.312032
0.314402
0.315121
0.0006103
0.000610068
0.000610111
0.000610676
0.000612296
0.000615783
0.000622832
0.000638328
0.000671767
0.000744552
0.000903976
0.00124901
0.0020012
0.00360706
0.00706985
0.0142873
0.0293117
0.0590535
0.115185
0.21441
0.366489
0.510675
0.549464
0.54699
0.491617
0.382916
0.251634
0.144585
0.0957676
0.0762939
0.072813
0.0745816
0.0837284
0.0968546
0.112961
0.129962
0.150768
0.182074
0.241461
0.349273
0.516486
0.742237
0.918721
0.965949
0.965394
0.932663
0.8562
0.749998
0.632529
0.523241
0.433997
0.363536
0.324333
0.312625
0.312239
0.323644
0.344046
0.387697
0.448462
0.54677
0.663566
0.798227
0.912976
0.98758
1.0036
0.987707
0.901599
0.742148
0.560233
0.384889
0.275247
0.217438
0.188278
0.175239
0.168291
0.166851
0.166404
0.167926
0.170722
0.175015
0.178358
0.180785
0.181485
0.182561
0.182784
0.183175
0.182932
0.182775
0.181859
0.179732
0.178142
0.175314
0.173659
0.170294
0.168581
0.164845
0.163446
0.159749
0.158392
0.154537
0.153091
0.149193
0.14765
0.14418
0.14289
0.140147
0.139293
0.13748
0.136393
0.135507
0.134447
0.134114
0.132933
0.132882
0.131427
0.131304
0.12951
0.129034
0.126724
0.125947
0.12318
0.122189
0.119326
0.118363
0.115952
0.114577
0.112842
0.111495
0.110507
0.109125
0.108717
0.107586
0.107353
0.106617
0.106481
0.106096
0.106097
0.105978
0.106193
0.106167
0.106701
0.106934
0.107513
0.108052
0.108686
0.109513
0.110202
0.111303
0.112075
0.113431
0.114334
0.115941
0.117007
0.118874
0.120119
0.122258
0.123701
0.126133
0.127893
0.130453
0.132654
0.135408
0.138114
0.141128
0.144417
0.147799
0.151729
0.155578
0.160207
0.164658
0.170076
0.175271
0.181639
0.187717
0.195208
0.202305
0.211081
0.219393
0.229104
0.238649
0.249206
0.259742
0.270848
0.28199
0.29315
0.304248
0.31451
0.324364
0.332157
0.339282
0.343141
0.345994
0.346807
0.000610799
0.00061038
0.000610304
0.000610563
0.000611342
0.000613185
0.000616174
0.000622579
0.000635036
0.000661896
0.000719297
0.000843925
0.00111696
0.00170562
0.00299244
0.00571919
0.0115541
0.0235374
0.0474304
0.0934043
0.173691
0.304493
0.46074
0.554386
0.579401
0.572319
0.522884
0.435466
0.336329
0.247822
0.195443
0.169835
0.16658
0.169679
0.187275
0.214942
0.268205
0.350565
0.477826
0.65474
0.841749
0.968057
0.996591
0.993048
0.949344
0.856755
0.724257
0.576085
0.435862
0.312504
0.219519
0.148852
0.11115
0.0962462
0.0931714
0.0955297
0.100995
0.116095
0.136868
0.173623
0.222452
0.300158
0.402823
0.545341
0.678376
0.820196
0.924584
0.998096
1.01298
0.999322
0.9365
0.830435
0.702169
0.580528
0.46845
0.389643
0.332843
0.305362
0.281491
0.271762
0.258625
0.254826
0.249718
0.25001
0.249364
0.250601
0.250017
0.250495
0.250307
0.248827
0.248767
0.246955
0.246767
0.244272
0.243928
0.240906
0.240635
0.237716
0.237451
0.234182
0.233707
0.230185
0.229371
0.226427
0.226087
0.224966
0.225881
0.226635
0.227402
0.230613
0.2317
0.236361
0.23736
0.24228
0.242913
0.246275
0.245983
0.246793
0.244206
0.242968
0.235766
0.232375
0.221903
0.21796
0.207459
0.201047
0.193252
0.185116
0.180694
0.172158
0.169333
0.161852
0.159614
0.15354
0.151546
0.146665
0.145105
0.141151
0.140085
0.136788
0.136117
0.134011
0.132691
0.131788
0.130503
0.130327
0.12939
0.129473
0.129114
0.129492
0.129393
0.130389
0.130561
0.132089
0.132564
0.134547
0.135304
0.137783
0.139025
0.141542
0.143534
0.146155
0.148915
0.151723
0.155269
0.158389
0.162727
0.166289
0.171466
0.17564
0.181744
0.18671
0.193926
0.199893
0.208429
0.2156
0.225696
0.2344
0.245672
0.256055
0.268448
0.280294
0.293477
0.306389
0.319764
0.333109
0.345612
0.358039
0.36761
0.377017
0.381604
0.385259
0.386259
0.00060995
0.000609593
0.000609388
0.000609415
0.000609601
0.00061049
0.000611916
0.000614735
0.000619644
0.000629784
0.000650088
0.000692856
0.000784594
0.000980776
0.00140946
0.00232028
0.00429107
0.00840726
0.016869
0.0339664
0.0660103
0.124427
0.218324
0.358853
0.491269
0.578469
0.622941
0.636089
0.63038
0.609108
0.577441
0.546068
0.54149
0.545651
0.577626
0.624358
0.707453
0.797738
0.89014
0.979635
1.02314
1.03019
1.00366
0.926892
0.798123
0.636404
0.47131
0.311472
0.192222
0.102483
0.059911
0.0346212
0.0234337
0.0168223
0.0143283
0.0139392
0.0140088
0.0159182
0.0193102
0.0263644
0.0365197
0.0543325
0.0790769
0.119882
0.172097
0.254713
0.360442
0.497347
0.620118
0.749727
0.84123
0.920725
0.986061
1.02062
1.02543
1.01101
0.972932
0.919302
0.853341
0.785594
0.709587
0.649656
0.583232
0.54938
0.515512
0.502442
0.481279
0.473624
0.459105
0.447655
0.438572
0.427023
0.423015
0.413667
0.411653
0.405095
0.404947
0.400996
0.401704
0.399441
0.40086
0.399927
0.401771
0.401408
0.404838
0.405364
0.412557
0.417036
0.423957
0.434761
0.443006
0.459373
0.468102
0.487926
0.495777
0.515078
0.522174
0.535996
0.539864
0.544729
0.543679
0.54362
0.534592
0.529104
0.515009
0.499695
0.488065
0.466785
0.458416
0.436101
0.428614
0.407747
0.401198
0.382266
0.375583
0.358194
0.352042
0.335796
0.330556
0.31438
0.309638
0.295977
0.287578
0.277897
0.266665
0.26007
0.246998
0.242552
0.229796
0.225825
0.214713
0.211404
0.20215
0.199572
0.192262
0.190447
0.185106
0.184077
0.181475
0.179694
0.179646
0.179156
0.180036
0.180314
0.183011
0.18381
0.187894
0.189479
0.194793
0.197283
0.20384
0.207471
0.215373
0.220147
0.229539
0.235595
0.246801
0.254818
0.267122
0.277656
0.291198
0.304174
0.318725
0.333837
0.348879
0.365432
0.379996
0.396542
0.408209
0.421188
0.427272
0.43207
0.433383
0.000611098
0.000610056
0.000609806
0.000609822
0.000609981
0.00061083
0.000611916
0.000613719
0.000616325
0.00062104
0.000628922
0.000644
0.000673573
0.000733607
0.000860717
0.00112697
0.00170114
0.00290325
0.00540326
0.0105886
0.0206621
0.0401504
0.0741495
0.131926
0.217892
0.341868
0.464904
0.565885
0.624438
0.67242
0.704376
0.741141
0.767994
0.805458
0.836816
0.878925
0.915935
0.960542
0.976053
0.972616
0.938452
0.864413
0.752733
0.602471
0.445795
0.287422
0.172528
0.0851706
0.047102
0.0231648
0.0132395
0.00757485
0.00520989
0.00386574
0.00320896
0.00272872
0.00251553
0.00254166
0.00272302
0.00333426
0.004412
0.00657938
0.00993567
0.0160634
0.0248083
0.0397377
0.0599199
0.0915397
0.129847
0.184618
0.253734
0.345898
0.447776
0.544963
0.655323
0.752281
0.860558
0.944487
1.0464
1.12776
1.21647
1.25469
1.26379
1.25937
1.23872
1.20556
1.15626
1.10853
1.05621
0.998843
0.955642
0.901337
0.871585
0.827143
0.809286
0.774579
0.762899
0.738014
0.731249
0.715209
0.712523
0.703681
0.703223
0.699283
0.700823
0.699556
0.705382
0.708485
0.715088
0.727179
0.73707
0.757757
0.770048
0.797207
0.809884
0.839508
0.852291
0.880797
0.892929
0.915432
0.92385
0.937646
0.941246
0.946456
0.947012
0.943998
0.942899
0.933694
0.930769
0.918821
0.916597
0.904785
0.903295
0.892712
0.890949
0.880757
0.879136
0.86851
0.86742
0.854289
0.852975
0.841109
0.830073
0.821805
0.8018
0.795109
0.767127
0.758233
0.725011
0.713624
0.676688
0.663673
0.623433
0.608696
0.566323
0.550597
0.508243
0.492586
0.456333
0.434531
0.408884
0.384452
0.368414
0.344512
0.335917
0.316312
0.310551
0.297055
0.293961
0.286402
0.285694
0.28348
0.284868
0.285649
0.291384
0.292976
0.301699
0.305939
0.314952
0.323363
0.333333
0.345867
0.357315
0.373482
0.387102
0.406528
0.4215
0.443017
0.457461
0.475687
0.484298
0.490956
0.492771