/*--------------------------------*- C++ -*----------------------------------*\
| =========                 |                                                 |
| \\      /  F ield         | OpenFOAM: The Open Source CFD Toolbox           |
|  \\    /   O peration     | Version:  4.1                                   |
|   \\  /    A nd           | Web:      www.OpenFOAM.org                      |
|    \\/     M anipulation  |                                                 |
\*---------------------------------------------------------------------------*/
FoamFile
{
    version     2.0;
    format      ascii;
    class       volScalarField;
    location    "8.5";
    object      k;
}
// * * * * * * * * * * * * * * * * * * * * * * * * * * * * * * * * * * * * * //

dimensions      [0 2 -2 0 0 0 0];

internalField   nonuniform List<scalar> 
204246
(
0.724022
0.788493
0.790589
0.789867
0.791628
0.790645
0.791911
0.791304
0.793431
0.793583
0.799361
0.804858
0.821532
0.848114
0.906166
1.01239
1.20955
1.51899
1.93589
2.27777
2.39352
2.43787
2.45475
2.46889
2.47714
2.48117
2.4786
2.47307
2.46435
2.45319
2.43834
2.42054
2.40409
2.39337
2.37504
2.36965
2.3564
2.35003
2.3495
2.34245
2.34315
2.34117
2.34498
2.34494
2.35406
2.35582
2.37031
2.37329
2.39016
2.39428
2.41233
2.41849
2.43839
2.44584
2.46437
2.47622
2.49108
2.50414
2.5163
2.53232
2.54185
2.55798
2.56672
2.58185
2.5902
2.60383
2.6127
2.62526
2.63392
2.64609
2.6543
2.66607
2.67506
2.68616
2.69562
2.70678
2.7164
2.72798
2.73758
2.74928
2.76174
2.77145
2.78636
2.79453
2.80978
2.81825
2.83398
2.84249
2.85725
2.86888
2.88152
2.8952
2.90661
2.92164
2.93219
2.95051
2.95874
2.97943
2.98649
3.00804
3.01535
3.03654
3.04474
3.06588
3.07463
3.09617
3.10507
3.12541
3.13782
3.15607
3.17014
3.18769
3.20532
3.22052
3.24107
3.25458
3.27618
3.28966
3.31236
3.3258
3.35004
3.36327
3.38871
3.40181
3.42635
3.44306
3.46558
3.48414
3.50603
3.52649
3.54774
3.56931
3.59053
3.61307
3.63438
3.65796
3.67936
3.70377
3.72549
3.75079
3.77267
3.79752
3.82132
3.84553
3.8699
3.89448
3.91912
3.94417
3.9689
3.99454
4.01924
4.04542
4.06995
4.09675
4.12117
4.14853
4.17297
4.20059
4.22437
4.25226
4.27611
4.30339
4.32799
4.35447
4.3799
4.40539
4.43193
4.45628
4.48436
4.50755
4.53765
4.55955
4.59231
4.61332
4.65025
4.66933
4.71094
4.73378
4.77172
4.8032
4.83953
4.88029
4.91803
4.96918
5.01209
5.07506
5.12773
5.20377
5.27076
5.35198
5.42051
5.46007
5.4769
0.207412
0.288609
0.286775
0.287054
0.292147
0.291333
0.297712
0.298987
0.312298
0.319948
0.349654
0.380593
0.456826
0.564029
0.780995
1.11517
1.64192
1.94082
1.98857
1.89919
1.59622
1.34467
1.25753
1.23279
1.21988
1.21942
1.21958
1.25566
1.28988
1.32779
1.34457
1.40527
1.43826
1.50032
1.53055
1.58623
1.61133
1.64492
1.65981
1.67268
1.67635
1.67725
1.67045
1.66288
1.64299
1.63387
1.61662
1.61044
1.6008
1.59759
1.59401
1.59306
1.59315
1.59492
1.5955
1.60295
1.60525
1.61667
1.62083
1.63376
1.63839
1.65113
1.65509
1.66804
1.67171
1.68447
1.6882
1.70071
1.70525
1.7188
1.72406
1.73108
1.74272
1.74718
1.75996
1.76453
1.77758
1.78234
1.79564
1.80025
1.81379
1.81841
1.8327
1.83763
1.85323
1.8593
1.87633
1.88352
1.89487
1.90961
1.91714
1.93476
1.94209
1.96095
1.96833
1.98773
1.99528
2.0155
2.02332
2.04499
2.05356
2.07613
2.08577
2.10946
2.11974
2.14497
2.15586
2.17707
2.19644
2.21307
2.23759
2.25039
2.27799
2.29016
2.31951
2.33231
2.3639
2.37767
2.41064
2.42545
2.45964
2.47516
2.51209
2.52928
2.56112
2.58755
2.61548
2.64693
2.6739
2.70827
2.73514
2.77329
2.80049
2.84126
2.86964
2.91265
2.94272
2.98782
3.0204
3.06798
3.10423
3.14613
3.19198
3.2327
3.28104
3.32488
3.37455
3.42178
3.47274
3.52362
3.57603
3.6307
3.68335
3.7423
3.79616
3.86011
3.91736
3.98575
4.03759
4.11448
4.17084
4.24247
4.31028
4.37625
4.4541
4.51468
4.60038
4.657
4.74709
4.80234
4.89261
4.94933
5.03233
5.0924
5.17856
5.2373
5.32203
5.36286
5.45932
5.49655
5.58875
5.62248
5.71007
5.74041
5.82483
5.85224
5.94315
5.9755
6.14443
6.29171
6.71086
6.97237
7.08334
0.0263763
0.0516098
0.0509887
0.050949
0.0547148
0.0559424
0.0630123
0.0680132
0.0826662
0.100399
0.137368
0.192177
0.291989
0.448415
0.712594
1.11319
1.64561
1.85583
1.85968
1.5993
1.20126
1.08652
1.0595
1.06079
1.09938
1.17068
1.22445
1.26172
1.30969
1.37064
1.42822
1.48679
1.55603
1.6332
1.71341
1.79274
1.87374
1.94875
2.02359
2.08491
2.15029
2.20072
2.25555
2.28983
2.30752
2.31514
2.31266
2.31238
2.29828
2.29654
2.28123
2.27844
2.2649
2.26351
2.26114
2.25655
2.26117
2.2594
2.26955
2.27102
2.28815
2.29202
2.31205
2.31506
2.3352
2.33776
2.3571
2.36048
2.37727
2.38062
2.39915
2.40831
2.41376
2.42804
2.4308
2.44595
2.44857
2.46357
2.46605
2.48113
2.48217
2.49755
2.49864
2.51467
2.517
2.53207
2.53501
2.55186
2.56016
2.56536
2.57931
2.58248
2.59826
2.60189
2.61885
2.6217
2.63928
2.64252
2.6611
2.66487
2.68389
2.68865
2.70697
2.71259
2.73148
2.73745
2.75837
2.76747
2.77923
2.79519
2.80129
2.82065
2.82637
2.84615
2.85218
2.87241
2.87927
2.89864
2.90565
2.92517
2.93235
2.95256
2.96033
2.98091
2.99062
3.00449
3.01885
3.02849
3.04578
3.05345
3.07158
3.07957
3.09734
3.10545
3.12245
3.13053
3.14683
3.15505
3.1709
3.17937
3.19391
3.20095
3.21226
3.21864
3.22802
3.23339
3.24105
3.24344
3.24943
3.24876
3.25186
3.24853
3.24931
3.23928
3.23943
3.22324
3.22221
3.19635
3.1837
3.16838
3.13568
3.12675
3.08113
3.06888
3.01501
2.99964
2.93884
2.9212
2.85508
2.83549
2.76457
2.74365
2.66872
2.64704
2.57202
2.5512
2.4708
2.43341
2.39682
2.33286
2.31694
2.24519
2.23052
2.16145
2.14905
2.08809
2.08088
2.03934
2.04321
2.01573
2.02069
1.88457
1.83411
0.00630159
0.00910296
0.0092392
0.00975274
0.0112665
0.0130077
0.0172977
0.0236259
0.0363313
0.0574311
0.0958332
0.16035
0.270157
0.446879
0.724172
1.13195
1.55446
1.67166
1.65043
1.39381
1.07386
0.994671
0.978893
0.984699
1.02958
1.08731
1.10872
1.12027
1.12808
1.14288
1.14982
1.18051
1.22692
1.3164
1.40419
1.5209
1.62457
1.74485
1.86473
1.985
2.11872
2.23527
2.35967
2.4405
2.53818
2.60407
2.67828
2.71327
2.75671
2.78273
2.81744
2.838
2.85357
2.86586
2.88011
2.88581
2.89879
2.90163
2.91236
2.91495
2.92626
2.92905
2.94023
2.94137
2.9499
2.94935
2.95377
2.95181
2.95316
2.9503
2.95137
2.9521
2.95084
2.9529
2.95208
2.95526
2.95496
2.95926
2.95935
2.96421
2.96381
2.96803
2.96744
2.97101
2.97064
2.97335
2.97304
2.97505
2.97604
2.97521
2.9761
2.97536
2.97612
2.97541
2.9762
2.97505
2.97561
2.97418
2.97461
2.97311
2.9733
2.97155
2.97127
2.96971
2.96935
2.96756
2.96688
2.96526
2.96256
2.96118
2.95803
2.95629
2.95259
2.95028
2.94601
2.94313
2.9382
2.93488
2.92896
2.92493
2.91827
2.91317
2.90608
2.8984
2.88931
2.88106
2.86907
2.86094
2.8449
2.83734
2.81688
2.80981
2.7853
2.77708
2.7487
2.73914
2.70651
2.69535
2.65875
2.64626
2.60186
2.58014
2.54761
2.50921
2.48516
2.43391
2.41406
2.35518
2.33333
2.27021
2.2465
2.17939
2.15384
2.08291
2.05558
1.98247
1.95441
1.87573
1.83758
1.77697
1.72267
1.67579
1.60857
1.57425
1.50023
1.47154
1.39785
1.37072
1.30255
1.27753
1.2155
1.19314
1.13761
1.11806
1.06885
1.05195
1.00795
0.98798
0.958955
0.935023
0.915964
0.888495
0.87638
0.848297
0.839343
0.819629
0.816395
0.812061
0.826015
0.843216
0.873315
0.882933
0.890249
0.00501983
0.00533706
0.00549207
0.00597521
0.00686305
0.00852223
0.0117804
0.0177861
0.0291227
0.0496867
0.0868103
0.15152
0.261556
0.440094
0.715699
1.10761
1.43091
1.50725
1.4844
1.27613
0.970074
0.8648
0.819752
0.798667
0.787435
0.77119
0.7148
0.680251
0.669534
0.672071
0.686146
0.741493
0.829491
0.960681
1.09451
1.22498
1.32179
1.40955
1.48958
1.58124
1.66381
1.7546
1.8716
2.02044
2.19957
2.36704
2.55062
2.67377
2.78688
2.86267
2.95674
3.01988
3.07931
3.11451
3.1557
3.18434
3.2143
3.23021
3.24421
3.25127
3.25836
3.26137
3.26454
3.26408
3.26481
3.26143
3.25887
3.24817
3.23769
3.21984
3.2053
3.18743
3.17059
3.15579
3.13941
3.12816
3.11345
3.10541
3.0931
3.08706
3.07619
3.07049
3.05971
3.05309
3.04182
3.03333
3.02118
3.01108
2.99928
2.98759
2.97569
2.96329
2.95055
2.93809
2.92424
2.9122
2.89621
2.88451
2.86634
2.85533
2.8346
2.82376
2.8012
2.79064
2.76607
2.75566
2.72758
2.71394
2.6905
2.67045
2.65045
2.62373
2.60829
2.57502
2.56236
2.52484
2.51049
2.47176
2.45607
2.41479
2.39801
2.35395
2.33642
2.28675
2.26235
2.22431
2.18665
2.15635
2.10824
2.08364
2.02836
2.00598
1.94717
1.92393
1.86355
1.83972
1.77812
1.75369
1.69175
1.66712
1.60304
1.57202
1.52157
1.4801
1.43955
1.39005
1.35838
1.30244
1.27916
1.22166
1.19933
1.14452
1.12338
1.07171
1.05203
1.00424
0.986304
0.941272
0.920315
0.8885
0.863683
0.841506
0.813737
0.80036
0.773128
0.763379
0.739781
0.731871
0.7123
0.705954
0.690214
0.685403
0.673203
0.669845
0.660859
0.658838
0.65242
0.649964
0.649201
0.647244
0.647907
0.64694
0.647819
0.646689
0.647278
0.645869
0.647169
0.647562
0.65693
0.662666
0.675585
0.680334
0.68417
0.0048502
0.00495161
0.00510505
0.00545011
0.0061178
0.0074577
0.0101012
0.015215
0.025014
0.0432966
0.076806
0.136223
0.238538
0.406242
0.666107
1.03091
1.32189
1.39065
1.37311
1.20252
0.897666
0.664621
0.564581
0.502656
0.428547
0.37237
0.352428
0.349512
0.356407
0.40324
0.500232
0.65529
0.83842
1.04029
1.23678
1.41303
1.52415
1.57654
1.59854
1.60952
1.609
1.6025
1.58909
1.5886
1.60804
1.68433
1.81911
2.00586
2.223
2.42273
2.62203
2.77176
2.89883
2.98686
3.07116
3.14281
3.19812
3.24692
3.2727
3.29701
3.30626
3.31045
3.3111
3.31063
3.30779
3.30125
3.29149
3.27585
3.25525
3.22882
3.19947
3.16767
3.13427
3.1005
3.06689
3.03397
3.00339
2.97343
2.9474
2.91925
2.89931
2.87239
2.85651
2.82874
2.81382
2.78416
2.76794
2.73475
2.71216
2.68517
2.65622
2.63263
2.59862
2.57701
2.53809
2.51981
2.47673
2.45915
2.41374
2.39552
2.34804
2.32833
2.28045
2.25981
2.21066
2.18947
2.13667
2.11126
2.06779
2.0337
1.99647
1.9548
1.92467
1.87604
1.85145
1.79774
1.77531
1.72092
1.6979
1.64342
1.62036
1.56592
1.54293
1.48654
1.45946
1.41452
1.37901
1.34301
1.30082
1.27257
1.2254
1.20421
1.15562
1.1362
1.08955
1.07124
1.02714
1.00988
0.968684
0.952653
0.913175
0.894566
0.865695
0.843449
0.821698
0.796788
0.781308
0.754951
0.744271
0.718754
0.709162
0.686285
0.677735
0.657423
0.649915
0.632039
0.625503
0.609314
0.60191
0.591012
0.582785
0.575151
0.566321
0.561693
0.553213
0.550109
0.54292
0.540542
0.535136
0.533508
0.529815
0.528927
0.526897
0.52675
0.52618
0.526837
0.527258
0.529193
0.531356
0.534029
0.537874
0.541337
0.546681
0.550889
0.557727
0.562921
0.571235
0.577286
0.586906
0.593395
0.600877
0.603862
0.605798
0.00480392
0.00486029
0.00496747
0.00519348
0.00566177
0.0066153
0.00855174
0.0123932
0.0199449
0.0343984
0.0615887
0.110967
0.19797
0.343207
0.572534
0.901644
1.20515
1.28635
1.28141
1.14939
0.875426
0.578236
0.360416
0.262176
0.218648
0.206629
0.205944
0.222581
0.27202
0.373297
0.530389
0.748695
1.0135
1.30602
1.5927
1.83879
2.03497
2.1839
2.2739
2.31341
2.32011
2.28734
2.14907
1.955
1.72643
1.54731
1.47031
1.44923
1.45143
1.5288
1.72337
1.98301
2.23629
2.43107
2.59354
2.74649
2.85011
2.95866
3.01655
3.08396
3.11227
3.13399
3.13781
3.14001
3.1353
3.13037
3.11405
3.09793
3.06779
3.03713
2.99204
2.94663
2.89815
2.84283
2.79204
2.7321
2.68333
2.62511
2.5818
2.52698
2.4915
2.44047
2.41157
2.36309
2.33827
2.29206
2.26781
2.22009
2.18884
2.1478
2.10826
2.07137
2.02687
1.99342
1.94385
1.91439
1.86002
1.83405
1.77682
1.75268
1.69422
1.6693
1.61218
1.5871
1.53082
1.50617
1.44901
1.42168
1.37482
1.34178
1.30261
1.26455
1.23423
1.19143
1.1687
1.12366
1.10479
1.06154
1.04348
1.00293
0.986032
0.948054
0.932296
0.895425
0.878387
0.850043
0.830092
0.808116
0.785696
0.769595
0.745335
0.734498
0.710409
0.70103
0.679084
0.670708
0.650996
0.643498
0.625922
0.619265
0.603143
0.595646
0.584482
0.575734
0.567737
0.558255
0.552885
0.543221
0.539456
0.53048
0.527203
0.519383
0.516557
0.509801
0.507397
0.501628
0.49963
0.494698
0.492472
0.489625
0.487103
0.48569
0.483336
0.482672
0.480971
0.480664
0.479829
0.479932
0.479822
0.480845
0.481161
0.48323
0.484009
0.487002
0.488258
0.49207
0.493763
0.498038
0.500715
0.505132
0.508698
0.513402
0.517931
0.523148
0.528696
0.534424
0.540992
0.547342
0.554673
0.560739
0.566228
0.568739
0.570125
0.00478826
0.00482862
0.0049019
0.00505484
0.00537795
0.0060445
0.00742345
0.010214
0.0158195
0.0267847
0.0478895
0.0870852
0.157829
0.278752
0.474731
0.762579
1.08886
1.20116
1.20989
1.12094
0.88982
0.587212
0.307151
0.180463
0.143695
0.13769
0.14268
0.170673
0.232401
0.340863
0.503393
0.727415
0.999834
1.30318
1.60642
1.88903
2.13456
2.32938
2.47741
2.58628
2.65809
2.68756
2.69194
2.66426
2.57721
2.43306
2.20761
1.89948
1.51384
1.28985
1.21634
1.20394
1.23969
1.39627
1.64722
1.91456
2.11518
2.28376
2.4054
2.52695
2.60708
2.68399
2.71434
2.72984
2.72938
2.72911
2.71585
2.70331
2.67446
2.64578
2.59898
2.55149
2.49859
2.43599
2.37809
2.30542
2.24496
2.17036
2.1127
2.04024
1.98951
1.92132
1.87879
1.81551
1.78001
1.72283
1.69283
1.63897
1.6061
1.56139
1.52069
1.4805
1.43537
1.40084
1.35281
1.32393
1.27261
1.2488
1.19737
1.17565
1.12603
1.10487
1.05885
1.03871
0.995752
0.977026
0.935973
0.916635
0.884299
0.86317
0.836841
0.81424
0.794634
0.770448
0.756444
0.731818
0.721413
0.698518
0.689051
0.668523
0.660037
0.641482
0.633826
0.616352
0.608331
0.595095
0.586418
0.575814
0.56641
0.558541
0.548516
0.542952
0.532782
0.528613
0.519081
0.515365
0.506827
0.503499
0.495866
0.492898
0.485894
0.482616
0.477651
0.473861
0.470215
0.46611
0.463573
0.459308
0.457591
0.453563
0.45207
0.448562
0.447289
0.444303
0.443253
0.440834
0.440038
0.438108
0.437262
0.436463
0.435641
0.435491
0.435178
0.435382
0.43568
0.43679
0.437353
0.439367
0.440349
0.443308
0.444845
0.448789
0.45097
0.455924
0.458769
0.464727
0.4682
0.474826
0.479127
0.48593
0.490896
0.4977
0.503315
0.510069
0.516115
0.522794
0.529083
0.535581
0.541688
0.547209
0.551463
0.553739
0.554841
0.00478158
0.00479916
0.00483987
0.00492679
0.00511385
0.00550596
0.00633564
0.00805086
0.0115872
0.0186969
0.0328339
0.0600139
0.111107
0.202355
0.358247
0.600725
0.933452
1.11963
1.15064
1.10566
0.9261
0.644122
0.340122
0.171265
0.115962
0.10385
0.104865
0.122908
0.170499
0.2609
0.403155
0.603192
0.846359
1.12291
1.40094
1.67874
1.92805
2.14697
2.32423
2.4646
2.61021
2.74562
2.80456
2.81397
2.79219
2.73067
2.65388
2.56574
2.44041
2.24951
1.95431
1.53514
1.116
0.979393
0.951465
0.965899
1.068
1.27234
1.49761
1.70014
1.84374
1.97104
2.0595
2.142
2.16916
2.18237
2.18019
2.17785
2.16097
2.14147
2.10361
2.0626
2.01802
1.96003
1.90891
1.83891
1.78059
1.70505
1.64627
1.57122
1.51716
1.44563
1.39947
1.33434
1.29643
1.23946
1.20941
1.15959
1.13239
1.09422
1.0638
1.03074
0.997087
0.969673
0.935382
0.913824
0.878019
0.861322
0.826733
0.811984
0.780147
0.766461
0.738164
0.725699
0.700283
0.689103
0.665724
0.65474
0.636585
0.625438
0.610736
0.599448
0.588234
0.576793
0.568426
0.556887
0.550865
0.539895
0.535069
0.52489
0.520544
0.511304
0.507356
0.498646
0.494584
0.487742
0.483364
0.477747
0.473058
0.468691
0.463863
0.460547
0.455612
0.453197
0.448428
0.446464
0.442108
0.440367
0.4365
0.434972
0.431481
0.429851
0.42736
0.425583
0.42379
0.42196
0.420763
0.418966
0.418269
0.416696
0.416173
0.414997
0.414652
0.413882
0.413721
0.41339
0.413435
0.413436
0.4137
0.414291
0.414558
0.415727
0.416203
0.417843
0.418564
0.420763
0.421781
0.424721
0.426187
0.429911
0.431938
0.436549
0.43929
0.444834
0.448418
0.454816
0.459283
0.466256
0.471582
0.478832
0.484756
0.492069
0.498239
0.505596
0.512005
0.519244
0.525578
0.532316
0.538026
0.54337
0.547086
0.549237
0.550175
0.00477285
0.00478239
0.00480446
0.00485433
0.00496044
0.00518697
0.00567212
0.00668936
0.00882396
0.0132024
0.0221142
0.0397035
0.0738135
0.137007
0.250167
0.43733
0.724143
1.02212
1.10813
1.10363
0.986207
0.749386
0.448962
0.204866
0.118636
0.0917658
0.0866144
0.0902544
0.110205
0.156036
0.23453
0.354879
0.517012
0.72332
0.949858
1.18919
1.39565
1.5588
1.6773
1.7765
1.93852
2.18317
2.52491
2.69165
2.72757
2.72434
2.68881
2.62432
2.55295
2.48788
2.43501
2.37274
2.24632
1.99261
1.58789
1.10127
0.883643
0.820017
0.811701
0.842366
0.947986
1.11484
1.27382
1.41194
1.49417
1.56738
1.59586
1.60979
1.60923
1.60697
1.59074
1.56736
1.54168
1.50089
1.46579
1.41371
1.37079
1.31179
1.26549
1.20475
1.16049
1.10164
1.06265
1.00933
0.977432
0.931839
0.906923
0.868398
0.847812
0.819692
0.800055
0.777411
0.7567
0.737628
0.716874
0.701897
0.680612
0.668477
0.647555
0.638018
0.618521
0.609815
0.592666
0.584882
0.569654
0.562733
0.548842
0.542224
0.530936
0.524467
0.515122
0.508889
0.501284
0.495293
0.489206
0.4834
0.478456
0.473023
0.468987
0.463656
0.460386
0.454986
0.452222
0.44684
0.444213
0.439585
0.436811
0.432869
0.429988
0.42675
0.423818
0.421178
0.4183
0.416175
0.413377
0.411733
0.40899
0.407775
0.405252
0.404199
0.401964
0.400908
0.399335
0.398242
0.39714
0.39607
0.395384
0.394439
0.394083
0.393375
0.393174
0.392827
0.392799
0.392744
0.392998
0.393255
0.393831
0.394368
0.395211
0.396369
0.397471
0.399283
0.400701
0.403071
0.404974
0.407941
0.410416
0.413943
0.416966
0.421021
0.424652
0.429321
0.433638
0.439057
0.444124
0.450343
0.456165
0.46313
0.469516
0.477075
0.483947
0.491901
0.499124
0.507129
0.51431
0.52196
0.528588
0.535301
0.540763
0.545756
0.549137
0.551176
0.552001
0.00477137
0.00477447
0.00478405
0.0048097
0.00486221
0.00497549
0.00521789
0.00573447
0.00683944
0.00915608
0.0140044
0.0238708
0.0437267
0.0820702
0.154409
0.281858
0.494113
0.804808
1.04194
1.09154
1.05814
0.898942
0.636366
0.337314
0.158821
0.101893
0.087502
0.0859044
0.0920933
0.113969
0.158636
0.232162
0.337482
0.476159
0.6362
0.804004
0.946172
1.04368
1.10578
1.16247
1.31186
1.58083
1.9687
2.3245
2.45707
2.48369
2.48473
2.46395
2.41979
2.3545
2.32468
2.32286
2.34183
2.35894
2.35582
2.28718
2.07539
1.69808
1.22682
0.853881
0.726735
0.688721
0.685977
0.716806
0.796169
0.910108
1.00885
1.09143
1.13413
1.15332
1.15595
1.15417
1.15015
1.13527
1.12111
1.09523
1.07292
1.03877
1.01083
0.972724
0.943637
0.904412
0.876302
0.839222
0.814331
0.78193
0.761155
0.73376
0.716304
0.695335
0.680261
0.663796
0.649667
0.63551
0.621862
0.609956
0.596346
0.585854
0.572356
0.563464
0.550144
0.542574
0.530075
0.523781
0.512516
0.507095
0.496809
0.491801
0.483033
0.478326
0.470726
0.466375
0.459959
0.455952
0.450663
0.446967
0.442552
0.439125
0.435418
0.43208
0.428829
0.425455
0.422549
0.41916
0.41648
0.413353
0.410767
0.407987
0.405554
0.40312
0.400901
0.398803
0.39681
0.395001
0.393272
0.391745
0.39025
0.389004
0.387727
0.386778
0.385683
0.384939
0.384274
0.383628
0.383316
0.382898
0.382787
0.382684
0.38273
0.382901
0.38325
0.383637
0.384305
0.384917
0.385912
0.386793
0.388085
0.389319
0.390865
0.39248
0.394232
0.396212
0.398212
0.400621
0.403044
0.406023
0.409029
0.412756
0.416439
0.421006
0.425433
0.430863
0.43609
0.442382
0.448443
0.455542
0.462455
0.470279
0.477797
0.486187
0.494208
0.502944
0.511254
0.520036
0.528233
0.536574
0.544019
0.55115
0.557035
0.562098
0.565566
0.567603
0.568386
0.00476976
0.00476974
0.00477353
0.00478576
0.0048126
0.00486824
0.00498759
0.00524228
0.00579055
0.00695357
0.00942833
0.0145702
0.0251917
0.0463577
0.0879407
0.165086
0.303063
0.527444
0.846301
1.04814
1.08201
1.03803
0.870131
0.608961
0.324382
0.161678
0.110462
0.0982202
0.0987567
0.110367
0.138702
0.186199
0.257007
0.348986
0.454978
0.560061
0.646913
0.703768
0.756435
0.845138
1.04289
1.349
1.74402
2.08634
2.21393
2.2445
2.24471
2.21499
2.15849
2.0813
2.00674
1.97691
1.97764
2.00297
2.06513
2.1699
2.2258
2.23548
2.192
2.01152
1.6825
1.25839
0.858802
0.657245
0.592427
0.5761
0.579962
0.612785
0.675764
0.753717
0.821301
0.866261
0.885053
0.88921
0.890847
0.888483
0.885715
0.876162
0.866758
0.851215
0.83799
0.81879
0.802476
0.780941
0.762549
0.740485
0.721709
0.70091
0.68368
0.665796
0.650894
0.636229
0.623488
0.610359
0.598792
0.58706
0.576206
0.565374
0.554811
0.544649
0.534424
0.524795
0.515212
0.506546
0.498048
0.490458
0.482977
0.476271
0.469744
0.46369
0.457891
0.452489
0.447388
0.442735
0.438265
0.434439
0.430532
0.427276
0.423726
0.420848
0.417513
0.414848
0.411578
0.408957
0.405795
0.40333
0.400272
0.398129
0.395303
0.393407
0.390895
0.389237
0.387099
0.385616
0.383814
0.382525
0.381054
0.379944
0.378727
0.377847
0.37695
0.376268
0.37572
0.375235
0.37498
0.374784
0.37473
0.374727
0.374958
0.375273
0.375716
0.376366
0.377041
0.378026
0.378979
0.380285
0.38156
0.383215
0.384837
0.386902
0.388937
0.391456
0.393988
0.397017
0.400068
0.403605
0.407254
0.411329
0.415733
0.420467
0.425734
0.43128
0.437476
0.443904
0.451065
0.458349
0.4665
0.474618
0.483397
0.492234
0.501508
0.510814
0.520337
0.529757
0.539047
0.547999
0.556301
0.563879
0.570213
0.575466
0.579003
0.581097
0.581852
0.00477558
0.00477377
0.00477489
0.00477988
0.0047928
0.00481796
0.00487061
0.00498065
0.00521869
0.00572626
0.006824
0.0091505
0.014091
0.0242494
0.0450259
0.0854325
0.162417
0.298818
0.522214
0.843441
1.04774
1.08722
1.05509
0.912843
0.680231
0.410901
0.223182
0.151917
0.133682
0.132602
0.146124
0.175178
0.218586
0.27158
0.332164
0.39265
0.449649
0.507111
0.593082
0.734243
0.969551
1.30727
1.71555
2.00147
2.07695
2.08237
2.04928
1.96772
1.85753
1.73739
1.62943
1.54413
1.52007
1.51823
1.5383
1.60245
1.69582
1.83464
1.9696
2.0359
2.04578
2.02144
1.88974
1.60978
1.25166
0.879395
0.683567
0.605306
0.578094
0.570746
0.57474
0.594588
0.633821
0.678248
0.723185
0.757997
0.783939
0.793818
0.79794
0.798623
0.79877
0.797159
0.793247
0.786164
0.776245
0.764218
0.750586
0.736352
0.721157
0.704344
0.689509
0.673593
0.660743
0.645438
0.633863
0.619022
0.609041
0.594893
0.586014
0.571978
0.563498
0.549621
0.541621
0.528766
0.521862
0.51046
0.504918
0.495274
0.489984
0.482075
0.476768
0.470285
0.464896
0.45979
0.454143
0.450273
0.444688
0.441593
0.435969
0.433407
0.427867
0.425381
0.420058
0.417674
0.412808
0.410269
0.405955
0.403601
0.400004
0.397756
0.394877
0.392709
0.390537
0.388507
0.386833
0.384985
0.383738
0.38215
0.381246
0.379967
0.379407
0.378552
0.378111
0.377737
0.37752
0.377484
0.377444
0.377762
0.377961
0.378633
0.379064
0.380096
0.380779
0.382216
0.383118
0.384981
0.386106
0.388403
0.389903
0.392378
0.394417
0.397161
0.399868
0.40294
0.40641
0.410007
0.41423
0.41847
0.423502
0.428457
0.434398
0.4402
0.44716
0.45393
0.462024
0.469796
0.47909
0.487924
0.497976
0.507761
0.518411
0.528806
0.539742
0.550343
0.561042
0.57115
0.580735
0.589254
0.596483
0.602283
0.606129
0.608406
0.609181
0.00477048
0.00476963
0.00476991
0.00477262
0.00477908
0.00479127
0.00481394
0.00486304
0.00496374
0.00517748
0.00563463
0.00660956
0.00870333
0.0130934
0.0223189
0.0408838
0.0779143
0.147618
0.272212
0.480171
0.779737
1.03532
1.105
1.10462
1.02092
0.846518
0.622115
0.404826
0.276879
0.22306
0.211586
0.213748
0.233724
0.264713
0.305671
0.35089
0.408491
0.490373
0.630612
0.860485
1.18626
1.59594
1.91684
2.01679
2.02895
1.99196
1.88141
1.71308
1.5209
1.33223
1.17481
1.04256
0.980237
0.964146
0.967192
0.999411
1.04733
1.14036
1.25558
1.42565
1.59292
1.77418
1.86757
1.8951
1.89043
1.82655
1.65753
1.4012
1.12955
0.871838
0.749824
0.703643
0.683694
0.678472
0.676219
0.679104
0.693401
0.721142
0.755272
0.787525
0.811577
0.824583
0.830245
0.834935
0.836837
0.837895
0.83673
0.83469
0.828753
0.818033
0.80885
0.79543
0.785813
0.770097
0.759892
0.741398
0.732186
0.714203
0.706755
0.687942
0.68019
0.661356
0.6534
0.636487
0.6296
0.615574
0.610446
0.600246
0.594445
0.58797
0.582148
0.577687
0.570372
0.56803
0.559009
0.556479
0.545928
0.541994
0.529399
0.524376
0.510293
0.504538
0.490296
0.484754
0.472334
0.465522
0.455657
0.448974
0.442022
0.435078
0.430757
0.42382
0.42117
0.415126
0.41281
0.407898
0.406014
0.40203
0.400607
0.397359
0.396304
0.394084
0.39282
0.391602
0.390481
0.389945
0.389105
0.388945
0.388539
0.388608
0.388568
0.38918
0.389397
0.39057
0.391034
0.392722
0.393455
0.395612
0.3968
0.399119
0.400971
0.403521
0.406154
0.409024
0.41252
0.415902
0.420285
0.424295
0.429595
0.434383
0.440663
0.446357
0.453816
0.460532
0.469371
0.477242
0.487568
0.496741
0.508077
0.518425
0.530576
0.541729
0.554266
0.565774
0.578134
0.589322
0.600476
0.610171
0.618466
0.625325
0.629333
0.632036
0.632855
0.00477181
0.00477018
0.00476994
0.00477201
0.00477639
0.00478496
0.00479664
0.00482089
0.00486277
0.00494885
0.00512171
0.00548608
0.00626267
0.00790746
0.0114328
0.0187234
0.0338289
0.0636051
0.120245
0.223695
0.394491
0.657503
0.948539
1.11287
1.15939
1.15281
1.08203
0.951958
0.793231
0.63408
0.52228
0.457816
0.448941
0.455718
0.497331
0.562547
0.683052
0.85649
1.10133
1.41242
1.71006
1.9311
2.0009
2.00777
1.95147
1.80902
1.59715
1.34807
1.10131
0.86838
0.67958
0.515989
0.403729
0.35362
0.344201
0.352629
0.370466
0.415865
0.472692
0.566355
0.678094
0.847859
1.03905
1.26919
1.45068
1.63278
1.73269
1.77479
1.77657
1.73904
1.64069
1.50328
1.34569
1.19724
1.05171
0.968397
0.938144
0.931322
0.927672
0.930141
0.931012
0.941324
0.948504
0.969015
0.982489
1.00452
1.01241
1.02231
1.02644
1.02734
1.02928
1.02802
1.02854
1.02337
1.02083
1.00804
1.00486
0.992169
0.989151
0.973913
0.969502
0.952305
0.946672
0.931641
0.927347
0.916882
0.916413
0.915735
0.915088
0.920537
0.921274
0.930536
0.930615
0.939922
0.93892
0.943142
0.938596
0.938235
0.921042
0.912605
0.883498
0.869068
0.82826
0.811595
0.772817
0.748514
0.717708
0.68816
0.668883
0.637674
0.62569
0.597188
0.58728
0.563454
0.554524
0.534584
0.527098
0.510149
0.504223
0.48944
0.484744
0.47361
0.46728
0.459805
0.453254
0.448251
0.441653
0.439301
0.433316
0.43165
0.427279
0.426218
0.423322
0.422808
0.421188
0.421155
0.420646
0.421084
0.421607
0.42233
0.424048
0.425013
0.427991
0.429235
0.433346
0.435153
0.440292
0.442663
0.448872
0.451997
0.459304
0.463432
0.472043
0.477433
0.487553
0.494395
0.506244
0.51481
0.527821
0.538163
0.552114
0.56389
0.578283
0.591021
0.605146
0.618234
0.630944
0.643108
0.652361
0.661531
0.665864
0.669313
0.670288
0.00476701
0.00476487
0.00476403
0.00476436
0.00476567
0.00477064
0.00477748
0.00479011
0.00480963
0.00484737
0.0049159
0.00505186
0.0053275
0.00589619
0.00710366
0.0096133
0.0149155
0.0256664
0.0469715
0.0881929
0.161728
0.289101
0.483078
0.756481
0.999825
1.15233
1.22895
1.25672
1.25335
1.22821
1.19406
1.15927
1.15734
1.1682
1.22625
1.3094
1.44742
1.58903
1.73303
1.87383
1.96582
1.9884
1.95971
1.84995
1.65455
1.39418
1.11545
0.827455
0.578722
0.359669
0.226023
0.137043
0.0982567
0.0741901
0.0659177
0.0649844
0.065657
0.0730515
0.0850325
0.108566
0.139694
0.190958
0.255087
0.353252
0.466055
0.638736
0.825615
1.04745
1.22403
1.40531
1.51334
1.60925
1.67805
1.72611
1.73693
1.72927
1.70584
1.67383
1.63458
1.59056
1.5336
1.48498
1.44151
1.43257
1.42557
1.42721
1.42486
1.43066
1.43526
1.43493
1.44063
1.43957
1.44312
1.4413
1.44535
1.44312
1.45021
1.44931
1.45831
1.45737
1.46436
1.46295
1.46796
1.46702
1.47484
1.47555
1.49215
1.50301
1.51914
1.54497
1.5644
1.60279
1.62287
1.66712
1.68343
1.72346
1.73653
1.75974
1.76247
1.7669
1.75694
1.74592
1.7063
1.68105
1.63376
1.58435
1.53901
1.47319
1.43867
1.36825
1.34074
1.27323
1.24869
1.18759
1.1637
1.10788
1.08603
1.03396
1.01478
0.963651
0.945994
0.901768
0.875719
0.842389
0.808991
0.783923
0.744724
0.728543
0.689106
0.674769
0.639915
0.627518
0.597802
0.587432
0.562803
0.554449
0.534826
0.528456
0.515299
0.507675
0.500411
0.494414
0.491446
0.486956
0.486194
0.484128
0.484458
0.484229
0.486785
0.487573
0.492445
0.494494
0.501468
0.504707
0.513724
0.518327
0.529542
0.536443
0.548693
0.558525
0.571835
0.584361
0.59832
0.613123
0.627049
0.643361
0.656332
0.672511
0.682449
0.694581
0.700115
0.704301
0.705509
0.00477552
0.00476998
0.00476865
0.00476875
0.00476959
0.00477414
0.00477981
0.00478921
0.00480202
0.00482406
0.00485708
0.00491511
0.00501792
0.00521176
0.00559563
0.00636568
0.00796801
0.0112354
0.0178427
0.0311161
0.055927
0.101944
0.178518
0.30274
0.479227
0.71989
0.947872
1.1275
1.22871
1.30968
1.36321
1.42651
1.47319
1.53674
1.58983
1.66102
1.72371
1.80015
1.83691
1.83843
1.79743
1.69494
1.53303
1.30598
1.0438
0.747986
0.50115
0.278537
0.162529
0.0874623
0.056022
0.0353151
0.0267433
0.0206535
0.0177968
0.0155532
0.0147384
0.0148441
0.0155914
0.0180107
0.0219967
0.029572
0.0403286
0.0588531
0.0828428
0.12177
0.169434
0.240217
0.319018
0.430285
0.558168
0.716659
0.880567
1.03226
1.20031
1.34119
1.49874
1.61888
1.76391
1.87564
2.00046
2.07599
2.16382
2.21558
2.26348
2.27558
2.27474
2.27067
2.26066
2.24045
2.2296
2.20511
2.19522
2.16487
2.15488
2.13125
2.12849
2.11998
2.12568
2.12363
2.13583
2.1365
2.15131
2.15375
2.17151
2.17602
2.20283
2.21606
2.24059
2.27291
2.3025
2.35333
2.38637
2.44864
2.47897
2.54152
2.56822
2.6239
2.64666
2.68398
2.69466
2.70445
2.70078
2.70078
2.68856
2.66096
2.6386
2.59523
2.57086
2.51889
2.49703
2.44425
2.42659
2.37722
2.3589
2.31047
2.29241
2.24386
2.22735
2.17474
2.15817
2.11067
2.07163
2.03373
1.97693
1.94277
1.86651
1.83435
1.74454
1.70828
1.61176
1.57305
1.47372
1.4341
1.33302
1.2923
1.19307
1.1532
1.06747
1.01686
0.953557
0.89835
0.855442
0.800902
0.775456
0.728203
0.710772
0.674897
0.662882
0.638239
0.630835
0.615823
0.612169
0.605035
0.604291
0.601492
0.602389
0.604208
0.607035
0.613604
0.618669
0.630016
0.637121
0.652658
0.662318
0.680776
0.69287
0.712447
0.724725
0.740466
0.747974
0.753277
0.754836
0.00490755
0.00482118
0.0048024
0.00479919
0.00478753
0.00478945
0.00478681
0.00479107
0.00479374
0.00480744
0.00482423
0.00485582
0.00490151
0.00498114
0.00511449
0.00535621
0.00581457
0.00670825
0.00846656
0.0120086
0.0187383
0.0317074
0.0543251
0.0936132
0.153947
0.245052
0.362365
0.521867
0.690188
0.867913
0.994249
1.12413
1.19475
1.28451
1.32447
1.36609
1.36635
1.34778
1.29011
1.18374
1.05003
0.867962
0.684894
0.479935
0.334138
0.19829
0.131286
0.0711271
0.0470047
0.0274984
0.0202911
0.0154223
0.0134266
0.0117301
0.0108983
0.0097916
0.00910574
0.00831449
0.00807345
0.00804811
0.00818041
0.00871422
0.00975053
0.0118176
0.0148819
0.0202461
0.027397
0.0388554
0.0530611
0.0741779
0.0989158
0.13201
0.174874
0.221355
0.283636
0.35086
0.453778
0.565726
0.72137
0.869644
1.07434
1.25764
1.50808
1.71703
1.97602
2.17077
2.38236
2.52583
2.67477
2.76577
2.863
2.92228
2.96034
2.96941
2.97265
2.96718
2.96513
2.95346
2.95456
2.94982
2.95655
2.95568
2.96687
2.96843
2.98499
2.98922
3.01286
3.02372
3.04021
3.06543
3.08443
3.12617
3.15012
3.20237
3.225
3.27322
3.2922
3.33445
3.35211
3.38868
3.40244
3.42242
3.425
3.42839
3.42626
3.4158
3.40769
3.38715
3.37453
3.34677
3.33551