/*--------------------------------*- C++ -*----------------------------------*\
| =========                 |                                                 |
| \\      /  F ield         | OpenFOAM: The Open Source CFD Toolbox           |
|  \\    /   O peration     | Version:  4.1                                   |
|   \\  /    A nd           | Web:      www.OpenFOAM.org                      |
|    \\/     M anipulation  |                                                 |
\*---------------------------------------------------------------------------*/
FoamFile
{
    version     2.0;
    format      ascii;
    class       volScalarField;
    location    "8.5";
    object      p;
}
// * * * * * * * * * * * * * * * * * * * * * * * * * * * * * * * * * * * * * //

dimensions      [0 2 -2 0 0 0 0];

internalField   nonuniform List<scalar> 
204246
(
-9.05615
-18.8735
-19.5292
-19.8126
-20.2175
-20.563
-20.9793
-21.2717
-21.7637
-22.1618
-22.5739
-22.9007
-23.071
-22.962
-22.6577
-22.1835
-21.851
-21.9093
-22.9553
-26.0435
-30.8944
-37.9977
-44.485
-48.7332
-53.2274
-57.0015
-59.993
-62.5357
-64.2694
-65.4915
-66.1334
-66.4447
-65.8604
-64.5865
-63.2951
-61.8908
-60.0263
-57.6593
-55.4451
-53.1945
-51.1124
-49.2302
-47.6223
-46.1693
-45.0865
-44.0264
-43.4619
-42.9224
-42.6064
-42.2058
-42.1196
-42.4143
-43.1916
-43.7692
-43.8111
-44.4916
-44.8142
-45.392
-45.9393
-46.5566
-47.1397
-47.9754
-48.1669
-49.0051
-49.401
-49.9403
-50.2771
-50.6852
-50.9898
-52.1692
-52.8868
-52.9023
-53.4223
-53.5559
-53.8042
-53.9946
-54.1948
-54.2777
-55.0315
-55.0783
-55.2377
-55.3389
-55.5114
-55.573
-55.6373
-55.6358
-56.6913
-57.2791
-57.1121
-57.5335
-57.534
-57.59
-57.5749
-58.272
-58.3278
-58.5544
-58.6771
-58.7669
-58.6237
-59.3696
-59.4163
-59.4956
-59.5186
-59.5806
-59.617
-60.7811
-61.2522
-61.1372
-61.4011
-61.2135
-61.895
-61.9003
-62.0726
-62.1751
-62.2715
-62.1558
-62.7408
-62.4505
-63.0496
-62.9448
-62.9154
-62.8118
-64
-64.5221
-64.3495
-64.7723
-64.4787
-65.1968
-65.307
-65.426
-65.3394
-66.0459
-65.8604
-66.5554
-66.3318
-67.0065
-66.6829
-67.2138
-66.9887
-68.3019
-68.9465
-68.8884
-69.424
-69.1652
-69.8591
-69.639
-70.3856
-70.115
-70.8342
-70.6138
-71.3224
-71.4212
-71.5561
-71.4855
-71.3719
-71.0502
-72.2815
-72.5843
-71.9896
-72.1422
-71.5227
-70.9854
-70.2532
-69.4714
-68.3822
-67.1341
-65.4768
-63.5794
-61.2179
-58.5939
-55.5507
-52.315
-47.6962
-43.0528
-37.6575
-31.7775
-24.9493
-17.0218
-8.4187
1.39119
12.3862
25.0344
39.3937
55.9402
74.6405
95.7611
119.181
145.469
175.572
215.073
275.078
370.737
499.389
-14.1055
-15.8683
-17.6167
-18.8949
-19.6918
-20.1386
-20.5469
-20.9671
-21.3902
-21.8532
-22.3214
-22.7939
-23.1763
-23.3969
-23.3484
-22.9856
-22.3879
-21.9764
-22.5405
-24.3939
-28.2575
-34.6102
-41.0628
-46.5505
-51.17
-55.1052
-58.5852
-61.5147
-63.7903
-65.4846
-66.6319
-67.2052
-67.2581
-66.9502
-65.6075
-63.9965
-62.0421
-59.7782
-57.3777
-54.9923
-52.7075
-50.6126
-48.7538
-47.0942
-45.7268
-44.6005
-43.72
-43.0899
-42.5819
-42.1904
-42.0895
-42.2853
-42.6038
-42.9722
-43.3333
-43.8235
-44.2917
-44.8122
-45.3929
-46.0276
-46.6662
-47.2798
-47.8445
-48.4149
-49.006
-49.507
-49.9614
-50.4614
-50.9779
-51.5535
-52.1102
-52.5592
-52.9633
-53.2933
-53.5655
-53.7971
-54.0225
-54.2865
-54.6015
-54.872
-55.0848
-55.2558
-55.3862
-55.4875
-55.6205
-55.8472
-56.2226
-56.6085
-56.8946
-57.133
-57.3085
-57.4553
-57.6186
-57.856
-58.1201
-58.348
-58.5037
-58.6376
-58.8043
-59.0461
-59.2374
-59.3655
-59.4681
-59.5975
-59.8453
-60.2437
-60.621
-60.879
-61.0989
-61.3042
-61.5331
-61.7363
-61.9072
-62.0524
-62.1699
-62.2994
-62.4784
-62.6234
-62.7807
-62.8566
-62.9338
-63.128
-63.5083
-63.8941
-64.1677
-64.4046
-64.6102
-64.8595
-65.0891
-65.2669
-65.4658
-65.7144
-65.9595
-66.2379
-66.4927
-66.7236
-66.8817
-67.067
-67.3619
-67.839
-68.3404
-68.7332
-69.0728
-69.3571
-69.6244
-69.9123
-70.1788
-70.466
-70.711
-71.0241
-71.3099
-71.6552
-71.8369
-72.0418
-72.0078
-72.2329
-72.4479
-72.6698
-72.7631
-72.7454
-72.6784
-72.2788
-71.9728
-71.3337
-70.6577
-69.6702
-68.46
-66.9295
-65.1124
-62.9937
-60.4884
-57.6008
-54.1025
-50.1429
-45.5454
-40.4226
-34.4321
-27.5906
-20.0061
-11.4703
-2.03005
8.65005
20.6328
34.3725
49.9177
67.5405
86.854
107.627
129.481
154.508
190.416
255.852
352.601
-19.3669
-18.642
-18.7209
-19.1619
-19.6349
-20.0563
-20.4363
-20.8066
-21.1992
-21.6254
-22.0967
-22.5364
-23.0015
-23.459
-23.7609
-23.8153
-23.6591
-23.7346
-25.3087
-27.5719
-30.9584
-36.3247
-41.8589
-46.823
-51.2735
-55.1269
-58.4499
-61.2047
-63.4434
-65.3466
-66.7997
-67.7094
-67.8476
-67.0333
-66.3567
-65.0061
-63.1411
-60.9167
-58.5059
-56.0449
-53.656
-51.4353
-49.4221
-47.6485
-46.1448
-44.9089
-43.9345
-43.2016
-42.5975
-42.2215
-42.1988
-42.2519
-42.3939
-42.711
-43.138
-43.5738
-44.0409
-44.5655
-45.1449
-45.7788
-46.414
-47.0346
-47.6527
-48.249
-48.8372
-49.3695
-49.8787
-50.4102
-50.9352
-51.441
-51.9081
-52.3624
-52.7569
-53.1235
-53.4258
-53.7038
-53.9534
-54.232
-54.4938
-54.7506
-54.9838
-55.1914
-55.3519
-55.5061
-55.6832
-55.9202
-56.1812
-56.4454
-56.713
-56.9559
-57.1759
-57.359
-57.5547
-57.7516
-57.9832
-58.196
-58.3789
-58.5565
-58.7692
-58.9672
-59.1552
-59.3132
-59.4699
-59.6561
-59.9034
-60.1685
-60.4304
-60.6887
-60.9293
-61.1627
-61.3723
-61.581
-61.7628
-61.929
-62.0735
-62.2344
-62.3883
-62.5522
-62.6912
-62.8197
-62.9644
-63.178
-63.4083
-63.6544
-63.9139
-64.1618
-64.4074
-64.6362
-64.8564
-65.0724
-65.2865
-65.5102
-65.7551
-66.0126
-66.2678
-66.5063
-66.7288
-66.9605
-67.2458
-67.5956
-67.9643
-68.3201
-68.6596
-68.9618
-69.2502
-69.5219
-69.7972
-70.0581
-70.3303
-70.5954
-70.8809
-71.1154
-71.3392
-71.472
-71.6192
-71.7505
-71.9869
-72.1359
-72.1485
-72.0826
-71.8701
-71.5737
-71.1301
-70.5671
-69.81
-68.8301
-67.5884
-66.0302
-64.2231
-62.0452
-59.5637
-56.6223
-53.3132
-49.4676
-45.0757
-39.9866
-34.1671
-27.6253
-20.1937
-11.864
-2.5211
7.87885
19.5703
32.7439
47.7577
64.704
83.5169
103.562
124.519
146.97
175.644
218.796
275.997
-21.206
-20.3138
-19.9065
-19.8398
-19.9436
-20.1477
-20.3939
-20.6698
-20.9704
-21.2918
-21.6458
-22.0782
-22.5819
-23.1057
-23.5782
-23.9235
-24.1379
-24.5987
-26.6559
-29.5719
-33.5717
-38.8169
-43.9052
-48.1637
-51.839
-55.2921
-58.5471
-61.3761
-63.6408
-65.6259
-67.3241
-68.6035
-69.3374
-69.4504
-68.4555
-67.0023
-65.0152
-62.6318
-60.0346
-57.3586
-54.7478
-52.2999
-50.0799
-48.1232
-46.4573
-45.083
-43.9951
-43.148
-42.4631
-42.0726
-41.9265
-41.9505
-42.0649
-42.325
-42.6916
-43.142
-43.6277
-44.1681
-44.7585
-45.3927
-46.0357
-46.6786
-47.3208
-47.9528
-48.5692
-49.1323
-49.6876
-50.2318
-50.7623
-51.2577
-51.7255
-52.1661
-52.5678
-52.9392
-53.2702
-53.5726
-53.8445
-54.1201
-54.3757
-54.6271
-54.8532
-55.0719
-55.2517
-55.4418
-55.6339
-55.8608
-56.0891
-56.3264
-56.5669
-56.806
-57.0337
-57.2338
-57.44
-57.6399
-57.8621
-58.0547
-58.2556
-58.4431
-58.6578
-58.8458
-59.0548
-59.2246
-59.4168
-59.6219
-59.8652
-60.0904
-60.329
-60.5682
-60.8076
-61.0459
-61.2481
-61.4844
-61.643
-61.8479
-61.9793
-62.1714
-62.311
-62.4911
-62.6177
-62.7804
-62.9319
-63.1637
-63.3454
-63.5779
-63.8123
-64.0261
-64.299
-64.5037
-64.7578
-64.9557
-65.209
-65.4125
-65.6844
-65.9122
-66.1943
-66.4135
-66.6874
-66.9266
-67.2685
-67.5483
-67.8743
-68.2153
-68.5341
-68.8996
-69.1822
-69.5262
-69.7837
-70.1181
-70.3642
-70.7213
-70.9751
-71.3259
-71.5162
-71.7853
-71.9666
-72.343
-72.4602
-72.6643
-72.8317
-72.8996
-72.8967
-72.7721
-72.5873
-72.2763
-71.8618
-71.3036
-70.5087
-69.4797
-68.0691
-66.3288
-64.1832
-61.662
-58.7021
-55.3017
-51.3737
-46.8784
-41.6736
-35.7483
-29.0545
-21.4996
-13.0571
-3.61257
6.90246
18.664
31.7608
46.3018
62.2594
79.6688
98.7156
120.514
147.787
182.535
220.933
-22.4027
-21.5287
-20.9356
-20.5821
-20.4354
-20.4288
-20.5158
-20.6547
-20.8448
-21.0706
-21.3401
-21.6743
-22.0831
-22.5466
-23.0418
-23.5506
-24.0951
-24.9977
-27.3909
-30.475
-34.8761
-40.5085
-45.8534
-50.0196
-53.3845
-56.0839
-58.8996
-61.5959
-63.9232
-65.9564
-67.7575
-69.2423
-70.2597
-70.6465
-70.1541
-68.9054
-66.9994
-64.5772
-61.8191
-58.9016
-56.0162
-53.2869
-50.8018
-48.6122
-46.7533
-45.2298
-44.0192
-43.0817
-42.3764
-41.9389
-41.7092
-41.659
-41.7663
-41.9998
-42.3372
-42.7741
-43.2601
-43.8054
-44.4064
-45.0447
-45.6999
-46.3568
-47.0228
-47.6787
-48.3246
-48.9183
-49.5058
-50.0641
-50.6076
-51.1033
-51.5757
-52.0161
-52.4195
-52.7991
-53.1447
-53.4643
-53.7465
-54.0295
-54.2848
-54.5465
-54.7654
-55.0016
-55.1742
-55.3959
-55.5839
-55.806
-56.0115
-56.2373
-56.4658
-56.6917
-56.921
-57.1178
-57.3439
-57.5337
-57.7698
-57.9432
-58.1679
-58.3424
-58.5738
-58.7465
-58.976
-59.1444
-59.3581
-59.5551
-59.8031
-60.0063
-60.2483
-60.4787
-60.6997
-60.948
-61.1477
-61.3873
-61.5524
-61.7658
-61.9022
-62.1007
-62.2401
-62.4228
-62.555
-62.7272
-62.8704
-63.084
-63.2623
-63.4847
-63.7028
-63.9089
-64.1685
-64.3665
-64.6293
-64.8249
-65.0903
-65.2916
-65.5709
-65.7897
-66.0783
-66.2971
-66.584
-66.8192
-67.1501
-67.4229
-67.7424
-68.0572
-68.3759
-68.7209
-69.0069
-69.3334
-69.6173
-69.9222
-70.2085
-70.5125
-70.8058
-71.0864
-71.3353
-71.5365
-71.7514
-71.9501
-72.1909
-72.3899
-72.5063
-72.5509
-72.499
-72.3442
-72.0614
-71.6215
-71.0546
-70.3197
-69.4917
-68.4592
-67.2485
-65.7437
-63.9398
-61.7573
-59.1818
-56.1465
-52.625
-48.5466
-43.8508
-38.5205
-32.4393
-25.5313
-17.7077
-8.90342
0.925655
11.767
23.562
36.197
49.6452
64.0088
79.8905
98.6474
122.014
150.031
177.994
-23.2957
-22.4236
-21.7564
-21.2691
-20.9486
-20.7809
-20.7244
-20.7394
-20.8148
-20.9369
-21.1074
-21.3357
-21.6376
-21.9969
-22.4191
-22.9127
-23.5803
-24.8054
-27.5422
-31.0227
-35.6903
-41.435
-46.9199
-51.183
-54.5736
-56.8612
-59.3272
-61.8295
-64.0842
-66.094
-67.9711
-69.691
-71.0697
-71.8497
-71.7747
-70.8743
-69.1412
-66.7427
-63.8678
-60.7252
-57.5395
-54.4756
-51.6588
-49.1877
-47.0949
-45.392
-44.0266
-42.9767
-42.2018
-41.7079
-41.4421
-41.3642
-41.4428
-41.6472
-41.981
-42.4144
-42.9049
-43.4581
-44.0642
-44.7098
-45.3762
-46.0464
-46.7286
-47.4056
-48.0773
-48.7008
-49.3156
-49.893
-50.4535
-50.9603
-51.4412
-51.8852
-52.2936
-52.6798
-53.0329
-53.3641
-53.6571
-53.9488
-54.2017
-54.4715
-54.6807
-54.9304
-55.1062
-55.3366
-55.5267
-55.7524
-55.9402
-56.1645
-56.3881
-56.591
-56.8247
-57.0158
-57.2459
-57.4367
-57.6707
-57.849
-58.0785
-58.2542
-58.4875
-58.6617
-58.8932
-59.0716
-59.2953
-59.4897
-59.7304
-59.9341
-60.1719
-60.4002
-60.6136
-60.8561
-61.0581
-61.2947
-61.4683
-61.6828
-61.831
-62.0298
-62.1751
-62.3521
-62.5023
-62.6672
-62.821
-63.006
-63.1877
-63.3947
-63.5964
-63.8046
-64.0379
-64.2388
-64.4909
-64.6944
-64.9521
-65.1618
-65.4337
-65.6568
-65.9414
-66.1685
-66.4581
-66.6971
-67.0173
-67.2825
-67.5988
-67.9078
-68.2231
-68.5655
-68.8635
-69.2048
-69.4945
-69.8331
-70.1208
-70.4695
-70.7615
-71.1093
-71.3747
-71.73
-71.9799
-72.3658
-72.5332
-72.7859
-73.0856
-73.261
-73.4601
-73.5173
-73.5692
-73.6034
-73.4779
-73.1976
-72.6507
-71.8743
-70.8186
-69.4915
-67.8477
-65.8784
-63.5345
-60.7963
-57.6101
-53.9451
-49.7095
-44.887
-39.3923
-33.1125
-25.9651
-17.859
-8.78374
1.24001
12.0919
23.6456
35.8467
48.7585
62.8646
79.3507
99.0166
121.717
143.247
-23.9794
-23.082
-22.3597
-21.8113
-21.4026
-21.1215
-20.9548
-20.8648
-20.8341
-20.8605
-20.9304
-21.0476
-21.2286
-21.4778
-21.8192
-22.2915
-22.939
-24.1159
-26.7405
-30.5941
-35.4819
-41.3986
-47.1553
-51.8107
-54.8106
-57.3257
-59.48
-61.7996
-64.0673
-66.1594
-68.1162
-69.9721
-71.6213
-72.8104
-73.2787
-72.7814
-71.3723
-69.1304
-66.2465
-62.9457
-59.4943
-56.1171
-52.9759
-50.1788
-47.7621
-45.7485
-44.123
-42.9016
-42.0418
-41.5052
-41.1807
-41.0433
-41.0943
-41.313
-41.6446
-42.0562
-42.5398
-43.0956
-43.7082
-44.3672
-45.0509
-45.7344
-46.4241
-47.1177
-47.816
-48.4681
-49.1069
-49.7043
-50.2838
-50.8102
-51.309
-51.7636
-52.1805
-52.5718
-52.9326
-53.2764
-53.5749
-53.8723
-54.1257
-54.3961
-54.6124
-54.8575
-55.0485
-55.2757
-55.468
-55.6904
-55.8796
-56.0975
-56.3166
-56.5134
-56.7421
-56.9331
-57.1588
-57.3497
-57.5825
-57.7623
-57.993
-58.1716
-58.4044
-58.5827
-58.8153
-59.0009
-59.2304
-59.4264
-59.6674
-59.869
-60.1016
-60.3235
-60.5467
-60.7886
-60.9876
-61.2263
-61.4029
-61.621
-61.7761
-61.9753
-62.1237
-62.3041
-62.4482
-62.6253
-62.7694
-62.957
-63.1159
-63.3137
-63.5123
-63.7065
-63.9385
-64.1383
-64.3758
-64.5857
-64.8286
-65.0497
-65.3055
-65.5396
-65.8081
-66.0494
-66.3248
-66.5792
-66.8733
-67.1417
-67.4418
-67.7425
-68.054
-68.367
-68.6709
-68.984
-69.2878
-69.5967
-69.9016
-70.2095
-70.5153
-70.8105
-71.1008
-71.3681
-71.6363
-71.8714
-72.1603
-72.414
-72.6047
-72.7414
-72.7982
-72.7702
-72.6423
-72.4208
-72.1711
-71.8386
-71.4851
-70.9913
-70.3341
-69.431
-68.251
-66.7407
-64.873
-62.6077
-59.9194
-56.7722
-53.1131
-48.9346
-44.1422
-38.6477
-32.365
-25.2243
-17.2114
-8.3497
1.28328
11.599
22.5435
34.1944
46.9365
61.5555
78.3835
97.1596
114.39
-24.5056
-23.6081
-22.8517
-22.2711
-21.8225
-21.4609
-21.2022
-21.0356
-20.9216
-20.8591
-20.8427
-20.8599
-20.9247
-21.0473
-21.257
-21.6144
-22.1913
-23.2175
-25.325
-29.3812
-34.2979
-40.4196
-46.6208
-51.8877
-55.1438
-57.7502
-59.7261
-61.7109
-63.787
-65.8518
-67.8843
-69.8788
-71.7602
-73.3006
-74.2297
-74.2806
-73.3498
-71.441
-68.6926
-65.331
-61.6717
-58.0108
-54.5634
-51.4749
-48.7984
-46.5516
-44.719
-43.292
-42.2039
-41.4197
-40.9166
-40.7323
-40.7558
-40.9666
-41.2501
-41.6719
-42.1799
-42.7428
-43.3568
-44.0146
-44.7144
-45.4138
-46.1177
-46.8242
-47.5412
-48.2159
-48.8774
-49.4977
-50.0963
-50.6426
-51.162
-51.6331
-52.0639
-52.4639
-52.8338
-53.1893
-53.4932
-53.7939
-54.0542
-54.326
-54.5481
-54.7953
-54.9891
-55.2184
-55.4057
-55.6276
-55.8158
-56.0319
-56.2442
-56.4389
-56.6641
-56.8539
-57.0755
-57.2651
-57.4944
-57.6757
-57.903
-58.0841
-58.3126
-58.4946
-58.7249
-58.9147
-59.1429
-59.3441
-59.5808
-59.7831
-60.0162
-60.2385
-60.4587
-60.6924
-60.898
-61.1283
-61.3138
-61.5281
-61.6921
-61.8904
-62.0407
-62.2201
-62.3651
-62.5403
-62.6854
-62.8637
-63.0178
-63.2074
-63.396
-63.588
-63.8055
-64.0073
-64.242
-64.4495
-64.6909
-64.9147
-65.1664
-65.406
-65.6683
-65.9204
-66.1937
-66.4603
-66.7428
-67.017
-67.3097
-67.6157
-67.9279
-68.2498
-68.5655
-68.8938
-69.2104
-69.5434
-69.8642
-70.2047
-70.531
-70.8786
-71.2077
-71.5588
-71.8806
-72.2202
-72.5114
-72.836
-73.1756
-73.5003
-73.8125
-74.0753
-74.2974
-74.4461
-74.4641
-74.3536
-74.0592
-73.6071
-72.9653
-72.1313
-71.0581
-69.722
-68.0691
-66.071
-63.6829
-60.8796
-57.5998
-53.8334
-49.5014
-44.5341
-38.8823
-32.5045
-25.3917
-17.5495
-9.02621
0.130238
9.9127
20.4175
31.9555
44.9857
59.6351
75.5634
89.8173
-24.8227
-23.9739
-23.2114
-22.5997
-22.1254
-21.7435
-21.4248
-21.1954
-21.0253
-20.8966
-20.8057
-20.75
-20.7238
-20.7425
-20.8261
-21.0372
-21.4736
-22.2848
-23.7459
-27.6585
-32.2896
-38.2986
-44.6934
-50.5418
-54.94
-57.4248
-59.7298
-61.6082
-63.4825
-65.3997
-67.3935
-69.4394
-71.4782
-73.318
-74.6868
-75.2755
-74.8845
-73.4091
-70.9294
-67.6362
-63.866
-59.9816
-56.2611
-52.8931
-49.9703
-47.5343
-45.5403
-43.9583
-42.7157
-41.7894
-41.1671
-40.8532
-40.7153
-40.7369
-40.949
-41.3344
-41.8439
-42.3825
-42.9986
-43.6656
-44.384
-45.0912
-45.7917
-46.508
-47.2499
-47.9491
-48.6262
-49.2608
-49.8722
-50.4406
-50.9832
-51.4761
-51.9277
-52.3407
-52.7233
-53.0842
-53.4011
-53.7084
-53.9796
-54.253
-54.4823
-54.7302
-54.9299
-55.1595
-55.3479
-55.5688
-55.7507
-55.961
-56.1686
-56.3654
-56.5858
-56.776
-56.9911
-57.1808
-57.4032
-57.5889
-57.8098
-57.9952
-58.2159
-58.4043
-58.6284
-58.827
-59.0504
-59.2578
-59.4877
-59.6936
-59.9212
-60.1467
-60.373
-60.6004
-60.8185
-61.0399
-61.2359
-61.442
-61.6157
-61.8076
-61.9678
-62.1379
-62.2881
-62.456
-62.6023
-62.7691
-62.916
-63.0946
-63.2794
-63.4716
-63.6714
-63.865
-64.0838
-64.2946
-64.5239
-64.7504
-64.9905
-65.2315
-65.4835
-65.737
-66.0001
-66.265
-66.5373
-66.8151
-67.1048
-67.3969
-67.6971
-67.9981
-68.3052
-68.6112
-68.923
-69.2331
-69.5503
-69.8639
-70.1844
-70.4974
-70.8171
-71.1273
-71.4508
-71.7701
-72.1076
-72.4128
-72.6625
-72.883
-73.0615
-73.24
-73.3701
-73.4604
-73.5244
-73.5313
-73.5456
-73.4641
-73.2604
-72.8694
-72.2624
-71.3936
-70.2266
-68.7201
-66.8375
-64.5418
-61.7732
-58.5162
-54.7152
-50.3206
-45.3054
-39.6479
-33.353
-26.4299
-18.9035
-10.784
-2.05237
7.40954
17.8378
29.5026
42.4394
56.2566
68.4019
-24.9998
-24.1896
-23.4721
-22.8745
-22.3864
-21.9736
-21.6249
-21.3535
-21.1377
-20.9641
-20.8238
-20.7132
-20.6274
-20.5749
-20.5717
-20.6612
-20.9373
-21.543
-22.6465
-25.3967
-29.8538
-35.3758
-41.7329
-47.871
-53.0995
-56.7434
-59.22
-60.9247
-62.9523
-64.8313
-66.7631
-68.7789
-70.8433
-72.815
-74.4723
-75.5185
-75.6866
-74.762
-72.6974
-69.6396
-65.9165
-61.9224
-58.0043
-54.4072
-51.2523
-48.6089
-46.4387
-44.7204
-43.3759
-42.3638
-41.6381
-41.176
-40.9128
-40.8674
-41.0119
-41.2604
-41.6213
-42.0607
-42.6267
-43.3056
-44.0201
-44.7358
-45.4377
-46.1634
-46.9228
-47.6348
-48.3273
-48.9953
-49.6306
-50.2169
-50.773
-51.2856
-51.7571
-52.1863
-52.5831
-52.956
-53.2923
-53.6071
-53.889
-54.164
-54.4067
-54.6524
-54.8641
-55.0892
-55.2842
-55.4922
-55.6771
-55.8805
-56.0868
-56.2852
-56.5
-56.6896
-56.9013
-57.0909
-57.3058
-57.4939
-57.7089
-57.8966
-58.1106
-58.3049
-58.5164
-58.7222
-58.9393
-59.154
-59.3756
-59.5908
-59.8149
-60.0425
-60.2714
-60.5011
-60.7258
-60.9472
-61.1517
-61.3539
-61.5395
-61.7242
-61.8933
-62.059
-62.218
-62.3795
-62.5303
-62.6915
-62.8381
-63.0076
-63.1823
-63.3656
-63.5612
-63.7611
-63.9742
-64.1832
-64.4104
-64.6337
-64.8754
-65.1147
-65.3714
-65.625
-65.895
-66.1599
-66.4386
-66.7089
-66.9965
-67.295
-67.6006
-67.9151
-68.2289
-68.5535
-68.8718
-69.2055
-69.5319
-69.8754
-70.2099
-70.5618
-70.9035
-71.2649
-71.6144
-71.9817
-72.329
-72.7001
-73.0848
-73.4643
-73.8416
-74.1901
-74.5047
-74.7443
-74.9036
-74.9746
-74.9419
-74.8201
-74.601
-74.2774
-73.8206
-73.1889
-72.338
-71.2183
-69.7772
-67.9569
-65.6926
-62.9603
-59.712
-55.9093
-51.5378
-46.5873
-41.0691
-34.9936
-28.373
-21.1946
-13.4157
-4.91332
4.49565
14.9798
26.5382
38.7434
49.3476
-24.9676
-24.219
-23.5617
-23.0026
-22.5386
-22.1308
-21.7758
-21.4867
-21.2442
-21.0412
-20.8666
-20.7168
-20.5865
-20.4864
-20.4249
-20.4363
-20.5937
-21.0308
-21.8972
-23.7534
-27.315
-32.1152
-38.1963
-44.3842
-50.2014
-54.9479
-57.8854
-60.4238
-62.46
-64.0061
-65.9075
-67.8808
-69.9274
-71.9405
-73.7567
-75.1292
-75.7428
-75.3429
-73.7565
-71.0673
-67.552
-63.6076
-59.634
-55.9339
-52.6436
-49.8474
-47.5134
-45.6306
-44.1383
-43.0057
-42.1773
-41.6252
-41.2953
-41.1688
-41.2089
-41.3614
-41.6601
-42.0914
-42.5785
-43.1185
-43.6956
-44.337
-45.0554
-45.8066
-46.5912
-47.3278
-48.0253
-48.6964
-49.3366
-49.948
-50.5217
-51.0536
-51.5457
-51.9945
-52.4064
-52.7911
-53.1426
-53.4711
-53.7684
-54.0529
-54.3087
-54.5553
-54.7806
-55.0039
-55.2094
-55.4091
-55.5998
-55.7971
-55.9984
-56.1999
-56.4048
-56.6018
-56.8053
-57.0006
-57.2043
-57.399
-57.6034
-57.7976
-58.0014
-58.1988
-58.4048
-58.6103
-58.8255
-59.0401
-59.2604
-59.4778
-59.7036
-59.9306
-60.1607
-60.3921
-60.6218
-60.8451
-61.0543
-61.259
-61.4482
-61.6321
-61.8037
-61.9709
-62.1281
-62.2814
-62.4299
-62.5787
-62.7174
-62.8765
-63.0472
-63.2272
-63.4111
-63.6051
-63.8051
-64.0115
-64.2271
-64.4485
-64.6807
-64.9183
-65.1655
-65.4182
-65.6777
-65.941
-66.2098
-66.4844
-66.7685
-67.0558
-67.3506
-67.6485
-67.9524
-68.258
-68.5696
-68.8836
-69.2048
-69.5279
-69.8585
-70.19
-70.5297
-70.8699
-71.2201
-71.5726
-71.9381
-72.3031
-72.6571
-73.0078
-73.3448
-73.6787
-74.0025
-74.3488
-74.6871
-75
-75.265
-75.4368
-75.4967
-75.4303
-75.2247
-74.8658
-74.3224
-73.5555
-72.5136
-71.1398
-69.3637
-67.1521
-64.4573
-61.2482
-57.5166
-53.2591
-48.4884
-43.2133
-37.4372
-31.1364
-24.2473
-16.6426
-8.17028
1.28716
11.7103
22.6547
32.0926
-24.8202
-24.1591
-23.5619
-23.0499
-22.6107
-22.2213
-21.8753
-21.5837
-21.3299
-21.1128
-20.9224
-20.7552
-20.6044
-20.4766
-20.3805
-20.3389
-20.4068
-20.6936
-21.3381
-22.6321
-25.1738
-29.2368
-34.2959
-40.1599
-46.099
-51.5273
-55.8135
-59.0107
-61.2532
-63.3533
-65.1991
-67.0242
-69.0123
-70.9868
-72.8129
-74.2946
-75.1535
-75.0911
-73.9609
-71.7052
-68.5483
-64.842
-60.9887
-57.3289
-54.034
-51.1767
-48.7376
-46.7237
-45.1009
-43.8374
-42.8828
-42.2108
-41.774
-41.5445
-41.4924
-41.5942
-41.8253
-42.1633
-42.5666
-43.0534
-43.6305
-44.2419
-44.8849
-45.5114
-46.1639
-46.8829
-47.6261
-48.3483
-49.0423
-49.6588
-50.2276
-50.7762
-51.2887
-51.7582
-52.1914
-52.5907
-52.956
-53.3017
-53.6188
-53.9201
-54.1868
-54.4424
-54.6778
-54.9079
-55.1203
-55.3239
-55.5161
-55.7114
-55.9098
-56.1109
-56.3136
-56.512
-56.7127
-56.908
-57.1084
-57.3032
-57.5047
-57.6991
-57.8996
-58.0951
-58.2981
-58.5013
-58.7145
-58.9282
-59.1485
-59.3664
-59.593
-59.8216
-60.053
-60.2865
-60.5199
-60.7495
-60.9651
-61.177
-61.3702
-61.5593
-61.7325
-61.9036
-62.061
-62.216
-62.3628
-62.513
-62.6523
-62.8051
-62.9644
-63.1318
-63.3117
-63.5003
-63.7017
-63.9029
-64.1202
-64.3354
-64.5674
-64.8019
-65.0517
-65.3035
-65.5681
-65.831
-66.1044
-66.3727
-66.6554
-66.9473
-67.2459
-67.5525
-67.8607
-68.1777
-68.4921
-68.8189
-69.1433
-69.4817
-69.8176
-70.1684
-70.5167
-70.881
-71.2441
-71.6251
-72.0047
-72.4044
-72.8106
-73.2126
-73.6101
-73.9937
-74.3673
-74.7207
-75.0663
-75.3957
-75.7086
-75.9907
-76.2209
-76.3691
-76.4133
-76.3322
-76.0998
-75.6804
-75.0266
-74.0827
-72.7815
-71.0805
-68.9328
-66.3089
-63.204
-59.6183
-55.5665
-51.0556
-46.0846
-40.6216
-34.5918
-27.8519
-20.2561
-11.708
-2.2406
7.69575
16.2351
-24.4703
-23.9003
-23.4034
-22.9602
-22.5679
-22.2312
-21.9151
-21.6415
-21.3968
-21.1761
-20.9773
-20.7992
-20.6372
-20.4956
-20.3815
-20.3113
-20.3261
-20.509
-20.9799
-21.9212
-23.6811
-26.6435
-30.8295
-35.8977
-41.4086
-46.8759
-51.8324
-55.9785
-59.2255
-61.7486
-63.8595
-65.911
-67.8747
-69.7661
-71.5358
-73.0051
-73.9503
-74.0838
-73.2992
-71.4781
-68.7871
-65.4966
-61.9662
-58.5176
-55.3369
-52.5026
-50.0309
-47.9411
-46.219
-44.843
-43.7732
-42.9787
-42.4194
-42.0704
-41.9041
-41.8976
-42.0283
-42.2787
-42.6261
-43.0582
-43.5548
-44.0893
-44.6746
-45.3238
-46.0106
-46.6837
-47.3479
-47.9777
-48.6132
-49.2551
-49.8946
-50.4844
-51.0173
-51.5025
-51.9491
-52.3624
-52.7456
-53.105
-53.4339
-53.7506
-54.0333
-54.3026
-54.5515
-54.7945
-55.0178
-55.231
-55.4264
-55.6221
-55.8183
-56.017
-56.2184
-56.4185
-56.6181
-56.8127
-57.0107
-57.2047
-57.4044
-57.5982
-57.7964
-57.9897
-58.189
-58.3891
-58.5986
-58.8103
-59.0293
-59.2471
-59.4739
-59.7034
-59.9365
-60.1715
-60.4074
-60.6399
-60.8612
-61.0766
-61.2749
-61.4665
-61.6421
-61.8126
-61.9714
-62.1234
-62.2645
-62.4042
-62.5328
-62.6779
-62.8337
-62.9976
-63.1687
-63.3491
-63.5383
-63.7342
-63.942
-64.1549
-64.3792
-64.61
-64.8527
-65.1022
-65.36
-65.6211
-65.8873
-66.157
-66.4372
-66.7221
-67.0143
-67.3105
-67.6119
-67.9169
-68.2263
-68.5412
-68.8624
-69.19
-69.5248
-69.8664
-70.2153
-70.5711
-70.9364
-71.3127
-71.7046
-72.1144
-72.5345
-72.969
-73.4125
-73.8628
-74.3119
-74.7569
-75.1945
-75.6238
-76.041
-76.4385
-76.8067
-77.1301
-77.3903
-77.564
-77.6266
-77.5438
-77.2706
-76.751
-75.9195
-74.7247
-73.118
-71.069
-68.5726
-65.6322
-62.2663
-58.4861
-54.2901
-49.6436
-44.461
-38.5831
-31.8398
-24.1292
-15.4909
-6.37587
1.46601
-23.9917
-23.5458
-23.1489
-22.8087
-22.4852
-22.1846
-21.9091
-21.653
-21.4228
-21.2134
-21.0186
-20.8437
-20.6838
-20.5405
-20.4217
-20.3354
-20.3175
-20.427
-20.7569
-21.448
-22.7174
-24.8154
-27.9263
-32.0685
-36.9065
-42.0647
-47.0385
-51.5688
-55.4907
-58.7557
-61.4731
-63.8476
-65.9923
-67.9517
-69.7071
-71.1536
-72.1304
-72.407
-71.9107
-70.5194
-68.337
-65.5743
-62.5113
-59.4162
-56.4542
-53.7298
-51.3021
-49.201
-47.4274
-45.9661
-44.7929
-43.8841
-43.2082
-42.739
-42.4524
-42.3254
-42.339
-42.4829
-42.7345
-43.0798
-43.5038
-43.9926
-44.5353
-45.1174
-45.7262
-46.3605
-47.0345
-47.7177
-48.3919
-48.9999
-49.5717
-50.1138
-50.6411
-51.1486
-51.6328
-52.0864
-52.5035
-52.8792
-53.2299
-53.564
-53.8587
-54.144
-54.407
-54.6591
-54.8928
-55.1212
-55.3237
-55.5244
-55.7219
-55.923
-56.1255
-56.3263
-56.5255
-56.7196
-56.9176
-57.1109
-57.3102
-57.503
-57.701
-57.8921
-58.0888
-58.2848
-58.4907
-58.6988
-58.9159
-59.1317
-59.3583
-59.5887
-59.8232
-60.0603
-60.2986
-60.5371
-60.7629
-60.9859
-61.1902
-61.39
-61.5695
-61.7449
-61.9046
-62.0592
-62.1994
-62.3355
-62.4631
-62.6018
-62.7472
-62.8995
-63.0662
-63.2412
-63.4289
-63.6184
-63.8243
-64.031
-64.2534
-64.4794
-64.7206
-64.967
-65.226
-65.486
-65.7555
-66.0202
-66.2975
-66.5824
-66.874
-67.173
-67.4741
-67.7824
-68.0897
-68.4072
-68.725
-69.055
-69.3867
-69.7318
-70.0792
-70.4402
-70.8039
-71.182
-71.5654
-71.9701
-72.3911
-72.829
-73.2839
-73.7531
-74.236
-74.7286
-75.23
-75.735
-76.2425
-76.7454
-77.239
-77.7135
-78.1577
-78.5539
-78.8816
-79.1111
-79.2012
-79.0964
-78.7316
-78.0442
-76.979
-75.4985
-73.5946
-71.2711
-68.5531
-65.4643
-62.0125
-58.168
-53.8382
-48.8396
-42.9633
-36.0705
-28.1917
-19.7656
-12.4561
-23.3543
-23.0422
-22.7492
-22.4998
-22.2686
-22.0342
-21.8165
-21.6081
-21.412
-21.2282
-21.0475
-20.8793
-20.7246
-20.583
-20.4643
-20.3745
-20.3391
-20.4048
-20.6366
-21.1409
-22.0746
-23.6176
-25.9207
-29.0586
-33.0219
-37.5637
-42.2899
-46.8927
-51.0935
-54.7957
-58.0032
-60.7959
-63.2398
-65.3808
-67.2309
-68.7265
-69.7702
-70.2308
-70.0315
-69.0777
-67.4244
-65.2197
-62.6684
-59.9749
-57.3002
-54.7678
-52.4541
-50.4025
-48.6273
-47.1277
-45.891
-44.9026
-44.1292
-43.544
-43.1339
-42.873
-42.768
-42.799
-42.937
-43.1765
-43.5043
-43.911
-44.3864
-44.9137
-45.4866
-46.0884
-46.7196
-47.3562
-47.9986
-48.6245
-49.2442
-49.8236
-50.3847
-50.9048
-51.3779
-51.8137
-52.2171
-52.5975
-52.963
-53.3189
-53.6416
-53.9489
-54.2299
-54.5031
-54.7531
-54.9904
-55.2003
-55.4115
-55.6152
-55.817
-56.0216
-56.2229
-56.425
-56.6218
-56.8227
-57.016
-57.2164
-57.4077
-57.6064
-57.7956
-57.9912
-58.1836
-58.3855
-58.5885
-58.8019
-59.0132
-59.2379
-59.4684
-59.7014
-59.9387
-60.1759
-60.4182
-60.6462
-60.8769
-61.0855
-61.2931
-61.4755
-61.6569
-61.8189
-61.9757
-62.1129
-62.2448
-62.3695
-62.5041
-62.6404
-62.784
-62.9391
-63.1081
-63.2864
-63.4696
-63.6676
-63.8701
-64.0872
-64.3088
-64.5446
-64.7875
-65.0429
-65.3012
-65.5671
-65.8307
-66.1064
-66.3876
-66.6766
-66.9713
-67.2699
-67.5737
-67.8782
-68.1912
-68.5065
-68.8324
-69.1625
-69.5056
-69.8552
-70.219
-70.5895
-70.9738
-71.3649
-71.777
-72.2043
-72.6505
-73.1169
-73.6037
-74.1109
-74.6364
-75.1829
-75.745
-76.3233
-76.9124
-77.5113
-78.113
-78.7119
-79.2973
-79.8552
-80.3624
-80.7855
-81.0728
-81.1632
-80.9821
-80.4628
-79.553
-78.2341
-76.5069
-74.3997
-71.9524
-69.1979
-66.1259
-62.6546
-58.5788
-53.626
-47.5873
-40.4657
-32.6603
-25.7619
-22.5876
-22.4253
-22.277
-22.1316
-21.9987
-21.859
-21.7098
-21.5454
-21.3815
-21.2166
-21.0573
-20.8996
-20.7566
-20.6231
-20.5117
-20.423
-20.3788
-20.4163
-20.5823
-20.9557
-21.6453
-22.7959
-24.5429
-26.9642
-30.086
-33.8162
-38.0007
-42.347
-46.576
-50.5202
-54.0652
-57.1985
-59.9511
-62.343
-64.3779
-66.0243
-67.2158
-67.8101
-67.9251
-67.4104
-66.2624
-64.5866
-62.5292
-60.2568
-57.9142
-55.6256
-53.4717
-51.512
-49.7743
-48.2644
-46.9764
-45.9091
-45.0478
-44.3733
-43.869
-43.4897
-43.2531
-43.1841
-43.2155
-43.3558
-43.5793
-43.8887
-44.27
-44.7155
-45.2178
-45.7638
-46.355
-46.9649
-47.5914
-48.21
-48.8284
-49.4156
-49.9783
-50.5167
-51.0279
-51.4997
-51.9347
-52.3429
-52.7252
-53.0887
-53.4201
-53.7374
-54.026
-54.3051
-54.564
-54.8093
-55.0408
-55.2686
-55.4847
-55.6943
-55.9018
-56.1057
-56.3101
-56.512
-56.7152
-56.9098
-57.1145
-57.3066
-57.5086
-57.6988
-57.8962
-58.0863
-58.2855
-58.4823
-58.6931
-58.8973
-59.1205
-59.3477
-59.5759
-59.815
-60.0463
-60.2935
-60.5199
-60.7588
-60.9702
-61.1899
-61.379
-61.5714
-61.737
-61.9024
-62.0436
-62.1834
-62.3088
-62.4417
-62.5726
-62.7085
-62.8543
-63.0133
-63.1854
-63.3592
-63.5519
-63.7457
-63.9582
-64.1728
-64.4036
-64.6397
-64.891
-65.1448
-65.4095
-65.6689
-65.9425
-66.2211
-66.5065
-66.7977
-67.0935
-67.3947
-67.693
-68.0023
-68.3109
-68.6323
-68.9552
-69.2936
-69.6367
-69.9975
-70.3639
-70.7477
-71.1378
-71.5518
-71.9829
-72.4346
-72.9088
-73.407
-73.9306
-74.4772
-75.0549
-75.6569
-76.2877
-76.9413
-77.621
-78.3234
-79.0495
-79.7937
-80.548
-81.2929
-82.0055
-82.6449
-83.1607
-83.4712
-83.4992
-83.1697
-82.4438
-81.3112
-79.7937
-77.9374
-75.8059
-73.4338
-70.7873
-67.6777
-63.7607
-58.6936
-52.4289
-45.2631
-38.7478
-21.6824
-21.6796
-21.6925
-21.6625
-21.6261
-21.5696
-21.5046
-21.3944
-21.286
-21.1661
-21.036
-20.9026
-20.7753
-20.654
-20.5483
-20.4618
-20.4147
-20.4353
-20.5593
-20.8441
-21.3721
-22.2456
-23.5829
-25.4727
-27.9682
-31.0344
-34.5869
-38.4551
-42.4539
-46.3831
-50.0824
-53.4667
-56.4944
-59.1523
-61.4284
-63.3026
-64.75
-65.7529
-65.9622
-65.8031
-65.0724
-63.8482
-62.2296
-60.3536
-58.3401
-56.3009
-54.3146
-52.4532
-50.7589
-49.2583
-47.9547
-46.8481
-45.9275
-45.1839
-44.6093
-44.1582
-43.8266
-43.6251
-43.5627
-43.6117
-43.7414
-43.9649
-44.2595
-44.623
-45.0427
-45.5121
-46.0361
-46.5884
-47.175
-47.7698
-48.3773
-48.9676
-49.5435
-50.0964
-50.6246
-51.1216
-51.5844
-52.0186
-52.4244
-52.8089
-53.1692
-53.5089
-53.8199
-54.1195
-54.3933
-54.6529
-54.8884
-55.1218
-55.3408
-55.5569
-55.7655
-55.9735
-56.1784
-56.3854
-56.5919
-56.7931
-56.9977
-57.1941
-57.3966
-57.5895
-57.7877
-57.9787
-58.1762
-58.3714
-58.5773
-58.7809
-58.9986
-59.2183
-59.4452
-59.6788
-59.9108
-60.1481
-60.3766
-60.615
-60.8329
-61.0564
-61.2556
-61.4543
-61.6276
-61.8029
-61.9552
-62.1054
-62.2371
-62.3737
-62.5054
-62.6432
-62.7866
-62.9362
-63.1028
-63.2689
-63.4572
-63.6427
-63.8503
-64.0576
-64.2841
-64.5124
-64.7583
-65.0053
-65.2682
-65.523
-65.7961
-66.0725
-66.3541
-66.6424
-66.933
-67.2331
-67.5245
-67.8318
-68.1338
-68.4503
-68.7651
-69.0967
-69.4316
-69.7856
-70.1437
-70.5217
-70.9053
-71.3158
-71.7434
-72.1934
-72.668
-73.1698
-73.7018
-74.2599
-74.8581
-75.4853
-76.1543
-76.853
-77.5937
-78.3708
-79.1969
-80.0637
-80.971
-81.9022
-82.8461
-83.7777
-84.664
-85.4261
-85.9897
-86.2571
-86.1577
-85.6471
-84.7258
-83.4242
-81.8266
-80.0322
-78.0998
-75.9401
-73.204
-69.3616
-64.2038
-57.8619
-51.7586
-20.6418
-20.8518
-21.0236
-21.1383
-21.2253
-21.2746
-21.2949
-21.2827
-21.2154