/*--------------------------------*- C++ -*----------------------------------*\
| =========                 |                                                 |
| \\      /  F ield         | OpenFOAM: The Open Source CFD Toolbox           |
|  \\    /   O peration     | Version:  4.1                                   |
|   \\  /    A nd           | Web:      www.OpenFOAM.org                      |
|    \\/     M anipulation  |                                                 |
\*---------------------------------------------------------------------------*/
FoamFile
{
    version     2.0;
    format      ascii;
    class       volScalarField;
    location    "753";
    object      p;
}
// * * * * * * * * * * * * * * * * * * * * * * * * * * * * * * * * * * * * * //

dimensions      [0 2 -2 0 0 0 0];

internalField   nonuniform List<scalar> 
204246
(
129.92
-11.7911
33.29
10.7963
5.23205
5.1169
-6.2826
-7.57285
-17.4423
-17.8755
-29.2042
-23.6603
-39.8603
-27.6857
-43.0798
-31.7526
-34.7301
-37.8726
-25.5536
-31.6016
-16.9875
-20.8951
-7.8729
-9.11267
1.95822
0.899237
12.8316
7.55779
21.7733
13.6487
28.3354
18.7096
32.0912
23.8837
32.0684
32.0945
25.3066
39.0487
25.36
39.3801
26.6204
39.9552
26.76
41.1291
25.1213
42.053
24.9556
41.6964
26.0284
39.3037
28.1549
36.5728
33.6336
26.4471
38.9341
25.0107
38.3713
25.2339
38.3263
24.8148
39.1352
22.9304
39.9195
22.7207
39.5902
23.8506
37.3538
26.0604
34.8538
31.4872
25.7477
35.5626
24.43
36.5206
23.9843
36.8567
23.4495
37.7522
21.5123
38.498
21.226
38.0111
22.2709
35.4843
24.1932
32.7411
29.1886
23.1359
32.7989
21.195
33.2688
19.7082
33.5612
16.7428
33.3723
15.1244
31.7914
14.0451
28.8642
13.8883
24.6009
12.031
20.9406
9.95785
16.4372
9.94501
4.02966
8.9115
-1.23403
5.75927
-8.29312
1.3861
-13.1456
-3.7005
-18.5572
-7.9841
-23.5471
-11.2203
-26.8208
-13.4858
-26.8265
-16.8387
-21.0847
-26.6424
-13.6857
-27.3705
-10.2842
-25.426
-7.6195
-22.8258
-5.15904
-20.3265
-2.96738
-18.2405
-1.17249
-16.1775
-0.37547
-13.2802
-1.85488
-6.38503
-11.1698
0.711537
-12.8412
2.82167
-12.6337
3.90724
-12.173
4.65402
-11.5205
5.34508
-10.7005
6.02698
-9.47831
6.44656
-6.83532
4.99656
0.415571
-3.67019
8.35336
-4.1986
11.8446
-2.13185
14.2732
1.53817
16.9563
6.20171
20.8378
11.9582
25.9475
18.9446
32.2564
27.9245
40.2423
39.4804
49.7362
56.26
58.5011
72.3572
76.8937
90.2026
99.9479
113.322
127.659
142.564
162.499
180.333
208.616
231.28
275.174
304.124
391.852
407.778
614.817
48.0639
20.9308
17.3569
17.7671
8.51224
7.11762
-1.30511
-4.57131
-12.1369
-16.2358
-23.5623
-26.0158
-32.4253
-33.6656
-36.0182
-38.4708
-34.1686
-38.5655
-31.6124
-32.1486
-25.4145
-21.6216
-16.3455
-10.6253
-5.21555
-0.362016
5.67424
8.80064
14.2539
15.9283
20.8651
21.594
24.9208
26.6338
26.1719
31.6897
27.4126
34.0215
29.8798
34.4288
30.7794
35.2481
30.9073
36.0756
30.7085
35.9492
30.9648
35.3369
31.6872
34.1152
32.5663
32.2152
35.1845
29.6718
34.4802
29.9825
33.879
29.7057
33.9121
29.2241
34.2598
28.7406
33.9179
28.898
33.2834
29.6417
32.1696
30.6065
30.4977
33.0783
28.4822
32.4726
28.3958
32.4592
28.2676
32.57
27.8684
32.9448
27.3964
32.5669
27.495
31.823
28.0737
30.5949
28.7878
28.6681
31.0231
26.1832
29.999
25.4982
29.5528
24.4887
29.2516
23.1847
28.0326
22.0933
26.3477
20.8088
24.2085
19.3931
21.9923
17.3084
18.6652
15.3991
13.8558
14.4903
8.9053
8.24431
3.41589
4.53734
-1.91309
-0.625529
-6.84306
-5.89952
-12.1591
-10.7088
-16.9155
-15.2142
-20.161
-19.1323
-21.0394
-22.2885
-19.0265
-24.7762
-18.6049
-23.3506
-16.9608
-20.8804
-14.6464
-18.1151
-12.1581
-15.5075
-9.82466
-13.2445
-7.98781
-11.0879
-7.04262
-8.49456
-7.69586
-4.58595
-9.27555
-3.61934
-8.42988
-2.87786
-7.68359
-2.15431
-7.01191
-1.53083
-6.33805
-0.930869
-5.54716
-0.403458
-4.36822
-0.236688
-2.09102
-1.02658
1.83056
-2.28708
3.39652
-0.569314
5.24553
1.78414
7.55558
4.53115
10.4804
7.97138
14.1916
12.4904
18.9343
18.3045
24.3372
26.0521
31.2868
35.8227
39.4635
48.2126
51.9053
60.9789
67.5413
77.063
86.7457
97.2065
110.242
121.827
139.002
151.821
175.023
188.458
223.703
230.351
305.07
270.51
405.19
18.1112
27.2037
19.5892
17.5553
10.4161
7.71618
-0.00194666
-2.98943
-10.8694
-14.0917
-21.5609
-25.0062
-30.9663
-34.1314
-36.387
-38.8903
-36.9458
-39.2912
-34.1039
-33.2574
-26.8218
-23.5114
-16.5004
-12.4425
-5.59464
-1.4641
4.49214
8.51119
13.3762
16.5445
20.1479
22.4904
24.8476
27.2136
27.273
31.0861
29.1339
33.2631
30.4219
34.5092
31.1021
35.4477
31.337
36.0588
31.2588
36.1095
31.3426
35.6653
31.7457
34.6454
32.4813
32.9693
33.8165
31.0475
34.0882
30.2872
34.015
29.8219
33.9598
29.3939
33.9979
28.9919
33.8216
28.9786
33.3601
29.4172
32.465
30.253
31.0538
31.6452
29.4341
32.0427
28.7115
32.3186
28.3568
32.4731
27.9905
32.6132
27.6083
32.4473
27.558
31.9051
27.8853
30.8279
28.512
29.1459
29.6008
27.1456
29.6109
25.853
29.413
24.7063
28.9605
23.4521
28.0172
22.2579
26.556
20.9476
24.5072
19.7058
21.7251
18.0245
18.283
16.1417
13.9524
13.2624
9.58405
9.36201
4.83967
4.09058
-0.235774
-1.23488
-5.30662
-6.61637
-10.7619
-11.6142
-15.8205
-15.903
-19.6055
-19.3441
-21.0991
-22.2995
-20.6902
-23.7649
-19.4844
-23.1722
-17.4496
-20.9829
-15.0403
-18.1508
-12.3983
-15.3948
-9.88258
-13.0231
-7.89927
-10.8591
-6.87789
-8.40241
-7.0779
-5.64527
-7.8068
-4.02826
-7.78089
-2.83375
-7.34496
-1.97617
-6.76237
-1.29217
-6.10769
-0.682693
-5.31986
-0.179528
-4.17359
0.0286938
-2.22866
-0.401425
0.711073
-0.972349
2.94772
-0.113755
5.25279
1.758
7.5034
4.68273
10.0816
8.56828
13.5666
13.3417
18.2139
19.3014
24.2463
26.7555
31.7524
36.2692
41.3673
47.8812
52.9064
61.9099
68.5212
78.7571
88.4243
99.6848
113.227
125.756
144.332
158.213
183.865
198.551
238.249
246.175
322.334
301.063
389.844
7.20664
19.8089
15.3416
16.2692
10.8325
9.14974
2.43316
-0.740946
-7.84372
-12.0578
-19.0346
-23.4116
-29.4034
-33.8171
-36.7238
-40.6398
-39.7037
-41.9965
-38.5959
-37.5026
-32.177
-28.182
-22.0729
-16.4786
-10.3715
-4.70648
0.826516
5.91695
10.2309
14.6454
17.6646
21.1645
22.746
26.1295
25.9098
29.863
28.7784
31.6974
31.252
32.7914
32.1414
33.5804
32.4685
34.1099
32.6637
34.023
32.8931
33.602
33.2063
32.9464
33.5457
32.0351
34.0078
31.5399
33.2049
31.5226
32.6932
31.2499
32.5054
30.9542
32.3925
30.8149
32.0109
30.8976
31.5251
31.1933
30.9332
31.6098
30.2043
32.1233
29.908
31.5488
29.8611
31.2782
29.7825
31.1864
29.6146
31.1265
29.5241
30.747
29.5804
30.2053
29.7696
29.5217
29.9963
28.5385
30.3126
27.9269
29.37
27.3855
28.6698
26.6941
27.9517
25.9096
26.8228
25.0138
25.3962
23.8418
23.7223
22.2202
21.8635
20.3426
19.0818
18.2204
15.5997
15.3502
11.6648
10.8506
7.32773
5.94144
2.47599
0.306885
-2.76428
-5.38375
-8.34104
-10.9972
-13.6329
-16.2263
-17.9426
-20.4591
-20.5809
-23.0547
-21.568
-24.1179
-21.6339
-23.0926
-20.4314
-20.3812
-18.0907
-17.3286
-15.4112
-14.389
-12.8466
-11.8712
-10.7359
-9.76461
-9.3032
-7.82748
-8.6904
-6.05766
-7.93435
-5.32457
-7.02635
-4.88236
-6.26869
-4.35044
-5.60253
-3.80859
-4.94547
-3.2845
-4.19842
-2.84139
-3.20495
-2.61304
-1.62893
-2.41062
-0.0671685
-1.60577
0.846231
-0.141555
2.15893
1.75126
4.0601
3.99563
6.42822
6.84609
9.55954
10.4811
13.6003
15.1432
18.5344
21.3262
24.801
29.0513
32.6332
38.8385
42.9802
49.9148
56.0317
63.3677
72.0289
79.86
91.4422
99.7543
114.962
123.747
144.306
151.412
184.449
179.333
236.822
223.686
294.783
7.816
20.5513
16.0354
16.234
12.3096
10.2894
4.56186
1.36803
-5.38986
-9.54515
-16.7414
-21.6085
-28.0176
-33.119
-37.3266
-41.3853
-42.3014
-44.2284
-41.8559
-40.5218
-35.3399
-31.1468
-24.3346
-19.027
-11.9215
-6.55696
-0.166904
4.83017
9.77449
14.2356
17.485
21.3782
23.0982
26.4106
26.9203
29.8352
29.6839
32.0151
31.6274
33.114
32.6355
34.005
33.0681
34.4967
33.3033
34.4096
33.4173
34.0545
33.5017
33.4993
33.5706
32.7012
33.5129
32.3557
33.0399
31.9338
32.7507
31.4737
32.5288
31.127
32.2915
30.9667
31.9543
30.94
31.559
31.0498
31.089
31.2514
30.5457
31.3953
30.3671
31.1543
30.1225
31.0774
29.9055
31.0322
29.7144
30.9275
29.6265
30.6541
29.6024
30.2261
29.6477
29.6383
29.738
28.8483
29.6111
28.379
29.0657
27.7018
28.5058
26.9217
27.8323
26.1012
26.902
25.2
25.6231
24.0387
24.0275
22.5869
21.9678
20.7906
19.3217
18.4784
16.248
15.4986
12.7389
11.6563
8.392
6.8599
3.53765
1.43808
-1.86863
-4.31674
-7.52933
-10.185
-12.9741
-15.6805
-17.6387
-20.1641
-20.9777
-23.0482
-22.7484
-24.2084
-22.7915
-23.3106
-21.3347
-20.9119
-18.7923
-17.6442
-15.7251
-14.4095
-12.7775
-11.6415
-10.4294
-9.47226
-8.88988
-7.7195
-7.7426
-6.1541
-6.91525
-5.4841
-6.23129
-4.71075
-5.66237
-4.02382
-5.07411
-3.4327
-4.45273
-2.89736
-3.75214
-2.48008
-2.80226
-2.27559
-1.61584
-1.75309
-0.26174
-0.970224
0.763677
0.335274
2.21562
2.04097
4.11857
4.33485
6.65338
7.24317
9.93146
10.9744
14.0975
15.8399
19.3188
22.0495
25.9392
29.9489
34.2727
39.7049
44.9325
51.6633
58.5371
66.2843
75.5641
84.2033
96.6464
106.02
122.456
132.112
154.606
162.371
196.717
193.657
242.945
231.582
276.681
7.95847
17.7909
14.7518
15.75
12.2949
11.3629
6.07927
3.31571
-3.07282
-7.43677
-14.3882
-19.9395
-26.6416
-32.6891
-37.8314
-43.1395
-45.3984
-48.2974
-47.1108
-46.2033
-41.7567
-37.313
-30.6445
-24.2203
-17.077
-10.3848
-3.97635
2.14879
7.11115
12.4177
15.7919
20.0217
21.9911
25.4132
26.1792
29.1205
29.1779
31.2537
31.4462
32.4536
32.572
33.2363
33.1449
33.5518
33.4335
33.502
33.5794
33.2642
33.6239
32.9007
33.6198
32.5239
33.3604
32.3578
32.7697
32.2811
32.2677
31.9493
32.0106
31.7244
31.7218
31.6372
31.3732
31.6213
31.0419
31.6469
30.7432
31.6674
30.4656
31.5863
30.5164
31.1323
30.5364
30.8567
30.4822
30.6816
30.4055
30.4999
30.3887
30.2045
30.3856
29.8498
30.3248
29.507
30.2717
29.0547
29.9885
28.8015
29.3388
28.4717
28.6067
27.9363
27.8886
27.2698
26.988
26.4444
25.9087
25.3578
24.5859
23.9403
22.9648
22.2496
20.7101
20.0701
17.8759
17.2017
14.4467
13.4075
10.4248
8.75885
5.63605
3.33177
0.143459
-2.66513
-5.84904
-8.96317
-11.9057
-15.0946
-17.3723
-20.3528
-21.5377
-23.9606
-24.0191
-25.4076
-24.649
-24.685
-23.2433
-22.3098
-20.4632
-19.0283
-17.1211
-15.5334
-13.9924
-12.4221
-11.4153
-10.0478
-9.61777
-8.23613
-8.44196
-6.99554
-7.31541
-6.27115
-6.49948
-5.81113
-5.84325
-5.34094
-5.26253
-4.853
-4.66254
-4.36257
-4.0283
-3.87566
-3.27152
-3.50157
-2.32184
-2.9775
-1.51019
-1.94736
-0.711229
-0.855203
0.380336
0.54172
1.83458
2.26785
3.78052
4.4504
6.30078
7.30126
9.5121
11.0676
13.5848
15.9421
18.7493
22.1374
25.3775
29.8263
33.9673
39.0933
44.7895
50.375
58.2169
64.1686
74.6386
80.8996
94.6823
100.667
119.482
122.724
153.141
146.694
187.874
185.368
225.959
12.3655
19.707
16.1266
17.4308
14.3515
13.3569
8.83807
6.02324
0.176901
-4.29597
-11.2198
-17.1652
-24.4561
-31.279
-37.7163
-43.8669
-47.8405
-51.3372
-51.6259
-51.1
-47.1711
-42.4534
-35.1758
-28.2462
-20.232
-13.2654
-5.94529
0.250655
6.1725
11.4176
15.6546
19.842
22.3646
25.6674
26.9922
29.4595
30.0817
31.7301
32.0617
33.2219
33.2984
34.0482
33.9512
34.3785
34.2397
34.2891
34.2767
33.9957
34.1395
33.5581
33.8635
33.1206
33.4683
32.865
32.9378
32.5208
32.4636
32.1073
32.0673
31.8429
31.7096
31.6812
31.3754
31.5879
31.0698
31.5296
30.7978
31.4576
30.5628
31.2411
30.6795
30.8759
30.6513
30.6937
30.543
30.5567
30.4373
30.3928
30.3729
30.1888
30.3307
29.8998
30.2329
29.5509
30.0571
29.1753
29.741
28.9656
29.2106
28.6339
28.5788
28.0903
27.9108
27.4568
27.0932
26.6332
26.1173
25.5885
24.8878
24.2809
23.2754
22.6685
21.2584
20.622
18.7419
17.9366
15.6674
14.4324
11.8047
10.0601
7.14107
4.82844
1.65827
-1.13778
-4.44923
-7.60915
-10.7802
-14.1066
-16.7434
-19.8746
-21.6153
-24.0595
-24.7341
-26.1338
-25.6539
-25.9627
-24.4335
-23.6522
-21.4437
-19.8939
-17.6351
-15.7769
-13.9128
-12.2727
-10.9697
-9.67388
-9.03185
-7.78332
-7.71417
-6.45655
-6.65166
-5.83408
-5.81283
-5.25004
-5.16171
-4.73643
-4.58636
-4.29927
-4.02475
-3.84862
-3.49166
-3.42581
-2.83702
-2.97638
-2.06247
-2.3723
-1.24419
-1.63621
-0.403265
-0.534466
0.71098
0.872252
2.24055
2.65883
4.29531
4.93647
6.95645
7.90263
10.2902
11.8194
14.5409
16.8519
19.9855
23.2168
26.952
31.1463
35.898
40.9169
47.2563
52.9219
61.3631
67.5699
78.6566
85.167
99.6055
105.732
125.35
127.57
155.515
152.167
183.377
179.54
208.34
13.5651
20.2088
16.4802
17.8765
15.1532
14.5972
10.4711
8.08357
2.54121
-1.79922
-8.62254
-14.8432
-22.4978
-30.0406
-37.581
-45.1252
-50.9714
-56.2412
-58.1099
-58.4013
-55.1286
-50.582
-43.469
-35.5427
-26.6398
-18.2796
-10.0638
-2.69538
3.54609
9.72986
14.1014
19.0171
21.5985
24.949
26.5528
29.0095
29.6826
31.3167
31.7038
32.7419
32.9219
33.4264
33.5748
33.7363
33.8402
33.7418
33.9384
33.5446
33.8831
33.2262
33.6794
32.9144
33.29
32.708
32.8267
32.4771
32.3986
32.2066
31.9786
32.0042
31.6066
31.8856
31.2896
31.7823
31.0277
31.7171
30.7891
31.6286
30.648
31.3481
30.7977
30.9579
30.8571
30.7065
30.8265
30.5288
30.7726
30.3704
30.7209
30.1699
30.6732
29.9353
30.5698
29.7116
30.4084
29.4211
30.0481
29.3363
29.4924
29.0683
28.9609
28.6272
28.3455
28.0893
27.6213
27.3801
26.7685
26.4616
25.7172
25.3203
24.3358
23.8618
22.495
21.952
20.1637
19.4225
17.2452
16.1213
13.6138
11.919
9.10268
6.7598
3.6377
0.657946
-2.69582
-6.20559
-9.59124
-13.3765
-16.4317
-20.0624
-22.3295
-25.2622
-26.3524
-28.1111
-27.9027
-28.0924
-26.7954
-25.6847
-23.6267
-21.6778
-19.3642
-17.1743
-15.1487
-13.1554
-11.7958
-10.1808
-9.56027
-8.23571
-8.20987
-7.04718
-7.06797
-6.56828
-6.40355
-6.15052
-5.87655
-5.73383
-5.34072
-5.3084
-4.7903
-4.84321
-4.2235
-4.43137
-3.62315
-3.99006
-2.98403
-3.46612
-2.36087
-2.64761
-1.81416
-1.79449
-0.979126
-0.80076
0.158134
0.441086
1.62996
2.09162
3.52917
4.3085
5.98796
7.22349
9.18219
11.0086
13.3321
15.8448
18.7335
21.9052
25.7487
29.4378
34.6511
38.7309
45.8282
50.1831
59.6368
64.1552
76.6137
80.4534
98.1234
98.8235
123.416
121.507
149.954
149.869
176.886
17.4561
22.6958
19.5859
20.4026
18.0899
17.3874
13.834
11.4735
6.49109
2.1949
-4.4041
-10.8937
-19.0516
-27.4566
-36.3495
-45.2976
-53.1558
-60.0456
-64.2258
-66.2138
-64.3043
-59.7161
-51.9587
-42.8998
-32.5711
-23.6184
-14.0336
-5.99968
1.54271
7.87036
13.5567
18.3588
22.123
25.21
27.4046
29.6217
30.7884
31.9663
32.7289
33.6152
33.9382
34.476
34.6179
34.8425
34.8662
34.7734
34.8207
34.4709
34.5813
34.0055
34.1507
33.5609
33.609
33.1479
33.0768
32.7482
32.5569
32.3646
32.0593
32.0784
31.6384
31.8757
31.2948
31.7328
31.0134
31.6095
30.7933
31.4569
30.6802
31.1648
30.8073
30.8198
30.828
30.6112
30.8059
30.4498
30.7344
30.3237
30.6836
30.1432
30.6309
29.9176
30.513
29.6963
30.2948
29.5143
29.9217
29.4156
29.4411
29.1353
28.9839
28.7298
28.4299
28.2287
27.773
27.5863
26.9751
26.7499
25.997
25.6989
24.7771
24.4057
23.1864
22.7067
21.1664
20.4378
18.5849
17.4255
15.2512
13.5418
10.9888
8.63533
5.65973
2.65283
-0.717556
-4.31256
-7.89588
-11.8735
-15.3142
-19.2302
-22.059
-25.2677
-27.0279
-28.9528
-29.3597
-29.8486
-28.8299
-27.8763
-25.5755
-23.4055
-20.5977
-17.9716
-15.5182
-13.1695
-11.5352
-9.76473
-9.03349
-7.61722
-7.53318
-6.36135
-6.45493
-5.75643
-5.7031
-5.2354
-5.08548
-4.83119
-4.58845
-4.51249
-4.1207
-4.20945
-3.66571
-3.862
-3.19939
-3.4963
-2.62203
-2.99625
-2.06485
-2.31048
-1.45609
-1.49094
-0.588734
-0.466138
0.543054
0.858985
2.05439
2.5564
4.03011
4.79702
6.54891
7.75806
9.8131
11.5829
14.0567
16.4508
19.5597
22.5815
26.6543
30.1903
35.707
39.5936
46.963
51.1093
60.7332
64.9371
77.5071
80.7452
97.6521
97.9925
119.67
117.325
140.093
138.961
160.371
18.973
23.0636
20.3733
21.3473
19.1866
18.8328
15.5847
13.658
8.99336
5.00713
-1.37496
-7.69799
-15.9202
-24.6822
-34.6444
-45.135
-55.2033
-64.6269
-71.528
-75.7978
-75.3099
-71.0519
-62.8406
-53.1478
-41.0209
-29.8255
-19.0807
-9.62997
-1.46845
5.96895
11.7021
17.9611
21.611
24.5193
27.175
29.3422
30.6592
31.6599
32.32
33.1757
33.4391
33.7619
34.0011
34.1561
34.3131
34.1315
34.3334
33.9362
34.2103
33.6382
33.9182
33.2879
33.531
32.932
33.0327
32.6837
32.5235
32.3995
32.0557
32.1494
31.6311
31.9929
31.3129
31.8492
31.055
31.7319
30.8627
31.5727
30.7867
31.2715
30.9181
30.9273
30.9583
30.7044
30.9567
30.5356
30.9227
30.405
30.885
30.245
30.8517
30.0608
30.7608
29.8946
30.5502
29.7386
30.1932
29.71
29.7278
29.4769
29.3238
29.1376
28.8403
28.7112
28.2746
28.1597
27.5975
27.4512
26.7449
26.535
25.648
25.3559
24.2088
23.7913
22.3582
21.7077
19.9813
18.9303
16.8843
15.2942
12.8612
10.6102
7.71749
4.7105
1.32899
-2.44572
-6.23878
-10.605
-14.5208
-19.016
-22.5275
-26.4646
-28.8473
-31.466
-32.1159
-32.7627
-31.6614
-30.5081
-28.1194
-25.6332
-22.5469
-19.5237
-16.5983
-13.8997
-11.8427
-9.90802
-8.93661
-7.70419
-7.43808
-6.7524
-6.72715
-6.40855
-6.33827
-6.13665
-5.94035
-5.82782
-5.44796
-5.48019
-4.94037
-5.07175
-4.42344
-4.68268
-3.9374
-4.29698
-3.44886
-3.8181
-3.02623
-3.22005
-2.59295
-2.63005
-1.98447
-1.92358
-1.19956
-1.02416
-0.14252
0.159195
1.2474
1.77404
3.06117
3.92593
5.4701
6.74482
8.66789
10.3862
12.8853
15.0283
18.4109
20.9041
25.5213
28.2693
34.5544
37.4733
45.8598
48.7731
59.9861
62.1456
77.6822
77.4634
96.9408
97.3616
117.79
118.27
138.337
22.1995
26.3185
23.5149
24.4072
22.4704
22.0365
19.3207
17.5263
13.5365
9.82818
3.84742
-2.56583
-11.0791
-20.468
-31.4493
-43.3219
-56.0362
-68.4144
-79.1544
-86.8217
-89.8391
-87.565
-79.1326
-67.8609
-53.1455
-39.4494
-26.078
-15.052
-5.07636
3.08057
9.9521
17.0588
21.0579
25.4259
27.6259
30.6574
31.5059
32.7166
33.4719
34.3907
34.787
35.1332
35.4189
35.402
35.6167
35.3698
35.4264
34.9585
35.0757
34.4493
34.5549
33.8926
33.9648
33.3802
33.2735
32.9936
32.6623
32.5618
32.0892
32.2282
31.6292
31.969
31.273
31.785
31.0059
31.6325
30.8239
31.4504
30.756
31.1513
30.8718
30.8202
30.9049
30.6132
30.9056
30.4637
30.8712
30.3503
30.8465
30.196
30.8341
30.0285
30.7343
29.8922
30.5168
29.775
30.1504
29.7581
29.7151
29.5546
29.3468
29.2473
28.914
28.864
28.4077
28.3807
27.8021
27.7557
27.0776
26.9608
26.1666
25.9732
24.9719
24.6566
23.4261
22.8554
21.4054
20.4221
18.6851
17.1639
15.0299
12.8241
10.1567
7.14062
3.83948
-0.0129986
-3.92758
-8.52635
-12.8302
-17.7552
-21.8862
-26.3367
-29.5508
-32.6404
-34.2254
-35.3826
-35.0802
-34.2982
-32.0077
-29.1679
-25.6
-21.681
-18.1936
-14.6302
-12.2583
-9.7237
-8.72913
-7.06566
-6.9487
-5.7724
-6.02273
-5.32317
-5.47934
-5.04176
-4.90183
-4.88444
-4.55302
-4.7283
-4.22987
-4.54104
-3.86425
-4.26076
-3.58003
-3.9896
-3.14889
-3.56278
-2.76357
-2.97101
-2.39899
-2.38488
-1.8084
-1.68483
-1.05356
-0.816291
-0.0374983
0.309751
1.29759
1.84466
3.04354
3.88652
5.35153
6.55538
8.41513
10.0012
12.4682
14.4131
17.7811
19.9712
24.6253
26.9666
33.2216
35.6673
43.9163
46.1927
57.1601
58.2329
72.7481
72.5547
89.0119
88.7872
106.126
106.175
123.212
22.7826
27.1171
24.5748
25.3704
23.7966
23.5445
21.1322
19.7251
16.0792
12.912
7.45193
1.627
-6.54501
-15.9455
-27.6328
-40.8753
-55.571
-70.558
-85.0051
-97.3942
-104.752
-104.771
-96.4223
-83.1221
-65.5723
-49.5023
-33.6233
-20.3959
-9.11651
0.421103
7.8065
15.3825
20.6494
24.8494
28.0042
30.3017
31.4932
32.4384
32.9153
33.8104
33.9046
34.2472
34.6055
34.5017
34.8658
34.5926
34.8925
34.3485
34.6752
34.0419
34.35
33.6494
33.8882
33.2673
33.2717
32.9753
32.6683
32.6308
32.1162
32.305
31.6458
32.0837
31.3173
31.8867
31.08
31.7289
30.9205
31.5506
30.8666
31.2588
30.9743
30.9257
31.0138
30.708
31.0293
30.5455
31.0072
30.4541
30.9728
30.3181
30.9938
30.1748
30.9273
30.0641
30.724
29.9791
30.3713
29.9955
29.95
29.829
29.6205
29.5733
29.2387
29.2502
28.8066
28.8252
28.3042
28.2793
27.6646
27.5921
26.8348
26.6975
25.7657
25.499
24.3907
23.8846
22.5782
21.7033
20.1341
18.7596
16.8051
14.7741
12.275
9.42836
6.23745
2.42607
-1.55045
-6.32705
-10.9881
-16.4411
-21.349
-26.7317
-30.8508
-35.0142
-37.1643
-38.8747
-38.4529
-37.5062
-34.9251
-31.8191
-27.7031
-23.4108
-18.9391
-14.9435
-11.6425
-9.02068
-7.61063
-6.40169
-6.12196
-5.69686
-6.02271
-5.93911
-6.20461
-6.01556
-5.98407
-5.79456
-5.47674
-5.54793
-4.99185
-5.19967
-4.48341
-4.8004
-4.12249
-4.51359
-3.75594
-4.10487
-3.4846
-3.6265
-3.18355
-3.23646
-2.76428
-2.78016
-2.24188
-2.19574
-1.56702
-1.40931
-0.625085
-0.334555
0.631818
1.13852
2.33031
3.09811
4.64585
5.67222
7.75412
9.04521
11.8687
13.3395
17.2894
18.8352
24.2367
25.7716
33.0771
34.4504
44.3059
44.8981
57.3629
58.3761
72.6788
74.0765
89.3004
90.3959
106.275
25.777
29.6304
27.1244
28.1404
26.5035
26.4336
24.3681
23.2523
20.1751
17.3964
12.61
7.25
-0.353499
-9.50131
-21.4336
-35.4171
-52.1572
-70.0617
-89.2301
-107.458
-121.858
-128.086
-123.055
-109.625
-87.6331
-65.5531
-45.5556
-28.9581
-15.0415
-4.21745
4.6393
12.9805
19.4653
25.7971
28.7078
32.1227
32.6937
34.1439
34.4701
35.3056
35.6183
35.859
36.2286
36.1636
36.3464
36.0142
36.1144
35.4453
35.594
34.8435
34.9795
34.23
34.3255
33.6789
33.5083
33.2679
32.7951
32.7797
32.141
32.3603
31.6087
32.0401
31.2293
31.802
30.9987
31.6357
30.8395
31.4623
30.7994
31.177
30.9066
30.8417
30.9458
30.6154
30.9722
30.4653
30.9609
30.3805
30.9569
30.256
30.9846
30.1531
30.9379
30.0662
30.74
30.0003
30.3839
30.0313
29.9583
29.9213
29.6422
29.6865
29.3032
29.3941
28.9324
29.0362
28.5003
28.5926
27.9845
28.0188
27.3487
27.3001
26.5009
26.3428
25.3986
25.013
23.9422
23.1791
21.8984
20.661
19.029
17.1469
14.9524
12.2154
9.21758
5.40071
1.37924
-3.66714
-8.73612
-14.7582
-20.3488
-26.5229
-31.6812
-36.694
-40.0584
-42.6666
-43.4345
-43.4601
-41.682
-38.4466
-34.0632
-28.3431
-22.9989
-17.2303
-13.2288
-9.19869
-7.56395
-5.59079
-5.50952
-4.19995
-4.69523
-4.43607
-4.88958
-4.55801
-4.65939
-4.78734
-4.5261
-4.91692
-4.35132
-4.83647
-4.03973
-4.63326
-3.888
-4.41222
-3.59832
-4.0355
-3.28968
-3.49984
-3.15092
-3.10251
-2.78498
-2.668
-2.3733
-2.17739
-1.79227
-1.53773
-0.983958
-0.643726
0.106584
0.606656
1.58383
2.28121
3.60257
4.49835
6.34293
7.41391
10.125
11.1287
14.9581
15.9975
21.1347
22.1372
28.8669
29.8079
38.3851
39.4873
49.7124
51.0319
62.7591
64.1463
77.3142
78.3008
92.4233
25.9378
30.5369
27.501
29.2183
27.4292
27.6423
25.8346
25.0827
22.4655
20.2586
16.1474
11.4983
4.56873
-3.97085
-15.5623
-29.4818
-46.6591
-65.851
-87.961
-111.696
-133.756
-146.766
-146.582
-133.9
-109.839
-83.3913
-58.1233
-37.2888
-20.7257
-7.56156
1.59546
10.1423
17.2099
24.0562
28.7343
31.3693
33.7561
33.5961
33.7805
34.0982
34.5286
34.7046
35.033
34.9796
35.522
35.1723
35.6007
34.9077
35.264
34.5071
34.8872
34.0341
34.286
33.7415
33.5519
33.3923
32.8458
32.9424
32.1847
32.4874
31.6426
32.1623
31.2828
31.9091
31.0657
31.7549
30.9076
31.5815
30.8936
31.2955
31.005
30.9292
31.0583
30.698
31.0783
30.5169
31.0854
30.427
31.104
30.3211
31.1334
30.2429
31.1089
30.1884
30.9277
30.164
30.5786
30.2307
30.1308
30.1561
29.8577
29.9563
29.5515
29.7296
29.2124
29.4496
28.8205
29.0649
28.3714
28.5495
27.8281
27.8835
27.1234
27.0222
26.1944
25.852
24.9478
24.2747
23.2031
22.1195
20.7284
19.0677
17.1468
14.6803
11.9566
8.39955
4.56174
-0.355468
-5.49362
-11.7673
-18.029
-25.1108
-31.4276
-37.9605
-42.4583
-46.1588
-47.2092
-47.2678
-44.925
-41.5629
-36.5157
-30.6305
-23.8266
-17.5451
-11.938
-7.56361
-5.36956
-3.90429
-3.94608
-3.62433
-4.84139
-4.90851
-6.41304
-6.03792
-5.9403
-5.68615
-5.26838
-5.58375
-4.9974
-5.324
-4.36146
-4.85173
-4.19613
-4.7286
-3.98943
-4.39686
-3.75058
-3.87388
-3.63565
-3.66538
-3.40492
-3.37698
-3.13571
-3.03552
-2.78767
-2.61849
-2.24593
-2.04334
-1.4716
-1.21851
-0.409162
-0.0849704
1.07695
1.46541
3.11454
3.47794
5.9321
6.31307
9.5397
9.97491
14.3599
14.7346
20.6425
21.1099
28.5632
29.3
38.4533
39.5345
50.2494
51.6085
63.7199
64.8979
78.4003
28.1063
32.8238
29.5098
31.2976
29.4959
29.7834
28.257
27.6919
25.576
23.7383
20.3921
16.469
10.5576
3.00605
-7.59357
-20.7168
-37.5798
-57.0975
-80.6598
-107.873
-136.712
-160.01
-170.686
-165.036
-138.397
-105.111
-76.1149
-49.9577
-30.1936
-13.8865
-3.14567
7.04718
14.3828
22.4217
27.9318
33.8438
34.3842
36.5976
36.0117
35.858
36.4123
36.4474
36.9603
36.7778
37.1046
36.6521
36.8107
35.9998
36.1585
35.1938
35.4709
34.4937
34.6371
33.9976
33.7676
33.5943
32.9654
33.0561
32.2219
32.4868
31.5582
32.0768
31.1224
31.807
30.9083
31.6703
30.7845
31.5252
30.7987
31.2393
30.9366
30.8627
30.9956
30.6031
31.0207
30.4218
31.0501
30.3357
31.0877
30.2504
31.1597
30.1899
31.1518
30.1788
30.9681
30.1868
30.6196
30.2686
30.1595
30.2132
29.8673
30.0493
29.5794
29.871
29.2596
29.6509
28.9213
29.3473
28.5706
28.9358
28.1759
28.3883
27.6763
27.6841
27.0146
26.7532
26.0716
25.507
24.6959
23.7786
22.708
21.2708
19.7157
17.5177
15.1613
11.8483
8.25642
3.34712
-1.92313
-8.73862
-15.7355
-24.1131
-31.8456
-39.8312
-45.9712
-51.1743
-53.8231
-55.4474
-55.0417
-52.1581
-47.4608
-40.18
-31.8437
-22.4501
-15.206
-8.12391
-4.88918
-2.70398
-2.8555
-0.947069
-1.86624
-2.48962
-3.67364
-4.14453
-4.6006
-4.84723
-4.45228
-5.11865
-4.52308
-5.21402
-4.2125
-4.86557
-4.04933
-4.80844
-3.91192
-4.41526
-3.62939
-3.86745
-3.64215
-3.56984
-3.45753
-3.34277
-3.31066
-3.14581
-3.09656
-2.89045
-2.73411
-2.49846
-2.157
-1.87909
-1.34581
-1.01341
-0.169601
0.187436
1.48386
1.78784
3.88601
4.08026
6.99932
7.0969
11.0977
10.9969
16.214
16.2323
22.6662
22.9441
30.8933
31.2478
40.6927
41.1312
52.1828
52.5557
65.3093
27.7242
33.765
29.5896
32.256
30.1926
30.6482
29.3544
28.995
27.2668
25.7951
22.9993
19.728
14.6795
8.20847
-1.11511
-12.8204
-28.3881
-46.536
-69.1795
-96.5369
-128.069
-156.588
-176.568
-179.898
-160.904
-123.717
-90.2442
-59.8511
-37.2051
-18.9277
-6.27088
3.31948
10.7715
19.6811
25.7766
32.0309
32.4542
34.7665
35.0792
34.5357
35.0855
34.4948
35.2707
35.187
36.1604
35.8235
36.4548
35.541
35.9644
35.0079
35.4281
34.5632
34.6973
34.224
33.8423
33.8483
33.0531
33.3215
32.2906
32.7083
31.6084
32.2349
31.1685
31.9363
30.9466
31.8081
30.8293
31.6569
30.8781
31.3561
31.0426
30.9445
31.114
30.6544
31.1474
30.4208
31.1652
30.3283
31.2148
30.2523
31.2937
30.2297
31.2821
30.2639
31.1233
30.3069
30.7787
30.4332
30.3022
30.4088
30.0099
30.2891
29.7211
30.1623
29.429
29.9915
29.1318
29.7293
28.8254
29.3658
28.4931
28.8771
28.0803
28.2534
27.5468
27.4347
26.8183
26.3504
25.7117
24.9285
24.0904
22.877
21.6327
19.7556
17.7916
14.8966
11.7486
7.26559
2.28287
-4.36779
-11.6234
-20.5071
-29.4135
-39.271
-47.2279
-54.1567
-57.3245
-59.4313
-59.1045
-56.5747
-51.9077
-44.8212
-35.1886
-24.6179
-14.6031
-5.80036
-1.35281
0.953461
-0.669665
-0.325044
-2.82282
-3.17083
-6.57013
-6.41779
-6.00603
-5.45138
-4.76449
-5.52967
-5.31963
-5.53302
-4.25736
-4.64011
-4.05077
-5.10231
-4.32161
-4.68168
-3.9003
-4.01185
-3.94761
-4.00786
-3.888
-3.76377
-3.78104
-3.64458
-3.727
-3.51796
-3.5854
-3.3358
-3.26373
-3.02454
-2.75228
-2.55538
-1.97396
-1.80713
-0.899875
-0.878661
0.848547
0.623716
2.98456
2.64609
5.97451
5.39691
9.62866
9.39646
14.5041
14.7776
21.286
22.0706
29.6687
30.7692
39.9331
40.9952
52.7058
29.2373
35.5281
31.0723
33.6431
31.4412
32.0236
30.8214
30.5349
29.1999
27.9758
25.7808
23.0626
18.9451
13.5365
5.67228
-4.33635
-18.0151
-34.1698
-54.8242
-78.8221
-108.04
-138.486
-164.223
-177.063
-165.28
-133.91
-103.918
-72.9834
-48.2922
-26.9891
-11.3583
-0.0150138
6.44443
16.6115
24.3113
31.9899
35.9242
36.005
37.45
36.5431
37.1887
36.9179
37.0426
36.8565
37.5001
36.9839
37.493
36.3911
36.7245
35.5289
35.7509
34.8972
34.9351
34.4617
34.0478
34.0442
33.2162
33.4516
32.4021
32.7314
31.5179
32.1668
30.9555
31.8043
30.7485
31.7199
30.6804
31.6151
30.7779
31.3229
30.9962
30.8969
31.0778
30.5728
31.1
30.3257
31.1482
30.2437
31.2226
30.1656
31.3579
30.1589
31.3658
30.235
31.203
30.3323
30.8455
30.4956
30.3298
30.5101
29.9815
30.4318
29.6839
30.3101
29.415
30.1726
29.1541
29.9842
28.924
29.6974
28.7172
29.2912
28.451
28.7858
28.093
28.137
27.6206
27.2698
26.8528
26.2167
25.6609
24.6722
23.7978
22.2534
20.7354
18.2743
15.6201
11.5777
7.00064
0.467883
-6.88286
-16.6832
-26.6679
-38.4444
-48.7979
-58.3525
-63.5363
-67.6184
-70.0236
-68.7503
-65.4581
-58.9209
-48.4439
-34.6767
-22.1979
-8.45371
-0.241314
2.30287
1.53156
4.33069
3.79839
1.74414
-1.31738
-4.93007
-6.05361
-5.35804
-4.27182
-4.69084
-4.70047
-6.31861
-4.56153
-4.90468
-3.72473
-4.96345
-4.2877
-4.92317
-3.8746
-3.95642
-3.83582
-3.80362
-3.93272
-3.75112
-3.8719
-3.69291
-3.92238
-3.76147
-3.96674
-3.72127
-3.8465
-3.52111
-3.53295
-3.28726
-3.04686
-2.83963
-2.33716
-2.32436
-0.977239
-1.21824
0.676011
0.146189
3.21073
2.08501
5.7619
5.03472
9.25608
8.71819
14.5496
13.8193
21.1275
20.1241
29.0507
28.0304
40.0833
28.8058
36.0954
31.1064
34.4376
32.1167
32.6004
31.6017
31.3495
30.2376
29.1932
27.3684
25.1244
21.6864
17.2312
10.6493
2.29039
-9.39039
-23.3468
-41.1972
-61.807
-86.4755
-111.945
-135.767
-150.983
-152.427
-133.586
-107.881
-78.7763
-54.0954
-32.317
-16.6095
-3.12607
3.6294
13.354
19.9052
28.0173
32.037
34.2914
33.479
35.0998
34.6667
34.6554
35.2784
35.2478
36.6136
36.2734
37.2221
36.1624
36.5567
35.5794
35.7811
35.091
35.0289
34.7296
34.1562
34.3151
33.2836
33.792
32.4943
33.0514
31.6491
32.3157
30.9999
31.9164
30.7439
31.8489
30.6905
31.7313
30.8476
31.4152
31.1219
30.9582
31.2331
30.5908
31.229
30.2718
31.2295
30.1719
31.3062
30.087
31.4718
30.1271
31.4852
30.2655
31.3181
30.423
30.9548
30.637
30.4106
30.6843
30.0489
30.6314
29.7415
30.5602
29.4691
30.4469
29.2527
30.2712
29.0563
30.024
28.8887
29.6513
28.7163
29.1768
28.4817
28.5837
28.1414
27.8366
27.5641
27.0077
26.6363
25.8182
25.2172
23.9748
22.8528
20.8598
18.7956
15.3995
11.5175
5.63914
-1.25072
-10.9743
-21.7234
-34.97
-47.4421
-59.1982
-64.748
-67.8007
-70.4824
-70.5741
-68.8167
-64.7012
-55.7471
-41.2179
-25.6657
-8.82301
4.76519
9.55799
2.12959
1.94144
-0.388351
0.673075
-5.1631
-6.65876
-7.54743
-5.52174
-4.16054
-4.84206
-5.60475
-6.41225
-4.50983
-4.10433
-3.37792
-5.39723
-4.90475
-5.02248
-4.00782
-3.89095
-4.10049
-4.28395
-4.12519
-3.85994
-4.05098
-3.90671
-4.16217
-3.98839
-4.30784
-4.09027
-4.39937
-4.11178
-4.27692
-4.12016
-3.91877
-3.86887
-3.61631
-3.80089
-2.68338
-3.19992
-1.85148
-2.57646
0.1038
-1.50485
1.16887
0.315565
3.21278
2.33942
7.10446
7.13698
11.8029
12.4205
17.8064
17.8231
27.1472
30.0184
37.5068
31.9212
34.7156
32.6816
33.2451
32.3344
31.9439
31.1458
30.1435
28.6893
26.7057
23.847
20.0692
14.5193
7.51071
-2.47038
-14.4747
-30.2369
-48.2691
-70.1974
-93.0906
-115.692
-130.902
-136.886
-126.041
-108.436
-83.5721
-60.9502
-38.449
-22.2839
-8.80828
1.21668
11.8533
20.9127
29.3347
33.9279
37.2046
37.5474
37.6124
37.9091
36.6507
36.9573
36.5523
37.2319
36.8424
37.6032
36.8615
37.0014
35.8674
36.2075
35.1624
35.2544