/*--------------------------------*- C++ -*----------------------------------*\
| =========                 |                                                 |
| \\      /  F ield         | OpenFOAM: The Open Source CFD Toolbox           |
|  \\    /   O peration     | Version:  4.1                                   |
|   \\  /    A nd           | Web:      www.OpenFOAM.org                      |
|    \\/     M anipulation  |                                                 |
\*---------------------------------------------------------------------------*/
FoamFile
{
    version     2.0;
    format      ascii;
    class       volScalarField;
    location    "12";
    object      p;
}
// * * * * * * * * * * * * * * * * * * * * * * * * * * * * * * * * * * * * * //

dimensions      [0 2 -2 0 0 0 0];

internalField   nonuniform List<scalar> 
6750
(
-486.359
-176.783
-456.032
-462.868
-527.466
-545.102
-538.416
-434.521
-297.78
-219.706
-189.578
-175.23
-171.52
-119.215
-180.194
-484.348
-175.727
-455.098
-462.677
-527.068
-544.164
-537.995
-438.93
-302.93
-222.221
-190.368
-173.656
-172.516
-118.076
-180.344
-482.916
-175.146
-454.498
-462.582
-526.7
-543.495
-537.504
-440.284
-304.842
-222.835
-190.795
-172.565
-173.514
-117.729
-180.575
-481.016
-174.309
-453.623
-462.351
-526.089
-542.642
-537.203
-443.136
-307.96
-223.837
-190.787
-171.602
-174.087
-118.28
-180.752
-479.451
-173.353
-452.854
-462.227
-525.58
-541.84
-536.76
-444.794
-310.017
-224.487
-191.246
-171.452
-174.113
-119.421
-180.922
-478.07
-172.185
-452.087
-462.104
-525.105
-541.077
-536.548
-446.104
-311.753
-224.622
-190.117
-168.839
-173.684
-120.94
-181.095
-477.256
-170.916
-451.418
-462.074
-524.833
-540.519
-536.527
-446.349
-312.945
-225.569
-190.894
-171.942
-169.048
-123.13
-180.855
-477.089
-170.418
-451.132
-462.028
-524.737
-540.352
-536.578
-446.314
-313.122
-225.628
-189.507
-172.057
-167.907
-123.961
-180.907
-477.435
-171.111
-451.553
-462.123
-524.933
-540.636
-536.546
-446.331
-312.924
-225.791
-190.889
-173.174
-167.46
-123.425
-180.866
-478.391
-172.383
-452.287
-462.21
-525.286
-541.287
-536.623
-445.987
-311.926
-225.456
-191.118
-172.21
-172.423
-121.429
-181.177
-479.881
-173.568
-453.135
-462.396
-525.835
-542.118
-536.903
-444.483
-309.965
-224.801
-191.665
-173.032
-174.481
-119.712
-181.212
-481.533
-174.5
-453.96
-462.578
-526.403
-542.971
-537.403
-442.683
-307.886
-224.348
-191.596
-173.123
-174.369
-118.48
-181.053
-483.5
-175.321
-454.894
-462.868
-527.067
-543.859
-537.722
-439.642
-304.567
-223.103
-191.265
-173.451
-173.922
-117.797
-180.914
-484.976
-175.887
-455.532
-463.002
-527.47
-544.552
-538.231
-438.168
-302.542
-222.424
-190.781
-174.438
-172.873
-118.044
-180.659
-487.026
-176.933
-456.51
-463.241
-527.899
-545.499
-538.63
-433.526
-297.137
-219.627
-189.677
-175.695
-171.841
-119.072
-180.507
-727.562
-125.246
-408.645
-472.097
-531.317
-548.408
-537.589
-401.102
-245.405
-168.497
-154.892
-144.882
-160.138
-93.2439
-237.83
-724.053
-122.398
-408.567
-471.849
-531.863
-549.686
-540.009
-407.263
-251.438
-171.948
-155.308
-144.866
-160.139
-92.1001
-237.972
-721.677
-121.622
-408.957
-471.824
-532.312
-550.533
-541.365
-410.032
-254.501
-173.88
-155.652
-145.309
-160.119
-91.7134
-238.21
-718.133
-120.265
-408.958
-471.676
-532.657
-551.581
-543.546
-414.79
-259.16
-176.654
-155.996
-145.401
-159.816
-91.9887
-238.052
-714.957
-119.981
-409.131
-471.718
-533.027
-552.429
-544.982
-417.971
-262.57
-178.615
-156.561
-146.282
-158.719
-92.7662
-237.804
-711.711
-119.945
-409.056
-471.717
-533.231
-553.054
-546.371
-420.866
-266.079
-181.319
-157.823
-146.627
-154.591
-93.8101
-237.289
-709.116
-120.57
-408.884
-471.83
-533.443
-553.478
-547.511
-422.235
-268.643
-184.307
-160.858
-147.462
-152.414
-95.1093
-236.727
-708.339
-120.869
-408.675
-471.834
-533.483
-553.599
-547.936
-422.594
-269.41
-185.517
-160.674
-147.858
-152.327
-95.129
-236.823
-709.746
-120.292
-408.933
-471.869
-533.507
-553.515
-547.412
-422.176
-268.69
-184.803
-161.513
-148.4
-151.947
-95.2397
-236.848
-712.487
-119.755
-409.137
-471.803
-533.336
-553.087
-546.284
-420.68
-266.313
-182.285
-160.469
-148.338
-153.943
-94.1003
-237.599
-715.887
-119.894
-409.248
-471.862
-533.175
-552.459
-544.909
-417.545
-262.517
-178.923
-157.27
-147.551
-158.856
-92.9005
-238.364
-719.141
-120.259
-409.103
-471.871
-532.836
-551.599
-543.466
-414.174
-258.975
-176.934
-156.718
-146.763
-160.006
-92.0814
-238.662
-722.748
-121.7
-409.143
-472.077
-532.524
-550.536
-541.235
-409.214
-254.114
-173.988
-155.908
-146.282
-160.445
-91.7185
-238.867
-725.156
-122.531
-408.772
-472.133
-532.089
-549.675
-539.849
-406.292
-250.879
-171.86
-155.498
-145.771
-160.489
-92.038
-238.586
-728.693
-125.442
-408.894
-472.434
-531.564
-548.367
-537.351
-399.928
-244.651
-168.291
-154.929
-145.516
-160.494
-93.1015
-238.458
-911.797
-136.652
-305.684
-437.711
-449.762
-438.218
-397.088
-294.553
-207.551
-156.722
-155.411
-142.839
-169.457
-48.7504
-347.98
-909.693
-132.688
-306.726
-438.393
-452.014
-441.971
-401.717
-299.856
-211.354
-158.367
-154.708
-142.584
-168.661
-47.6225
-348.209
-908.534
-131.362
-308.292
-438.973
-453.485
-444.064
-403.968
-302.291
-213.021
-158.741
-154.359
-142.654
-168.33
-47.0136
-348.926
-906.584
-128.796
-309.3
-439.5
-455.245
-446.943
-407.564
-306.436
-215.98
-159.981
-154.192
-142.263
-168.006
-47.1045
-348.543
-905.006
-127.826
-310.628
-440.206
-456.787
-449.195
-410.166
-309.369
-218.12
-160.646
-154.55
-142.249
-167.479
-47.6951
-348.085
-903.312
-127.075
-311.301
-440.612
-457.962
-451.067
-412.567
-312.329
-220.709
-162.604
-156.027
-143.989
-164.971
-48.8019
-346.808
-901.752
-127.765
-311.87
-441.036
-458.826
-452.304
-414.146
-314.252
-222.631
-164.22
-156.383
-142.048
-162.267
-49.2462
-345.567
-901.186
-128.154
-311.852
-441.032
-458.973
-452.575
-414.577
-314.863
-223.267
-164.865
-155.872
-140.403
-159.915
-48.449
-345.417
-902.217
-127.44
-311.814
-441.031
-458.799
-452.238
-414.071
-314.194
-222.769
-164.443
-156.779
-140.882
-160.299
-49.1301
-345.79
-903.759
-126.995
-311.251
-440.606
-457.892
-450.932
-412.446
-312.234
-220.985
-162.922
-156.724
-143.339
-163.685
-48.787
-347.399
-905.556
-127.913
-310.531
-440.202
-456.683
-448.989
-409.97
-309.156
-218.305
-160.763
-155.174
-142.077
-167.126
-47.5628
-349.129
-907.173
-129.011
-309.184
-439.508
-455.114
-446.676
-407.309
-306.143
-216.117
-160.063
-154.743
-142.245
-168.311
-46.8961
-349.679
-909.17
-131.704
-308.167
-438.999
-453.337
-443.745
-403.651
-301.943
-213.191
-159.018
-154.871
-142.801
-168.713
-46.8316
-350.076
-910.354
-133.104
-306.583
-438.424
-451.849
-441.612
-401.36
-299.461
-211.498
-158.624
-155.279
-142.875
-169.225
-47.4187
-349.232
-912.482
-137.152
-305.556
-437.763
-449.59
-437.816
-396.662
-294.104
-207.688
-157.072
-156.011
-143.139
-170.058
-48.493
-348.954
-1018.32
-221.421
-237.041
-400.957
-378.548
-360.083
-328.649
-251.832
-192.562
-148.75
-153.76
-135.7
-183.722
4.22474
-474.987
-1017.2
-218.814
-237.245
-401.547
-380.131
-362.711
-331.655
-255.02
-195.084
-150.148
-153.191
-135.377
-182.238
5.8308
-475.639
-1016.6
-217.907
-238.116
-402.143
-381.244
-364.258
-333.301
-256.601
-196.213
-150.064
-152.608
-134.826
-181.756
7.12979
-476.862
-1015.56
-215.904
-238.456
-402.623
-382.611
-366.416
-335.845
-259.236
-198.206
-150.815
-152.529
-134.488
-181.9
7.59196
-476.112
-1014.81
-214.907
-239.275
-403.354
-383.942
-368.218
-337.848
-261.218
-199.7
-150.787
-152.966
-133.835
-181.453
7.60465
-475.043
-1014.02
-213.765
-239.61
-403.743
-384.988
-369.777
-339.738
-263.328
-201.747
-152.221
-154.854
-136.239
-179.547
7.1281
-472.167
-1013.32
-213.557
-240.163
-404.251
-385.909
-370.976
-341.138
-264.909
-203.579
-153.981
-156.614
-134.725
-173.602
6.83842
-467.832
-1013.03
-213.498
-240.217
-404.255
-386.061
-371.251
-341.551
-265.494
-204.276
-154.866
-156.2
-131.789
-168.789
7.62662
-466.1
-1013.55
-213.562
-240.114
-404.24
-385.87
-370.933
-341.147
-265.008
-203.939
-154.481
-157.731
-133.115
-169.708
7.11371
-467.536
-1014.23
-213.94
-239.598
-403.749
-384.949
-369.734
-339.792
-263.492
-202.349
-152.776
-156.568
-136.23
-178.263
7.15305
-472.55
-1015.09
-215.198
-239.258
-403.367
-383.901
-368.157
-337.896
-261.341
-200.199
-150.959
-154.222
-134.487
-181.618
7.61025
-476.279
-1015.88
-216.272
-238.445
-402.656
-382.58
-366.351
-335.892
-259.342
-198.637
-150.888
-153.326
-134.201
-182.807
7.66379
-477.53
-1016.96
-218.359
-238.115
-402.196
-381.223
-364.188
-333.344
-256.728
-196.727
-150.489
-153.458
-135.12
-182.667
7.17758
-478.304
-1017.59
-219.314
-237.242
-401.61
-380.118
-362.64
-331.699
-255.15
-195.599
-150.534
-153.97
-135.53
-183.255
5.8805
-476.873
-1018.73
-221.979
-237.057
-401.039
-378.548
-360.015
-328.682
-251.976
-193.118
-149.338
-154.624
-136.058
-184.716
4.30281
-476.36
-1123.74
-285.39
-222.561
-394.678
-353.603
-326.26
-298.72
-239.61
-204.42
-157.99
-177.181
-130.34
-214.204
51.6382
-633.273
-1123.07
-283.966
-222.331
-394.842
-354.185
-327.487
-300.272
-241.33
-205.931
-158.903
-176.141
-130.86
-213.025
52.971
-635.726
-1122.74
-283.526
-222.669
-395.188
-354.707
-328.271
-301.121
-242.113
-206.513
-158.309
-175.152
-129.51
-212.223
53.1328
-637.374
-1122.12
-282.446
-222.579
-395.337
-355.256
-329.332
-302.472
-243.533
-207.686
-158.451
-174.455
-130.153
-213.806
53.0947
-635.726
-1121.71
-281.983
-222.869
-395.737
-355.92
-330.276
-303.571
-244.619
-208.607
-157.96
-174.187
-128.975
-213.334
54.236
-633.365
-1121.25
-281.369
-222.838
-395.849
-356.358
-331.042
-304.616
-245.894
-210.106
-159.112
-175.444
-131.91
-213.861
54.604
-627.471
-1120.9
-281.234
-223.038
-396.122
-356.86
-331.705
-305.451
-246.985
-211.714
-161.442
-178.282
-133.114
-206.939
52.5112
-617.073
-1120.69
-281.162
-223.027
-396.089
-356.914
-331.85
-305.724
-247.461
-212.416
-162.672
-178.842
-130.585
-199.039
52.2117
-611.406
-1120.98
-281.329
-223.057
-396.153
-356.883
-331.753
-305.575
-247.229
-212.252
-162.403
-180.282
-132.57
-200.796
53.1006
-618.174
-1121.35
-281.529
-222.879
-395.912
-356.428
-331.153
-304.858
-246.299
-210.993
-160.344
-177.73
-133.234
-213.552
55.9602
-630.834
-1121.86
-282.217
-222.936
-395.828
-356.027
-330.422
-303.865
-245.043
-209.411
-158.514
-175.896
-129.497
-214.382
55.8658
-638.399
-1122.3
-282.731
-222.656
-395.449
-355.397
-329.509
-302.808
-243.979
-208.432
-158.805
-175.69
-129.793
-215.125
54.053
-640.006
-1122.95
-283.866
-222.762
-395.325
-354.878
-328.475
-301.486
-242.611
-207.327
-158.988
-176.399
-130.128
-214.002
53.6552
-641.356
-1123.29
-284.342
-222.428
-394.991
-354.376
-327.71
-300.664
-241.862
-206.808
-159.61
-177.49
-130.799
-214.315
53.5173
-638.508
-1123.97
-285.807
-222.672
-394.842
-353.813
-326.498
-299.124
-240.18
-205.345
-158.965
-178.633
-130.944
-215.787
51.6958
-635.563
-1231.24
-329.811
-225.844
-405.067
-359.236
-331.528
-313.56
-261.318
-242.645
-180.74
-227.462
-131.785
-274.427
81.9231
-855.769
-1230.81
-329.001
-225.68
-405.188
-359.62
-332.347
-314.672
-262.618
-243.719
-181.525
-225.552
-131.593
-275.206
82.4358
-858.47
-1230.61
-328.778
-225.898
-405.467
-360.002
-332.889
-315.294
-263.222
-244.275
-181.255
-224.77
-130.67
-270.444
83.1137
-864.934
-1230.2
-328.174
-225.828
-405.595
-360.372
-333.611
-316.302
-264.362
-245.34
-181.557
-223.494
-130.391
-278.221
88.6332
-872.595
-1229.94
-327.969
-226.014
-405.909
-360.847
-334.268
-317.147
-265.256
-246.343
-181.519
-223.725
-129.065
-283.426
88.8763
-871.12
-1229.62
-327.659
-225.981
-406.002
-361.129
-334.787
-317.968
-266.328
-247.824
-182.898
-225.023
-131.174
-290.442
80.4855
-847.244
-1229.41
-327.649
-226.091
-406.202
-361.47
-335.248
-318.638
-267.254
-249.457
-185.522
-230.501
-134.159
-277.834
72.1363
-823.331
-1229.23
-327.644
-226.081
-406.182
-361.502
-335.358
-318.886
-267.686
-250.156
-186.687
-231.443
-130.852
-270.23
66.4569
-806.889
-1229.38
-327.767
-226.14
-406.247
-361.527
-335.341
-318.811
-267.549
-250.084
-186.521
-232.718
-133.662
-280.956
69.055
-814.459
-1229.65
-327.816
-226.032
-406.08
-361.248
-334.968
-318.296
-266.852
-248.986
-184.539
-228.991
-132.664
-296.563
75.653
-840.167
-1229.99
-328.179
-226.099
-406.026
-361.019
-334.512
-317.564
-265.851
-247.448
-182.514
-226.105
-129.784
-291.263
86.767
-873.549
-1230.27
-328.432
-225.927
-405.735
-360.587
-333.906
-316.785
-265.009
-246.427
-182.313
-225.807
-130.553
-282.349
91.2375
-878.619
-1230.7
-329.072
-226.013
-405.632
-360.252
-333.223
-315.815
-263.927
-245.316
-182.172
-226.256
-131.288
-274.095
85.3131
-869.014
-1230.9
-329.323
-225.803
-405.368
-359.896
-332.71
-315.227
-263.366
-244.845
-182.485
-227.695
-132.363
-276.517
83.5699
-859.054
-1231.35
-330.158
-225.977
-405.257
-359.528
-331.911
-314.124
-262.108
-243.725
-181.931
-229.23
-132.98
-274.867
82.4539
-854.614
-1342.85
-370.068
-237.151
-425.732
-377.17
-350.022
-340.833
-291.611
-292.984
-215.877
-309.966
-151.284
-403.771
77.5339
-1092.46
-1342.63
-369.62
-237.067
-425.834
-377.473
-350.626
-341.681
-292.579
-293.52
-215.903
-306.274
-150.74
-383.74
74.7952
-1102.09
-1342.53
-369.503
-237.215
-426.042
-377.761
-351.016
-342.155
-293.073
-293.988
-216.09
-305.285
-150.948
-371.565
79.096
-1134.6
-1342.32
-369.166
-237.191
-426.158
-378.061
-351.576
-342.977
-294.036
-294.991
-216.537
-304.836
-147.5
-409.277
64.8041
-1126.25
-1342.19
-369.059
-237.327
-426.4
-378.426
-352.079
-343.65
-294.797
-295.914
-217.036
-303.868
-144.145
-439.835
33.3594
-1055.67
-1342.03
-368.882
-237.327
-426.493
-378.658
-352.501
-344.34
-295.715
-297.399
-218.624
-308.782
-142.759
-453.031
22.8328
-978.838
-1341.94
-368.877
-237.411
-426.656
-378.923
-352.865
-344.875
-296.449
-298.775
-220.748
-315.216
-147.573
-449.856
24.9427
-938.316
-1341.82
-368.884
-237.406
-426.655
-378.964
-352.975
-345.104
-296.816
-299.395
-221.573
-316.638
-146.179
-440.898
23.7615
-928.146
-1341.84
-369.008
-237.467
-426.706
-378.994
-352.97
-345.052
-296.727
-299.299
-221.441
-316.716
-145.913
-453.863
16.9632
-915.386
-1341.97
-369.059
-237.402
-426.588
-378.806
-352.709
-344.686
-296.247
-298.459
-220.111
-313.36
-143.474
-455.354
13.4893
-954.422
-1342.15
-369.266
-237.43
-426.537
-378.638
-352.369
-344.109
-295.46
-297.043
-218.308
-306.859
-143.31
-445.488
18.9458
-1031.15
-1342.28
-369.413
-237.318
-426.329
-378.328
-351.935
-343.522
-294.792
-296.104
-217.625
-306.81
-147.292
-416.727
54.0541
-1119.5
-1342.5
-369.775
-237.357
-426.238
-378.069
-351.425
-342.75
-293.899
-295.016
-217.204
-306.267
-151.071
-373.37
75.627
-1135.4
-1342.6
-369.913
-237.225
-426.051
-377.814
-351.074
-342.32
-293.465
-294.598
-217.159
-307.392
-151.724
-382.376
74.3027
-1097.46
-1342.83
-370.371
-237.315
-425.956
-377.527
-350.49
-341.48
-292.539
-293.95
-217.318
-309.726
-153.054
-397.493
78.801
-1094.82
-1458.96
-410.504
-254.88
-457.175
-407.512
-382.731
-383.74
-337.274
-358.003
-265.024
-408.834
-169.894
-604.335
34.8986
-1423.45
-1458.86
-410.274
-254.84
-457.262
-407.745
-383.178
-384.364
-337.977
-358.028
-264.842
-402.158
-176.513
-520.618
53.5637
-1464.28
-1458.82
-410.21
-254.933
-457.407
-407.947
-383.449
-384.695
-338.35
-358.194
-265.198
-398.329
-176.383
-490.461
47.8985
-1523.75
-1458.73
-410.035
-254.932
-457.51
-408.185
-383.879
-385.344
-339.124
-359.046
-265.619
-400.025
-171.177
-559.194
-30.2821
-1429.93
-1458.67
-409.974
-255.024
-457.684
-408.449
-384.242
-385.843
-339.713
-359.782
-266.181
-398.904
-165.576
-569.197
-36.1815
-1292.46
-1458.6
-409.877
-255.037
-457.77
-408.639
-384.576
-386.401
-340.436
-361.062
-267.305
-403.862
-164.083
-589.06
-35.487
-1145.6
-1458.57
-409.865
-255.098
-457.892
-408.835
-384.845
-386.798
-340.957
-362.08
-268.597
-408.088
-168.629
-600.357
-27.1188
-1080.36
-1458.53
-409.849
-255.098
-457.907
-408.89
-384.958
-387.012
-341.262
-362.601
-269.113
-409.594
-170.087
-600.274
-25.2364
-1067.41
-1458.52
-409.917
-255.137
-457.939
-408.92
-384.964
-386.984
-341.227
-362.489
-269.097
-408.916
-168.775
-601.619
-25.5187
-1078.18
-1458.52
-409.988
-255.115
-457.873
-408.814
-384.819
-386.774
-340.975
-361.884
-268.43
-405.806
-165.194
-590.265
-34.5019
-1135
-1458.55
-410.131
-255.136
-457.833
-408.701
-384.587
-386.362
-340.444
-360.815
-267.444
-400.932
-165.123
-570.685
-36.681
-1280.6
-1458.58
-410.231
-255.08
-457.703
-408.507
-384.316
-385.982
-340.004
-360.167
-266.928
-401.468
-171.095
-565.612
-35.6014
-1424.72
-1458.66
-410.423
-255.1
-457.625
-408.316
-383.946
-385.413
-339.336
-359.343
-266.565
-399.379
-176.438
-491.06
46.485
-1532.23
-1458.71
-410.504
-255.032
-457.508
-408.157
-383.729
-385.148
-339.051
-359.251
-266.453
-403.271
-176.735
-520.147
60.5597
-1468.48
-1458.8
-410.728
-255.076
-457.423
-407.934
-383.298
-384.546
-338.399
-359.199
-266.803
-409.637
-170.249
-605.08
40.6373
-1426.9
-1581.96
-453.518
-277.849
-498.322
-449.234
-428.162
-439.973
-396.654
-433.965
-328.276
-500.913
-202.614
-741.793
61.0923
-2000.56
-1581.93
-453.426
-277.849
-498.424
-449.454
-428.54
-440.482
-397.241
-434.011
-328.834
-494.951
-216.456
-612.803
135.563
-2089.6
-1581.91
-453.396
-277.91
-498.534
-449.602
-428.732
-440.735
-397.543
-434.242
-329.19
-492.047
-211.125
-584.933
143.071
-2119.38
-1581.89
-453.325
-277.936
-498.649
-449.824
-429.097
-441.309
-398.22
-435.305
-330.011
-496.363
-210.552
-651.261
-44.6477
-2030.67
-1581.86
-453.294
-278.003
-498.785
-450.024
-429.36
-441.715
-398.697
-436.315
-330.88
-500.735
-209.818
-703.833
-105.576
-1816.67
-1581.85
-453.254
-278.035
-498.883
-450.205
-429.648
-442.219
-399.293
-437.598
-331.727
-504.768
-208.312
-710.367
-56.8805
-1581.49
-1581.83
-453.239
-278.084
-498.981
-450.354
-429.843
-442.532
-399.666
-438.507
-332.609
-508.809
-211.016
-733.108
-41.0532
-1407.59
-1581.83
-453.228
-278.102
-499.021
-450.431
-429.973
-442.763
-399.951
-439.049
-333.069
-510.586
-213.512
-739.455
-33.5703
-1396.29
-1581.82
-453.239
-278.128
-499.043
-450.453
-429.988
-442.747
-399.948
-438.877
-333.054
-509.3
-211.39
-734.996
-36.9622
-1442.01
-1581.83
-453.262
-278.124
-499.011
-450.408
-429.94
-442.648
-399.856
-438.341
-332.636
-505.96
-208.497
-714.576
-49.5293
-1615.34
-1581.83
-453.31
-278.131
-498.967
-450.316
-429.775
-442.326
-399.492
-437.351
-332.048
-502.17
-209.076
-708.215
-96.6899
-1837.86
-1581.83
-453.352
-278.108
-498.886
-450.204
-429.627
-442.078
-399.209
-436.558
-331.402
-498.223
-210.127
-659.081
-44.1722
-2045.1
-1581.84
-453.42
-278.105
-498.798
-450.035
-429.335
-441.62
-398.678
-435.674
-330.752
-494.117
-210.943
-589.081
148.157
-2138.44
-1581.82
-453.476
-278.082
-498.722
-449.942
-429.212
-441.461
-398.487
-435.58
-330.603
-497.332
-216.283
-618.755
145.99
-2104.26
-1581.81
-453.554
-278.088
-498.614
-449.725
-428.849
-440.995
-397.965
-435.637
-330.219
-503.611
-202.179
-751.847
68.6974
-2012.79
-1712.17
-501.724
-305.49
-548.304
-501.294
-484.814
-508.503
-468.859
-521.921
-405.676
-597.754
-246.479
-796.986
259.034
-2904.97
-1712.18
-501.73
-305.526
-548.436
-501.561
-485.189
-508.982
-469.304
-522.007
-405.495
-593.435
-251.122
-709.942
353.649
-2970.69
-1712.18
-501.718
-305.571
-548.525
-501.684
-485.332
-509.197
-469.556
-522.509
-405.78
-593.452
-245.368
-689.669
361.938
-2981.85
-1712.21
-501.712
-305.626
-548.663
-501.939
-485.701
-509.794
-470.214
-524.026
-406.924
-600.969
-251.63
-737.196
239.115
-2942.51
-1712.19
-501.699
-305.686
-548.773
-502.11
-485.911
-510.182
-470.669
-525.628
-408.359
-611.018
-258.836
-824.159
-32.0171
-2847.55
-1712.2
-501.694
-305.739
-548.89
-502.32
-486.212
-510.747
-471.291
-527.549
-409.622
-622.534
-264.218
-925.882
-66.8787
-2535.67
-1712.19
-501.668
-305.786
-548.973
-502.445
-486.372
-511.047
-471.619
-528.686
-410.324
-627.086
-262.065
-920.74
7.70218
-2210.49
-1712.19
-501.653
-305.825
-549.039
-502.555
-486.544
-511.35
-471.98
-529.445
-411.141
-629.767
-265.783
-925.845
24.7461
-2185.95
-1712.17
-501.621
-305.847
-549.056
-502.567
-486.563
-511.344
-471.992
-529.211
-410.926
-627.745
-261.602
-919.993
25.498
-2320.54
-1712.17
-501.601
-305.862
-549.056
-502.569
-486.591
-511.331
-472.027
-528.549
-410.748
-623.635
-263.144
-930.292
-49.1517
-2599.18
-1712.13
-501.569
-305.86
-549.001
-502.469
-486.448
-511.027
-471.737
-527.134
-410.021
-613.017
-258.37
-820.796
1.22349
-2888.62
-1712.11
-501.561
-305.86
-548.958
-502.415
-486.391
-510.876
-471.567
-525.943
-408.993
-603.791
-251.573
-742.743
253.835
-2967.95
-1712.06
-501.53
-305.832
-548.846
-502.227
-486.115
-510.461
-471.137
-524.831
-408.232
-597.076
-245.361
-696.989
379.583
-3003.39
-1712.01
-501.559
-305.84
-548.799
-502.18
-486.065
-510.392
-471.049
-524.592
-408.16
-597.656
-250.987
-720.77
368.862
-2989.88
-1711.93
-501.514
-305.803
-548.655
-501.909
-485.699
-509.99
-470.708
-524.766
-408.627
-602.708
-246.56
-810.572
273.278
-2917.38
-1847.05
-556.473
-337.29
-607.073
-565.31
-554.939
-594.798
-560.341
-637.464
-511.602
-741.218
-319.846
-974.798
515.097
-4037.99
-1847.09
-556.548
-337.352
-607.237
-565.633
-555.334
-595.196
-560.505
-636.96
-509.099
-735.692
-310.527
-928.983
571.943
-4055.21
-1847.1
-556.554
-337.382
-607.312
-565.719
-555.406
-595.263
-560.515
-637.196
-508.406
-735.651
-300.308
-895.376
578.343
-4086.13
-1847.15
-556.605
-337.457
-607.476
-566.005
-555.774
-595.785
-560.921
-638.284
-507.715
-741.08
-292.209
-891.636
596.267
-4061.12
-1847.14
-556.61
-337.514
-607.568
-566.137
-555.905
-596.03
-561.122
-639.794
-507.913
-752.908
-290.672
-950.583
402.366
-4131.95
-1847.16
-556.632
-337.594
-607.705
-566.375
-556.215
-596.593
-561.656
-642.041
-508.949
-772.216
-303.409
-1151.85
106.057
-3857.97
-1847.15
-556.604
-337.648
-607.779
-566.476
-556.327
-596.83
-561.863
-643.413
-509.257
-782.873
-304.289
-1211.16
161.646
-3453.88
-1847.15
-556.591
-337.716
-607.87
-566.619
-556.538
-597.184
-562.271
-644.197
-510.564
-785.187
-313.268
-1201.85
208.172
-3411.29
-1847.12
-556.534
-337.751
-607.885
-566.625
-556.543
-597.175
-562.249
-643.909
-509.989
-783.087
-304.579
-1219.86
150.496
-3565.57
-1847.11
-556.5
-337.8
-607.918
-566.682
-556.645
-597.274
-562.428
-642.985
-510.202
-770.89
-300.691
-1108.72
162.223
-3964.36
-1847.05
-556.424
-337.806
-607.856
-566.581
-556.509
-597.026
-562.241
-641.388
-509.816
-753.515
-290.878
-941.779
464.098
-4180.84
-1847.02
-556.395
-337.844
-607.849
-566.596
-556.55
-597.068
-562.347
-640.476
-510.192
-744.1
-294.341
-899.761
617.595
-4109.34
-1846.93
-556.302
-337.809
-607.712
-566.391
-556.27
-596.762
-562.161
-639.956
-511.2
-740.147
-303.177
-910.778
602.218
-4112.6
-1846.85
-556.327
-337.856
-607.693
-566.401
-556.302
-596.872
-562.316
-640.077
-512.176
-741.59
-314.992
-949.268
588.324
-4079.49
-1846.72
-556.197
-337.797
-607.507
-566.061
-555.884
-596.548
-562.196
-640.942
-514.875
-748.311
-325.113
-993.785
535.35
-4044.42
-1985.3
-622.098
-373.97
-673.582
-639.019
-633.261
-691.609
-659.051
-770.456
-625.215
-932.47
-419.254
-1365.96
696.343
-5615.77
-1985.39
-622.238
-374.068
-673.837
-639.507
-633.894
-692.083
-659.43
-768.83
-621.073
-928.492
-404.044
-1378.59
729.605
-5628.26
-1985.4
-622.257
-374.091
-673.93
-639.596
-633.993
-692.021
-659.45
-768.477
-619.634
-926.415
-390.389
-1334.38
742.602
-5691.31
-1985.47
-622.349
-374.195
-674.171
-639.998
-634.535
-692.602
-659.918
-768.882
-617.29
-928.141
-370.619
-1284.32
782.655
-5665.07
-1985.46
-622.359
-374.25
-674.28
-640.139
-634.696
-692.733
-660.088
-769.612
-616.607
-932.717
-357.252
-1253.56
765.59
-5745.65
-1985.5
-622.393
-374.352
-674.471
-640.462
-635.131
-693.399
-660.698
-771.648
-616.703
-949.421
-360.192
-1375.37
524.685
-5589.04
-1985.47
-622.339
-374.406
-674.555
-640.573
-635.272
-693.626
-660.953
-773.005
-616.906
-965.615
-361.237
-1620.24
381.826
-5026.93
-1985.47
-622.299
-374.492
-674.678
-640.777
-635.572
-694.143
-661.487
-773.992
-617.878
-965.1
-369.245
-1529.29
424.653
-5094.19
-1985.42
-622.186
-374.525
-674.681
-640.777
-635.572
-694.204
-661.558
-774.078
-618.176
-962.31
-368.137
-1457.6
443.864
-5357.65
-1985.38
-622.101
-374.59
-674.726
-640.888
-635.738
-694.535
-661.919
-773.823
-618.928
-950.518
-364.412
-1347.31
629.732
-5654.94
-1985.27
-621.947
-374.585
-674.619
-640.759
-635.554
-694.424
-661.929
-773.403
-620.482
-941.363
-368.41
-1272.35
801.322
-5789.32
-1985.2
-621.863
-374.641
-674.611
-640.83
-635.641
-694.766
-662.257
-773.568
-621.901
-938.347
-378.344
-1328.15
810.931
-5760.71
-1985.04
-621.677
-374.571
-674.388
-640.546
-635.231
-694.596
-662.258
-774.598
-625.917
-941.676
-402.739
-1398.86
766.94
-5718.11
-1984.91
-621.678
-374.644
-674.36
-640.599
-635.283
-694.967
-662.498
-775.502
-627.78
-943.329
-415.038
-1433.84
736.188
-5643.2
-1984.7
-621.431
-374.529
-674.053
-640.086
-634.61
-694.654
-662.232
-777.972
-632.964
-949.129
-432.443
-1434.67
709.057
-5603.28
-2114.66
-696.385
-415.49
-747.359
-728.427
-728.999
-819.061
-786.754
-978.07
-794.28
-1294.32
-559.701
-2197.59
950.141
-8131.2
-2114.78
-696.586
-415.622
-747.725
-729.02
-729.901
-819.247
-787.647
-970.852
-788.135
-1279.8
-535.951
-2280.97
913.614
-7802.32
-2114.8
-696.628
-415.64
-747.838
-729.014
-729.967
-818.503
-787.635
-966.848
-785.139
-1268.78
-516.268
-2181.26
842.819
-7768.78
-2114.9
-696.776
-415.774
-748.162
-729.437
-730.629
-818.582
-787.98
-963.44
-780.646
-1266.48
-510.11
-2103.37
888.87
-7627.24
-2114.91
-696.819
-415.835
-748.29
-729.482
-730.706
-817.978
-787.563
-960.382
-775.197
-1255.23
-483.192
-1950.87
958.81
-7781.91
-2114.96
-696.893
-415.973
-748.535
-729.814
-731.175
-818.308
-787.846
-960.646
-773.577
-1270.56
-481.875
-2031.06
985.225
-7726.34
-2114.94
-696.862
-416.054
-748.63
-729.875
-731.243
-818.121
-787.657
-959.743
-771.662
-1274.5
-475.431
-2232.68
769.029
-7239.23
-2114.95
-696.841
-416.188
-748.787
-730.116
-731.562
-818.625
-788.098
-960.55
-772.519
-1274.74
-484.885
-2110.87
878.614
-7422.07
-2114.9
-696.731
-416.258
-748.783
-730.114
-731.492
-818.679
-788.004
-960.755
-772.204
-1272.43
-477.102
-2121.4
1015.38
-7675.41
-2114.87
-696.65
-416.38
-748.843
-730.312
-731.692
-819.359
-788.67
-962.154
-776.117
-1267.58
-492.648
-1942.35
1068.62
-7938.52
-2114.76
-696.484
-416.411
-748.696
-730.207
-731.403
-819.544
-788.68
-963.457
-778.291
-1259.65
-494.041
-1966.57
1033.57
-7913.25
-2114.68
-696.399
-416.528
-748.688
-730.406
-731.508
-820.547
-789.27
-967.373
-784.24
-1276.31
-511.599
-2180.39
896.098
-7795.96
-2114.5
-696.18
-416.474
-748.373
-730.105
-730.856
-820.741
-788.859
-971.724
-787.584
-1280.84
-517.583
-2288.46
870.299
-7733.45
-2114.37
-696.191
-416.601
-748.333
-730.269
-730.871
-821.686
-788.735
-976.357
-789.928
-1298.56
-537.304
-2341.79
884.283
-7741.92
-2114.11
-695.886
-416.476
-747.886
-729.611
-729.757
-821.414
-787.347
-983.774
-795.094
-1315.17
-557.466
-2298.02
937.42
-7856.65
-2242.88
-789.829
-464.586
-829.205
-824.944
-823.454
-937.292
-889.587
-1147.8
-873.493
-1674.4
-448.65
-3630.95
1345.97
-10771.8
-2243.02
-790.103
-464.79
-829.891
-826.144
-825.653
-939.092
-893.598
-1136.6
-868.468
-1628.6
-449.468
-3613.83
1173.22
-10844.3
-2243.06
-790.156
-464.82
-830.158
-826.339
-826.29
-938.841
-895.742
-1130.22
-871.797
-1590.64
-499.002
-3077.07
1071.71
-11649.4
-2243.17
-790.337
-465.011
-830.752
-827.205
-827.919
-939.93
-898.329
-1125.27
-870.803
-1553.13
-463.161
-2879.95
1288.89
-11382
-2243.17
-790.363
-465.091
-831.046
-827.485
-828.619
-939.947
-900.211
-1123.81
-875.95
-1547.47
-475.674
-2819.59
1238.76
-11823
-2243.21
-790.41
-465.27
-831.485
-828.14
-829.748
-941.183
-902.102
-1125.95
-876.408
-1567.73
-455.966
-3365.05
1012.47
-10702.5
-2243.17
-790.309
-465.356
-831.692
-828.369
-830.217
-941.51
-903.19
-1126.37
-877.92
-1571.46
-449.644
-3424.72
1037.13
-10537
-2243.14
-790.201
-465.508
-831.931
-828.783
-830.806
-942.53
-904.022
-1127.91
-876.851
-1568.87
-448.205
-3148.58
1183.1
-10963.2
-2243.03
-789.973
-465.567
-831.917
-828.798
-830.717
-942.716
-903.813
-1129.68
-875.597
-1590.12
-418.466
-3482.43
982.518
-10545.6
-2242.93
-789.766
-465.691
-831.944
-829.028
-830.802
-943.388
-903.741
-1128.83
-874.843
-1551.68
-448.492
-2799.12
1237.06
-12001.1
-2242.72
-789.445
-465.683
-831.656
-828.802
-830.12
-943.401
-902.968
-1131.34
-877.478
-1567.28
-442.014
-2934.49
1435.21
-11892
-2242.55
-789.228
-465.798
-831.535
-828.966
-829.867
-944.323
-902.145
-1134.5
-875.599
-1584.93
-462.738
-3044.51
1128.7
-11898.2
-2242.24
-788.831
-465.664
-830.949
-828.379
-828.459
-944.233
-900.725
-1144.1
-882.068
-1645.02
-490.952
-3548.26
859.841
-11585.8
-2241.99
-788.766
-465.803
-830.789
-828.484
-828.091
-945.103
-899.346
-1152.18
-882.279
-1681.39
-469.658
-3786.33
1043.41
-11019.5
-2241.59
-788.245
-465.544
-829.966
-827.272
-825.737
-943.672
-895.857
-1165.54
-892.261
-1732.16
-512.851
-3918.66
1162.94
-10788.6
-2310.44
-904.936
-527.484
-903.702
-950.619
-946.744
-1118.24
-1049.46
-1494.43
-1118.58
-2552.95
-593.108
-5648.5
827.84
-15703.9
-2310.63
-905.304
-527.742
-904.661
-951.727
-949.804
-1118.2
-1055.37
-1460.89
-1111.11
-2424.39
-636.725
-5309.69
1135.41
-16258.4
-2310.73
-905.448
-527.768
-905.03
-951.686
-950.481
-1115.92
-1056.4
-1439.7
-1104.95
-2305.69
-606.343
-4066.5
1857.92
-17340.5
-2310.89
-905.755
-528
-905.821
-952.418
-952.473
-1115.27
-1058.52
-1423.5
-1099.61
-2263.56
-671.191
-4520.24
2232.6
-16125
-2310.97
-905.918
-528.085
-906.22
-952.474
-953.121
-1113.2
-1058.09
-1406.24
-1077.34
-2173.18
-565.01
-4628.45
1980.93
-15758.1
-2311.05
-906.111
-528.311
-906.762
-953.046
-954.23
-1113.27
-1057.89
-1402.04
-1059.61
-2169.58
-495.082
-4738.49
1090.53
-14546.7
-2311.06
-906.165
-528.444
-907.018
-953.151
-954.584
-1112.34
-1057.7
-1394.28
-1055.96
-2137.61
-592.704
-4809.91
1410.72
-15310
-2311.08
-906.184
-528.668
-907.266
-953.586
-954.999
-1113.18
-1057.62
-1397.07
-1053.39
-2163.17
-583.923
-5076.02
1826.18
-14923.4
-2311.05
-906.076
-528.792
-907.221
-953.595
-954.691
-1113.17
-1057.02
-1397.7
-1051.25
-2159.12
-473.818
-4640.14
1884.5
-15340.8
-2311.02
-905.961
-529.006
-907.182
-953.938
-954.566
-1114.37
-1057.95
-1402.13
-1071.91
-2169.41
-686.046
-4134.92