/*--------------------------------*- C++ -*----------------------------------*\
| =========                 |                                                 |
| \\      /  F ield         | OpenFOAM: The Open Source CFD Toolbox           |
|  \\    /   O peration     | Version:  4.1                                   |
|   \\  /    A nd           | Web:      www.OpenFOAM.org                      |
|    \\/     M anipulation  |                                                 |
\*---------------------------------------------------------------------------*/
FoamFile
{
    version     2.0;
    format      ascii;
    class       surfaceScalarField;
    location    "12";
    object      phi;
}
// * * * * * * * * * * * * * * * * * * * * * * * * * * * * * * * * * * * * * //

dimensions      [0 3 -1 0 0 0 0];

internalField   nonuniform List<scalar> 
19125
(
380.82
-21.2198
1225.88
359.365
-6.88582
1524.18
309.213
-3.41839
1117.95
254.643
1.33605
930.409
196.577
-14.913
595.954
206.327
-52.6142
278.209
111.422
57.4715
-481.357
-105.765
225.275
-1168.66
-263.098
236.585
-1201.36
-303.967
179.948
-880.618
-185.779
84.1915
-434.607
-67.1861
-53.5055
366.687
-63.2246
10.5084
1192.89
-95.1505
-9.15794
1214.08
0.768463
2055.22
371.358
-24.2539
1240.85
349.343
-6.29541
1548.54
300.72
-3.81406
1147.94
245.758
0.771227
953.636
183.348
-20.9896
607.385
173.78
-61.3369
283.652
69.5552
68.884
-459.572
-120.388
252.12
-1154.68
-254.168
271.574
-1212.09
-291.833
208.232
-915.506
-190.691
93.2962
-493.625
-68.8332
-70.3293
293.164
-62.0081
12.7461
1239.17
-96.8388
-3.8276
1270.5
1.10988
2029.25
365.734
-24.5533
1250.3
344.093
-6.07709
1561.67
296.56
-4.83448
1164.76
240.772
-0.403423
965.463
173.444
-24.9781
614.584
151.339
-63.7411
288.627
47.2467
70.6595
-453.947
-117.87
253.19
-1146.78
-226.621
275.68
-1217.4
-261.271
215.51
-938.915
-189.507
94.9919
-530.6
-73.8119
-71.1802
221.096
-63.372
9.09769
1201.33
-99.8207
5.88981
1316.75
1.11816
1986.28
359.571
-22.1815
1259.73
339.584
-7.26635
1574.21
293.057
-5.51148
1180.54
235.444
-0.348384
976.782
161.24
-24.2718
622.891
129.446
-62.3325
298.32
31.1293
60.1246
-436.931
-112.372
232.393
-1136.03
-205.572
259.893
-1222.88
-240.506
210.528
-957.302
-186.132
92.6976
-546.46
-74.8226
-75.3198
211.254
-64.5986
4.73318
1145.1
-99.3399
13.0994
1322.23
1.20831
2008.17
354.881
-17.2398
1264.58
335.752
-8.93983
1586.96
290.125
-6.40959
1196.4
231.112
-0.253995
987.484
150.704
-19.7007
630.183
106.11
-54.693
304.209
7.22529
43.167
-423.647
-112.407
187.681
-1125.43
-188.488
223.873
-1225.81
-227.192
202.885
-971.804
-205.834
111.353
-549.677
-93.0708
-68.5966
161.523
-65.4373
-17.5079
1083.94
-99.6998
18.9514
1309.7
0.435359
2020.36
351.43
-9.9857
1264.98
332.447
-8.89774
1601.74
287.63
-6.29423
1213.85
227.659
-0.211967
998.161
142.859
-12.4177
636.52
84.8374
-38.5957
308.713
-21.6593
25.7373
-414.787
-117.987
119.925
-1114.9
-167.636
159.675
-1225.78
-194.689
176.646
-985.859
-239.86
166.004
-580.426
-124.5
63.1498
-181.615
-68.8157
-57.8113
918.314
-100.084
21.268
1303
-1.14489
2035.13
351.871
-2.37931
1255.52
330.92
-3.56941
1613.27
285.612
-2.60924
1231.22
225.083
-0.13125
1009.45
137.24
-3.40902
642.417
65.013
-11.6305
311.413
-54.1427
7.77604
-419.496
-133.907
35.7843
-1107.99
-142.861
54.3028
-1224.47
-107.122
75.1537
-1007.21
-82.7099
95.9268
-657.791
-67.8905
60.9099
-458.661
-80.0782
-38.3213
701.634
-98.7006
10.0863
1310.6
-0.538785
2028.5
353.524
4.29552
1248.42
331.289
4.49603
1613.87
285.082
3.69119
1235.8
224.14
0.801143
1013.29
135.496
6.37541
644.781
59.0911
18.931
312.847
-67.0802
-8.98824
-423.31
-144.727
-50.33
-1106.62
-141.144
-62.8797
-1223.58
-78.7112
-58.222
-1015.62
-13.8081
-25.0197
-685.846
-38.0065
46.9308
-528.824
-88.2568
11.2885
612.214
-100.366
-7.44804
1331.28
0.556342
1999.88
351.593
11.8367
1257.66
330.888
9.02452
1611.36
285.663
6.87714
1229.02
225.196
0.922046
1008.46
137.881
14.8889
641.852
67.322
43.9335
310.579
-50.3166
-27.0988
-418.637
-131.559
-133.234
-1108.37
-142.516
-166.063
-1223.29
-97.9774
-168.949
-1007.23
-39.9768
-135.47
-667.69
-44.3232
20.672
-522.661
-81.3253
57.713
682.231
-97.9012
-20.3704
1307.98
1.63854
2030.16
351.767
18.8165
1265.67
332.776
8.79919
1599.47
287.874
6.90354
1211.63
228.018
1.05091
997.042
143.753
21.7733
635.66
87.5032
58.3236
307.582
-17.323
-45.342
-415.487
-113.955
-200.704
-1115.13
-158.678
-235.237
-1224.28
-164.831
-219.341
-988.745
-188.552
-142.957
-611.475
-111.993
53.8672
-311.024
-70.363
33.1865
905.218
-99.1015
-20.184
1299.81
0.611913
2037.85
355.504
23.4428
1264.64
336.303
7.06141
1584.82
290.575
5.9868
1194.03
231.727
1.18515
985.984
151.853
26.0371
628.899
108.743
64.8611
302.683
11.1999
-63.3165
-425.965
-109.468
-244.502
-1125.79
-184.165
-272.741
-1223.72
-222.207
-228.154
-970.105
-214.367
-121.002
-547.092
-104.173
55.6807
118.661
-66.2554
1.08107
1081.92
-99.9522
-14.4673
1310.91
-0.601822
2021.89
360.386
25.5327
1259.13
340.309
5.92804
1572.11
293.696
5.29331
1178.07
236.279
1.21439
974.962
162.625
26.4439
621.191
132.226
65.4136
296.244
34.4715
-74.441
-440.265
-110.04
-264.469
-1136.43
-202.851
-288.795
-1220.25
-237.383
-232.75
-954.483
-187.457
-119.769
-540.755
-80.1125
55.6513
212.963
-65.1529
-8.69655
1149.58
-99.398
-7.22874
1324.37
-0.752356
2009.81
366.691
24.9774
1249.29
344.978
6.24275
1559.69
297.363
4.22718
1162.22
241.781
-0.0483558
963.342
175.07
22.1035
612.507
154.184
62.4355
285.986
49.7039
-72.4807
-458.037
-117.036
-262.034
-1147.11
-226.599
-283.299
-1213.66
-259.717
-224.874
-933.671
-187.358
-115.405
-525.911
-74.7461
62.5473
222.917
-63.9135
-12.8316
1203.91
-99.8701
2.61082
1320.42
-0.898014
1987.61
372.414
21.7024
1239.53
350.375
6.90861
1546.57
301.667
3.77372
1145.25
246.924
-0.735402
951.226
185.166
15.6694
604.981
176.768
53.2609
280.559
71.4822
-60.3959
-464.255
-120.955
-233.049
-1155.05
-256.446
-245.607
-1207.48
-293.314
-193.488
-908.112
-189.819
-102.38
-484.645
-69.2439
48.498
296.881
-62.54
-10.7908
1242.02
-96.8231
8.20067
1275.42
-0.616081
2029.89
381.943
1224.45
360.529
1522.46
310.326
1115.33
255.995
927.773
198.542
593.233
209.212
274.624
112.646
-486.901
-107.212
-1169.05
-266.075
-1195.78
-305.631
-870.922
-184.655
-421.5
-66.9906
369.622
-63.6513
1196.15
-95.0484
1220.8
2055.82
1195.45
-47.1608
872.697
1284.14
-63.5488
1451.8
1249.01
-36.5892
1158.35
1213.22
-14.9496
967.631
1193.26
-7.75713
615.447
1288.31
8.49711
176.982
1225.63
73.2842
-442.71
888.26
140.214
-875.177
487.891
169.654
-851.995
156.628
163.741
-595.292
-54.6937
94.5238
-239.29
-97.4995
-42.023
418.048
-151.471
13.7394
1241.56
-254.489
-21.9573
1322.12
2.39348
2044.98
1176.82
-55.6847
887.027
1253.15
-66.3216
1474.98
1215.68
-35.8992
1184.73
1172.69
-12.5392
994.224
1144.51
-8.73352
636.54
1234.12
7.85913
194.682
1186.14
85.653
-423.964
881.198
158.478
-868.005
509.479
193.124
-863.84
189.692
190.437
-622.415
-44.4833
116.145
-281.069
-99.5081
-45.9438
352.113
-149.911
17.118
1286.19
-259.077
-9.27812
1366.99
2.43358
2017.99
1168.3
-61.8812
896.386
1238.45
-62.7983
1488
1198.64
-31.9889
1200.67
1151.71
-9.54247
1009.39
1117.95
-9.38016
648.992
1203.64
5.4699
205.323
1164.22
84.7474
-413.616
878.653
160.177
-862.917
525.988
196.314
-867.927
218.075
196.27
-636.833
-36.5171
137.778
-297.637
-106.655
-47.8766
293.171
-155.375
6.28048
1260.89
-269.034
13.3342
1407.8
-0.0191971
1972.05
1154.54
-62.2161
908.101
1220.27
-56.7696
1502.47
1181.07
-28.702
1216.46
1131.01
-6.88351
1024.18
1090.87
-8.44469
662.103
1173.36
2.27838
219.015
1145.39
75.2042
-399.42
879.021
148.267
-857.745
539.042
187.942
-874.529
233.577
196.386
-651.952
-38.1824
170.683
-307.602
-118.943
-41.2137
285.357
-156.668
-24.5115
1213.62
-266.907
30.0458
1415.76
-1.86119
1993.15
1143.18
-57.1233
916.288
1204.77
-46.419
1515.03
1164.87
-24.215
1231.82
1111.72
-4.76211
1038.52
1065.77
-6.38128
674.065
1143.28
-0.915171
229.899
1123.2
59.1103
-387.475
875.847
121.907
-851.719
551.528
164.978
-878.526
244.936
196.552
-665.376
-58.3342
232.163
-307.885
-144.56
-27.8937
234.436
-156.11
-89.7784
1160.76
-265.944
42.912
1406.67
-5.02947
2005.87
1129.19
-41.8585
921.917
1186.99
-30.1921
1527.71
1147.52
-18.0827
1247.2
1092.35
-3.66974
1052.24
1042.19
-4.08762
684.384
1114.68
-2.76564
238.081
1099.09
38.2421
-378.333
871.959
79.884
-845.739
573.758
118.352
-880.951
302.204
160.891
-678.643
35.597
250.5
-332.153
-87.6071
3.78335
-90.0813
-160.932
-104.887
1006.75
-261.913
44.0782
1402.82
-5.84273
2020.32
1115.82
-12.2727
920.275
1172.13
-8.8604
1535.62
1131.82
-6.63071
1260.09
1074.57
-1.67762
1064.71
1021.18
-1.14935
692.874
1088.02
-0.723236
242.528
1069.53
12.2275
-374.99
858.257
24.9823
-841.817
592.366
41.0554
-881.282
374.168
63.0936
-691.21
219.167
119.773
-372.06
-11.6709
4.41049
-228.447
-184.698
-50.9772
820.755
-260.747
18.8279
1411.91
-1.1143
2009.93
1112.41
21.4252
917.323
1169.58
12.6436
1535.19
1128.19
8.37338
1262.19
1069.98
2.30262
1067.52
1015.49
3.31802
694.805
1080.34
4.1301
243.142
1058.84
-14.1678
-375.408
850.921
-32.0458
-841.675
595.037
-45.1455
-881.492
394.417
-56.2662
-695.638
271.901
-54.0147
-389.54
8.62962
21.3469
-282.485
-200.925
18.0541
752.74
-267.833
-13.8399
1430.86
3.33693
1977.52
1119.1
46.7319
920.757
1175.19
33.7457
1534.18
1134.35
19.92
1258.32
1076.88
4.87208
1063.36
1023.6
6.31432
692.13
1090.92
5.05979
242.336
1072.79
-39.7025
-374.971
860.275
-86.141
-841.757
594.269
-122.075
-880.357
379.411
-157.658
-690.974
250.975
-218.929
-374.337
6.11486
25.1231
-281.571
-186.908
100.507
792.803
-258.957
-42.3432
1408.54
8.86414
2012.31
1131.72
60.0109
921.18
1189.87
49.3029
1525.77
1150.22
26.137
1245.07
1095.14
6.47397
1050.51
1045.29
8.74484
683.082
1118.23
2.57854
237.129
1102.64
-60.5917
-379.01
874.884
-127.988
-845.524
579.68
-171.736
-879.417
318.024
-206.114
-678.632
90.8735
-265.661
-337.588
-72.1264
17.8034
-140.697
-164.562
111.995
986.169
-259.622
-45.4751
1398
8.47864
2024.65
1145.48
64.1954
914.93
1207.61
59.0781
1512.93
1167.84
30.5273
1229.41
1115.12
8.82645
1036.35
1069.74
10.8437
672.186
1147.67
-0.889003
228.214
1126.73
-76.7834
-388.825
878.07
-153.754
-851.361
554.02
-195.16
-876.247
246.417
-205.056
-663.557
-71.4859
-193.253
-301.593
-157.844
12.6275
210.203
-157.557
36.5181
1157.11
-265.923
-32.9382
1406.74
3.84583
2008.91
1156.92
63.2257
906.222
1223.33
64.6419
1500.14
1184.38
33.7011
1213.84
1134.94
11.5407
1021.7
1095.52
11.6654
659.784
1178.42
-4.32893
216.785
1148.87
-86.2869
-401.206
880.855
-164.977
-857.196
540.365
-203.189
-871.731
233.315
-202.583
-649.904
-45.0094
-154.862
-300.818
-128.403
16.6381
292.352
-157.797
-3.98114
1219.48
-266.653
-16.0968
1416.39
1.02355
1996.22
1170.79
56.5443
894.166
1241.75
67.7905
1485.58
1202.3
37.4637
1197.92
1156.09
14.4655
1006.63
1123.19
10.8061
646.268
1209.19
-6.91124
202.564
1167.56
-86.9124
-415.777
880.206
-162.649
-862.079
527.141
-199.421
-864.356
221.518
-197.262
-633.366
-34.2802
-130.247
-294.72
-108.735
25.3028
288.716
-156.532
-16.2139
1263.94
-268.649
6.6526
1409.79
-2.06677
1974.82
1179.34
47.6545
884.592
1256.63
64.6125
1472.47
1219.61
37.9157
1181.83
1177.44
16.6631
991.201
1150.23
9.51164
633.485
1240.05
-7.7067
191.537
1189.36
-74.1014
-426.374
882.029
-143.407
-866.957
509.332
-174.59
-859.616
190.307
-168.562
-617.782
-42.0464
-107.069
-275.461
-100.452
28.6958
351.904
-151.088
-13.6529
1290.09
-258.484
19.9882
1369.49
-2.12381
2019.87
1197.99
870.171
1287.74
1449.39
1253.18
1155.52
1218.34
964.478
1199.4
612.1
1294.42
173.408
1228.37
-445.432
888.113
-873.88
486.565
-846.853
156.46
-588.988
-51.4608
-231.348
-96.9621
418.482
-152.262
1245.93
-253.685
1326.37
2046.97
1536.21
-23.1054
438.544
1876.13
-85.8369
1133.78
2001.28
-75.3385
1042.5
2063.33
-55.4154
909.598
2056.02
-25.5605
617.869
1980.28
16.8639
234.838
1691.95
58.0382
-182.984
1207.17
88.9268
-425.452
686.408
106.616
-367.172
272.919
109.892
-209.488
-33.1369
20.1668
75.618
-147.002
-8.00454
525.382
-254.256
6.29644
1346.51
-409.159
-28.2698
1482.75
4.8214
1978.01
1529.54
-27.1433
445.311
1855.68
-91.7547
1154.77
1975.43
-77.3841
1067.03
2030.41
-53.2864
937.117
2018.56
-20.9782
643.808
1948.74
25.1551
256.213
1680.31
71.1419
-168.639
1221.02
103.878
-423.667
718.835
123.355
-378.393
314.06
121.143
-228.889
-10.5088
33.837
29.8335
-144.088
-4.26048
481.951
-254.755
12.8539
1390.3
-418.037
-14.5594
1516.56
6.60848
1946.86
1529.87
-32.7444
449.789
1850.29
-89.5124
1165.36
1965.12
-71.3721
1079.83
2015.42
-45.993
951.802
2000.54
-14.8523
657.747
1933.11
30.1009
267.808
1675.11
76.3512
-160.827
1228.83
109.335
-422.096
737.442
129.901
-383.084
335.311
126.596
-240.153
-7.0176
62.1807
16.3518
-156.363
-25.0309
463.291
-272.016
7.63738
1381.76
-440.295
14.7305
1546.79
-2.76379
1895.77
1525.01
-34.789
456.51
1838.15
-80.951
1180.78
1950.44
-63.8846
1096.69
1998.15
-39.0652
969.542
1981.64
-10.5122
674.27
1918.38
30.4487
281.923
1672.76
74.0054
-151.452
1239.97
106.05
-421.668
757.047
128.998
-390.702
351.61
133.398
-253.316
-9.75218
110.757
5.18635
-171.46
-35.4601
457.497
-271.654
-27.5943
1349.05
-435.918
39.121
1555.64
-12.3207
1917.89
1522.21
-35.6897
461.917
1829.49
-65.4285
1192.23
1937.63
-50.6539
1110.45
1981.61
-29.3449
984.821
1962.61
-6.06901
688.63
1901.87
26.9996
294.08
1667.05
64.1041
-142.746
1247.56
93.6093
-419.787
774.372
119.438
-395.782
358.494
147.883
-263.981
-29.8197
178.92
12.2689
-193.977
-74.2072
437.344
-269.37
-101.581
1310.14
-434.032
55.8116
1554.64
-20.0816
1927.64
1515.1
-30.2792
466.895
1814.7
-41.3188
1204.01
1919.2
-32.7554
1124.8
1960.32
-18.6729
1000.45
1939.34
-3.4132
702.714
1880.8
18.0676
305.548
1656.87
43.8913
-134.19
1255.19
66.3732
-416.824
803.54
89.836
-399.695
421.194
124.944
-273.356
102.465
183.221
-17.7227
-117.776
-155.109
211.066
-278.541
-126.625
1192.56
-425.674
46.3866
1559.38
-16.4365
1936.58
1502.15
-9.76448
469.481
1795.8
-11.4347
1212.09
1897.1
-9.86902
1135.91
1935.49
-5.82138
1013.47
1911.9
-1.11051
714.162
1853.02
5.45867
314.017
1636.16
13.9346
-128.172
1252.06
22.2899
-413.632
827.589
33.7929
-400.769
492.005
50.8578
-281.539
247.424
96.9175
-41.1717
-42.7671
-84.1507
-9.20919
-303.182
-74.4535
1029
-424.39
15.6654
1563.84
-3.87735
1920.47
1496.23
17.4252
469.727
1789.08
17.6552
1213.26
1889.69
13.7777
1137.94
1927.51
7.62873
1016.25
1903.07
1.60318
716.534
1843.35
-7.08528
315.402
1627.29
-17.946
-127.464
1248.36
-27.304
-413.144
833.899
-32.3944
-400.848
515.756
-41.7584
-284.877
307.53
-32.867
-51.5258
-7.2769
32.3963
-84.2215
-322.649
22.4069
971.254
-436.388
-11.5115
1571.78
7.27704
1882.09
1506.03
32.8306
468.761
1800.66
46.8469
1210.36
1901.88
36.8813
1134.01
1939.95
21.279
1011.65
1916.12
4.72456
712.834
1856.91
-18.7719
313.239
1638.95
-46.3946
-128.566
1253.16
-69.7714
-413.499
829.554
-89.4282
-399.716
498.227
-120.667
-280.736
291.203
-162.288
-37.8884
-5.26558
133.717
-86.4183
-302.372
122.855
989.464
-419.815
-45.1955
1559.67
22.2028
1924.55
1516.72
36.7577
465.779
1817.46
69.7702
1202.12
1922.44
54.3658
1122.61
1963.8
32.2154
998.224
1942.9
7.88001
700.825
1884.09
-27.0447
304.213
1659.32
-65.8093
-134.829
1256.86
-96.4969
-416.337
807.733
-121.812
-397.903
433.426
-153.824
-271.164
137.313
-186.435
-17.3244
-92.9252
93.1257
130.139
-277.665
129.72
1164.05
-419.132
-59.4485
1553.73
27.7187
1944.84
1523.19
35.5381
460.461
1831.45
84.4257
1190.01
1940.27
67.0106
1107.95
1984.8
41.8194
982.211
1966.08
12.5186
686.274
1904.95
-30.0026
292.303
1669.04
-75.1496
-143.572
1248.6
-108.426
-418.996
776.283
-132.232
-393.508
358.569
-138.587
-261.078
-35.826
-114.717
21.0884
-198.723
45.7585
420.472
-267.962
48.751
1307.32
-431.357
-43.1997
1553.89
17.8091
1935.02
1525.91
33.219
454.88
1840.06
92.1882
1178.23
1953.04
73.9625
1093.91
2001.39
48.5386
966.633
1985.21
16.8895
671.596
1921.42
-29.319
279.892
1674.39
-76.9833
-152.338
1240.48
-111.089
-420.625
756.99
-132.452
-388.017
345.124
-125.671
-250.95
-28.89
-61.8845
20.3733
-185.617
14.3349
480.51
-270.226
-1.90338
1354.74
-433.461
-16.986
1553.41
5.36209
1926.15
1530.77
27.396
448.022
1852.23
93.7466
1162.57
1967.78
79.514
1076.83
2018.75
55.577
948.616
2004.19
22.9511
654.764
1936.09
-24.164
265.518
1676.45
-71.3531
-161.772
1229.38
-105.328
-420.766
738.282
-125.713
-379.994
337.65
-121.512
-236.888
-7.06679
-33.8446
21.9676
-156.936
-3.85028
456.778
-271.297
-9.27501
1385.68
-437.539
12.4053
1546.64
-5.72312
1903.41
1530.37
23.2235
443.475
1857.59
87.1601
1151.85
1978.09
76.9589
1063.89
2033.79
57.3319
933.75
2022.26
27.3391
640.623
1951.64
-15.7761
253.772
1681.41
-57.919
-169.581
1221.19
-89.966
-422.091
719.279
-108.559
-374.856
315.012
-110.22
-224.8
-10.6312
-21.7666
38.1158
-144.858
0.608435
481.68
-254.341
-4.30081
1394.6
-415.076
26.3643
1516.26
-4.03685
1952.57
1537.05
436.677
1878.04
1130.82
2003.92
1039.34
2066.66
906.144
2059.62
614.522
1982.88
232.219
1692.48
-183.938
1206.7
-423.592
686.643
-363.124
274.094
-204.3
-32.3521
83.7251
-146.432
526.485
-254.117
1352.04
-406.736
1483.92
1983.16
1500.82
-4.46202
291.464
1844.83
-56.1996
804.595
2060.88
-70.852
836.752
2192.79
-70.2527
784.767
2198.99
-52.8793
612.164
2053.83
-25.2433
371.897
1704.18
2.29375
151.207
1223.22
32.0269
33.654
719.678
66.1534
108.949
313.624
94.5225
171.448
-37.4192
21.2056
433.945
-213.951
23.4454
691.118
-389.407
-12.044
1521.3
-560.261
-35.246
1662.71
12.1219
1871.61
1499.08
-4.38337
292.56
1840.57
-60.278
817.369
2056.89
-74.4001
854.267
2189.31
-71.2507
805.694
2197.83
-50.2569
632.666
2060.28
-19.3906
387.916
1722.67
10.9891
160.275
1255.03
41.948
34.0447
763.409
79.1457
100.241
370.552
99.6849
158.807
-2.45668
27.8673
396.183
-209.873
32.4216
680.393
-407.27
4.90474
1570.75
-581.546
-26.0481
1681.64
11.1165
1832.39
1501.79
-6.69979
293.405
1844.71
-60.6882
822.863
2060.01
-71.1735
861.308
2191.52
-65.6355
814.686
2200.6
-43.326
641.731
2066.3
-12.1702
394.891
1734.23
18.4456
163.787
1271.58
49.1041
33.3913
785.199
86.5345
95.9142
387.87
103.636
153.226
-17.5655
59.2252
390.432
-237.63
12.8347
702.944
-433.938
11.2267
1571.75
-608.779
4.09076
1691.5
-12.7224
1784.36
1501.28
-6.92941
294.839
1843.69
-55.3323
833.021
2059.33
-64.641
874.517
2191.73
-58.3297
829.845
2203.07
-36.484
656.085
2073.95
-6.99267
405.867
1749.56
21.7488
169.636
1293.55
50.5604
32.8808
811.027
88.5154
89.8434
407.004
108.97
145.375
-19.7575
105.498
385.677
-251.893
-22.7147
725.185
-428.924
-26.77
1564.08
-598.249
29.2546
1699.8
-30.9973
1806.05
1503.02
-8.32606
296.198
1846.25
-45.9991
839.683
2060.76
-51.9843
883.287
2192.3
-45.633
840.594
2204.37
-26.6432
666.711
2078.95
-1.56922
414.077
1760.94
22.9742
174.041
1310.65
48.5289
32.5403
831.49
86.5948
85.2982
404.186
132.302
139.993
-63.6476
188.629
396.974
-293.304
-99.4797
743.768
-441.48
-119.623
1551.17
-607.633
38.8961
1711.16
-50.2035
1801.78
1502.57
-8.5308
297.655
1844.02
-30.427
847.003
2056.9
-33.6037
893.548
2187.62
-29.128
853.226
2200.64
-16.1137
679.169
2079.54
1.08057
423.993
1769.74
18.2981
180.288
1330.18
37.1818
34.0819
866.254
69.0478
81.7814
468.421
121.834
134.946
42.3291
229.573
367.427
-250.118
-163.754
567.791
-468.319
-191.407
1482.55
-612.25
24.3214
1717.88
-56.0606
1787.97
1498.6
-3.14871
299.234
1836.52
-8.7883
852.538
2047
-9.61977
901.45
2176.28
-8.37866
863.447
2189.3
-4.40162
689.422
2071.27
1.04068
432.092
1768.7
7.04812
185.65
1341.63
14.3929
36.2245
900.348
29.1061
80.4569
557.128
54.3107
129.205
250.765
135.271
359.496
-92.3699
-83.2414
253.418
-469.012
-133.151
1347.39
-594.102
5.16225
1708.09
-22.7116
1755.41
1495.72
5.80691
299.75
1831.8
14.1265
854.274
2041.53
14.7031
903.895
2170.49
12.2748
866.644
2183.52
6.52102
692.575
2066.22
-0.744653
434.49
1765.78
-7.30683
187.326
1343.81
-13.9431
37.1687
912.339
-20.8077
80.5374
592.134
-36.3048
125.945
351.333
-36.8541
361.402
6.50206
34.9184
142.455
-472.604
35.9251
1281.29
-595.28
0.35377
1699.26
27.8126
1707.42
1500.21
8.92048
298.563
1839.05
34.4215
851.227
2049.76
38.1153
899.895
2178.88
33.0197
861.783
2191.48
18.7548
688.003
2072.67
0.184927
431.118
1769.14
-17.4985
185.156
1341.79
-36.4143
36.3164
904.218
-64.2506
81.3056
571.492
-113.617
129.303
334.582
-206.516
368.687
2.50898
140.108
140.47
-464.355
192.008
1300.25
-588.246
-17.8311
1701.75
67.4284
1757.25
1502.75
8.46356
297.102
1844.54
49.0302
845.729
2057.76
55.6694
891.84
2188.66
49.1058
851.234
2201.62
29.2932
677.331
2080.18
3.13963
422.694
1770.13
-22.0315
179.756
1331.23
-48.3651
34.5185
872.427
-86.7644
83.4116
490.473
-140.155
137.33
101.495
-209.839
374.979
-200.76
135.247
437.257
-467.673
171.128
1451.84
-606.516
-36.2617
1711
62.7788
1797.93
1502.93
7.16712
295.526
1846.08
57.8113
838.092
2060.8
67.6078
881.305
2192.52
61.2615
838.332
2204.59
38.8916
664.603
2078.88
8.55517
412.6
1760.71
-20.9588
173.529
1310.68
-50.6229
33.2909
833.559
-90.4081
87.2597
404.39
-115.971
143.909
-70.8565
-118.301
404.801
-302.312
54.1025
733.075
-442.383
65.0522
1553.47
-606.94
-30.1192
1712.31
38.3444
1812.86
1501.24
6.88148
294.152
1843.48
62.6213
831.199
2059.21
73.4968
872.298
2191.7
68.053
827.352
2202.95
45.4406
653.792
2073.44
13.6493
404.308
1748.7
-17.7359
169.177
1292.69
-49.0675
33.8338
809.795
-87.7106
92.1795
395.11
-100.801
148.566
-48.6585
-58.5118
404.354
-269.009
-2.45212
757.416
-421.257
0.75351
1571.29
-592.026
-4.86924
1698.93
17.1977
1822
1501.79
4.48698
292.684
1844.48
61.7041
820.803
2059.79
76.1846
858.837
2191.31
73.208
811.941
2200.22
52.0715
639.228
2065.42
20.7466
393.221
1732.89
-10.3176
163.34
1270.63
-42.0881
34.5218
784.917
-80.2794
98.2865
389.355
-98.3294
156.205
-16.2303
-28.0323
397.078
-234.876
-33.3706
706.346
-427.942
0.345284
1579.15
-602.493
24.6431
1691.68
-7.24284
1798.67
1499.05
4.5358
291.824
1840.27
57.1455
815.199
2056.56
72.109
851.688
2188.96
71.7267
802.829
2197.25
54.3365
630.067
2059.14
26.4128
386.22
1721.07
-1.7207
159.896
1253.74
-32.2092
35.3592
762.804
-67.1204
102.927
369.697
-92.4114
162.394
-5.58256
-19.1154
404.486
-209.855
-25.6569
678.243
-402.114
13.6215
1573.59
-575.242
33.6841
1680.35
-7.51089
1844.45
1500.86
290.716
1844.56
802.333
2060.49
834.083
2192.26
781.806
2198.1
609.474
2052.25
370.158
1702.05
150.855
1221.47
35.1377
719.254
111.75
314.987
175.69
-36.5113
440.42
-212.195
688.378
-384.129
1524.62
-553.205
1661.22
1885.78
1490.66
-2.44225
295.879
1659.79
-26.3901
642.809
1808.57
-41.3946
694.443
1904.45
-49.8658
694.54
1891.19
-48.2874
628.492
1742.87
-35.5079
518.561
1455.71
-15.9037
431.353
1090.15
10.1107
386.442
675.166
43.3673
504.944
286.874
70.4516
542.105
-121.186
3.81838
858.565
-278.587
31.4699
850.749
-560.522
-35.6887
1802.73
-723.417
-47.817
1829.96
40.8068
1731.84
1488.21
-1.8859
296.159
1658.07
-27.4452
648.578
1810.61
-43.2002
703.543
1911.63
-51.2217
706.029
1903.58
-47.7687
640.2
1761.11
-32.9371
527.813
1479.82
-10.982
436.638
1120.99
16.2401
386.753
712.873
53.8615
497.861
338.288
72.6774
531.167
-90.1458
-1.4898
829.925
-280.718
26.9355
875.5
-581.404
-13.0802
1848.83
-737.066
-37.4762
1826.96
34.4553
1710.49
1489.46
-3.05031
296.358
1662.32
-28.1514
650.718
1816.42
-42.2159
706.23
1919.17
-48.7938
709.511
1913.12
-43.804
643.823
1772.83
-28.1484
530.388
1493.76
-5.55094
437.424
1136.14
21.8524
385.396
731.644
60.6006
493.677
351.93
77.532
528.086
-114.88
25.0909
830.661
-317.2
43.22
888.981
-596.331
-10.347
1848.15
-746.315
-34.5725
1838.58
9.68844
1683.05
1488.09
-2.66628
296.696
1662.5
-25.0281
655.497
1819.53
-38.2572
713.536
1926.05
-44.1095
718.639
1923.97
-38.562
652.928
1787.84
-23.6175
537.465
1512.87
-2.24683
441.298
1158.14
24.0097
385.453
755.049
64.4422
489.095
367.095
87.9243
522.937
-129.581
76.1516
831.293
-349.787
14.8157
973.796
-611.487
-72.9582
1888.39
-756.004
-56.4696
1866.22
-21.2918
1696
1488.88
-3.12086
296.974
1666.24
-20.941
658.246
1825.06
-31.2012
717.418
1933.49
-35.5682
723.623
1933.7
-30.0798
658.016
1800.06
-17.1419
541.24
1527.88
1.16294
442.817
1175.14
24.9075
384.379
773.659
66.3377
484.886
363.164
118.101
520.312
-178.48
173.22
841.55
-398.466
-42.0771
1020.65
-649.956
-172.837
1902.54
-796.58
-56.0455
1857.36
-97.1915
1681.92
1488.58
-3.06419
297.286
1667.33
-14.1482
661.473
1827.71
-20.6255
722.599
1938.2
-23.439
730.606
1941.17
-19.29
665.414
1810.9
-10.2557
547.37
1543.22
2.57066
446.564
1196.58
20.5309
385.095
807.202
55.9944
481.506
428.64
118.199
513.411
-109.42
250.724
827.983
-393.314
-65.765
875.374
-682.912
-263.633
1862.94
-813.895
-28.0531
1820.87
-146.766
1613.58
1487.95
-1.52848
297.743
1666.94
-4.3431
663.755
1827.6
-5.97239
726.15
1938.75
-6.78652
735.639
1943.34
-5.39146
670.939
1815.52
-2.35637
552.014
1551.95
2.36485
449.424
1213.31
9.69553
385.697
844.382
26.2957
479.087
531.976
57.0679
502.743
144.917
167.6
829.681
-182.656
-18.5381
533.767
-668.736
-190.757
1760.6
-772.352
-13.4595
1797.11
-68.3022
1508.88
1486.67
1.98022
297.873
1664.72
7.06645
664.825
1825.18
9.58206
727.882
1936.42
10.5271
738.092
1941.53
8.45536
673.623
1814.66
4.64918
554.35
1552.94
0.263904
451.143
1218.57
-5.34658
386.585
858.992
-12.457
478.868
571.824
-26.9426
497.125
307.511
-38.434
831.749
-1.59746
24.6999
408.328
-648.288
57.4869
1679.73
-745.745
0.0164483
1783.25
89.2416
1428.64
1488.17
3.19018
297.363
1667.24
16.0767
663.158
1827.78
23.5115
725.433
1938.64
26.6358
734.812
1942.71
22.2235
670.17
1814.4
12.6586
551.421
1550.7
-0.0271838
449.14
1213.22
-17.281
385.734
849.857
-47.2957
479.509
553.245
-101.807
500.781
274.463
-226.43
835.465
-19.3091
37.6649
421.281
-641.931
271.512
1708.84
-756.664
26.6315
1789.86
180.476
1510.59
1488.61
3.24593
296.998
1667.16
22.4805
660.784
1827.42
33.4845
721.613
1937.76
38.1598
729.368
1940.5
32.6083
664.202
1810.13
19.2722
546.453
1542.93
0.79589
446.132
1198.17
-23.2391
385.247
816.595
-64.6315
482.319
465.027
-125.345
512.439
-18.4791
-208.236
840.292
-304.162
57.9959
702.611
-661.035
243.805
1836.42
-800.248
72.058
1804.79
131.51
1631.07
1488.87
2.85294
296.626
1665.74
26.3743
657.338
1824.25
40.0892
716.193
1932.46
46.1526
722.136
1932.53
40.583
656.557
1798.94
25.3035
540.151
1527.41
3.55983
442.298
1175.89
-23.1161
384.687
778.107
-65.5017
485.918
370.977
-97.0367
522.731
-181.745
-98.5949
847.883
-405.924
19.8381
995.413
-646.441
127.379
1910.41
-802.68
81.3332
1859.27
30.6213
1706.25
1488.21
3.18876
296.313
1662.07
29.2861
654.442
1818.64
43.6676
712.148
1924.78
50.3788
716.993
1922.45
45.367
651.341
1786.33
29.4194
536.311
1511.92
6.37352
440.774
1158
-21.2469
385.891
755.52
-61.2903
490.452
356.582
-75.6692
526.141
-157.272
-27.3682
846.985
-363.922
-20.2852
1004.19
-602.39
34.2296
1902.91
-755.425
52.0466
1881.25
-14.0997
1723.09
1489.64
1.96297
295.949
1661.95
28.3071
649.484
1815.54
44.3005
704.627
1917.79
52.421
707.649
1911.37
48.9567
642.056
1771.02
33.8743
529.121
1492.38
11.5072
436.849
1135.81
-16.0239
385.869
732.17
-54.2335
494.875
351.811
-69.6835
530.583
-119.476
5.06767
835.934
-319.65
-29.9178
916.156
-588.793
20.8248
1861.7
-742.673
46.4487
1851.16
-41.5939
1702.37
1488.39
2.505
295.733
1657.67
26.9888
647.252
1809.67
42.1539
701.841
1910.16
50.6949
704.066
1901.73
49.1095
638.354
1759.18
36.1304
526.515
1478.37
16.1251
436.081
1120.55
-10.1503
387.315
714.118
-44.053
499.183
339.493
-66.589
533.928
-89.1341
0.806685
837.378
-273.261
-25.3659
857.822
-569.453
42.288
1848.32
-728.474
55.0648
1830.76
-45.5295
1727.32
1490.91
295.438
1659.46
641.384
1807.65
692.619
1902.9
692.448
1889.17
626.525
1740.71
517.167
1453.98
430.726
1089.52
387.032
676.655
506.071
291.18
545.071
-114.314
861.565
-267.107
831.523
-540.725
1796.29
-707.544
1834.07
1757.22
1559.89
-2.25216
304.717
1614.42
-12.9257
591.989
1665.62
-19.297
646.065
1683.68
-24.067
678.666
1635.49
-25.7128
677.69
1499.95
-20.1627
652.396
1269.73
-7.95036
656.128
974.659
11.3515
671.768
629.947
38.5378
834.198
282.58
52.7875
872.855
-133.123
7.33663
1286.6
-212.081
-7.35932
952.43
-656.887
2.06808
2263.1
-803.592
-52.2999
1978.22
39.4793
1700.37
1557.8
-1.97433
305.131
1611.68
-12.96
594.741
1665.12
-19.4881
650.302
1687.28
-24.1076
683.914
1643.54
-24.9606
683.195
1512.63
-18.3349
656.887
1286.92
-4.16504
658.562
996.616
16.8182
671.593
653.701
50.5876
828.728
307.879
65.4363
864.341
-129.302
6.10548
1268.34
-237.795
-25.3856
1002.02
-606.958
-5.88033
2225.95
-742.485
-72.516
1982.71
90.3743
1719.07
1558.3
-2.77343
305.335
1613.78
-13.3893
595.678
1668.44
-19.1575
651.247
1692.22
-23.1812
684.808
1650.3
-23.1508
683.937
1521.09
-15.8059
657.061
1297.19
-0.577125
657.736
1008.22
21.3502
669.837
670.959
57.236
824.292
325.223
78.1477
861.111
-123.448
19.3877
1266.05
-253.78
15.4399
978.489
-669.837
63.6539
2194.67
-814.32
-164.488
2075.03
25.8976
1735.1
1556.85
-2.547
305.753
1612.43
-11.4405
597.978
1668.97
-16.8723
654.72
1695.94
-20.6964
689.185
1657.55
-20.353
688.527
1531.86
-13.466
660.812
1311.49
1.34613
659.739
1025.75
22.8479
669.696
689.673
61.8951
820.519
342.475
91.8397
856.444
-157.819
87.598
1263.38
-312.723
40.1102
1104.03
-725.81
53.4007
2311.73
-927.754
-215.632
2119.31
-218.784
1776.82
1556.87
-2.77166
306.028
1613.95
-9.38437
599.13
1671.96
-13.6293
656.168
1700.9
-16.8224
690.815
1664.73
-16.2194
690.047
1541.1
-10.2601
661.659
1323.1
2.844
659.325
1039.9
22.4834
667.939
707.194
63.428
816.064
353.63
112.383
853.334
-190.684
213.432
1260.03
-357.361
49.1612
1178.27
-638.862
-114.105
2351.55
-896.811
-148.597
2048.27
-423.115
1714.34
1556.08
-2.42626
306.38
1613.69
-6.12867
600.614
1673.17
-8.93555
658.434
1704.39
-11.2489
693.811
1670.99
-10.7163
693.312
1550.25
-6.58143
664.433
1335.95
2.85748
660.846
1058.08
17.8527
667.604
737.122
53.3074
812.581
411.811
106.761
844.344
-101.842
294.924
1260.14
-328.6
111.269
1040.03
-565.215
-317.863
2303.32
-765.189
-66.9782
1939.23
-375.508
1540.07
1555.75
-1.5468
306.677
1614.14
-2.12144
601.368
1674.56
-2.68999
659.492
1707.06
-3.37373
695.265
1675.43
-3.06037
694.915
1556.61
-1.44605
665.695
1345.33
2.35311
661.21
1073.57
8.77154
666.538
771.615
25.4745
808.877
498.03
51.5043
831.584
185.391
181.83
1255.42
-59.2538
94.2278
795.454
-637.46
-187.524
2208.46
-792.54
-23.8833
1909.1
-192.12
1323.48
1554.52
1.03284
306.847
1612.25
3.0504
601.932
1672.79
4.30268
660.359
1705.67
5.29094