/*--------------------------------*- C++ -*----------------------------------*\
| =========                 |                                                 |
| \\      /  F ield         | OpenFOAM: The Open Source CFD Toolbox           |
|  \\    /   O peration     | Version:  4.1                                   |
|   \\  /    A nd           | Web:      www.OpenFOAM.org                      |
|    \\/     M anipulation  |                                                 |
\*---------------------------------------------------------------------------*/
FoamFile
{
    version     2.0;
    format      ascii;
    class       volVectorField;
    location    "12";
    object      U;
}
// * * * * * * * * * * * * * * * * * * * * * * * * * * * * * * * * * * * * * //

dimensions      [0 1 -1 0 0 0 0];

internalField   nonuniform List<vector> 
6750
(
(11.7803 -0.0848199 14.107)
(0.812506 -0.0292731 16.7817)
(5.47739 -0.00967418 11.8631)
(2.35665 0.00931315 9.87586)
(2.96921 -0.0553156 6.00521)
(1.47525 -0.217804 3.08052)
(2.60548 0.266326 -6.38455)
(0.489841 1.00172 -15.1192)
(-2.51649 1.03368 -14.8095)
(-3.39656 0.808057 -10.1506)
(-3.51733 0.400714 -3.69997)
(-0.734515 -0.18941 5.01194)
(-0.966944 0.0365633 13.4911)
(-0.035985 -0.0421534 13.2008)
(-3.03588 0.0026258 23.194)
(11.6021 -0.142295 14.278)
(0.719771 -0.0424553 17.081)
(5.37799 -0.0222612 12.2469)
(2.2417 0.00757301 10.1318)
(2.89009 -0.108577 6.0858)
(1.26163 -0.352486 3.03433)
(2.02106 0.385994 -6.19115)
(0.154817 1.47358 -14.957)
(-2.47725 1.56362 -14.9521)
(-3.21936 1.17388 -10.653)
(-3.44525 0.525346 -4.6274)
(-0.867091 -0.386651 4.28147)
(-0.920867 0.0764596 14.0124)
(-0.0527761 -0.0510533 13.8965)
(-3.06183 0.00579738 22.9076)
(11.4909 -0.135368 14.3856)
(0.670436 -0.0310135 17.2288)
(5.32647 -0.0236398 12.445)
(2.18661 -0.000250943 10.2486)
(2.83762 -0.13038 6.13866)
(1.09181 -0.34511 3.03427)
(1.67881 0.39213 -6.21755)
(-0.00614665 1.40152 -14.8732)
(-2.26262 1.52728 -15.0715)
(-2.80367 1.19137 -11.1084)
(-3.19439 0.522714 -5.43989)
(-1.02664 -0.40925 3.56262)
(-0.931392 0.0647322 13.5575)
(-0.0660875 0.00832448 14.4501)
(-3.12428 0.00624303 22.4318)
(11.3622 -0.137414 14.4835)
(0.627655 -0.0367656 17.3723)
(5.28574 -0.0288086 12.6412)
(2.13463 -0.00277015 10.3692)
(2.7756 -0.147665 6.21201)
(0.883588 -0.367068 3.09446)
(1.36718 0.396149 -6.07382)
(-0.0534739 1.4243 -14.7493)
(-2.08398 1.55642 -15.1772)
(-2.49628 1.2262 -11.4469)
(-3.04089 0.560841 -5.85078)
(-1.07563 -0.380075 3.36553)
(-0.943228 0.0367845 12.9104)
(-0.0729032 0.0564139 14.5024)
(-3.09719 0.00646348 22.6831)
(11.2707 -0.112927 14.5286)
(0.594744 -0.0452013 17.5221)
(5.24899 -0.0336661 12.8309)
(2.09263 -0.00173693 10.4748)
(2.72488 -0.126368 6.27196)
(0.697896 -0.333755 3.10398)
(0.977939 0.285533 -5.97883)
(-0.170717 1.19775 -14.6284)
(-1.95701 1.37356 -15.2434)
(-2.22873 1.14075 -11.6769)
(-3.02234 0.447396 -6.01497)
(-1.50624 -0.526564 2.93249)
(-0.952676 0.0168756 12.2122)
(-0.0803378 0.0898313 14.3504)
(-3.0902 0.00714808 22.8192)
(11.2068 -0.0794194 14.5177)
(0.573626 -0.0548462 17.7119)
(5.2133 -0.0379378 13.0506)
(2.05879 -0.000543062 10.5835)
(2.68499 -0.0939786 6.32752)
(0.562745 -0.277619 3.11518)
(0.576753 0.196771 -5.94589)
(-0.381218 0.907692 -14.5052)
(-1.85882 1.14355 -15.2618)
(-1.84942 1.15544 -11.9047)
(-2.68874 0.859296 -6.66174)
(-2.38493 -0.0193578 0.388055)
(-1.01044 -0.23811 10.4434)
(-0.0825149 0.124713 14.2673)
(-3.08354 -0.00355145 22.9854)
(11.2232 -0.0326293 14.387)
(0.58634 -0.0420314 17.883)
(5.18028 -0.0315158 13.283)
(2.03386 -0.00247742 10.7049)
(2.65513 -0.0462712 6.38141)
(0.465439 -0.152313 3.12349)
(0.216819 0.0870483 -6.13336)
(-0.745356 0.450189 -14.425)
(-1.8413 0.648678 -15.2577)
(-1.29684 0.814411 -12.2896)
(-1.26751 0.94735 -8.14319)
(-0.515881 0.480207 -5.30453)
(-1.37891 -0.356829 7.90676)
(0.0040431 0.104663 14.3415)
(-3.113 -0.00723382 22.9177)
(11.2593 0.00524738 14.2924)
(0.605275 0.00340687 17.9078)
(5.17196 0.00367431 13.3547)
(2.02646 0.00191893 10.7531)
(2.64269 0.00889741 6.40846)
(0.438208 0.0227948 3.13831)
(0.108768 -0.00330526 -6.23775)
(-0.928184 -0.0439544 -14.4083)
(-1.89494 -0.0320179 -15.2429)
(-1.20212 0.0422483 -12.4476)
(-0.69221 0.212317 -8.58956)
(0.380843 0.297798 -6.64556)
(-1.57689 -0.0960473 6.80487)
(0.0226257 0.00884619 14.5752)
(-3.16647 -2.1541e-05 22.6064)
(11.2182 0.0435245 14.4147)
(0.580976 0.0449302 17.8544)
(5.18275 0.035988 13.2533)
(2.03408 0.00620678 10.6948)
(2.65716 0.0616678 6.3752)
(0.478125 0.188256 3.10897)
(0.256337 -0.0929525 -6.1096)
(-0.697509 -0.526924 -14.4312)
(-1.83792 -0.679312 -15.2413)
(-1.29173 -0.7044 -12.296)
(-1.0468 -0.560761 -8.34274)
(0.151126 0.160081 -6.5021)
(-1.44913 0.262708 7.71444)
(0.0282514 -0.0932435 14.315)
(-3.11377 0.00764639 22.9335)
(11.2139 0.0893676 14.5287)
(0.574038 0.05408 17.6824)
(5.21754 0.0404213 13.0231)
(2.06177 0.00476059 10.5731)
(2.68954 0.106483 6.31897)
(0.577733 0.301552 3.10092)
(0.625995 -0.206231 -5.94636)
(-0.332855 -0.980881 -14.5076)
(-1.81864 -1.19037 -15.2451)
(-1.68995 -1.19435 -11.9747)
(-2.16027 -0.938641 -7.4543)
(-1.88688 0.175353 -2.63535)
(-1.09682 0.320906 10.3167)
(-0.0539265 -0.127479 14.2354)
(-3.08428 0.00889238 23.0123)
(11.2839 0.120771 14.5327)
(0.597692 0.0441817 17.4958)
(5.25531 0.0365293 12.8023)
(2.0985 0.00640569 10.4601)
(2.73197 0.137105 6.25954)
(0.715947 0.350856 3.08857)
(1.02971 -0.3015 -6.00468)
(-0.137216 -1.26961 -14.6332)
(-1.92963 -1.44935 -15.2203)
(-2.16166 -1.26871 -11.6618)
(-2.97022 -0.685165 -6.08742)
(-1.74348 0.355931 2.32209)
(-0.972051 0.0593312 12.1937)
(-0.0834227 -0.0985357 14.3686)
(-3.09293 -0.00172323 22.8335)
(11.3806 0.143759 14.4801)
(0.632053 0.0356517 17.3478)
(5.29404 0.0314162 12.6115)
(2.14306 0.00753825 10.3506)
(2.78484 0.15684 6.19504)
(0.904676 0.378318 3.07433)
(1.4179 -0.416804 -6.11525)
(-0.0305196 -1.48946 -14.7556)
(-2.06058 -1.62831 -15.1458)
(-2.46172 -1.30792 -11.4056)
(-3.00129 -0.669746 -5.79056)
(-1.15994 0.291609 3.38223)
(-0.960056 -0.0368851 12.9531)
(-0.0725201 -0.0638618 14.5322)
(-3.09928 -0.00436814 22.6986)
(11.5127 0.140031 14.3775)
(0.676153 0.0304226 17.2065)
(5.33666 0.0260733 12.4142)
(2.19719 0.00447451 10.2259)
(2.84832 0.137574 6.11753)
(1.11665 0.352758 3.00871)
(1.72556 -0.413608 -6.26951)
(0.00341367 -1.46245 -14.8795)
(-2.26018 -1.60088 -15.0224)
(-2.80867 -1.2976 -11.0245)
(-3.1514 -0.675489 -5.34674)
(-1.02819 0.341338 3.63618)
(-0.943071 -0.0621643 13.5853)
(-0.0667638 -0.015575 14.4983)
(-3.12635 -0.00449373 22.4444)
(11.6263 0.14585 14.2664)
(0.72666 0.0424683 17.0594)
(5.38999 0.024609 12.2143)
(2.25405 -0.00350665 10.1057)
(2.90235 0.114029 6.06126)
(1.28915 0.357015 3.00428)
(2.06708 -0.405738 -6.25201)
(0.155138 -1.52547 -14.9652)
(-2.49724 -1.62365 -14.8892)
(-3.25384 -1.25873 -10.526)
(-3.44085 -0.630852 -4.45465)
(-0.857887 0.355647 4.34173)
(-0.932992 -0.0790013 14.041)
(-0.0524183 0.0443789 13.9612)
(-3.0638 -0.00490178 22.9129)
(11.8056 0.0865352 14.094)
(0.820496 0.0295317 16.7632)
(5.49098 0.0110509 11.8305)
(2.3713 -0.00698479 9.84609)
(2.98311 0.0580816 5.977)
(1.50416 0.220521 3.04465)
(2.64707 -0.278591 -6.45984)
(0.479977 -1.03502 -15.1294)
(-2.54673 -1.07242 -14.7358)
(-3.43664 -0.871025 -9.99394)
(-3.51191 -0.489823 -3.47859)
(-0.717035 0.171146 5.064)
(-0.977146 -0.0371065 13.5233)
(-0.0342738 0.0387674 13.2879)
(-3.03743 -0.00184765 23.1981)
(24.2775 -0.184506 12.7464)
(11.2874 -0.279311 17.7621)
(14.8957 -0.176677 13.2592)
(13.7967 -0.0775599 10.8987)
(13.3618 -0.0423268 7.07278)
(13.5076 0.024221 2.62928)
(15.1551 0.293804 -4.95331)
(12.786 0.577261 -11.2652)
(7.53498 0.708342 -11.9781)
(3.50783 0.69816 -9.21621)
(-0.261242 0.450919 -5.35615)
(-0.671366 -0.188848 3.80779)
(-2.26347 0.0473864 13.482)
(0.211576 -0.105587 14.1)
(-8.69004 0.00912513 23.1136)
(24.1936 -0.316662 12.9319)
(10.8822 -0.412504 18.014)
(14.5976 -0.231677 13.5462)
(13.3564 -0.0875198 11.1685)
(12.8847 -0.0493195 7.24325)
(12.8893 0.057555 2.76527)
(14.5412 0.507733 -4.71251)
(12.5098 0.944684 -11.1257)
(7.66679 1.13801 -12.0771)
(3.865 1.09161 -9.50129)
(0.153633 0.601565 -5.76416)
(-0.825291 -0.268527 2.92994)
(-2.20896 0.107093 14.0015)
(0.166247 -0.124304 14.6734)
(-8.75169 0.0174885 22.8168)
(24.1357 -0.324329 13.0497)
(10.6971 -0.346242 18.1601)
(14.4488 -0.176714 13.7229)
(13.1287 -0.0555993 11.3187)
(12.6361 -0.0488842 7.34708)
(12.5403 0.0370573 2.85413)
(14.2017 0.469973 -4.5881)
(12.3559 0.870616 -11.0431)
(7.75818 1.06638 -12.0926)
(4.13665 1.07493 -9.60566)
(0.547784 0.706928 -5.84162)
(-0.994738 -0.274507 2.08152)
(-2.26466 0.083147 13.6139)
(0.0828036 0.0189712 15.1596)
(-8.90249 0.00699904 22.3277)
(24.0407 -0.362279 13.1806)
(10.4436 -0.352542 18.2978)
(14.2844 -0.179932 13.8785)
(12.9052 -0.0497233 11.454)
(12.3915 -0.0555227 7.45585)
(12.1765 0.0216586 2.98733)
(13.8774 0.472437 -4.39249)
(12.2535 0.910009 -10.9407)
(7.86971 1.12239 -12.1265)
(4.31569 1.11655 -9.71103)
(0.743012 0.846805 -5.828)
(-1.23871 -0.222666 2.03556)
(-2.30858 -0.0176746 13.0076)
(0.0916773 0.129733 15.2323)
(-8.83175 -0.00539729 22.5694)
(23.9666 -0.340475 13.2592)
(10.2423 -0.290034 18.4305)
(14.134 -0.145109 14.0428)
(12.6957 -0.0290589 11.5904)
(12.1651 -0.0408737 7.55481)
(11.8381 0.00422392 3.08309)
(13.5305 0.379034 -4.23319)
(12.1047 0.765954 -10.8361)
(7.94846 1.00113 -12.1378)
(4.51744 1.10766 -9.82882)
(0.808794 1.08038 -5.77318)
(-1.7562 -0.291458 1.37516)
(-2.35746 -0.280561 12.3438)
(0.121355 0.206296 15.1051)
(-8.81074 -0.0166569 22.709)
(23.8972 -0.297737 13.2914)
(10.0102 -0.230184 18.5662)
(13.9601 -0.126371 14.2121)
(12.4805 -0.0235077 11.7218)
(11.9431 -0.0296544 7.63681)
(11.5296 -0.0139808 3.14626)
(13.1814 0.2839 -4.11336)
(11.9192 0.59796 -10.7353)
(8.04911 0.847543 -12.1284)
(4.90827 1.09869 -9.94456)
(1.70937 1.54576 -5.90933)
(-0.36912 0.0276747 -3.46575)
(-2.62069 -0.675607 10.4491)
(0.240564 0.276396 15.0406)
(-8.79208 -0.0387285 22.8748)
(23.8546 -0.16581 13.2153)
(9.82684 -0.114094 18.6472)
(13.8013 -0.0766162 14.368)
(12.2848 -0.0191623 11.8544)
(11.7383 -0.0178768 7.71113)
(11.263 -0.0182357 3.17249)
(12.8275 0.140767 -4.06986)
(11.6271 0.304442 -10.6728)
(8.0377 0.47751 -12.1054)
(5.33238 0.691429 -10.0512)
(2.87657 1.1979 -6.2441)
(2.26474 -0.0311461 -4.43537)
(-3.2447 -0.496671 8.14217)
(0.359347 0.2065 15.1399)
(-8.85847 -0.0229271 22.7934)
(23.8479 0.0300626 13.1505)
(9.79998 0.0118066 18.6338)
(13.7665 0.00481617 14.3993)
(12.237 0.00116015 11.8925)
(11.6835 0.00603185 7.73609)
(11.191 0.010955 3.18189)
(12.7178 -0.00570189 -4.06542)
(11.5049 -0.0216401 -10.6641)
(8.00039 -0.0136791 -12.1001)
(5.42267 0.0162881 -10.0841)
(3.26105 0.207685 -6.41902)
(2.989 0.0970119 -4.77226)
(-3.50758 -0.110909 7.23845)
(0.304855 0.0166441 15.3735)
(-8.97692 0.00609059 22.4611)
(23.8681 0.205525 13.2344)
(9.8664 0.134769 18.6347)
(13.8313 0.086453 14.3487)
(12.312 0.0238991 11.8422)
(11.763 0.0299856 7.70533)
(11.2926 0.0341233 3.17189)
(12.8659 -0.150017 -4.07035)
(11.6602 -0.341185 -10.6744)
(8.04994 -0.495261 -12.0962)
(5.36134 -0.647707 -10.0465)
(2.96902 -0.856596 -6.25734)
(2.81712 0.12428 -4.75863)
(-3.3346 0.353672 7.88507)
(0.405957 -0.1836 15.1075)
(-8.86296 0.0361507 22.8146)
(23.9125 0.316014 13.2933)
(10.0458 0.247776 18.5464)
(13.989 0.137312 14.19)
(12.5123 0.0322865 11.707)
(11.9741 0.0427778 7.62672)
(11.5681 0.0242357 3.13846)
(13.2251 -0.29198 -4.12355)
(11.9552 -0.631886 -10.7368)
(8.07691 -0.876036 -12.1119)
(5.01499 -1.11646 -9.94344)
(1.93138 -1.61048 -5.87187)
(0.416604 0.143215 -3.58591)
(-2.7824 0.775454 10.2753)
(0.303824 -0.282679 15.0009)
(-8.79888 0.0594678 22.909)
(23.9851 0.354135 13.2531)
(10.2766 0.304713 18.4104)
(14.1629 0.155697 14.0186)
(12.7334 0.0393967 11.5711)
(12.204 0.0542088 7.53907)
(11.8885 0.00413137 3.06728)
(13.5801 -0.388105 -4.25305)
(12.1358 -0.799406 -10.8377)
(7.96381 -1.0443 -12.1139)
(4.55732 -1.18076 -9.80917)
(0.801242 -1.29861 -5.67048)
(-2.0156 0.0891012 1.10236)
(-2.41207 0.411681 12.3141)
(0.131549 -0.225285 15.1141)
(-8.82043 0.0331921 22.729)
(24.062 0.371266 13.1669)
(10.4809 0.363959 18.2763)
(14.3155 0.189985 13.853)
(12.9483 0.0613159 11.4315)
(12.4368 0.0692468 7.4353)
(12.2365 -0.0144064 2.96426)
(13.9314 -0.481425 -4.41937)
(12.2802 -0.938644 -10.9414)
(7.88033 -1.16199 -12.0978)
(4.33408 -1.14852 -9.69015)
(0.719408 -0.924667 -5.77483)
(-1.38148 0.0656531 2.05834)
(-2.3552 0.0297263 13.0656)
(0.102865 -0.144739 15.2501)
(-8.83897 0.0123752 22.5906)
(24.1588 0.33036 13.031)
(10.7375 0.355405 18.1388)
(14.4824 0.185714 13.697)
(13.1766 0.0662608 11.2933)
(12.6867 0.0606736 7.32215)
(12.6082 -0.0315189 2.82405)
(14.2583 -0.478045 -4.62128)
(12.3779 -0.895695 -11.0416)
(7.76713 -1.10349 -12.0557)
(4.15114 -1.11285 -9.57148)
(0.617705 -0.80366 -5.83509)
(-1.01088 0.108347 2.06436)
(-2.30065 -0.0714908 13.6447)
(0.0925565 -0.0344782 15.1935)
(-8.90943 -0.00317212 22.3448)
(24.2176 0.32045 12.9099)
(10.9245 0.420036 17.9924)
(14.6332 0.24052 13.519)
(13.4082 0.0987976 11.14)
(12.94 0.0610091 7.21445)
(12.9636 -0.0526415 2.72985)
(14.5998 -0.514317 -4.75008)
(12.528 -0.967044 -11.1229)
(7.66351 -1.17208 -12.0337)
(3.86397 -1.12946 -9.45859)
(0.173874 -0.673464 -5.73277)
(-0.801473 0.185231 2.95439)
(-2.24587 -0.107635 14.0378)
(0.178464 0.109925 14.719)
(-8.75885 -0.0163164 22.8262)
(24.3017 0.186133 12.7228)
(11.3306 0.283429 17.7424)
(14.933 0.182373 13.2332)
(13.852 0.0851034 10.8686)
(13.4217 0.0501299 7.04032)
(13.5865 -0.0199176 2.58851)
(15.2126 -0.295771 -4.99607)
(12.795 -0.589499 -11.2608)
(7.51883 -0.728328 -11.9234)
(3.49281 -0.714001 -9.15245)
(-0.245872 -0.514789 -5.28829)
(-0.622627 0.135777 3.8204)
(-2.29482 -0.0456972 13.5236)
(0.228213 0.0986995 14.1632)
(-8.69668 -0.00762046 23.1225)
(26.7453 -0.0867892 6.80231)
(18.6332 -0.376954 14.9174)
(21.4373 -0.367025 13.0221)
(23.4112 -0.286213 10.9909)
(23.2179 -0.160205 7.09707)
(23.008 0.0166889 1.94198)
(21.4519 0.193028 -4.30989)
(16.8418 0.334946 -8.01528)
(10.4247 0.427681 -7.14542)
(5.20257 0.483727 -4.35014)
(0.421571 0.137373 -0.450652)
(-0.507126 -0.0878692 5.17005)
(-3.91059 0.0153506 14.3764)
(0.442726 -0.135379 15.6989)
(-14.0295 0.010794 22.7931)
(26.7808 -0.152613 6.92901)
(18.395 -0.560195 15.1903)
(21.205 -0.482644 13.3237)
(23.0775 -0.340371 11.3153)
(22.8065 -0.141932 7.39761)
(22.5753 0.14102 2.20596)
(21.1725 0.418251 -4.10777)
(16.8569 0.615515 -7.97777)
(10.7255 0.723847 -7.29937)
(5.63277 0.714 -4.65371)
(0.962598 0.129486 -0.951393)
(-0.530736 0.013483 4.52717)
(-3.85276 0.0671394 14.8636)
(0.323338 -0.170202 16.1311)
(-14.1096 0.0450806 22.4826)
(26.7994 -0.164336 7.01296)
(18.3374 -0.488754 15.3393)
(21.1338 -0.392473 13.5008)
(22.9285 -0.258776 11.5037)
(22.613 -0.0886575 7.57197)
(22.3624 0.156792 2.35995)
(21.0338 0.40465 -3.99142)
(16.8758 0.58073 -7.94219)
(10.8805 0.690571 -7.36489)
(5.89199 0.675567 -4.84583)
(1.2237 0.243657 -1.198)
(-0.734311 -0.0828364 4.00917)
(-3.93757 0.0738344 14.6768)
(-0.0166581 0.00746033 16.5601)
(-14.2839 0.0204428 21.9344)
(26.8091 -0.196263 7.1339)
(18.1832 -0.506196 15.5321)
(20.998 -0.406632 13.697)
(22.7459 -0.257429 11.6984)
(22.4032 -0.0807137 7.75441)
(22.1463 0.173695 2.53451)
(20.9176 0.440124 -3.85623)
(16.9356 0.631127 -7.92186)
(11.0725 0.753888 -7.46722)
(6.13616 0.730481 -5.05575)
(1.38777 0.46572 -1.39459)
(-1.00516 -0.175344 3.91052)
(-4.00344 0.0102076 14.2144)
(0.0487688 0.156724 16.6643)
(-14.2035 -0.0455426 22.1677)
(26.8198 -0.198286 7.22806)
(18.0841 -0.410503 15.6868)
(20.8894 -0.316131 13.8749)
(22.5762 -0.184038 11.8825)
(22.1985 -0.0381565 7.92282)
(21.9226 0.170534 2.68819)
(20.7694 0.397228 -3.73036)
(16.9547 0.569164 -7.88296)
(11.224 0.70666 -7.53581)
(6.37568 0.791674 -5.22319)
(1.3182 0.792946 -1.42514)
(-1.41767 -0.188338 3.41967)
(-4.06816 -0.335805 13.6782)
(0.134174 0.283429 16.5852)
(-14.2011 -0.097137 22.314)
(26.8309 -0.201531 7.31004)
(17.9155 -0.320412 15.8415)
(20.7072 -0.251273 14.0494)
(22.3485 -0.144552 12.0581)
(21.945 -0.0296894 8.07179)
(21.6512 0.131902 2.81464)
(20.5637 0.319976 -3.62367)
(16.9316 0.477177 -7.83841)
(11.4198 0.628112 -7.58914)
(6.82444 0.85222 -5.38832)
(2.31345 1.16136 -1.78855)
(0.632476 -0.820908 0.720942)
(-4.50737 -0.790613 12.0594)
(0.356365 0.336086 16.5578)
(-14.1867 -0.124038 22.4713)
(26.8198 -0.133319 7.33962)
(17.702 -0.152096 15.9413)
(20.4759 -0.119207 14.1823)
(22.083 -0.0674355 12.2053)
(21.6516 -0.0106936 8.18921)
(21.3263 0.0694637 2.89681)
(20.2596 0.171489 -3.56501)
(16.7741 0.267622 -7.79974)
(11.5083 0.377468 -7.60861)
(7.26812 0.545875 -5.54096)
(3.46891 0.906882 -2.24937)
(2.76886 -0.788564 -1.01491)
(-5.07914 -0.629654 10.1471)
(0.453053 0.181557 16.6651)
(-14.2533 -0.0551762 22.3126)
(26.8055 0.0275057 7.33559)
(17.6235 0.0198645 15.9464)
(20.3948 0.0106838 14.1988)
(21.9972 0.00389818 12.2311)
(21.559 0.000220078 8.2085)
(21.2207 -0.00583718 2.90399)
(20.1467 -0.0134184 -3.56714)
(16.69 -0.0167487 -7.79913)
(11.5117 0.00364648 -7.61369)
(7.40362 0.0245915 -5.59644)
(3.86782 0.226678 -2.45869)
(3.71245 -0.0976259 -1.80374)
(-5.28209 -0.177481 9.52177)
(0.276234 0.0139519 16.8608)
(-14.374 0.00823416 21.912)
(26.8287 0.161203 7.33326)
(17.7586 0.184863 15.921)
(20.532 0.142051 14.1619)
(22.135 0.0799645 12.1873)
(21.6997 0.0156936 8.17801)
(21.3735 -0.0761437 2.89158)
(20.3003 -0.189591 -3.56719)
(16.7959 -0.290425 -7.79827)
(11.5103 -0.369096 -7.59649)
(7.31194 -0.494222 -5.53461)
(3.54484 -0.642882 -2.27409)
(3.66399 0.45519 -1.78702)
(-5.13384 0.431349 9.7846)
(0.564044 -0.161378 16.6224)
(-14.259 0.0777041 22.3434)
(26.8333 0.206375 7.29426)
(17.9459 0.346986 15.8166)
(20.7414 0.274336 14.0237)
(22.387 0.161304 12.0343)
(21.9846 0.0395291 8.05275)
(21.692 -0.133165 2.80069)
(20.597 -0.330415 -3.63152)
(16.9538 -0.493216 -7.8336)
(11.4327 -0.633612 -7.56999)
(6.9072 -0.857658 -5.3797)
(2.48888 -1.19449 -1.87509)
(1.29034 0.851959 0.000502606)
(-4.6415 0.916267 11.7783)
(0.516856 -0.346019 16.4907)
(-14.198 0.165983 22.533)
(26.8231 0.204191 7.20653)
(18.1058 0.432947 15.6588)
(20.914 0.335166 13.8454)
(22.61 0.199596 11.8536)
(22.2367 0.0486523 7.89683)
(21.9629 -0.169753 2.66663)
(20.7983 -0.405745 -3.74318)
(16.9714 -0.584927 -7.87518)
(11.2277 -0.725844 -7.50899)
(6.41913 -0.84789 -5.19884)
(1.25825 -0.837604 -1.36314)
(-1.46712 0.370845 3.14429)
(-4.12414 0.522598 13.633)
(0.212929 -0.31254 16.5794)
(-14.2187 0.138713 22.361)
(26.8127 0.19928 7.10851)
(18.2052 0.522991 15.5002)
(21.0213 0.422673 13.6643)
(22.7799 0.27281 11.6657)
(22.4426 0.0927808 7.72364)
(22.1876 -0.169504 2.50812)
(20.9444 -0.444632 -3.87151)
(16.9465 -0.642151 -7.91103)
(11.0697 -0.770828 -7.4345)
(6.14356 -0.731845 -5.02869)
(1.21701 -0.464548 -1.2805)
(-1.27127 0.11437 4.06696)
(-4.03178 0.037982 14.2902)
(0.111158 -0.173185 16.6626)
(-14.2167 0.0672768 22.2142)
(26.8035 0.16642 6.98492)
(18.3605 0.501829 15.305)
(21.1568 0.405481 13.4658)
(22.9633 0.271936 11.4679)
(22.6537 0.099432 7.5368)
(22.4045 -0.152179 2.3289)
(21.0585 -0.407157 -4.00872)
(16.8828 -0.589577 -7.92755)
(10.8826 -0.703439 -7.3245)
(5.91163 -0.669245 -4.80303)
(1.24572 -0.238389 -1.13552)
(-0.731948 0.0238033 3.924)
(-3.97277 -0.051643 14.7163)
(0.0463309 -0.0174255 16.5724)
(-14.2967 -0.0132799 21.9783)
(26.785 0.153522 6.89958)
(18.4181 0.569788 15.1546)
(21.2275 0.493778 13.287)
(23.1128 0.353097 11.2768)
(22.8481 0.153391 7.35914)
(22.6177 -0.134622 2.17172)
(21.1953 -0.418418 -4.12616)
(16.8609 -0.623072 -7.96004)
(10.7221 -0.736971 -7.25209)
(5.65004 -0.720547 -4.59676)
(0.954702 -0.139936 -0.863299)
(-0.51442 -0.0494615 4.50252)
(-3.89174 -0.0511711 14.9155)
(0.385233 0.156008 16.1432)
(-14.1218 -0.0410497 22.5145)
(26.7501 0.0870433 6.77221)
(18.6566 0.381828 14.8817)
(21.4592 0.373894 12.9856)
(23.446 0.294868 10.9513)
(23.2587 0.168712 7.05578)
(23.0484 -0.0105653 1.90385)
(21.4692 -0.19102 -4.32972)
(16.8378 -0.338725 -7.99377)
(10.4149 -0.43647 -7.08946)
(5.22048 -0.483451 -4.27783)
(0.420804 -0.144331 -0.345163)
(-0.472934 0.0439674 5.17079)
(-3.94441 -0.00784199 14.4332)
(0.49202 0.128736 15.7324)
(-14.04 -0.00599378 22.8287)
(27.4769 -0.012844 3.31916)
(18.8924 -0.245758 10.3804)
(20.9176 -0.339705 10.485)
(24.7064 -0.352776 9.54664)
(25.0511 -0.287214 6.88864)
(24.3791 -0.173102 3.37032)
(21.7185 -0.0543754 0.109638)
(16.8412 0.0822182 -1.62283)
(10.7009 0.244288 -1.06098)
(5.80243 0.412749 -0.248258)
(0.563343 0.144849 2.53584)
(-0.538534 0.0653016 6.72511)
(-5.73801 -0.0829834 15.962)
(0.0265775 -0.157404 17.7114)
(-18.6852 0.0329627 21.748)
(27.4744 -0.0252471 3.3428)
(18.8294 -0.365001 10.5759)
(20.8836 -0.455378 10.7398)
(24.6637 -0.440143 9.84244)
(25.0112 -0.317383 7.17573)
(24.3917 -0.131393 3.59625)
(21.8528 0.0513902 0.237466)
(17.1183 0.240094 -1.61855)
(11.1407 0.458419 -1.16436)
(6.34337 0.603833 -0.393243)
(1.3042 0.108754 2.02174)
(-0.458043 0.202179 6.40709)
(-5.72313 -0.0329032 16.4624)
(-0.461278 -0.226869 18.0433)
(-18.6851 0.103323 21.3611)
(27.4683 -0.0310371 3.3596)
(18.8679 -0.326892 10.6638)
(20.9367 -0.38704 10.8542)
(24.69 -0.361967 9.98448)
(25.0304 -0.244686 7.31717)
(24.4338 -0.0776084 3.70737)
(21.9471 0.0867668 0.299015)
(17.2809 0.25194 -1.61757)
(11.3468 0.454653 -1.20915)
(6.62628 0.553404 -0.464739)
(1.44309 0.219728 1.93123)
(-0.979674 0.169522 6.50911)
(-5.80018 0.0856046 16.4547)
(-1.01156 -0.062819 18.3004)
(-18.7951 0.00765657 20.7591)
(27.4637 -0.038986 3.38931)
(18.8393 -0.345493 10.8154)
(20.9354 -0.4092 11.0409)
(24.6849 -0.374834 10.1897)
(25.0369 -0.244155 7.50937)
(24.4821 -0.0647171 3.8562)
(22.072 0.111235 0.379165)
(17.4971 0.287083 -1.6256)
(11.6239 0.504754 -1.28178)
(6.92508 0.587491 -0.561168)
(1.61572 0.445718 1.82782)
(-1.23056 -0.0316668 6.47731)
(-5.87608 0.0328923 16.1826)
(-0.819156 0.106498 18.3996)
(-18.7051 -0.141385 21.0218)
(27.4614 -0.0413778 3.4171)
(18.8595 -0.282623 10.9186)
(20.9667 -0.32236 11.1762)
(24.6933 -0.283967 10.3501)
(25.0397 -0.167499 7.66629)
(24.5091 -0.0134421 3.97976)
(22.1588 0.136009 0.450671)
(17.6649 0.287278 -1.62162)
(11.8373 0.500952 -1.33075)
(7.1821 0.670819 -0.637721)
(1.31401 0.758976 1.95533)
(-1.98437 -0.170497 6.50743)
(-5.98102 -0.340603 15.8434)
(-1.06232 0.222667 18.456)
(-18.5884 -0.215835 21.0939)
(27.4678 -0.0512649 3.44711)
(18.8316 -0.22959 11.0292)
(20.9339 -0.259368 11.3262)
(24.6418 -0.227405 10.5263)
(24.9841 -0.131549 7.83548)
(24.4798 -0.00494417 4.11359)
(22.2009 0.119857 0.536506)
(17.819 0.253518 -1.59894)
(12.1201 0.465591 -1.36817)
(7.6696 0.800502 -0.687967)
(2.30318 1.32581 1.6142)
(-0.520165 -1.07218 4.15518)
(-6.5396 -1.02186 14.8266)
(-1.16199 0.210138 18.5903)
(-18.5147 -0.347309 21.1353)
(27.4756 -0.0424667 3.47638)
(18.7527 -0.116628 11.1134)
(20.8308 -0.121916 11.4443)
(24.5207 -0.10301 10.6722)
(24.8508 -0.0527547 7.97628)
(24.3581 0.0139941 4.22223)
(22.1357 0.0826516 0.609652)
(17.8622 0.161137 -1.56694)
(12.3326 0.30235 -1.37667)
(8.2173 0.554513 -0.726788)
(3.77045 1.22584 1.46896)
(3.04634 -0.738273 0.938923)
(-6.98379 -1.09512 13.0895)
(-0.668709 0.0582246 18.5874)
(-18.6325 -0.262222 20.9307)
(27.4776 0.0101323 3.4864)
(18.7018 0.0175874 11.1361)
(20.7695 0.0152326 11.4742)
(24.4577 0.0108654 10.7094)
(24.7853 0.00519525 8.01084)
(24.2944 -0.000532825 4.24613)
(22.0861 -0.00233079 0.625691)
(17.8476 0.000136804 -1.55759)
(12.3976 0.0258887 -1.37446)
(8.41811 0.0509156 -0.748621)
(4.3438 0.366276 1.45314)
(4.97922 0.0139165 0.0816961)
(-7.00563 -0.359606 12.4244)
(-0.645855 0.0145154 18.5712)
(-18.7536 0.00978135 20.4666)
(27.476 0.0502691 3.46637)
(18.7805 0.142336 11.0939)
(20.8629 0.149022 11.4217)
(24.5514 0.125212 10.6491)
(24.8783 0.0663687 7.95746)
(24.3796 -0.0093936 4.20987)
(22.1457 -0.0807007 0.603488)
(17.8627 -0.156637 -1.56543)
(12.3347 -0.262064 -1.36544)
(8.30762 -0.459703 -0.716359)
(3.96661 -0.861881 1.56017)
(4.93487 0.281151 -0.0112432)
(-6.96395 0.778018 12.5704)
(-0.521277 -0.0221371 18.5359)
(-18.6372 0.305342 20.9986)
(27.4674 0.0502053 3.43772)
(18.8374 0.247713 11.0107)
(20.9419 0.282416 11.3022)
(24.6531 0.248794 10.4997)
(24.9962 0.147429 7.81163)
(24.49 0.0142363 4.09697)
(22.2048 -0.113404 0.529868)
(17.8251 -0.249948 -1.59303)
(12.1339 -0.454021 -1.34832)
(7.8 -0.802999 -0.650586)
(2.65238 -1.43941 1.65891)
(0.587597 1.11126 3.01722)
(-6.65369 1.27923 14.4675)
(-1.01773 -0.17797 18.5257)
(-18.5174 0.427675 21.2689)
(27.4633 0.0431459 3.40595)
(18.8596 0.298653 10.8962)
(20.9648 0.340999 11.1488)
(24.6952 0.30173 10.3201)
(25.043 0.18148 7.6387)
(24.511 0.0219537 3.96043)
(22.1548 -0.131534 0.444228)
(17.665 -0.288079 -1.61184)
(11.8333 -0.510866 -1.3069)
(7.24223 -0.747252 -0.597162)
(1.24511 -0.866493 2.06856)
(-2.08692 0.544378 6.36438)
(-6.04138 0.667297 15.8207)
(-1.03982 -0.224186 18.4382)
(-18.5822 0.272623 21.2232)
(27.4669 0.0400846 3.37801)
(18.8401 0.357567 10.7897)
(20.9318 0.423884 11.0103)
(24.6845 0.389976 10.1565)
(25.037 0.257187 7.47916)
(24.4796 0.0736897 3.83562)
(22.0624 -0.106916 0.37345)
(17.4887 -0.286942 -1.61325)
(11.6082 -0.515145 -1.25402)
(6.92583 -0.586922 -0.533748)
(1.33029 -0.468747 2.03269)
(-1.61165 0.061547 6.81979)
(-5.85259 0.0695278 16.2313)
(-0.657749 -0.113335 18.347)
(-18.7308 0.170001 21.1686)
(27.4722 0.0318472 3.34786)
(18.8694 0.336326 10.6351)
(20.932 0.39841 10.8208)
(24.6881 0.373968 9.94829)
(25.0282 0.255404 7.28425)
(24.4277 0.0852655 3.68533)
(21.9328 -0.0830891 0.293681)
(17.2665 -0.252118 -1.60257)
(11.3359 -0.459851 -1.17955)
(6.63779 -0.534875 -0.433142)
(1.45032 -0.204307 1.98977)
(-0.930415 -0.120002 6.43662)
(-5.81237 -0.0465251 16.5027)
(-0.841576 0.0599752 18.282)
(-18.8359 0.0138598 20.894)
(27.4789 0.0257157 3.33092)
(18.8307 0.371842 10.5458)
(20.8776 0.464232 10.705)
(24.6605 0.450233 9.80475)
(25.0073 0.327106 7.14149)
(24.3831 0.138966 3.57378)
(21.8354 -0.047658 0.233066)
(17.1015 -0.241333 -1.60111)
(11.1247 -0.464779 -1.13099)
(6.35371 -0.597378 -0.355068)
(1.26032 -0.117847 2.12109)
(-0.463626 -0.244247 6.41765)
(-5.737 0.0506836 16.5056)
(-0.30819 0.213562 18.0216)
(-18.7185 -0.0780976 21.4622)
(27.4822 0.0130347 3.30718)
(18.8947 0.249182 10.3493)
(20.9109 0.344798 10.4494)
(24.7017 0.359128 9.50795)
(25.0445 0.29379 6.85335)
(24.3661 0.178652 3.34747)
(21.6953 0.0572209 0.1061)
(16.8177 -0.0832094 -1.60269)
(10.6817 -0.249683 -1.02445)
(5.81715 -0.402442 -0.200291)
(0.565957 -0.119058 2.62205)
(-0.497432 -0.0574064 6.74655)
(-5.75847 0.0842598 16.0292)
(0.187893 0.153404 17.7023)
(-18.7172 -0.00860941 21.8296)
(29.4189 -0.00763459 3.24742)
(17.901 -0.115407 7.7157)
(17.8185 -0.197699 8.26654)
(21.7099 -0.247926 8.08557)
(21.7191 -0.251271 6.85767)
(20.7942 -0.201813 4.99269)
(18.3093 -0.117914 3.32849)
(14.6643 0.000659659 2.41955)
(9.70014 0.153489 3.51764)
(6.01376 0.3101 4.06496)
(-0.504158 0.0991713 7.09324)
(-0.903174 0.196038 8.84475)
(-7.30636 -0.211398 18.3005)
(-1.588 -0.251642 19.7279)
(-22.4753 0.17003 20.4468)
(29.4048 -0.0121997 3.24975)
(17.8541 -0.167545 7.80633)
(17.8258 -0.263803 8.40712)
(21.76 -0.312993 8.2626)
(21.826 -0.295379 7.03483)
(20.9651 -0.207569 5.13044)
(18.5507 -0.0770978 3.40652)
(14.9607 0.0888227 2.42495)
(10.1005 0.30761 3.42736)
(6.4579 0.447302 3.93117)
(0.212542 -0.0405928 6.72987)
(-0.904764 0.128026 8.9032)
(-7.33671 -0.178018 18.9149)
(-2.07014 -0.273481 19.8206)
(-22.398 0.272911 19.9461)
(29.3906 -0.0139258 3.25226)
(17.884 -0.150544 7.8409)
(17.8911 -0.227445 8.45199)
(21.8325 -0.265162 8.32383)
(21.92 -0.241591 7.0989)
(21.0847 -0.158834 5.1781)
(18.695 -0.0380949 3.42672)
(15.1276 0.107669 2.41136)
(10.2722 0.31442 3.37832)
(6.70976 0.402396 3.88609)
(0.285683 0.028694 6.7133)
(-1.58725 0.22424 9.31653)
(-7.43111 0.0420712 18.9336)
(-2.33783 -0.153042 19.7746)
(-22.4172 0.10312 19.4817)
(29.3771 -0.0164386 3.25592)
(17.8617 -0.158941 7.91565)
(17.9144 -0.24328 8.56347)
(21.8864 -0.281525 8.46113)
(22.0178 -0.250799 7.2322)
(21.2304 -0.16021 5.27919)
(18.8879 -0.0297365 3.48113)
(15.3615 0.129464 2.41005)
(10.5332 0.358287 3.3179)
(6.96949 0.450173 3.81418)
(0.416798 0.254027 6.7357)
(-2.1527 0.217042 9.82741)
(-7.50526 -0.183265 19.0403)
(-2.68556 -0.244417 19.8415)
(-22.1909 0.0217948 19.7372)
(29.3638 -0.0156636 3.25983)
(17.8852 -0.127005 7.96045)
(17.9735 -0.19078 8.62703)
(21.9572 -0.217421 8.54417)
(22.1129 -0.184824 7.3168)
(21.3547 -0.10591 5.34309)
(19.0398 0.0057276 3.51139)
(15.5458 0.145 2.40051)
(10.7281 0.375206 3.26787)
(7.19896 0.569873 3.77525)
(0.136386 0.615932 6.90697)
(-3.04483 0.0180366 10.22)
(-7.62262 -0.620384 19.1024)
(-3.53085 -0.381814 20.0465)
(-22.0934 -0.275186 19.5757)
(29.3553 -0.0181257 3.26392)
(17.8829 -0.10497 8.01149)
(17.9965 -0.157378 8.70833)
(21.9957 -0.1805 8.65298)
(22.1786 -0.152125 7.42973)
(21.4562 -0.0865924 5.43488)
(19.1825 0.00619679 3.56792)
(15.7457 0.131889 2.41392)
(11.0095 0.366149 3.2284)
(7.65254 0.751492 3.71484)
(1.20893 1.32918 6.60329)
(-2.48737 -0.558996 8.60171)
(-8.14363 -1.36771 18.5771)
(-3.77161 -0.239177 20.0897)
(-22.1568 -0.824736 19.1861)
(29.3525 -0.0161838 3.27132)
(17.8746 -0.056575 8.04977)
(17.9922 -0.0769995 8.76883)
(21.9958 -0.0855286 8.73795)
(22.1916 -0.0675663 7.52108)
(21.4923 -0.0312134 5.51058)
(19.2512 0.0202477 3.61641)
(15.8733 0.0953184 2.43069)
(11.259 0.253564 3.20797)
(8.22526 0.549827 3.61964)
(2.97898 1.44597 6.61092)
(2.02987 -0.237347 4.69582)
(-8.53822 -1.56672 17.2504)
(-3.00216 -0.0977512 19.8803)
(-22.1216 -0.777798 18.6511)
(29.3532 0.00155207 3.27346)
(17.8515 0.00871551 8.06564)
(17.9634 0.0111198 8.79435)
(21.9688 0.0111707 8.77307)
(22.1677 0.00875836 7.55802)
(21.4761 0.00623469 5.54136)
(19.2489 0.00726452 3.63837)
(15.8984 0.0128784 2.44279)
(11.3531 0.0424621 3.2076)
(8.46071 0.0864809 3.56466)
(3.62358 0.477023 6.65471)
(5.4266 0.251556 2.99208)
(-8.32163 -0.505674 16.4482)
(-2.65896 -0.0506476 19.7082)
(-22.0491 0.052539 18.027)
(29.3523 0.0177213 3.26606)
(17.8792 0.0695953 8.04008)
(17.9957 0.0953726 8.75636)
(21.997 0.105236 8.72347)
(22.1877 0.0846109 7.5078)
(21.4821 0.0445801 5.50069)
(19.2359 -0.00532901 3.61147)
(15.8616 -0.0729719 2.43127)
(11.2678 -0.184994 3.21601)
(8.34782 -0.393025 3.60791)