/*--------------------------------*- C++ -*----------------------------------*\
| =========                 |                                                 |
| \\      /  F ield         | OpenFOAM: The Open Source CFD Toolbox           |
|  \\    /   O peration     | Version:  4.1                                   |
|   \\  /    A nd           | Web:      www.OpenFOAM.org                      |
|    \\/     M anipulation  |                                                 |
\*---------------------------------------------------------------------------*/
FoamFile
{
    version     2.0;
    format      ascii;
    class       volScalarField;
    location    "16.5";
    object      p;
}
// * * * * * * * * * * * * * * * * * * * * * * * * * * * * * * * * * * * * * //

dimensions      [0 2 -2 0 0 0 0];

internalField   nonuniform List<scalar> 
204246
(
129.319
8.26765
50.8985
31.4057
24.8113
35.9433
16.2656
36.6075
12.6439
36.3396
10.8884
36.2188
9.44512
34.797
12.2307
29.3047
22.1948
13.6926
31.6216
8.90536
34.2375
8.22272
33.4057
8.51728
33.5817
7.98964
34.7128
6.11845
35.5175
6.27307
34.7494
7.90156
32.2113
12.4668
25.47
22.3943
11.8952
30.4634
8.69558
31.3422
8.10987
32.1044
7.23845
33.4153
5.30782
34.1675
5.74144
33.0097
8.40675
29.102
13.0235
24.0155
22.2533
11.045
30.2542
8.22305
31.2374
7.91367
32.1501
7.24078
33.6022
5.41519
34.4564
5.85481
33.3624
8.41064
29.5167
12.7458
24.6334
21.3538
12.4633
27.7182
9.36694
30.0752
7.89775
31.296
6.75182
32.7806
4.6826
33.6102
5.00422
32.4898
7.53567
28.6246
11.9446
23.7352
20.7244
11.5207
27.3553
8.3518
30.1923
6.49863
32.5731
3.88092
34.2336
3.33972
34.3969
3.83552
33.4539
5.80098
30.4742
8.30659
28.2121
11.2913
24.4598
18.1551
11.9788
26.184
7.13682
29.7344
3.30907
30.9271
2.58058
29.8619
1.87699
28.4552
1.17051
26.1852
1.02939
22.2658
2.66288
15.4586
8.8913
-0.813773
14
-8.35559
12.9794
-13.2833
9.65647
-18.0933
5.67439
-22.803
1.27928
-26.9955
-3.414
-29.5779
-8.78307
-29.322
-16.0457
-22.2581
-31.7379
-14.1619
-36.5394
-10.7847
-37.4315
-8.10574
-36.52
-5.67848
-34.2747
-3.52415
-31.0681
-1.94015
-26.8099
-1.56773
-20.4552
-4.11576
-8.20502
-15.2887
3.79889
-16.9412
10.1602
-15.2305
14.9884
-11.7306
19.4032
-6.68223
23.7643
0.177864
28.8145
8.85069
34.9556
19.9298
41.8444
34.61
50.3024
53.55
58.9598
72.7643
74.6019
92.8278
97.353
115.937
127.318
143.529
166.545
178.057
218.655
224.376
291.884
292.805
407.002
407.713
623.765
53.494
9.08394
24.6292
25.1513
17.025
27.5127
14.6276
27.8754
13.7385
27.6709
13.6361
26.872
14.7519
23.9521
18.3413
18.8357
24.3675
13.7292
25.4054
12.8252
25.6183
12.8861
25.5085
12.4674
25.8971
11.969
26.3872
11.781
25.766
12.6894
24.3212
14.6954
21.4269
18.5215
16.7351
23.5336
12.6264
24.0157
12.2023
24.055
11.4997
24.4635
10.8189
24.8487
10.6089
24.0042
11.726
22.226
14.1313
19.3625
17.4091
15.3617
22.5438
11.5609
23.2431
11.4644
23.5472
11.0781
24.231
10.6694
24.8728
10.6454
24.2273
11.8221
22.5823
14.1285
19.816
17.1017
15.9365
21.7286
12.2702
22.1432
11.1856
22.7407
10.3939
23.1968
9.63431
23.6015
9.32471
22.757
10.3114
20.9742
12.5409
18.1195
15.563
14.2141
20.3497
10.5363
21.0456
9.39287
22.0989
8.39501
23.1709
7.68897
23.1699
7.86682
22.6476
8.60518
21.4113
10.0553
19.6144
11.3954
17.4349
13.8808
13.6727
18.3523
8.83723
19.3509
6.96761
19.9934
5.60551
19.175
5.04132
17.9271
4.23326
16.21
3.51098
13.478
3.43215
9.05161
4.48438
2.61947
7.4468
-4.14334
4.58568
-8.62287
1.55424
-13.3589
-1.68378
-18.1668
-5.95631
-22.7615
-11.1237
-26.7089
-17.152
-29.22
-24.0015
-29.3946
-31.6682
-26.781
-38.3269
-27.2945
-40.2504
-26.745
-40.5922
-25.4115
-39.5526
-23.8806
-37.4542
-22.5657
-34.4998
-21.8764
-30.6051
-22.3614
-25.2293
-24.9375
-17.8957
-27.4963
-14.571
-26.5821
-11.7056
-24.9126
-8.97707
-22.4154
-5.98585
-18.9567
-2.46814
-14.4167
1.42724
-8.02209
5.73802
0.90671
9.91141
13.0474
16.3919
26.5033
27.9695
40.9069
43.6122
57.4345
63.3661
76.7709
89.2949
98.884
122.89
124.961
165.686
157.043
219.776
198.204
288.559
257.019
379.848
27.2737
51.5859
31.6452
43.3316
27.6777
38.8055
23.5989
35.9284
20.7622
33.8338
19.4519
31.7647
19.7843
28.7588
22.1241
24.4869
25.8458
20.0128
28.0488
17.5863
29.1602
16.5639
29.4471
16.0075
29.6138
15.6405
29.707
15.5777
29.256
16.3203
28.0363
18.1138
25.655
21.1868
22.0413
24.8643
18.4504
26.904
16.6643
27.9895
15.7019
28.5703
15.1805
28.7896
15.1359
28.269
16.0479
26.8744
18.0439
24.4738
20.9905
21.1807
24.6635
17.8529
26.7375
16.3034
27.9141
15.5334
28.6225
15.1559
28.9823
15.1989
28.5939
16.1296
27.3195
18.0587
25.0474
20.839
21.9062
24.2656
18.6783
26.2447
16.8235
27.6289
15.832
28.4584
15.26
28.8619
15.1746
28.4662
16.033
27.1534
17.9453
24.8185
20.7611
21.6093
24.3004
18.2887
26.4831
16.3198
28.1854
15.15
29.3663
14.524
29.8475
14.6181
29.7132
15.3711
28.917
16.7573
27.5283
18.56
25.595
21.185
22.6711
24.6469
19.0944
27.055
16.8311
28.6894
15.5463
29.1244
15.1124
28.7272
14.9131
27.7108
14.9367
25.6924
15.6929
22.2615
17.1457
17.4261
18.6436
11.8079
18.1849
6.84128
16.4503
2.48755
13.2869
-1.53219
9.11296
-5.48918
4.24169
-9.03298
-1.18824
-11.4782
-7.0865
-12.059
-13.4168
-11.7065
-18.9767
-11.0595
-22.041
-9.51881
-22.8675
-7.46474
-21.6662
-5.15496
-18.8278
-2.84496
-14.8172
-0.95494
-9.72524
0.0589189
-3.23513
-0.0882786
4.01119
-0.592502
10.179
0.813489
15.8235
3.84346
21.0212
8.20328
26.1625
13.7702
31.3991
20.8683
36.8453
29.5628
43.0336
39.7004
50.0268
51.5326
59.3647
65.2076
70.3523
81.63
85.6979
100.03
106.555
120.426
134.262
143.967
169.855
172.621
215.036
209.777
272.893
260.613
345.374
330.324
423.387
-4.4784
6.61979
8.79976
16.779
11.5972
20.9198
12.3872
22.5295
13.1308
22.4689
14.2861
21.2012
16.2048
18.6917
18.9057
15.7332
21.4397
14.0052
21.5592
13.701
21.3374
13.7715
21.2025
13.6509
21.1984
13.6308
21.0004
14.0484
20.1226
15.0802
18.6474
16.7686
16.4913
18.9965
14.1178
20.7386
12.824
20.4191
12.5458
20.0545
12.2099
19.7733
12.0422
19.2847
12.4018
18.1309
13.472
16.4925
15.1977
14.5075
17.2503
12.4468
19.2012
11.4673
19.2097
11.5689
19.2346
11.6262
19.3569
11.8112
19.2346
12.4304
18.367
13.6166
16.9041
15.274
14.9782
17.0879
12.8358
18.7093
11.5388
18.5077
10.902
18.2714
10.4671
17.9869
10.215
17.4674
10.4714
16.27
11.4079
14.578
12.9582
12.5305
14.8113
10.3638
16.6055
9.09927
16.6854
8.52304
16.8101
8.1725
16.8267
8.16124
16.3407
8.52731
15.5319
9.20074
14.3541
10.1291
12.8892
11.1356
10.9643
12.6234
8.51418
14.1894
6.46977
13.909
5.3197
13.2049
4.53874
11.8491
3.92023
10.232
3.16834
8.18375
2.47528
5.19848
2.20831
1.13422
2.06006
-3.33912
1.54186
-7.04053
-1.62619
-10.7471
-5.61042
-14.9156
-9.65422
-19.4993
-14.3783
-24.1501
-19.9655
-28.5241
-26.2163
-32.0732
-32.8097
-34.3104
-39.1925
-35.7087
-43.6157
-37.9296
-45.9024
-38.3297
-46.571
-37.9182
-45.5991
-37.1652
-43.5258
-36.5257
-40.7415
-36.4024
-37.5202
-36.9173
-34.091
-38.1516
-30.9065
-38.0257
-29.5782
-37.63
-28.6318
-36.9123
-27.7874
-35.6659
-26.5789
-33.6128
-24.709
-30.4798
-22.2526
-25.5633
-18.773
-18.665
-13.6933
-10.004
-7.35557
0.658418
1.78255
12.4432
14.5815
25.6386
31.6892
40.5809
54.0309
57.6699
82.3622
77.767
116.892
102.363
157.47
134.993
204.22
183.288
253.719
15.563
47.1828
23.8606
42.9969
25.8989
38.8288
25.1336
35.556
24.1845
32.8041
23.9533
30.1974
24.7211
27.4337
26.1299
24.8216
27.3571
23.171
27.6662
21.987
27.9054
21.1814
28.0209
20.6673
27.9311
20.5596
27.5752
20.9638
26.8325
21.8593
25.7136
23.2721
24.1891
24.9712
22.6355
26.2894
21.7247
26.7962
21.0336
27.2907
20.5149
27.4442
20.4031
27.1519
20.8276
26.3463
21.7528
25.1508
23.1335
23.6775
24.702
22.1454
26.039
21.2926
26.5686
20.6962
27.1166
20.2817
27.3819
20.2726
27.2394
20.7883
26.6007
21.7774
25.5774
23.1817
24.2777
24.784
22.874
26.182
22.0598
26.9047
21.3956
27.5646
21.0261
27.9176
21.0116
27.8244
21.4956
27.1763
22.4321
26.0836
23.7979
24.6571
25.3497
23.1239
26.7542
22.1805
27.5512
21.4177
28.3439
21.0125
28.8427
21.095
28.9364
21.5619
28.7235
22.3996
28.1965
23.5715
27.4201
25.0437
26.2855
26.884
24.9537
28.627
24.1099
29.5769
23.583
30.3484
23.476
30.612
23.6289
30.4453
23.9529
29.7534
24.4819
28.2328
25.6911
25.7736
26.2979
23.1676
25.5392
20.1653
24.5799
17.2298
22.285
13.8619
19.149
10.1013
15.0842
6.27012
10.106
2.55015
4.4532
-0.858966
-1.38559
-3.73232
-6.63391
-6.10482
-10.8351
-7.3578
-13.2609
-7.08458
-14.1444
-5.74993
-12.7164
-3.65579
-9.21835
-1.07155
-4.51491
1.5199
0.789926
3.93344
6.14773
6.45746
11.5069
9.44682
16.8161
12.768
22.2927
17.0082
27.7302
22.0549
33.1022
27.7633
38.5713
33.9841
44.0396
41.169
49.8686
49.5719
56.4967
59.9616
64.7542
71.926
75.409
85.5888
89.7672
100.814
108.709
117.507
133.033
136.362
163.03
158.966
198.599
187.423
238.584
223.555
279.586
267.485
314.126
-11.9687
3.82841
-0.00535974
11.4683
6.42292
16.4466
9.68706
18.6527
11.8924
18.8057
13.8267
17.6837
15.8167
15.9261
17.661
14.3717
18.7742
13.7922
18.7384
13.7469
18.5107
13.8569
18.2794
13.9856
17.9845
14.2719
17.469
14.8643
16.5846
15.7552
15.4011
16.8728
14.0502
17.9268
12.9444
18.3128
12.5183
17.7736
12.3282
17.193
12.2082
16.5083
12.3027
15.6165
12.7549
14.4197
13.5441
13.0849
14.6325
11.8608
15.6896
10.9618
16.3451
10.8877
16.2278
11.1731
16.1533
11.5353
15.9963
12.0759
15.5803
12.8813
14.7566
13.8746
13.6324
14.9244
12.3963
15.7928
11.2605
16.1197
10.6807
15.6152
10.2646
14.9917
10.0021
14.2456
9.97486
13.2941
10.3178
12.0373
10.9952
10.6047
11.9167
9.26207
12.8122
8.13396
13.3326
7.66378
13.117
7.43978
12.8233
7.41529
12.3619
7.64193
11.6543
8.03542
10.7685
8.54941
9.6879
9.1182
8.44523
9.67891
6.96576
10.2339
5.4467
10.3567
4.38095
9.5081
3.56736
8.29632
2.90151
6.72914
2.25111
4.9652
1.53889
2.86385
0.814714
0.19732
0.238193
-2.87406
-0.541012
-5.96134
-2.08186
-9.28186
-4.81037
-12.7144
-8.28157
-16.6432
-12.3468
-20.8805
-17.4184
-25.342
-23.4113
-29.8582
-30.0865
-34.1698
-36.9793
-38.0761
-43.2967
-41.7441
-47.9011
-44.9606
-50.7269
-46.2776
-51.7156
-46.4699
-50.8485
-46.1325
-48.7126
-45.5401
-46.0147
-45.0156
-43.5028
-44.7776
-41.3522
-45.2718
-40.1583
-45.554
-40.0711
-45.9783
-40.4673
-46.4246
-40.6714
-46.4203
-40.3731
-45.5282
-39.2846
-43.2691
-37.4282
-39.472
-34.6495
-34.0906
-30.8313
-27.1625
-25.4024
-18.7912
-17.5859
-9.30347
-6.55104
1.29349
8.51362
13.4162
28.1188
27.7332
52.3845
45.2754
81.0114
67.822
113.422
97.9715
148.611
138.164
184.179
16.621
42.7453
21.0385
39.7054
23.5288
36.9322
24.5634
34.3594
25.2613
31.8754
26.0445
29.5576
27.0289
27.4609
27.8882
25.8819
28.1911
25.1098
27.8962
24.5304
27.6682
24.0526
27.4376
23.7576
27.0822
23.8229
26.5523
24.3081
25.85
25.1029
25.0714
26.0784
24.3147
26.9516
23.8369
27.3873
23.8475
27.4003
23.8497
27.4542
23.7911
27.2466
23.9552
26.7162
24.4612
25.9202
25.2046
24.9874
26.0638
24.1499
26.7256
23.5427
27.0486
23.455
26.9825
23.3944
27.0213
23.3504
26.9139
23.589
26.5473
24.1996
25.9451
25.0743
25.2737
26.0701
24.6744
26.9958
24.2767
27.5954
24.3707
27.8572
24.4646
28.1132
24.6328
28.1393
24.989
27.8362
25.6342
27.2147
26.4389
26.4238
27.3466
25.5976
28.0848
24.9768
28.5431
24.8803
28.73
24.8535
28.9755
24.9988
29.0876
25.4345
29.015
26.0903
28.8234
26.9465
28.5304
27.9777
28.1904
29.1621
27.8011
30.4236
27.5306
31.3767
27.8024
31.8893
28.2443
32.3687
28.8244
32.5934
29.4161
32.5728
30.096
32.1693
30.9141
31.0987
31.4246
29.6387
31.455
27.9834
30.883
26.0449
29.6978
23.7398
27.7495
20.8
24.7771
17.481
20.7161
13.7874
15.5908
9.77703
9.61663
5.56955
3.32265
1.34761
-2.48031
-2.64724
-7.17225
-5.61685
-10.1526
-7.17419
-10.9588
-6.80267
-9.72546
-4.77854
-6.2554
-1.48362
-1.55554
2.22818
3.83048
5.79547
9.45313
9.47227
14.8597
13.5606
20.3139
18.3165
25.939
23.2405
31.5229
28.4162
36.7924
33.7263
41.6435
39.2867
46.2348
45.5667
51.01
52.7947
56.5373
61.226
63.5348
70.8133
72.8285
81.4672
85.293
93.1683
101.438
105.957
121.509
120.372
145.13
137.479
171.108
158.499
197.36
184.031
221.148
212.831
240.111
-13.6878
5.82398
-3.88771
10.4039
2.96707
14.1453
7.41792
15.9602
10.5301
16.1563
12.8863
15.3683
14.7933
14.2836
16.1707
13.5462
16.8056
13.4772
16.7428
13.6483
16.5292
13.8667
16.2405
14.1455
15.8119
14.5421
15.2091
15.108
14.4265
15.7576
13.5739
16.3812
12.8092
16.7728
12.316
16.5946
12.2144
15.8535
12.0651
15.1407
12.1079
14.2807
12.2858
13.2555
12.625
12.1426
13.0625
11.2006
13.5845
10.3904
14.1202
10.0687
14.2717
10.375
14.0967
10.8659
13.991
11.4414
13.7657
12.1576
13.3268
12.9703
12.6423
13.7237
11.8043
14.2962
11.06
14.5664
10.4318
14.2928
10.0993
13.5137
9.79726
12.6287
9.60857
11.6378
9.62537
10.5344
9.87491
9.36643
10.2496
8.27531
10.6533
7.40457
11.0665
6.77944
10.9381
6.64781
10.4714
6.66616
9.95737
6.81898
9.31416
7.1287
8.5377
7.49373
7.67924
7.85493
6.72848
8.13961
5.71007
8.25986
4.6401
8.21801
3.69222
7.6533
3.01076
6.47954
2.39524
5.07849
1.8183
3.50247
1.2051
1.8809
0.534306
0.123382
-0.0329075
-1.93835
-0.652138
-4.23198
-1.59291
-6.72395
-3.11196
-9.44059
-5.50953
-12.3678
-8.55926
-15.6481
-12.511
-19.3516
-17.4879
-23.517
-23.45
-28.1363
-30.2068
-33.1242
-37.319
-38.2761
-44.0979
-43.2077
-49.7528
-47.5998
-53.3946
-50.2749
-54.8934
-51.0893
-54.0886
-50.5264
-51.8804
-49.168
-48.8296
-47.8991
-45.9655
-47.3488
-44.1283
-47.7226
-43.6212
-48.6822
-44.3799
-50.0978
-45.5295
-51.4228
-46.6851
-52.1097
-47.2949
-51.7375
-47.0399
-50.032
-45.8952
-46.92
-43.7388
-42.4679
-40.4515
-36.8332
-35.6194
-30.1589
-28.6543
-22.5577
-18.8406
-13.8992
-5.52818
-3.63063
11.6053
9.15032
32.4877
25.6627
56.7196
47.2726
83.7037
74.9443
112.557
107.947
141.605
17.7958
39.5364
19.6736
36.8024
21.7095
34.6409
23.5755
32.6289
25.2555
30.7248
26.7211
28.9826
27.8887
27.5304
28.5314
26.567
28.5153
26.2069
28.0004
25.9619
27.5419
25.7715
27.0308
25.6815
26.4818
25.8292
25.8961
26.2728
25.3324
26.906
24.8888
27.5404
24.6299
28.0041
24.757
28.1396
25.2453
28.0951
25.7174
27.8027
25.932
27.3338
26.2608
26.6921
26.7243
25.9678
27.178
25.2976
27.5337
24.7327
27.6832
24.5307
27.5917
24.7383
27.2074
24.9536
26.9105
25.1305
26.5525
25.5031
26.0929
26.1216
25.6063
26.9127
25.2701
27.5716
25.0878
28.1244
25.2996
28.4737
25.8999
28.5614
26.467
28.6349
27.019
28.4582
27.5869
28.0583
28.2338
27.5193
28.8805
26.9933
29.3029
26.4464
29.5156
26.2639
29.5871
26.5962
29.4375
26.9793
29.3558
27.4562
29.2363
28.0873
29.0693
28.8285
28.9161
29.6565
28.8101
30.5429
28.8179
31.4698
28.8754
32.2457
29.2547
32.9359
30.0925
33.2999
31.0468
33.685
32.0032
33.8711
32.7889
33.8246
33.4808
33.473
34.0165
32.8294
34.3504
31.9662
34.3607
30.8677
33.7874
29.5832
32.6277
27.8026
30.731
25.4292
27.8587
22.4689
23.8646
18.8192
18.7011
14.4007
12.4994
9.24388
5.64727
3.57266
-1.19191
-2.22577
-7.1197
-7.02369
-11.6116
-10.2151
-13.7534
-11.2753
-13.1922
-9.78597
-9.95386
-6.28158
-4.55692
-1.65471
1.73164
3.19188
7.95834
7.92977
13.7882
12.8723
19.5864
18.2728
25.3421
23.758
30.7474
29.0375
35.4367
33.9861
39.3428
38.7616
42.7536
43.6821
46.184
49.0884
50.2683
55.2131
55.7097
62.125
63.1863
69.7706
73.2169
78.1403
86.0133
87.3482
101.452
97.8709
118.891
110.465
137.117
125.859
154.568
144.163
169.909
164.127
182.64
-12.7663
9.26451
-4.73432
11.3606
1.56797
13.3626
6.19162
14.3624
9.5583
14.3821
12.0326
13.8534
13.8574
13.2694
15.0541
13.0568
15.572
13.325
15.5261
13.6957
15.3594
14.0531
15.0238
14.4208
14.5292
14.8381
13.9084
15.3028
13.2326
15.7221
12.6681
16.0307
12.269
16.0593
12.0563
15.6022
12.1132
14.7433
12.1517
14.0525
12.2414
13.1487
12.3614
12.099
12.5437
11.0615
12.7894
10.2348
12.9998
9.66893
13.0683
9.65577
13.0071
10.1811
12.8134
10.8687
12.7491
11.6023
12.5303
12.4307
12.1678
13.2006
11.5899
13.7358
11.0462
14.0515
10.6092
13.9022
10.1801
13.2728
9.95021
12.282
9.69539
11.2656
9.52677
10.1872
9.51125
9.0619
9.64975
7.98604
9.86064
7.12288
10.0805
6.48477
9.99986
6.14194
9.52685
6.23692
8.86157
6.44963
8.22511
6.73426
7.53029
7.10155
6.77141
7.44505
5.99979
7.70053
5.213
7.79543
4.45211
7.66926
3.76879
7.25437
3.07005
6.33395
2.6196
5.00881
2.18612
3.62415
1.75361
2.30358
1.37544
0.97688
1.00319
-0.375407
0.589333
-1.89491
0.0643201
-3.57448
-0.764247
-5.34128
-2.10374
-7.31783
-4.06195
-9.4865
-6.61433
-12.0085
-10.0369
-15.0365
-14.4597
-18.7393
-19.9244
-23.2489
-26.3787
-28.6151
-33.552
-34.6862
-40.8949
-40.9928
-47.7268
-46.8562
-52.7259
-50.9323
-55.3168
-52.6292
-55.0105
-51.8924
-52.2843
-49.6486
-48.2549
-47.0593
-44.4863
-45.493
-42.3522
-45.6011
-42.353
-47.1002
-44.0114
-49.2662
-46.0694
-51.2361
-47.9618
-52.3319
-49.1261
-52.2043
-49.2391
-50.7256
-48.2861
-47.9635
-46.2699
-44.1049
-43.1321
-39.3779
-38.6318
-33.9269
-32.3401
-27.7898
-23.6329
-20.6082
-12.028
-11.6946
2.68171
-0.128194
20.3932
15.154
40.7669
34.9443
63.3498
59.0893
87.4527
85.8371
111.731
16.5948
37.0135
18.5832
34.2913
20.536
32.3183
22.6779
30.7114
24.7824
29.3219
26.5743
28.1133
27.8549
27.1645
28.4224
26.5878
28.3277
26.4961
27.7407
26.5074
27.1772
26.4792
26.5202
26.5483
25.818
26.7952
25.2366
27.1722
24.8005
27.6055
24.5915
28.0168
24.669
28.4247
25.151
28.4398
25.9188
28.1388
26.5423
27.8875
26.9413
27.4239
27.335
26.7647
27.6933
26.0453
27.96
25.3878
28.1302
24.904
28.0194
24.866
27.6386
25.169
27.014
25.4829
26.5184
25.8696
26.0369
26.2932
25.4773
26.9403
25.1356
27.5563
24.9639
28.0958
25.1341
28.5769
25.7432
28.8179
26.6838
28.8075
27.573
28.8125
28.2872
28.5683
28.8987
28.1273
29.4462
27.6096
29.8424
27.116
30.0867
26.7818
30.0875
26.865
29.8611
27.3447
29.4672
27.9118
29.1619
28.559
28.8802
29.2891
28.648
30.0573
28.5081
30.8241
28.5083
31.557
28.7107
32.2028
29.0881
32.8552
29.8392
33.311
30.9337
33.5231
32.12
33.7724
33.0589
33.8133
33.8268
33.6418
34.4226
33.3583
34.8689
32.9504
35.1194
32.4288
35.0358
31.7821
34.4681
30.9467
33.3421
29.624
31.5476
27.7332
28.8655
25.1372
25.0816
21.5968
20.0405
16.8675
13.6871
10.8383
6.19588
3.65384
-1.92059
-4.11382
-9.84214
-11.3445
-16.5404
-16.8944
-20.8227
-19.8677
-21.8476
-19.6732
-19.2012
-16.0627
-13.0058
-9.93637
-5.08538
-3.17194
2.50589
3.02992
9.09209
8.781
15.2175
14.6623
20.9982
20.4899
26.0806
25.6004
30.0165
29.8087
32.7875
33.3395
34.812
36.5804
36.7475
39.9486
39.2885
43.7307
43.0387
48.0312
48.4675
52.8672
55.8308
58.2774
65.2017
64.4653
76.3842
71.8613
88.7936
81.0595
101.629
92.5513
114.037
106.329
125.58
121.513
136.082
-10.8181
11.937
-3.62901
12.786
1.93401
13.4936
6.15249
13.6784
9.29901
13.4296
11.6508
13.0282
13.3858
12.7724
14.5356
12.9203
15.0561
13.4691
15.0318
14.0621
14.9002
14.5472
14.6083
14.9807
14.0778
15.335
13.3986
15.7029
12.8062
15.9729
12.3454
16.0668
12.0909
15.9084
12.1168
15.3218
12.4162
14.419
12.6816
13.6869
12.81
12.8181
12.9536
11.779
13.0442
10.7215
13.0839
9.82557
13.0382
9.35196
12.7271
9.64897
12.5584
10.4092
12.3809
11.3107
12.3081
12.1511
12.1771
13.0845
11.8787
13.8032
11.4188
14.2439
11.0422
14.3128
10.6831
13.8632
10.4059
13.0163
10.3037
11.8492
10.1776
10.7416
10.0562
9.67704
10.0362
8.58146
10.1211
7.59642
10.2393
6.80166
10.1942
6.31784
9.77936
6.23346
9.12959
6.50971
8.32286
6.89875
7.60679
7.31447
6.9062
7.75039
6.17806
8.1135
5.52573
8.33991
4.91436
8.33295
4.37756
8.04894
3.89331
7.40161
3.49731
6.38396
3.30508
5.0548
3.12864
3.80704
3.00874
2.71681
2.9285
1.7453
2.8147
0.822949
2.57978
-0.145906
2.19892
-1.17257
1.54352
-2.26094
0.516552
-3.46463
-0.936286
-4.84319
-2.84957
-6.56141
-5.49603
-8.80022
-9.03083
-11.8091
-13.597
-15.856
-19.3146
-21.1512
-26.2
-27.7011
-33.9862
-35.1301
-42.0708
-42.691
-49.0773
-48.7564
-53.517
-51.9777
-54.3453
-51.7267
-51.4978
-48.7109
-46.2418
-44.2748
-40.5758
-40.75
-37.1796
-40.1976
-37.3
-42.0247
-40.3719
-44.9437
-43.271
-47.3891
-45.5868
-48.5044
-46.8886
-48.2628
-46.9401
-46.7088
-45.8726
-44.107
-43.795
-40.7313
-40.7567
-36.7986
-36.6211
-32.3843
-31.0837
-27.4559
-23.6312
-21.576
-13.9451
-14.076
-1.87005
-4.08461
12.5322
9.15478
29.0027
25.9178
47.3781
45.7105
67.1591
66.9173
87.2329
15.7625
34.4574
17.5754
31.8355
19.5981
30.0303
21.857
28.721
24.0564
27.6851
25.9275
26.8313
27.2523
26.2001
27.7788
25.8795
27.6638
26.0299
27.0706
26.2627
26.4434
26.4228
25.7778
26.6165
25.0692
26.9024
24.4361
27.2255
24.0198
27.5814
23.9143
27.9575
24.2094
28.3533
24.9223
28.2977
25.8915
27.9274
26.7106
27.5571
27.2602
27.081
27.7385
26.4247
28.083
25.7053
28.241
25.0249
28.1313
24.5733
27.7474
24.483
27.1188
24.7603
26.3111
25.1335
25.6029
25.5976
24.981
26.1544
24.4737
26.81
24.1899
27.4177
24.232
28.0171
24.7008
28.4347
25.5506
28.6198
26.6929
28.5483
27.8129
28.4201
28.6064
28.1044
29.2135
27.5998
29.6787
27.0799
29.9844
26.6206
30.0743
26.4093
29.8341
26.5868
29.3473
27.1207
28.7393
27.7605
28.2528
28.4951
27.8368
29.2976
27.5729
30.0533
27.3833
30.7453
27.4286
31.3613
27.7494
31.8747
28.3424
32.2952
29.2265
32.5183
30.3822
32.5047
31.575
32.4514
32.5259
32.3669
33.1857
32.1014
33.6927
31.8176
34.0022
31.6053
34.1362
31.3507
33.9952
31.0218
33.4168
30.546
32.3602
29.6103
30.7858
28.1853
28.4532
26.0406
25.1126
22.8221
20.4749
18.1347
14.2489
11.6354
6.28337
3.242
-3.23242
-6.64242
-13.5783
-16.8497
-23.411
-25.7349
-30.9132
-31.6693
-34.5169
-33.5513
-33.2132
-30.3451
-26.2047
-22.2021
-15.4438
-12.0588
-4.95343
-3.26725
2.83952
3.28317
9.2022
9.07824
14.6505
14.9887
19.1099
19.6067
22.13
22.7381
23.6309
24.8457
24.2587
26.3911
24.7909
27.895
25.9572
29.7072
28.2427
31.9355
31.9108
34.6023
37.0022
37.7349
43.4892
41.5389
51.1939
46.4026
59.8126
52.8497
68.9673
61.3619
78.3499
72.3187
88.1464
85.1388
98.0008
-6.8893
14.7038
-0.995249
14.4817
3.66994
14.211
7.21754
13.7333
9.86453
13.2056
11.9588
12.8025
13.6316
12.7643
14.7565
13.1532
15.2446
13.953
15.2111
14.8046
15.0144
15.4725
14.7076
15.9739
14.138
16.3224
13.4393
16.5535
12.7742
16.6724
12.29
16.5472
12.1906
16.3395
12.4628
15.6908
13.0295
14.7605
13.5487
13.9493
13.8487
13.1261
14.0672
12.1155
14.1112
11.0513
13.9856
10.111
13.7435
9.60212
13.1695
10.0287
12.9263
11.0616
12.7586
12.1596
12.6629
13.149
12.5405
14.1426
12.2274
14.873
11.8188
15.2088
11.4648
15.0546
11.1888
14.4511
11.0589
13.4941
11.1368
12.2501
11.2123
11.0386
11.2627
10.0423
11.3026
8.9853
11.3262
8.00364
11.3462
7.26938
11.0862
6.97424
10.5003
7.06644
9.71508
7.48931
8.78361
8.035
7.98376
8.59203
7.27294
9.09303
6.56303
9.57537
6.0441
9.81359
5.57731
9.75834
5.22035
9.37038
4.9723
8.66768
4.88004
7.66401
5.01391
6.40652
5.21713
5.26196
5.39672
4.33772
5.59801
3.66912
5.73812
3.13641
5.64291
2.66542
5.35966
2.23116
4.87983
1.83057
4.15097
1.35094
3.20298
0.642659
1.99506
-0.302319
0.218112
-1.69188
-2.25332
-3.80351
-5.63173
-7.00098
-10.2324
-11.6783
-16.3889
-18.1158
-24.2601
-26.2684
-33.5983
-35.5689
-43.0199
-44.3327
-50.526
-50.4427
-53.8948
-52.3085
-52.2124
-49.4871
-46.1411
-42.9487
-37.4657
-35.8877
-30.8517
-33.182
-29.9336
-35.1968
-34.2359
-39.0777
-38.6451
-41.5832
-40.8894
-42.1363
-41.8384
-41.4592
-41.5481
-39.6705
-40.3122
-37.2938
-38.2776
-34.5492
-35.574
-31.5701
-32.0909
-28.3162
-27.6616
-24.7875
-21.8832
-20.4724
-14.5208
-14.786
-5.42744
-7.00095
5.41115
3.46454
17.9091
16.6551
32.0138
31.8954
47.6898
48.3479
64.5241
15.5724
31.907
16.857
29.2744
18.8395
27.685
21.0884
26.6796
23.1294
25.8043
24.9343
25.103
26.2344
24.6185
26.6909
24.5254
26.5817
24.9144
25.9705
25.4256
25.2728
25.8376
24.6516
26.2062
23.9487
26.5604
23.2934
26.8863
22.8374
27.1699
22.7856
27.4577
23.1325
27.8429
24.0347
27.6919
25.2328
27.2058
26.2783
26.7242
26.9951
26.2445
27.5953
25.6059
27.9704
24.8916
28.0314
24.1619
27.6175
23.5881
26.9718
23.3142
26.011
23.565
25.0885
24.1023
24.1862
24.785
23.472
25.4951
22.9855
26.1972
22.829
26.8766
23.055
27.4602
23.7106
27.8091
24.7154
27.9033
26.0177
27.7225
27.3294
27.4357
28.179
27.0104
28.8019
26.4311
29.2018
25.8381
29.4088
25.3507
29.2787
25.2373
28.8188
25.4577
28.089
26.0037
27.2441
26.6963
26.5737
27.4998
26.041
28.3449
25.6675
29.0712
25.4578
29.7399
25.535
30.257
25.931
30.6055
26.6052
30.7834
27.5301
30.7267
28.6894
30.4048
29.8536
30.0848
30.8282
29.7721
31.4363
29.408
31.8596
29.1246
32.0416
29.0222
32.0777
28.9753
31.838
28.9281
31.2398
28.8003
30.2817
28.2256
29.012
27.293
27.135
25.6929
24.4141
23.0522
20.4985
18.8868
14.8712
12.6284
6.99638
3.80324
-3.41065
-7.60377
-16.0002
-20.8348
-29.4392
-33.8767
-41.3703
-44.2209
-48.9323
-49.5661
-50.0689
-48.0363
-43.3193
-38.1938
-28.5827
-22.401
-12.1221
-8.67654
-1.65265
-1.67239
3.82462
2.7782
7.8131
7.76267
10.7397
12.009
12.5707
14.3111
13.1252
15.3249
12.7836
15.3553
12.3191
15.2922
12.4431
15.6287
13.6289
16.4235
16.0039
17.592
19.3646
19.1158
23.6969
21.2136
28.9232
24.2292
34.9808
28.6755
41.7814
34.9124
49.1133
43.2953
57.2524
54.173
66.3618
-2.68907
17.9942
2.73719
16.3866
6.40398
15.3469
9.1422
14.4362
11.175
13.5942
13.0144
13.0561
14.6437
13.1239
15.6534
13.7327
16.0139
14.7966
15.8492
15.9153
15.5405
16.729
15.2136
17.3419
14.6139
17.7015
13.8546
17.8353
13.0814
17.824
12.5122
17.527
12.4927
17.2519
13.1199
16.5392
14.0393
15.5823
14.8268
14.7391
15.3575
13.9703
15.7095
13.0432
15.7651
12.0553
15.503
11.1601
15.1417
10.4911
14.3406
10.9346
13.8977
12.0914
13.7225
13.4306
13.4658
14.6
13.227
15.6018
12.8928
16.2932
12.5252
16.5383
12.2063
16.2639
12.0393
15.5764
12.0988
14.558
12.4447
13.2758
12.8407
12.0696
13.0745
11.1241
13.2427
10.1066
13.2644
9.11867
13.1536
8.5398
12.7886
8.40546
12.0926
8.6284
11.1509
9.17795
10.0504
9.85416
9.1176
10.5693
8.42461
11.2081
7.82154
11.7621
7.30943
12.0257
6.96681
11.9414
6.80897
11.5137
6.83308
10.8066
7.06436
9.84187
7.54458
8.66066
8.09687
7.61064
8.58052
6.79094
9.02548
6.29111
9.32333
6.02742
9.33102
5.8982
9.14882
5.92141
8.84714
6.03935
8.33535
6.15356
7.65636
6.05354
7.01856
5.7899
6.03207
5.19754
4.5907
4.03717
2.46232
1.92964
-0.82046
-1.69401
-5.89187
-7.4232
-13.3611
-15.7996
-23.6703
-26.7162
-35.8598
-38.7385
-47.3322
-49.0109
-54.819
-55.4834
-57.132
-55.7355
-52.6292
-48.6853
-40.501
-35.3481
-26.351
-25.6236
-20.6861
-26.9695
-25.5857
-33.4584
-33.2483
-35.0633
-35.0495
-34.1395
-34.9497
-32.6823
-34.659
-30.9047
-33.5447
-28.9996
-31.6777
-27.2811
-29.5435
-25.5716
-26.8368
-23.6475
-23.6431
-21.5228
-19.627
-18.8493
-14.6695
-15.2737
-8.69271
-10.1991
-1.62664
-3.02917
6.66568
6.30725
16.2089
16.9656
27.5206
29.1476
41.8541
15.3394
28.2314
16.5669
26.4122
18.2295
25.2036
20.3412
24.3517
22.3909
23.6455
23.8264
22.9035
24.9228
22.5119
25.3334
22.6895
25.1483
23.384
24.4783
24.2073
23.7823
24.8697
23.1822
25.4746
22.5263
25.9544
21.8773
26.2932
21.3796
26.4733
21.2379
26.6974
21.4758
26.8945
22.6282
26.5032
24.0434
25.8709
25.3194
25.3306
26.2259
24.8505
26.9515
24.2763
27.3815
23.6238
27.3819
22.8711
26.7359
22.1025
25.7165
21.5355
24.4533
21.7415
23.4257
22.7479
22.2567
23.6491
21.6102
24.5239
21.1762
25.3407
21.1274
26.0611
21.4675
26.5584
22.2087
26.7451
23.31
26.6464
24.7527
26.2677
26.2122
25.8221
27.1559
25.3102
27.8294
24.6214
28.1745
23.8203
28.1588
23.3063
27.8538
23.353
27.1935
23.6301
26.2005
24.2148
25.0517
24.9705
24.16
25.7798
23.553
26.6451
23.0408
27.4772
22.8341
28.1165
22.9463
28.5059
23.3864
28.6457
24.0962
28.5566
25.046
28.1914
26.2428
27.5312
27.4264
26.9075
28.3804
26.3546
29.0155
25.9086
29.3452
25.6884
29.4502
25.6832
29.3639
25.8142
29.1191
26.0024
28.5971
26.2352
27.6258
26.0658
26.6808
25.6116
25.3166
24.6077
23.3309
22.7323
20.3938
19.5532
15.9168
14.3973
9.05874
6.42243
-1.06312
-5.14423
-14.8681
-20.4887
-31.3368
-37.7521
-48.3412
-53.5405
-60.4975
-63.7983
-66.1117
-66.3161
-62.617
-58.1304
-45.8935
-36.3578
-20.1544
-12.6174
-1.87655
-3.04184
1.5355
-0.630848
1.45294
0.22325
1.66245
4.30894
3.31901
6.47418
3.01885
6.66255
1.72278
5.60992
0.961369
4.61357
0.514599
3.86495
1.29209
3.55382
2.93919
3.74027
4.9609
4.07932
7.64903
4.85994
10.9451
6.23083
14.8999
8.82472
19.8177
12.7786
25.0516
18.0145
30.6324
26.178
38.491
3.00435
20.3198
7.07121
18.1036
9.52168
16.4992
11.5872
15.2554
13.2866
14.3414
14.9319
13.8206
16.2407
13.8943
17.0695
14.6641
17.1419
15.9951
16.7235
17.2868
16.3354
18.2588
15.9213
18.9657
15.3343
19.3789
14.5885
19.4718
13.7791
19.3561
13.1244
18.9675
13.1916
18.3113
14.2761
17.6645
15.4959
16.7127
16.4136
15.9345
17.299
15.1927
17.8186
14.437
17.9607
13.6158
17.7394
12.7742
17.153
12.1075
16.0795
12.4147
15.3688
13.4099
14.8912
15.2117
14.3516
16.3661
14.0906
17.3825
13.7264
18.0444
13.3664
18.1833
13.1579
17.8663
13.204
17.1245
13.5128
16.0513
14.2344
14.726
15.0106
13.6135
15.5675
12.7917
15.8954
11.8822
15.9476
10.962
15.7205
10.4327
15.168
10.4702
14.3703
10.8767
13.2336
11.576
11.8678
12.3236
10.7726
13.1392
9.99666
13.8906
9.39907
14.5589
9.00405
14.8221
8.85738
14.7027
8.95014
14.2382
9.27085
13.5155
9.8399
12.5504
10.6884
11.3656
11.5863
10.397
12.3526
9.67623
12.9494
9.29855
13.2832
9.17745
13.3134
9.25864
13.1678
9.51397
12.8894
9.9567
12.5064
10.6234
11.8988
10.9758
11.6552
11.2261
11.2932
11.2877
10.7232
11.0023
9.74959
10.0834
7.89638
7.912
4.27374
3.47761
-2.24404
-4.48348
-12.8987
-16.7042
-27.6843
-32.0774
-43.5576
-47.2001
-55.2346
-58.9608
-63.0677
-65.0714
-64.7324
-63.3886
-54.0502
-44.5281
-29.349
-20.3968
-10.5471
-14.3018
-17.9513
-27.4802
-29.3226
-29.3919
-30.2437
-26.6509
-28.1574
-24.2286
-27.6828
-22.7244
-26.7783
-21.1952
-25.2884
-20.5186
-24.3276
-20.1284
-22.5487
-19.5504
-20.2007
-18.6935
-17.5555
-17.5608
-14.7119
-16.0166
-11.4487
-13.7226
-8.02338
-9.94657
-3.53635
-3.4522
1.70923
2.65564
6.78234
9.53111
17.7077
15.9853
24.3251
16.4398
23.8405
17.5815
22.9393
19.2983
22.0865
21.0461
21.2199
22.4485
20.6021
23.3306
20.4119
23.6261
20.803
23.3693
21.7497
22.6468
22.8441
21.9852
23.7174
21.3944
24.494
20.8067
25.1028
20.2377
25.5104
19.7882
25.6041
19.5324
25.6944
19.7022
25.4198
20.8059
24.7819
22.4005
23.9504
23.9853
23.3016
25.087
22.8391
25.8102
22.378
26.2921
21.9177
26.3318
21.2768
25.4847
20.5483
24.0919
19.6586
22.6709
20.034
20.9011
21.4118
20.0834
22.3836
19.5277
23.3793
19.2215
24.3024
19.1666
25.037
19.5297
25.3134
20.3352
25.2318
21.4868
24.7986
23.0739
24.0971
24.5815
23.4994
25.6355
23.0052
26.341
22.3131
26.528
21.4285
26.2774
20.9144
25.8746
20.9639
25.0568
21.3754
23.8191
22.0779
22.2955
22.9033
21.2239
23.6824
20.4617
24.6009
19.9015
25.4914
19.7273
26.0413
19.8828
26.2623
20.37
26.1614
21.1284
25.7891
22.1423
25.1192
23.4549
24.1159
24.7112
23.259
25.6742
22.587
26.281
22.1739
26.5642
22.0226
26.5904
22.0848
26.4445
22.3611
26.1027
22.7862
25.5454
23.4024
24.6465
23.5373
24.0093