/*--------------------------------*- C++ -*----------------------------------*\
| =========                 |                                                 |
| \\      /  F ield         | OpenFOAM: The Open Source CFD Toolbox           |
|  \\    /   O peration     | Version:  4.1                                   |
|   \\  /    A nd           | Web:      www.OpenFOAM.org                      |
|    \\/     M anipulation  |                                                 |
\*---------------------------------------------------------------------------*/
FoamFile
{
    version     2.0;
    format      ascii;
    class       volScalarField;
    location    "963";
    object      p;
}
// * * * * * * * * * * * * * * * * * * * * * * * * * * * * * * * * * * * * * //

dimensions      [0 2 -2 0 0 0 0];

internalField   nonuniform List<scalar> 
204246
(
135.862
-10.1678
42.7903
22.4109
20.398
26.8417
15.708
27.2079
14.3359
27.08
13.5731
27.6238
11.8553
27.8037
12.9182
25.0562
19.2049
13.5489
25.7827
10.9541
26.886
11.2044
25.4047
11.8645
25.1901
11.5887
26.0043
9.74748
26.8692
9.43128
26.8333
9.84971
25.9099
12.3765
22.0542
18.64
11.817
24.3811
10.5581
24.0786
10.9822
24.2243
10.7372
25.1802
8.98567
26.0715
8.86934
25.8008
10.0641
23.5559
12.3405
20.9536
18.0726
10.8633
23.528
9.52688
23.0402
9.81173
23.0156
9.39588
23.7925
7.45047
24.4796
7.15025
23.9371
8.23055
21.3454
10.0953
18.6115
15.0289
8.94774
18.5493
6.98089
18.7448
5.63445
18.0336
3.91428
17.4735
0.609873
16.0246
-0.605917
12.3557
-1.73313
7.23919
-3.92557
1.60951
-3.18162
-10.4477
-7.1203
-16.313
-11.0819
-22.7601
-15.3036
-30.892
-19.3227
-36.8552
-22.792
-41.0941
-24.9732
-41.56
-27.5103
-39.5469
-27.5865
-35.7117
-25.8073
-29.0305
-30.3334
-19.5807
-29.2875
-14.2533
-28.8552
-11.1492
-26.7476
-10.3739
-25.9683
-9.96544
-26.0484
-10.1294
-26.177
-10.9743
-25.1503
-13.8525
-19.4724
-24.4965
-13.2013
-27.0262
-11.6139
-27.4807
-11.0407
-27.3894
-10.673
-27.128
-10.3479
-26.8069
-10.0436
-26.0492
-10.3022
-24.1561
-12.5737
-17.7985
-22.6923
-11.1434
-24.7748
-9.34105
-24.8743
-8.49136
-24.6418
-7.93042
-24.161
-7.38214
-23.4712
-6.80669
-22.3544
-6.4683
-19.7945
-7.97257
-12.5912
-16.7074
-4.68884
-17.2614
-1.21892
-15.2135
1.20406
-11.5572
3.87027
-6.89434
7.74742
-1.13866
12.8566
5.84808
19.1654
14.8297
27.1514
26.3874
36.645
43.1687
45.41
59.2666
63.8041
77.112
86.86
100.231
114.573
129.474
149.414
167.241
195.532
218.185
262.093
291.032
378.767
394.69
601.731
43.786
21.604
21.4907
25.9257
19.3262
24.1452
18.7176
23.1288
18.3156
22.7007
17.8627
22.6647
17.6664
21.6032
18.9051
19.2882
21.9319
16.2575
21.625
16.3264
21.1598
16.7428
20.6595
16.4959
20.7459
16.0452
21.1515
15.5576
20.9155
15.6144
20.5082
16.0962
19.4507
17.6163
17.4429
20.4703
14.9958
19.9796
15.5091
19.5819
15.4393
19.7909
15.1323
20.2846
14.7817
20.053
15.0416
19.4828
15.8637
18.3674
16.9054
16.5618
19.6998
14.1463
19.1094
14.5672
18.585
14.3603
18.6456
13.8938
18.9699
13.3681
18.5413
13.4357
17.7566
13.9762
16.5534
14.6648
14.6104
16.9081
12.0807
15.788
11.41
15.1199
10.5258
14.3152
9.14039
13.3666
7.39343
11.133
5.73296
8.69242
4.0389
5.01071
1.66458
-0.277705
0.671076
-5.80036
-6.09072
-11.4924
-11.5663
-17.3064
-16.8201
-23.8925
-22.2691
-29.4273
-27.2236
-33.4051
-31.4137
-35.1935
-33.3829
-35.411
-32.7536
-33.5794
-31.4058
-28.5738
-30.3855
-24.3854
-26.4355
-20.5341
-23.7788
-18.2669
-21.4833
-16.7113
-20.5985
-15.929
-20.5161
-16.0025
-20.4765
-16.9863
-19.6142
-19.2554
-17.0337
-22.2157
-17.1298
-22.2926
-17.0616
-22.1547
-16.8517
-21.9253
-16.5786
-21.6215
-16.3037
-21.2209
-16.1863
-20.4566
-16.5522
-18.8097
-18.1475
-15.5731
-20.5019
-15.2019
-20.1645
-14.8342
-19.7648
-14.3839
-19.3393
-13.9714
-18.8528
-13.5336
-18.2091
-13.1304
-17.1522
-13.0643
-14.9736
-13.9449
-11.1093
-15.2761
-9.60515
-13.5988
-7.79032
-11.2731
-5.50325
-8.53874
-2.59205
-5.11078
1.1103
-0.596722
5.84814
5.21433
11.2479
12.9622
18.1961
22.7328
26.372
35.1223
38.814
47.8884
54.4516
63.9722
73.6578
84.1154
97.155
108.737
125.918
138.729
161.942
175.36
210.621
217.26
291.983
257.423
392.103
19.1437
28.5175
24.076
25.536
21.5932
23.9508
19.7792
23.2435
18.8162
22.8024
18.2416
22.4517
18.024
21.6131
18.7233
19.8824
20.3337
17.7051
20.9023
16.8313
21.017
16.6327
20.7954
16.4382
20.7252
16.1375
20.8201
15.7817
20.7504
15.7361
20.4556
16.1227
19.6375
17.2202
17.9851
18.8557
16.2172
19.3969
15.6978
19.5764
15.4689
19.7352
15.2499
19.9508
15.013
19.9089
15.1217
19.5317
15.6538
18.6544
16.5872
17.1449
18.1326
15.3711
18.5612
14.7612
18.6051
14.3954
18.6086
14.0139
18.6523
13.5981
18.4211
13.5109
17.8402
13.817
16.7096
14.4246
14.9874
15.4816
13.0158
15.3926
11.7511
15.0192
10.658
14.2906
9.33394
13.2138
7.67328
11.479
6.2406
8.60513
4.79784
4.73705
2.61077
0.0889477
-0.818164
-4.83988
-5.45522
-10.019
-11.3947
-15.8391
-17.3862
-22.1917
-23.227
-28.0027
-28.2767
-32.665
-31.9166
-35.2879
-33.8689
-35.8797
-33.7367
-33.6471
-32.4351
-29.4119
-29.7983
-25.1191
-25.8797
-20.9442
-22.9613
-18.1103
-20.8018
-16.1705
-20.0249
-15.3311
-19.9773
-15.5235
-20.0509
-16.5847
-19.6404
-18.5203
-18.3541
-20.819
-17.6987
-21.7569
-17.1922
-21.9821
-16.8401
-21.8647
-16.5342
-21.5831
-16.2638
-21.1585
-16.1307
-20.4274
-16.406
-19.0825
-17.5197
-16.9324
-19.1707
-15.731
-19.6318
-14.8871
-19.5408
-14.3092
-19.2099
-13.8419
-18.7438
-13.3941
-18.0922
-12.9974
-17.0587
-12.8773
-15.1882
-13.3733
-12.2896
-14.0168
-10.0955
-13.183
-7.81543
-11.3282
-5.57074
-8.42099
-3.00527
-4.53499
0.474699
0.240764
5.12056
6.20234
11.1511
13.6613
18.6584
23.1774
28.2746
34.7897
39.815
48.8182
55.4317
65.6649
75.3371
86.5924
100.142
112.663
131.249
145.12
170.783
185.455
225.165
233.086
309.247
287.976
376.757
3.78373
19.8373
15.6076
22.3197
18.4819
22.2588
19.2752
21.6266
19.5232
21.1706
19.5007
20.764
19.6566
19.9041
20.2796
18.7783
20.939
18.1879
20.2146
18.2385
19.6514
18.3029
19.3541
18.0702
19.2808
17.7933
19.2507
17.6484
18.9502
17.7047
18.5356
18.0247
17.87
18.7091
17.0717
19.3068
16.7744
18.6668
16.9873
18.3526
16.9466
18.332
16.8382
18.3718
16.8424
18.1113
17.0419
17.7027
17.4303
17.1324
17.9281
16.3557
18.5213
16.0087
17.8311
16.1207
17.4217
15.9521
17.269
15.695
17.1508
15.5341
16.7154
15.5494
16.126
15.7285
15.4501
15.9086
14.5085
16.2037
13.9079
15.1634
13.3477
14.3984
12.6651
13.5572
11.6971
12.4386
10.4739
10.7234
8.8951
8.64229
7.15875
5.67239
4.77254
1.94601
1.57294
-2.43433
-3.59048
-7.45143
-9.24208
-13.24
-15.4057
-19.3603
-22.259
-25.387
-28.4832
-30.6307
-33.4424
-34.2167
-35.9589
-35.739
-36.2055
-34.598
-34.6389
-31.3335
-31.3497
-27.6636
-26.7103
-23.619
-22.4858
-20.6956
-19.8499
-18.6347
-18.6638
-17.5935
-18.4699
-17.6205
-18.4833
-18.4882
-18.3483
-19.7698
-17.9945
-20.6052
-18.6761
-20.7003
-18.9169
-20.5682
-18.8415
-20.3144
-18.6228
-19.9703
-18.3879
-19.5213
-18.2701
-18.8558
-18.4276
-17.8264
-18.9507
-16.6968
-19.0641
-16.7797
-18.6689
-16.6948
-18.2485
-16.4533
-17.8223
-16.1441
-17.3641
-15.802
-16.7874
-15.4851
-15.926
-15.3756
-14.4725
-15.2991
-12.9517
-14.5768
-12.1427
-13.154
-10.8613
-11.297
-8.97995
-9.07589
-6.63405
-6.23507
-3.517
-2.6033
0.515409
2.05591
5.44437
8.23738
11.7097
15.9622
19.5418
25.7482
29.8892
36.8235
42.9424
50.2757
58.9418
66.7674
78.3573
86.6617
101.878
110.656
131.228
138.311
171.362
166.246
223.735
210.599
281.695
6.01182
21.1767
16.5889
21.6915
19.6052
21.8251
20.145
21.6027
20.0385
21.2103
19.8469
20.7352
19.8533
20.0076
20.0704
19.209
20.15
18.88
19.7293
18.6183
19.4608
18.367
19.3169
18.0823
19.2001
17.8578
19.0651
17.7609
18.8249
17.7703
18.495
17.9538
17.9859
18.2945
17.4494
18.4909
17.3357
18.2136
17.225
18.1909
17.044
18.2107
16.9349
18.183
16.9605
18.0063
17.0734
17.7236
17.288
17.3096
17.5748
16.7555
17.764
16.5835
17.4357
16.3748
17.2988
16.0617
17.1736
15.7998
16.9824
15.655
16.6277
15.5666
16.1691
15.5827
15.5314
15.6426
14.7291
15.4903
14.2602
14.9314
13.6136
14.2849
12.8335
13.5416
11.913
12.4887
10.8166
10.9785
9.4492
8.7888
7.63927
6.07491
5.11425
2.74609
1.77596
-1.20265
-2.61075
-6.18938
-8.05719
-11.96
-14.3135
-18.2162
-21.1142
-24.6584
-27.6686
-30.4692
-33.1316
-34.7992
-36.541
-36.7134
-37.3648
-35.902
-35.6555
-32.6934
-31.8442
-28.1266
-26.9515
-23.4302
-22.203
-19.8
-18.9648
-17.473
-17.5886
-16.5487
-17.4265
-16.841
-17.7276
-17.866
-18.133
-19.1551
-18.5874
-19.7684
-19.0143
-20.1797
-19.0354
-20.304
-18.8583
-20.1661
-18.608
-19.8596
-18.3616
-19.4191
-18.2105
-18.7936
-18.2473
-17.9905
-18.417
-17.2565
-18.2792
-17.0569
-18.0852
-16.698
-17.8428
-16.3268
-17.5085
-15.9626
-17.0895
-15.6004
-16.5298
-15.269
-15.7059
-15.1539
-14.5655
-14.731
-13.2732
-14.0003
-12.2668
-12.7478
-10.8469
-11.0574
-8.95994
-8.77096
-6.43675
-5.86312
-3.16592
-2.12741
0.999277
2.74153
6.22074
8.95397
12.8434
16.8565
21.1801
26.613
31.8413
38.5698
45.4488
53.1901
62.4788
71.1082
83.563
92.9265
109.373
119.015
141.533
149.273
183.63
180.568
229.858
218.495
263.593
3.98804
16.0047
13.1309
18.4278
17.3358
19.9539
19.0623
20.4684
19.8379
20.3897
20.0892
20.0931
20.2447
19.6613
20.3628
19.1333
20.2742
19.0524
19.6422
19.0728
19.1912
18.9563
18.9221
18.7424
18.7374
18.5545
18.542
18.477
18.2512
18.4908
17.9338
18.5997
17.585
18.7325
17.3306
18.6317
17.4853
18.1269
17.6185
17.8837
17.5926
17.7697
17.5695
17.6619
17.6324
17.457
17.7497
17.2199
17.8786
16.9599
17.9851
16.7096
17.8892
16.8009
17.358
16.8299
17.0403
16.6869
16.8002
16.5247
16.5381
16.4335
16.1819
16.3611
15.8045
16.2695
15.4168
16.2011
14.9824
15.9053
14.7567
15.2334
14.4271
14.5087
13.8703
13.7706
13.0964
12.8607
12.1084
11.577
10.8518
9.87825
9.16389
7.59475
6.87924
4.55234
3.72734
0.720573
-0.587296
-3.96472
-5.9433
-9.63294
-12.2871
-16.1099
-19.4288
-23.0694
-26.7109
-29.7867
-33.2066
-35.2424
-37.771
-38.3662
-39.5464
-38.3375
-38.2759
-35.4011
-34.3591
-30.7061
-28.9251
-25.5594
-23.6302
-21.2237
-19.7629
-18.4408
-17.594
-17.1937
-17.0379
-17.2547
-17.3709
-18.1399
-17.9612
-19.1697
-18.793
-19.9406
-19.6119
-20.1927
-19.8317
-20.1662
-19.7326
-19.9147
-19.5056
-19.5217
-19.2574
-19.055
-19.0632
-18.5318
-18.9525
-17.9719
-18.9358
-17.5641
-18.5073
-17.6171
-18.1337
-17.5406
-17.7695
-17.3632
-17.3918
-17.1213
-16.9905
-16.8459
-16.5349
-16.4992
-15.9406
-16.2519
-15.126
-15.8296
-14.4153
-14.8911
-13.6816
-13.8636
-12.6289
-12.5122
-11.2124
-10.7992
-9.2866
-8.62799
-6.77914
-5.78289
-3.57655
-2.01958
0.491866
2.85246
5.65623
9.04742
12.2862
16.735
20.8771
25.9995
31.7013
37.2805
45.1309
51.0736
61.5541
67.8059
81.6047
87.5635
106.407
109.629
140.053
133.606
174.786
172.281
212.872
7.33821
18.6698
14.6565
19.1715
18.1025
20.0793
19.5557
20.4921
20.1608
20.4514
20.2858
20.1763
20.3151
19.7912
20.2021
19.3185
19.9594
19.2969
19.4534
19.2296
19.0672
19.0166
18.8437
18.7652
18.6566
18.582
18.4465
18.4912
18.2007
18.4615
17.9277
18.4809
17.6467
18.4815
17.4799
18.2598
17.6757
17.867
17.7332
17.7413
17.6512
17.6713
17.6059
17.574
17.6462
17.4154
17.7048
17.2585
17.7605
17.0638
17.7539
16.904
17.5886
16.996
17.2098
16.9562
16.9477
16.7531
16.7346
16.5657
16.4806
16.4352
16.1644
16.3182
15.8122
16.1684
15.4312
15.9477
15.037
15.6211
14.8531
15.1032
14.5128
14.5104
13.9847
13.8298
13.27
13.0015
12.401
11.8331
11.2298
10.2661
9.66239
8.2325
7.54754
5.57456
4.63029
2.17471
0.701054
-2.26531
-4.33986
-7.77684
-10.542
-14.2917
-17.7417
-21.6049
-25.4178
-29.0157
-32.668
-35.4453
-38.241
-39.5303
-40.9501
-40.2746
-40.0886
-37.431
-35.7855
-31.8804
-29.4215
-25.4593
-23.1309
-20.0699
-18.5346
-16.7156
-16.2208
-15.569
-15.6871
-16.0417
-16.2993
-17.3268
-17.4682
-18.619
-18.6758
-19.4147
-19.5515
-19.9034
-19.7967
-20.0321
-19.7084
-19.8287
-19.4906
-19.4616
-19.2172
-19.021
-18.9664
-18.5091
-18.7543
-17.9402
-18.5298
-17.5821
-18.0645
-17.5416
-17.6571
-17.3589
-17.3383
-17.1099
-17.0246
-16.8285
-16.6758
-16.5102
-16.3012
-16.2179
-15.7063
-15.8736
-14.9959
-15.3637
-14.2365
-14.6853
-13.4393
-13.6284
-12.3611
-12.2341
-10.8498
-10.4549
-8.80363
-8.17627
-6.14993
-5.20211
-2.81416
-1.27921
1.43954
3.75584
6.88678
10.1236
13.858
18.0544
22.807
27.822
34.1678
39.8255
48.2795
54.4724
65.5754
72.0686
86.5343
92.629
112.269
114.483
142.423
139.08
170.288
166.453
195.251
6.4164
16.8905
13.044
17.8061
16.7156
19.0144
18.6956
19.7748
19.7564
20.0065
20.224
19.9614
20.3315
19.7255
20.3283
19.4282
20.0229
19.4406
19.5325
19.4038
19.1589
19.2167
18.8405
19.0352
18.5794
18.8817
18.3403
18.7839
18.1043
18.7151
17.8636
18.6906
17.6104
18.647
17.5274
18.3347
17.7604
17.9066
17.8865
17.6932
17.8793
17.5581
17.8798
17.4378
17.9156
17.3157
17.9513
17.1773
17.9812
17.0463
17.9515
16.9681
17.6931
17.1302
17.2784
17.152
16.9989
17.0408
16.733
16.8953
16.4636
16.7741
16.1629
16.6508
15.8654
16.5219
15.5819
16.3464
15.3019
15.9569
15.251
15.4395
14.9993
14.9467
14.5884
14.3694
14.0325
13.6377
13.3017
12.6807
12.3116
11.3722
10.9418
9.57638
9.01975
7.1563
6.31556
3.95086
2.62587
-0.22232
-2.23342
-5.55625
-8.38022
-12.119
-15.7661
-19.7971
-24.0672
-28.0669
-32.4578
-35.8395
-39.5766
-41.5237
-43.7398
-43.4891
-43.6974
-41.1928
-39.5349
-35.5303
-32.6507
-28.3811
-25.3135
-21.9053
-19.5339
-17.5544
-16.2204
-15.6262
-15.2215
-15.6305
-15.8164
-16.8515
-17.1951
-18.5285
-18.7837
-19.8707
-19.9965
-20.4545
-20.4185
-20.4551
-20.3415
-20.0842
-20.0119
-19.6137
-19.6359
-19.1221
-19.3276
-18.6658
-19.1286
-18.2279
-18.9119
-18.0374
-18.4076
-18.0661
-18.0434
-17.9722
-17.7035
-17.8035
-17.3711
-17.5791
-17.0353
-17.2983
-16.7162
-17.0406
-16.2688
-16.7557
-15.7639
-16.3418
-15.2667
-15.6028
-14.7986
-14.8083
-14.0162
-13.8517
-12.9072
-12.629
-11.4503
-10.9871
-9.56237
-8.77904
-7.10974
-5.86665
-3.91606
-2.08351
0.235935
2.752
5.64221
8.81135
12.6612
16.3399
21.5666
25.6328
32.7459
37.0858
46.5559
51.056
63.5433
67.3536
85.0378
85.7405
110.323
108.42
136.865
136.784
163.803
10.1266
19.0525
14.8498
19.1958
17.6979
19.6431
19.2285
20.0514
20.028
20.1568
20.3411
20.0554
20.3671
19.8052
20.1913
19.5625
19.868
19.5138
19.45
19.3973
19.1177
19.2019
18.8154
19.0104
18.5549
18.8543
18.3064
18.7513
18.0717
18.67
17.8384
18.6044
17.6183
18.462
17.5903
18.1485
17.7907
17.7845
17.8664
17.6229
17.866
17.5004
17.854
17.4126
17.8646
17.3038
17.8978
17.1795
17.9072
17.0826
17.8154
17.074
17.561
17.2049
17.2078
17.192
16.9705
17.0578
16.7201
16.9046
16.4472
16.7697
16.1389
16.6262
15.8229
16.4336
15.5442
16.1804
15.3252
15.7851
15.2548
15.34
15.0201
14.9242
14.6618
14.4161
14.1912
13.7755
13.5589
12.9444
12.7007
11.8388
11.5334
10.3411
9.88497
8.30821
7.52387
5.54035
4.22381
1.7745
-0.233999
-3.22825
-6.08754
-9.66308
-13.442
-17.5692
-22.0962
-26.5115
-31.3274
-35.4325
-39.727
-42.581
-45.3637
-45.994
-46.491
-44.4842
-42.4355
-38.0645
-34.2022
-29.0788
-25.1501
-20.9062
-18.2166
-15.6951
-14.5875
-13.7349
-13.682
-14.1026
-14.5364
-15.7927
-16.3136
-17.7597
-18.2752
-19.3006
-19.6696
-20.2746
-20.2813
-20.5177
-20.2636
-20.2594
-19.9759
-19.8075
-19.6484
-19.2369
-19.2802
-18.6471
-18.9108
-18.1119
-18.5538
-17.8254
-18.0663
-17.7524
-17.6596
-17.6117
-17.3232
-17.4391
-17.0255
-17.2289
-16.7183
-16.973
-16.4187
-16.7022
-16.0131
-16.3968
-15.5407
-15.9792
-15.0686
-15.3561
-14.5097
-14.5891
-13.6781
-13.5907
-12.5615
-12.2714
-11.0579
-10.5625
-9.08538
-8.31356
-6.56341
-5.34562
-3.29114
-1.51494
0.95921
3.35632
6.46864
9.48761
13.5661
17.0915
22.6169
26.4917
33.8768
38.0064
47.6542
51.8267
64.4413
67.6487
84.565
84.9116
106.576
104.232
127.001
125.867
147.282
9.49116
18.6381
14.0833
18.7987
16.9281
19.3695
18.6935
19.8477
19.7374
20.057
20.2575
20.0329
20.4136
19.9156
20.2672
19.7159
19.964
19.6434
19.5752
19.5433
19.2337
19.3455
18.9126
19.1696
18.6145
19.014
18.3509
18.8919
18.1147
18.8021
17.8857
18.7257
17.6847
18.5607
17.6649
18.2251
17.8582
17.8509
17.9443
17.6648
17.9579
17.5236
17.9675
17.4122
17.99
17.3173
18.0213
17.2124
18.0343
17.1524
17.9212
17.1662
17.6602
17.318
17.2973
17.3372
17.0731
17.2265
16.8229
17.0927
16.5591
16.9634
16.2863
16.8322
16.0002
16.6807
15.7571
16.4578
15.5802
16.0824
15.5688
15.6579
15.4162
15.3053
15.13
14.8892
14.7551
14.3691
14.2498
13.6808
13.546
12.735
12.5383
11.4312
11.0725
9.62661
8.94914
7.11975
5.95365
3.66367
1.80664
-1.0365
-3.78323
-7.26978
-11.0382
-15.2226
-20.0019
-24.7755
-30.2617
-35.1288
-40.5432
-44.4674
-48.5004
-50.0369
-51.2684
-49.3981
-47.5426
-43.0168
-38.8952
-33.1368
-28.2818
-23.1032
-19.1468
-15.9514
-13.7988
-12.8833
-12.2704
-12.9078
-13.2784
-14.793
-15.6419
-17.4834
-18.321
-19.8843
-20.3086
-21.1134
-21.1341
-21.1609
-20.9761
-20.5884
-20.4128
-19.9423
-19.916
-19.3488
-19.5257
-18.8699
-19.212
-18.4784
-18.9378
-18.3104
-18.4728
-18.304
-18.111
-18.1975
-17.7786
-18.0118
-17.4663
-17.8153
-17.1561
-17.5645
-16.9073
-17.3376
-16.583
-17.0807
-16.2536
-16.7137
-15.9754
-16.1964
-15.6067
-15.6747
-15.0438
-15.0061
-14.2791
-14.1225
-13.2393
-12.9323
-11.8619
-11.3181
-10.05
-9.17101
-7.63637
-6.35161
-4.43226
-2.71098
-0.206314
1.93093
5.3269
7.80099
12.4427
15.167
21.4757
24.3712
32.7839
35.6642
46.9088
49.0707
64.585
64.3948
83.8466
84.2713
104.704
105.178
125.255
12.5154
20.7791
16.0133
20.2325
18.0592
20.2605
19.3176
20.3359
20.0366
20.3218
20.3704
20.1789
20.4094
19.9797
20.227
19.7618
19.8983
19.6477
19.5111
19.5243
19.1655
19.3378
18.8467
19.1477
18.5704
18.9853
18.3195
18.8624
18.0698
18.7644
17.8415
18.6575
17.6604
18.4592
17.6538
18.1213
17.831
17.7634
17.9124
17.5933
17.9246
17.4659
17.9313
17.377
17.9443
17.2739
17.9901
17.183
17.9895
17.1575
17.8684
17.2009
17.6112
17.3519
17.2591
17.3716
17.0556
17.2486
16.8199
17.1067
16.553
16.9601
16.262
16.8155
15.9553
16.6298
15.7131
16.372
15.552
15.9831
15.5369
15.5508
15.4207
15.2602
15.1887
14.9177
14.8947
14.493
14.5027
13.9507
13.9544
13.2297
13.1738
12.2353
12.0184
10.817
10.2766
8.76233
7.72424
5.81428
4.08214
1.62148
-1.04298
-4.24027
-8.03234
-12.1784
-17.1948
-22.3046
-28.2962
-33.9248
-40.1527
-45.2535
-50.2852
-53.2388
-55.4182
-54.8744
-53.1439
-48.4988
-43.2013
-36.2097
-29.7664
-23.4024
-18.6152
-14.7518
-12.4298
-11.1147
-10.664
-11.1116
-11.6299
-13.2637
-14.2109
-16.2597
-17.3172
-19.1141
-19.8422
-21.0137
-21.1559
-21.4794
-21.2001
-21.056
-20.6763
-20.32
-20.2303
-19.5534
-19.6482
-18.8004
-19.0883
-18.208
-18.6099
-17.933
-18.108
-17.9145
-17.7018
-17.8006
-17.3849
-17.6796
-17.1228
-17.5234
-16.8535
-17.3023
-16.6182
-17.1043
-16.3459
-16.858
-16.0457
-16.507
-15.7925
-16.0158
-15.4554
-15.5075
-14.9179
-14.8428
-14.183
-13.9693
-13.1732
-12.8166
-11.8321
-11.2727
-10.0779
-9.22648
-7.76082
-6.54967
-4.68272
-3.09694
-0.616585
1.31538
4.70283
6.8688
11.5375
13.8666
20.1369
22.5619
30.8407
33.0672
44.0765
45.1619
59.6312
59.5067
75.9304
75.689
93.0435
93.0556
110.131
12.3653
20.8824
15.8289
20.3
17.8599
20.3782
19.1584
20.5123
19.9836
20.5127
20.4275
20.3678
20.5372
20.1913
20.3868
19.9307
20.0604
19.7849
19.6675
19.6727
19.2835
19.4935
18.949
19.2939
18.6484
19.1173
18.3884
18.9798
18.149
18.8671
17.9283
18.7525
17.7472
18.5406
17.7338
18.1954
17.8922
17.8262
17.9748
17.6344
17.9932
17.497
18.0071
17.3928
18.0376
17.3052
18.0794
17.2325
18.0788
17.2299
17.9509
17.2938
17.6999
17.4604
17.3408
17.5047
17.1534
17.3968
16.922
17.2692
16.6686
17.1388
16.3976
17.0029
16.1258
16.8388
15.8969
16.5981
15.7743
16.2263
15.8046
15.8151
15.7279
15.5579
15.5449
15.2688
15.317
14.9331
15.0038
14.4971
14.566
13.8928
13.9128
13.0568
12.9265
11.8641
11.4281
10.0977
9.19682
7.49916
5.94335
3.72316
1.26829
-1.70444
-5.30179
-9.29019
-14.2485
-19.4152
-25.7684
-31.9857
-39.3446
-45.8446
-52.7232
-57.3564
-61.273
-61.3854
-60.0913
-55.2388
-49.7076
-41.9407
-34.3654
-26.0673
-19.0532
-13.5901
-9.96646
-8.62098
-7.70983
-8.77834
-9.27329
-11.5572
-12.8854
-15.7277
-17.1505
-19.6724
-20.6756
-22.0432
-22.3184
-22.3557
-22.0753
-21.3384
-20.9779
-20.2865
-20.246
-19.6313
-19.7897
-19.0927
-19.3954
-18.6
-19.0094
-18.4809
-18.5453
-18.5186
-18.1996
-18.3579
-17.8399
-18.1681
-17.5265
-17.9787
-17.2453
-17.7645
-17.0109
-17.5595
-16.78
-17.349
-16.5657
-17.0596
-16.4501
-16.6557
-16.2218
-16.3263
-15.8588
-15.9084
-15.3568
-15.3338
-14.6725
-14.5405
-13.7397
-13.4536
-12.4976
-11.9729
-10.7895
-10.0067
-8.45834
-7.4308
-5.33192
-4.05253
-1.21032
0.248029
4.20277
5.72592
11.1532
12.6613
20.0055
21.3411
31.2043
31.8584
44.2552
45.3011
59.5998
60.9868
76.2298
77.2886
93.1774
15.091
23.0083
17.702
21.7426
19.0518
21.2812
19.8432
21.023
20.3346
20.7846
20.5756
20.5087
20.5773
20.2225
20.4295
19.9389
20.0727
19.7691
19.6247
19.6551
19.2167
19.4897
18.882
19.2803
18.5986
19.081
18.3507
18.9426
18.0971
18.8392
17.8684
18.7171
17.7019
18.4838
17.6976
18.137
17.8459
17.7619
17.9297
17.5653
17.9544
17.4288
17.9719
17.3361
18.0026
17.246
18.0561
17.187
18.0561
17.2184
17.9357
17.3016
17.6961
17.4778
17.3442
17.5241
17.15
17.432
16.9248
17.2965
16.667
17.1523
16.382
17.0036
16.084
16.8325
15.8391
16.5479
15.7308
16.1567
15.7615
15.731
15.7194
15.4992
15.5906
15.2796
15.4311
15.0242
15.2325
14.7282
14.9341
14.3368
14.4846
13.7756
13.7842
12.9344
12.6597
11.6192
10.8999
9.57926
8.23557
6.44543
4.20973
1.64283
-1.80483
-5.54488
-10.5292
-15.8337
-22.6215
-29.5927
-37.8705
-45.7777
-54.1646
-60.9329
-66.7157
-69.2857
-69.52
-65.616
-59.127
-50.1221
-40.1332
-30.1489
-21.2877
-14.3256
-9.2727
-7.08416
-5.84116
-6.48009
-6.87343
-9.20607
-10.3987
-13.574
-15.4501
-18.4484
-20.1069
-22.1311
-22.8315
-23.3626
-22.9363
-22.5626
-21.6272
-21.0851
-20.9016
-19.9149
-20.063
-18.9352
-19.2444
-18.1302
-18.574
-17.9562
-18.1713
-18.0024
-17.7746
-17.9437
-17.4517
-17.8841
-17.223
-17.7622
-16.9889
-17.6091
-16.754
-17.4318
-16.5959
-17.2618
-16.4018
-16.993
-16.3017
-16.5643
-16.2092
-16.2707
-15.9281
-15.8906
-15.5353
-15.386
-14.9357
-14.7047
-14.1115
-13.7748
-13.0188
-12.5183
-11.5397
-10.8401
-9.4965
-8.6134
-6.73913
-5.68752
-2.96151
-1.96816
1.88541
2.88939
8.04984
9.02341
15.8018
16.6713
25.2944
26.4128
36.5893
37.9633
49.6304
51.0759
64.2153
65.1878
79.37
15.0654
23.4539
17.8743
22.1544
19.3166
21.6711
20.1447
21.3836
20.6602
21.1086
20.9032
20.8087
20.897
20.4763
20.7125
20.1467
20.3087
19.9454
19.7986
19.8278
19.3363
19.6526
18.9789
19.422
18.6763
19.2129
18.413
19.0877
18.1573
18.9755
17.9368
18.8311
17.7764
18.5806
17.7638
18.2189
17.9049
17.8138
17.996
17.5968
18.0115
17.4405
18.0384
17.3419
18.0882
17.2454
18.1478
17.2081
18.1414
17.2605
18.0208
17.3669
17.7839
17.572
17.4224
17.6494
17.2284
17.5686
17.0138
17.4501
16.7606
17.327
16.4821
17.2048
16.1976
17.029
15.9895
16.7381
15.9131
16.3599
15.9698
15.9349
15.9533
15.7109
15.8463
15.5032
15.7422
15.2983
15.5981
15.0549
15.3765
14.7695
15.0178
14.3643
14.4588
13.7385
13.5562
12.7084
12.1127
11.0387
9.888
8.42814
6.49086
4.31741
1.24119
-2.12025
-6.79539
-11.8429
-18.5987
-25.7883
-34.8201
-43.7695
-54.1503
-63.1946
-72.1798
-76.9545
-79.1645
-74.929
-68.6555
-58.4155
-47.4924
-34.0884
-21.5223
-11.5841
-4.88936
-2.48402
-1.35524
-3.08075
-3.58688
-6.8877
-8.6999
-12.6568
-14.8907
-18.6575
-20.7915
-23.1383
-24.2757
-24.5036
-24.1555
-22.9141
-21.8374
-20.4761
-20.7125
-19.9858
-20.2437
-19.465
-19.7255
-18.6392
-18.9305
-18.5634
-18.6652
-18.7531
-18.2774
-18.5247
-17.8266
-18.2739
-17.5583
-18.1119
-17.2976
-17.9289
-17.054
-17.7194
-16.8865
-17.5988
-16.7328
-17.3818
-16.7342
-16.963
-16.7074
-16.7828
-16.5398
-16.569
-16.2991
-16.2464
-15.9265
-15.7998
-15.3715
-15.1839
-14.6078
-14.3526
-13.538
-13.2023
-12.039
-11.6647
-9.95997
-9.60522
-7.14519
-6.78997
-3.51945
-3.12558
1.27621
1.61843
7.58118
7.98966
15.4792
16.2605
25.3524
26.4721
37.1877
38.4996
50.7078
51.7059
65.2761
17.5371
25.3903
19.6545
23.4425
20.5011
22.4422
20.8646
21.7898
21.0487
21.3051
21.1143
20.8691
21.042
20.5046
20.7889
20.1562
20.3699
19.9456
19.7766
19.824
19.2745
19.6554
18.9062
19.4037
18.6097
19.2194
18.3377
19.0912
18.0854
18.9708
17.873
18.8195
17.7228
18.5663
17.7135
18.1939
17.858
17.766
17.9593
17.5173
17.9901
17.354
18.0197
17.2514
18.0689
17.1642
18.1367
17.1441
18.1457
17.2207
18.036
17.3545
17.8062
17.5869
17.4449
17.6857
17.2386
17.622
17.0248
17.5161
16.7536
17.3962
16.4436
17.2648
16.1376
17.0537
15.9286
16.7204
15.8571
16.324
15.9236
15.8966
15.9256
15.6477
15.8778
15.497
15.83
15.3161
15.8022
15.1769
15.6787
15.0734
15.4447
14.8986
15.0959
14.557
14.4996
13.9123
13.4789
12.7502
11.7968
10.7464
9.08875
7.40976
4.70698
1.89896
-2.38231
-7.01912
-13.6054
-20.8982
-30.5489
-41.0908
-53.5552
-65.7765
-78.0292
-87.1433
-92.4562
-91.6727
-84.8134
-74.9834
-62.2863
-49.0598
-31.2532
-17.0856
-5.3351
-1.22683
1.68267
-0.0240688
0.0611459
-3.33364
-4.20925
-8.89308
-12.1071
-16.5937
-20.0609
-23.5954
-25.6138
-26.7602
-26.3704
-25.4254
-23.3714
-22.2313
-21.1904
-20.1764
-20.4038
-18.9929
-19.441
-17.8978
-18.4065
-17.6215
-18.2314
-17.9899
-17.953
-18.0813
-17.5689
-18.012
-17.333
-17.9406
-17.1029
-17.8279
-16.871
-17.6724
-16.7352
-17.5582
-16.6282
-17.3622
-16.6558
-16.9675
-16.6943
-16.8135
-16.6357
-16.653
-16.5464
-16.4478
-16.265
-16.1251
-15.8476
-15.6401
-15.2922
-15.0029
-14.4901
-14.1528
-13.2935
-12.9206
-11.6258
-11.3066
-9.19144
-9.02436
-6.05686
-5.97774
-2.01838
-2.12561
3.1806
3.04832
9.62034
9.84968
17.7425
18.1897
27.5114
28.1045
39.0234
39.5678
52.2721
17.577
26.0142
20.0526
24.0149
21.0822
22.9849
21.5147
22.2894
21.6929
21.7157
21.6957
21.2313
21.5058
20.8314
21.1699
20.3975
20.6532
20.1691
19.9658
20.0292
19.3879
19.8376
18.9922
19.5542
18.6698
19.3797
18.39
19.2549
18.1266
19.1292
17.9166
18.9586
17.7763
18.6849
17.7688
18.2791
17.92
17.805
18.0316
17.5187
18.0701
17.3317
18.1049
17.2108
18.165
17.1281
18.2259
17.131
18.221
17.2302
18.1117
17.3963
17.8791
17.6678
17.5096
17.8022
17.2819
17.7624
17.0674
17.6827
16.797
17.5828
16.4997
17.4512
16.2297
17.2224
16.058
16.8858
15.9983
16.4858
16.0751
16.046
16.0945
15.781
16.0529
15.6142
16.0222
15.478
16.0302
15.3373
16.0107
15.2825
15.8298
15.2609
15.5422
15.1073
15.1033
14.6925
14.3419
13.8588
13.0695
12.338
10.9566
9.68508
7.39606
5.09937
1.36054
-2.67714
-8.73506
-15.5956
-25.1643
-35.9733
-49.8226
-64.0859
-80.3084
-93.4286
-104.039
-105.699
-100.198
-86.9567
-72.3102
-53.407
-34.485
-14.6082
-0.614072
5.92832
6.97869
4.13165
3.61724
-1.09388
-3.47219
-7.441
-11.004
-15.9201
-19.6872
-23.8827
-26.8409
-28.3963
-28.3714
-26.4713
-23.5958
-20.5738
-21.0652
-20.2272
-20.9927
-20.2345
-20.3833
-18.705
-18.4919
-18.3088
-18.6302
-19.1877
-18.4365
-18.6919
-17.7076
-18.336
-17.5619
-18.2949
-17.3347
-18.0868
-17.0358
-17.8856
-16.9072
-17.7887
-16.8282
-17.6211
-16.8974
-17.244
-17.0154
-17.0837
-17.0518
-17.0288
-17.0694
-16.9285
-16.9742
-16.7571
-16.7207
-16.5025
-16.3848
-16.1665
-15.9042
-15.6586
-15.1271
-14.9885
-13.9555
-13.9436
-12.2413
-12.4865
-10.0676
-10.3952
-7.15613
-7.73993
-3.3453
-3.79632
1.49349
1.71342
8.21308
8.95813
16.6638
17.5364
26.9264
27.7296
39.604
20.1596
27.6216
21.6961
25.0302
22.1116
23.4663
22.183
22.401
22.1432
21.7429
21.9564
21.2865
21.6536
20.8858
21.3059
20.4421
20.7602
20.2192
19.9719
20.075
19.3371
19.8556
18.9106
19.5881
18.5988
19.4029
18.3034
19.285
18.0433
19.1651
17.8378
18.9952
17.7074
18.7211
17.7111
18.2895
17.8873
17.7695
18.0156
17.4527
18.0562
17.2418
18.0992
17.1049
18.1752
17.0165
18.2459
17.0272
18.2503
17.1532
18.1496
17.3623
17.9186
17.6876
17.5408
17.8733
17.2832
17.8773
17.0567
17.8121
16.7717
17.7034
16.4516
17.5358
16.1737
17.2862
15.9854
16.9177
15.9303
16.4856
16.0369
16.0022
16.1035
15.7189
16.1423
15.5246
16.1303
15.4597
16.1247
15.3865
16.1849
15.4161
16.1384
15.5271
15.9724
15.6206
15.7037
15.5128
15.2565
15.0791
14.4534
14.0943
12.9933
12.2083
10.3683
8.71193
5.5974
2.31149
-2.98687
-9.08501
-18.057
-28.7397
-43.2516
-59.5461
-78.8166
-97.8354
-114.82
-122.119
-118.666
-108.326
-95.8159
-83.1541
-58.8768
-33.9478
-5.12614
5.75713
13.4236
8.00261
8.30445
4.70884
2.97831
-1.82236
-6.61097
-12.947
-18.6633
-24.3472
-28.9971
-32.0899
-32.8263
-31.6202
-27.5029
-23.4915
-20.5586
-19.3749
-20.4135
-19.0167
-20.2729
-18.1084
-18.0278
-16.4555
-17.8746
-17.761
-18.6136
-18.4979
-17.8245
-18.0144
-17.3176
-18.0479
-17.227
-18.0251
-16.9814
-17.7889
-16.8312
-17.7013
-16.7665
-17.606
-16.8403
-17.2479
-16.9471
-17.1162
-17.0693
-17.117
-17.2224
-17.1257
-17.2468
-17.0446
-17.1303
-16.814
-16.9343
-16.6529
-16.6864
-16.4636
-16.1881
-15.9219
-15.533
-15.4616
-13.968
-14.3634
-12.3676
-12.7964
-9.96556
-11.1379
-7.1419
-8.2341
-3.77533
-4.35439
1.41426
0.782385
7.99041
7.09436
15.9256
15.0113
26.8851
20.5063
28.2835
22.4029
25.6159
23.0519
24.0208
23.1478
23.0017
22.8954
22.2762
22.5447
21.7262
22.1343
21.2356
21.7238
20.7228
21.0423
20.4898
20.1368
20.3117
19.4374
20.0324
18.9668
19.7619
18.6478
19.5879
18.3241
19.4902
18.0358
19.3649
17.8419
19.1664
17.7404
18.849
17.7698
18.3596
17.976
17.7729
18.1216
17.4178
18.1593
17.1801
18.2041
17.0317
18.2743
16.9272
18.3525
16.962
18.3288
17.1268
18.1998
17.3856
17.946
17.7744
17.5431
18.0384
17.2472
18.0481
17.0339
17.9898
16.7706
17.8835
16.4833
17.7084
16.2435
17.441
16.0935
17.0601
16.0418
16.5909
16.1744
16.0678
16.2128
15.7652
16.2421
15.5772
16.2925
15.4625
16.3256
15.4515
16.3754
15.4849
16.3836
15.7047
16.2534
15.911
16.0542
15.9864
15.7465
15.772
15.2411
15.1164
14.2117
13.7371
12.2506
11.0715
8.53468
5.95846
1.4657
-3.66784
-11.6142
-21.2245
-34.9409
-50.7824
-71.707
-92.6297
-114.757
-129.5
-129.813
-116.889
-100.28
-86.0977
-68.3608
-40.2728
-10.3937
7.1336
15.5913
12.7264
10.5351
3.22743
1.49736
-1.19316
-4.44569
-10.7271
-16.4608
-22.7924
-28.9756
-33.6747
-35.8406
-34.2608
-28.4545
-20.9332
-21.202
-19.449
-21.674
-21.3811
-21.6864
-19.5532
-17.8234
-17.2193
-17.8871
-19.3553
-19.0417
-18.9642
-17.7161
-18.1976
-17.5702
-18.456
-17.3821
-18.1701
-17.0211
-17.964
-16.9225
-17.8673
-16.8755
-17.7169
-16.9632
-17.3844
-17.1362
-17.14
-17.3103
-17.1787
-17.4911
-17.334
-17.5541
-17.3274
-17.5682
-17.2475
-17.4881
-17.2574
-17.3641
-17.1969
-17.0845
-17.1383
-16.7686
-16.7857
-15.7549
-16.3904
-14.9028
-15.3939
-13.03
-14.8908
-11.6022
-12.9346
-9.89512
-10.6114
-6.26066
-5.68713
-1.58361
-0.474823
4.44064
4.95962
14.0634
23.1947
29.5786
23.8326
26.2017
23.8503
24.1543
23.6023
22.9869
23.1667
22.2851
22.6925
21.7775
22.2761
21.2684
21.8999
20.8055
21.2221
20.6072
20.1759
20.4258
19.388
20.0925
18.9092
19.8137
18.5307
19.6676
18.2084
19.571
17.9518