/*--------------------------------*- C++ -*----------------------------------*\
| =========                 |                                                 |
| \\      /  F ield         | OpenFOAM: The Open Source CFD Toolbox           |
|  \\    /   O peration     | Version:  4.1                                   |
|   \\  /    A nd           | Web:      www.OpenFOAM.org                      |
|    \\/     M anipulation  |                                                 |
\*---------------------------------------------------------------------------*/
FoamFile
{
    version     2.0;
    format      ascii;
    class       volScalarField;
    location    "93";
    object      p;
}
// * * * * * * * * * * * * * * * * * * * * * * * * * * * * * * * * * * * * * //

dimensions      [0 2 -2 0 0 0 0];

internalField   nonuniform List<scalar> 
204246
(
125.568
-0.609223
43.532
27.0654
23.3349
30.5279
18.9596
30.7126
17.6919
30.5681
17.0211
31.1231
15.4073
31.3248
16.4887
28.6341
22.7225
17.2275
29.2782
14.5896
30.4125
14.832
28.9942
15.5287
28.8419
15.3281
29.7359
13.621
30.7081
13.4149
30.8006
13.955
30.0208
16.5499
26.3137
22.9136
16.3038
28.7189
15.0743
28.5386
15.5539
28.7532
15.3647
29.7398
13.6869
30.6424
13.5762
30.3682
14.7494
28.1172
16.9982
25.5095
22.5914
15.5023
27.9527
14.0769
27.4641
14.3256
27.436
13.9196
28.2343
12.0605
29.007
11.8319
28.6696
12.9529
26.4398
15.1822
23.963
20.5797
14.9541
24.7168
13.6464
25.7667
13.2842
26.2183
12.8741
27.257
11.1348
28.2033
11.0431
28.0039
12.2726
25.8937
14.5566
23.4815
20.0798
14.4895
24.2921
13.1128
25.4961
12.4241
26.6791
10.4977
27.6325
10.0181
27.6311
9.93952
27.0461
10.6721
24.8537
11.4706
23.6656
12.1224
21.5675
15.4416
11.7684
19.9539
8.33438
20.8182
4.915
19.8823
4.11102
16.8539
2.39564
13.7834
-0.118115
10.2606
-3.16288
5.99275
-6.13506
0.251595
-5.64569
-12.4167
-8.7587
-18.5347
-11.7565
-24.0303
-15.7793
-29.0425
-19.3351
-33.3762
-21.8411
-36.7324
-23.2488
-38.0629
-23.9566
-36.67
-25.7937
-29.2234
-33.699
-21.0368
-33.8953
-17.7328
-31.7005
-14.5818
-29.812
-12.3222
-27.7794
-10.4073
-25.7787
-8.76292
-23.5784
-7.64807
-20.1693
-8.36261
-12.4688
-16.4438
-4.11354
-16.4972
-0.347927
-13.9342
2.09005
-9.85436
5.23691
-5.13255
9.39551
0.634764
14.5699
7.6291
20.8643
16.5898
28.7911
28.0755
38.2515
44.7722
46.953
60.8171
65.3265
78.6194
88.3389
101.704
116.047
130.91
150.866
168.698
196.975
219.583
263.549
292.468
380.2
396.124
603.161
51.742
26.2437
26.4387
30.1471
23.5174
27.954
22.2368
26.842
21.6687
26.3246
21.2145
26.2779
21.0324
25.2496
22.3067
22.9136
25.4547
19.7599
25.2546
19.7682
24.8008
20.1944
24.3061
19.9872
24.4292
19.5933
24.9177
19.1731
24.8119
19.3395
24.5383
19.9496
23.6112
21.6349
21.6592
24.6934
19.237
24.4101
19.8212
24.1155
19.8407
24.3941
19.5986
24.9457
19.275
24.7684
19.5597
24.2086
20.3958
23.0632
21.4197
21.2079
24.258
18.64
23.6992
18.9807
23.1265
18.738
23.1498
18.2525
23.4844
17.7248
23.1397
17.8591
22.4818
18.6045
21.3355
19.5866
19.63
22.168
17.5181
21.6759
17.448
21.7266
17.3897
21.9338
17.0934
22.446
16.7446
22.2718
17.042
21.7677
17.9263
20.7435
19.0419
19.0734
21.6942
17.0401
21.2925
16.9148
21.5017
16.6098
22.0255
16.1564
21.8972
16.1226
21.639
16.1871
21.0485
16.5335
20.1615
16.3829
19.2642
16.7559
17.3573
18.6033
13.9792
17.7892
12.6729
17.0604
11.2203
15.1458
9.88623
13.3593
7.83854
11.1208
5.29444
8.00886
2.5442
3.77615
-0.197889
-2.04622
-1.25626
-8.01076
-8.04695
-14.0063
-12.926
-18.7685
-17.5481
-23.9118
-21.3643
-28.456
-24.4747
-31.7597
-27.1437
-33.0237
-28.8305
-32.2121
-31.3306
-28.2331
-32.2369
-25.613
-29.7755
-23.5855
-27.82
-21.243
-25.2798
-19.1329
-23.0812
-17.2405
-21.0176
-15.6216
-18.8489
-14.4773
-15.9795
-14.6317
-11.3882
-15.3019
-9.37891
-13.0736
-7.21367
-10.2735
-4.46796
-7.36815
-1.27987
-3.62948
2.64596
1.03223
7.44165
6.93759
12.8862
14.6783
19.8514
24.3799
28.0031
36.7193
40.3835
49.4374
55.9785
65.4913
75.17
85.5992
98.6333
110.169
127.366
140.203
163.425
176.739
212.045
218.715
293.413
258.861
393.535
17.695
34.1888
25.8179
29.4274
24.5378
27.7487
22.8435
26.7055
22.1559
26.2135
21.7287
25.8916
21.6181
25.0851
22.3605
23.4127
23.939
21.3605
24.4261
20.5237
24.5077
20.3355
24.3163
20.1604
24.3032
19.9153
24.4739
19.6654
24.4968
19.7345
24.3253
20.2415
23.6445
21.4406
22.1586
23.1421
20.6117
23.724
20.2185
23.9905
20.0715
24.2255
19.9183
24.4888
19.7454
24.4639
19.8817
24.0939
20.4079
23.2264
21.2987
21.7103
22.7382
20.0005
23.0406
19.3696
23.0227
18.9738
23.0052
18.5803
23.0528
18.2017
22.8602
18.1827
22.3881
18.6088
21.5019
19.4376
20.0985
20.8037
18.6011
21.1794
17.9529
21.4952
17.6748
21.7304
17.414
21.9859
17.1872
21.9712
17.3196
21.6466
17.8764
20.8768
18.8158
19.5691
20.2755
18.0819
20.7498
17.3787
21.1771
16.941
21.5056
16.5571
21.544
16.3814
21.3809
16.343
20.9288
16.427
20.1951
16.4549
19.1815
16.7235
17.4695
17.4312
15.08
17.2279
13.3466
16.6396
11.715
15.3003
10.2953
13.2445
8.53486
10.7288
6.32283
7.45568
3.74148
3.35333
1.02047
-1.88392
-2.74529
-6.942
-7.6541
-12.3788
-13.0854
-17.8399
-17.8584
-22.8779
-22.6853
-27.1449
-25.8869
-30.4346
-28.3787
-32.3159
-30.0761
-31.8756
-30.9272
-29.6595
-31.3575
-27.098
-29.8032
-24.2835
-27.5194
-21.6104
-25.1513
-19.155
-22.9436
-17.1156
-20.8229
-15.4625
-18.6027
-14.3301
-15.7661
-14.1602
-12.2577
-13.8342
-9.60153
-12.4753
-6.9747
-10.2042
-4.60237
-6.73166
-1.63321
-2.71122
2.11469
2.10901
6.85155
8.05182
12.9051
15.4241
20.4101
24.9009
29.9133
36.4394
41.389
50.3935
56.9636
67.1767
76.8384
88.0735
101.63
114.119
132.691
146.552
172.253
186.893
226.604
234.509
310.676
289.411
378.191
10.0303
24.3566
20.5689
26.3087
22.2121
26.0864
22.7398
25.1792
22.895
24.624
22.8776
24.2321
23.072
23.423
23.7114
22.3232
24.4256
21.7151
23.7251
21.7513
23.1417
21.7961
22.8506
21.568
22.8124
21.3346
22.8492
21.2643
22.6562
21.4279
22.3795
21.8726
21.8634
22.6935
21.1902
23.4412
20.9966
22.9472
21.3168
22.7568
21.3662
22.8289
21.3349
22.9354
21.3931
22.7228
21.6304
22.3388
22.03
21.771
22.5056
20.97
23.0765
20.5546
22.3483
20.6127
21.8629
20.3712
21.6645
20.0684
21.5268
19.8907
21.117
19.9376
20.5976
20.2144
19.9798
20.6333
19.2378
21.1476
18.9304
20.6067
18.9159
20.3895
18.8958
20.3761
18.8155
20.4263
18.8454
20.2006
19.0834
19.8535
19.5188
19.3763
20.0539
18.7285
20.6971
18.4849
20.2583
18.4598
20.1367
18.3817
20.1489
18.3341
19.9486
18.3507
19.6995
18.3831
19.3253
18.4058
18.8519
18.2452
18.1406
18.2495
17.0449
18.4607
16.0247
17.1896
15.1428
16.045
14.1268
14.51
12.768
12.9201
11.0103
10.8741
8.72109
8.12947
6.14643
4.41855
3.17456
0.0643209
-0.506386
-4.83318
-5.84397
-9.94488
-11.6586
-15.1708
-17.1922
-20.4148
-22.562
-25.2697
-26.837
-28.7246
-29.9436
-30.856
-31.8278
-31.2483
-32.576
-30.0683
-31.7336
-28.7207
-29.4019
-26.6813
-27.0392
-24.3249
-24.5254
-22.2033
-22.0826
-20.2488
-19.8544
-18.5703
-17.8293
-17.1692
-15.7701
-16.3164
-13.7597
-14.7989
-12.1763
-12.8501
-10.4575
-10.5126
-8.18821
-7.96021
-5.52827
-4.73634
-2.13406
-0.930995
2.09357
3.74239
7.1278
9.93642
13.3551
17.6746
21.1756
27.3882
31.487
38.3936
44.4835
51.8035
60.4663
68.2524
79.8437
88.1168
103.347
112.075
132.699
139.736
172.783
167.7
225.164
212.031
283.127
8.48029
25.0908
19.2662
25.1284
22.5224
25.1174
23.2795
24.9084
23.3673
24.5759
23.2884
24.1721
23.395
23.5217
23.6613
22.8077
23.7567
22.5622
23.2841
22.3191
22.9812
22.0716
22.8469
21.7841
22.7696
21.5981
22.7003
21.584
22.5539
21.6921
22.3564
21.995
21.9946
22.441
21.6289
22.741
21.6797
22.54
21.6972
22.6207
21.6126
22.7219
21.5839
22.7531
21.6762
22.6118
21.8237
22.3508
22.0522
21.9581
22.3169
21.3936
22.4049
21.2541
21.9671
21.0201
21.7559
20.6616
21.5931
20.3613
21.3815
20.2157
21.0342
20.1736
20.6243
20.2645
20.1524
20.4524
19.6189
20.5429
19.5243
20.281
19.3425
20.2285
19.1871
20.2395
19.0782
20.2207
19.1116
20.0613
19.2433
19.82
19.4824
19.4943
19.7866
19.0625
20.0129
18.9926
19.8407
18.8117
19.8425
18.6352
19.8308
18.5636
19.694
18.5017
19.5117
18.4361
19.2428
18.322
18.8639
18.2943
18.1096
18.2152
17.2333
17.7637
16.4783
17.0584
15.5744
15.9912
14.5533
14.6901
13.2353
13.0942
11.4751
11.1675
9.38559
8.44067
6.88622
5.0004
3.68083
0.921587
-0.275899
-3.57739
-5.27426
-8.61432
-11.1632
-13.9386
-16.9198
-19.4816
-21.9506
-24.4377
-26.6594
-28.2861
-30.2162
-30.8598
-32.2713
-31.7966
-32.8271
-31.4413
-32.0964
-30.0722
-29.8103
-27.6777
-27.0537
-24.9564
-24.1986
-22.3409
-21.9052
-20.1582
-19.5794
-18.2625
-17.507
-16.7857
-15.5092
-15.2854
-13.5407
-13.8199
-11.9443
-12.06
-10.0312
-9.95618
-7.79326
-7.21883
-4.98641
-4.04239
-1.492
-0.205479
2.84902
4.6252
8.05573
10.8186
14.629
18.6287
22.8798
28.282
33.4576
40.1688
46.9921
54.7148
63.9919
72.5996
85.0541
94.3831
110.857
120.449
142.964
150.745
185.053
182.007
231.29
219.932
265.028
8.25502
20.5068
17.1814
22.0598
20.7976
23.2997
22.2814
23.7165
23.0144
23.6897
23.3667
23.4581
23.6209
23.0305
23.7995
22.6557
23.7176
22.5731
23.1516
22.6035
22.5863
22.4212
22.3376
22.1849
22.1797
22.0297
22.0369
22.0211
21.8483
22.1254
21.6764
22.3558
21.5195
22.6085
21.3897
22.6884
21.6654
22.3352
21.8965
22.2323
21.9781
22.2262
22.0458
22.1974
22.1797
22.0444
22.3467
21.8323
22.4859
21.6006
22.5718
21.374
22.4364
21.3713
21.8957
21.3677
21.4217
21.0914
21.1453
20.863
20.8372
20.7311
20.4587
20.6543
20.0941
20.6204
19.7947
20.6363
19.4566
20.5349
19.4896
20.1059
19.5372
19.8724
19.5317
19.7616
19.5284
19.6655
19.6174
19.4838
19.7647
19.3007
19.9362
19.1286
20.0857
18.9763
20.1192
19.1157
19.7754
19.1853
19.6036
19.1954
19.4718
19.2339
19.2907
19.2488
19.1139
19.2322
18.9198
19.1674
18.6022
18.9281
18.2169
18.7584
17.6562
18.3528
17.0394
17.5356
16.3966
16.4899
15.573
15.2149
14.4098
13.831
12.815
12.1082
10.9018
9.69212
8.49849
6.61588
5.45916
2.78053
1.51179
-1.71695
-3.52326
-6.75525
-9.24744
-12.4222
-15.1441
-18.338
-20.963
-23.8538
-26.2459
-28.4246
-30.4193
-31.5533
-33.056
-32.9356
-33.8667
-32.8016
-32.7752
-31.4265
-30.6032
-29.0957
-27.9032
-26.35
-25.231
-23.6861
-22.6966
-21.3961
-20.3791
-19.5431
-18.4555
-18.1126
-16.7885
-16.9337
-15.3163
-15.403
-13.9693
-13.8313
-12.391
-11.9838
-10.5275
-9.83972
-8.18535
-7.25341
-5.34106
-4.17135
-1.93826
-0.262034
2.21939
4.63318
7.39061
10.8048
13.9771
18.4126
22.5068
27.6021
33.2736
38.8113
46.6582
52.5583
63.0516
69.253
83.0679
89.023
107.83
111.075
141.478
135.042
176.211
173.71
214.302
10.5847
21.7215
17.6956
22.224
21.0587
23.1357
22.5495
23.6558
23.2618
23.7539
23.5976
23.5813
23.7743
23.2537
23.7959
22.971
23.6104
22.9878
23.1319
22.9078
22.6754
22.6579
22.3915
22.419
22.2232
22.2612
22.0715
22.2319
21.9339
22.259
21.8094
22.3896
21.6688
22.5393
21.6538
22.4678
21.9659
22.2085
22.1263
22.2049
22.1568
22.2177
22.2097
22.1899
22.3329
22.0899
22.4224
21.968
22.5041
21.8015
22.481
21.6655
22.2812
21.7129
21.8509
21.6226
21.4699
21.3555
21.1835
21.1142
20.8887
20.9515
20.5565
20.8276
20.2236
20.7111
19.9511
20.6073
19.6845
20.3748
19.821
20.0077
19.8272
19.8378
19.7562
19.7392
19.7088
19.6384
19.744
19.5034
19.8121
19.3636
19.8968
19.2305
19.9514
19.1085
19.8409
19.2885
19.5998
19.3414
19.4426
19.3144
19.3199
19.3088
19.1673
19.2785
19.0181
19.1822
18.9
19.0671
18.6065
18.9208
18.1744
18.6469
17.7053
18.2142
17.2436
17.5127
16.6522
16.6031
15.8681
15.5132
14.7882
14.1852
13.3746
12.51
11.5947
10.3289
9.31165
7.51043
6.36893
3.99504
2.54642
-0.229625
-2.27824
-5.25155
-7.91017
-10.9566
-13.993
-17.0181
-20.0678
-22.8879
-25.7745
-27.939
-30.4252
-31.6258
-33.4835
-33.6087
-34.6639
-33.9334
-34.0642
-32.5263
-31.8168
-29.8293
-28.6637
-26.6063
-25.4065
-23.5566
-22.5397
-21.0433
-20.0244
-19.0386
-17.8857
-17.424
-16.0499
-15.9511
-14.5256
-14.5572
-13.0919
-13.0101
-11.5032
-11.194
-9.60064
-9.00497
-7.2823
-6.36728
-4.35844
-3.22595
-0.868833
0.718422
3.39749
5.7116
8.76965
11.9694
15.6275
19.763
24.4646
29.4334
35.7418
41.3603
49.8001
55.9696
67.0701
73.5383
87.9969
94.1063
113.704
115.947
143.86
140.518
171.726
167.881
196.685
10.1963
19.8952
16.5408
20.4675
19.8357
21.7382
21.6015
22.6603
22.6564
23.0691
23.2971
23.122
23.6359
23.0134
23.7014
22.8961
23.483
22.933
23.055
22.8605
22.6492
22.6182
22.2694
22.36
21.9968
22.2151
21.7793
22.1792
21.6426
22.1862
21.543
22.2883
21.4442
22.4084
21.5276
22.335
21.8757
22.0848
22.0785
22.016
22.2303
22.002
22.3258
21.9713
22.4358
21.906
22.5088
21.8503
22.5832
21.7479
22.5677
21.6792
22.2821
21.7547
21.8479
21.6645
21.4756
21.4195
21.0853
21.1828
20.7361
20.9881
20.3914
20.8163
20.0725
20.6741
19.809
20.5423
19.5968
20.2501
19.712
19.8753
19.7975
19.6525
19.8038
19.5276
19.8083
19.4223
19.8633
19.3173
19.9097
19.2291
19.9598
19.1362
20.0401
19.1573
19.8885
19.3842
19.6066
19.5038
19.4453
19.5469
19.3061
19.5957
19.1547
19.6008
19.0473
19.5091
18.9934
19.4731
18.7946
19.3054
18.5364
19.0831
18.1313
18.6596
17.7507
17.9743
17.287
17.1538
16.5769
16.2018
15.6272
15.0552
14.392
13.5645
12.7868
11.5975
10.6898
8.99766
7.90636
5.66999
4.20896
1.52163
-0.492904
-3.47326
-6.08515
-9.3331
-12.3455
-15.7882
-18.9532
-22.2608
-25.3447
-28.1054
-30.777
-32.6057
-34.5451
-35.1876
-36.1441
-35.6556
-35.5227
-34.2639
-33.2514
-31.4772
-30
-28.0753
-26.5584
-24.8278
-23.4628
-22.1712
-20.9027
-20.1392
-18.9286
-18.6686
-17.4356
-17.5153
-16.2129
-16.3001
-15.1681
-15.0347
-13.8961
-13.5427
-12.3499
-11.7436
-10.4175
-9.62358
-8.09256
-7.08773
-5.36301
-3.98821
-2.05283
-0.16224
2.09434
4.61491
7.42225
10.5583
14.3389
17.982
23.1549
27.1813
34.2648
38.5672
48.0411
52.5027
64.9724
68.8293
86.4588
87.1829
111.754
109.845
138.295
138.2
165.226
12.9598
21.5298
17.8061
21.5921
20.4761
22.241
22.0134
22.8793
22.9163
23.2398
23.4617
23.3217
23.7443
23.256
23.8023
23.1774
23.5699
23.2414
23.1319
23.123
22.7828
22.8677
22.4365
22.6128
22.1579
22.4307
21.9392
22.3548
21.7673
22.3521
21.66
22.4259
21.5802
22.4404
21.6809
22.318
22.0154
22.1067
22.1968
22.0765
22.2993
22.0852
22.3989
22.0645
22.5013
22.0286
22.5922
21.9654
22.6446
21.897
22.5946
21.8947
22.3187
22.0001
21.9088
21.8938
21.6021
21.6745
21.2481
21.4415
20.8927
21.231
20.55
21.0389
20.2166
20.8378
19.9701
20.6435
19.7947
20.296
19.934
19.9384
19.9783
19.7247
19.9579
19.5826
19.9357
19.4752
19.9422
19.3733
19.9603
19.2802
19.9891
19.1822
19.9325
19.2257
19.7566
19.4508
19.4928
19.5523
19.3506
19.582
19.2338
19.5927
19.1144
19.5731
19.0273
19.4992
18.8722
19.383
18.7478
19.2035
18.5023
18.9906
18.198
18.5846
17.9437
17.9363
17.4912
17.2814
16.8439
16.4705
16.0002
15.45
14.9284
14.1478
13.5409
12.4252
11.6838
10.1435
9.1552
7.16872
5.73002
3.32781
1.24816
-1.52002
-4.23303
-7.35499
-10.6074
-13.9748
-17.5424
-20.8736
-24.4543
-27.3319
-30.529
-32.5404
-34.9662
-35.868
-37.2462
-37.0488
-37.2846
-36.0089
-35.0965
-32.9756
-31.2965
-28.9411
-27.0464
-25.0141
-23.3664
-21.8688
-20.4647
-19.5456
-18.1807
-17.8408
-16.4261
-16.4339
-15.1588
-15.1623
-14.0924
-13.9697
-12.8747
-12.5535
-11.3753
-10.8344
-9.53836
-8.73564
-7.23707
-6.24861
-4.49226
-3.20018
-1.17896
0.594815
2.99256
5.32312
8.34633
11.2676
15.285
18.7314
24.2258
28.0514
35.413
39.5217
49.1448
53.3331
65.8712
69.1597
86.0028
86.3847
108.02
105.667
128.445
127.288
148.713
12.4135
20.6478
16.893
20.774
19.6785
21.3627
21.3343
22.1529
22.4298
22.7087
23.1471
22.9832
23.5265
23.0521
23.658
23.0894
23.4673
23.1631
23.0938
23.0312
22.747
22.7585
22.3447
22.4659
21.9873
22.2425
21.7014
22.1269
21.5207
22.1103
21.4313
22.1998
21.4001
22.2525
21.5597
22.1736
21.9165
21.9904
22.1115
21.9755
22.2652
21.973
22.3823
21.9638
22.5063
21.9335
22.6166
21.9027
22.6871
21.8934
22.6066
21.9243
22.3173
22.0082
21.9242
21.8797
21.6029
21.6395
21.2294
21.3789
20.8487
21.1348
20.4749
20.9157
20.1303
20.6948
19.8514
20.471
19.6836
20.1398
19.7718
19.8096
19.8463
19.6163
19.8582
19.4993
19.8549
19.4053
19.8898
19.317
19.9458
19.2244
19.9952
19.186
19.9692
19.2798
19.7987
19.5147
19.5609
19.6357
19.4421
19.6926
19.335
19.7465
19.2095
19.7768
19.0869
19.7904
19.045
19.6883
18.9964
19.5072
18.8416
19.3147
18.5901
18.928
18.3735
18.3938
17.9784
17.8097
17.4086
17.078
16.6829
16.1709
15.7486
15.01
14.5118
13.4735
12.818
11.4035
10.4719
8.64212
7.26183
4.99586
3.02617
0.303628
-2.31395
-5.51848
-8.75518
-12.3915
-16.0851
-19.8983
-23.7632
-27.3111
-30.8611
-33.6105
-36.3272
-37.8279
-39.2845
-39.3137
-39.3863
-38.1102
-36.9939
-34.8433
-32.948
-30.4414
-28.3473
-26.1049
-24.2503
-22.6931
-21.1368
-20.3118
-18.9947
-18.8118
-17.6729
-17.825
-16.7633
-16.8655
-16.0886
-15.9747
-15.1285
-14.8228
-13.8294
-13.3148
-12.196
-11.5401
-10.277
-9.48576
-8.10845
-7.07578
-5.5487
-4.21142
-2.3641
-0.674146
1.72078
3.7709
7.0769
9.47496
14.0377
16.715
22.9668
25.8299
34.2198
37.1223
48.2727
50.5023
65.9649
65.8273
85.2796
85.71
106.113
106.618
126.655
14.8202
22.5906
18.3466
22.1022
20.6126
22.2429
21.8932
22.5944
22.7533
22.9525
23.3149
23.2049
23.63
23.2948
23.756
23.3115
23.6058
23.4194
23.2201
23.2898
22.9018
23.037
22.5367
22.7426
22.1891
22.5067
21.8836
22.3662
21.6676
22.3177
21.5452
22.3554
21.4968
22.3381
21.6366
22.2186
21.9621
22.0524
22.1775
22.0281
22.3041
22.0391
22.4403
22.0253
22.5655
21.9985
22.6799
21.9764
22.7398
22.0104
22.6766
22.0797
22.4267
22.2196
22.0285
22.1169
21.7471
21.8989
21.4025
21.6449
21.0334
21.3987
20.6685
21.1652
20.3158
20.9251
20.0357
20.6678
19.8521
20.2682
19.962
19.9081
20.0053
19.6968
19.9704
19.554
19.9427
19.4339
19.9524
19.3322
19.9862
19.2383
20.0124
19.186
19.913
19.2838
19.7265
19.5144
19.4783
19.6349
19.3509
19.6867
19.244
19.7247
19.1337
19.7146
19.0609
19.6336
18.9758
19.596
18.8837
19.48
18.7378
19.3051
18.6109
18.9345
18.5003
18.3986
18.1519
17.9295
17.6772
17.3252
17.069
16.5755
16.3044
15.6365
15.3012
14.3918
13.9105
12.6841
11.9153
10.3114
9.06305
7.02526
5.12331
2.59946
-0.0330273
-3.11129
-6.49108
-10.0975
-14.1192
-18.0201
-22.3598
-26.138
-30.2706
-33.3488
-36.6717
-38.6117
-40.6835
-41.2744
-41.8678
-41.042
-40.0522
-37.8291
-35.4695
-32.5895
-29.6957
-27.16
-24.5553
-22.9412
-20.8474
-20.0091
-18.1871
-18.0075
-16.4242
-16.5292
-15.4452
-15.4665
-14.8914
-14.8293
-14.1675
-13.9111
-13.1176
-12.6232
-11.7382
-11.0185
-9.98478
-9.12653
-7.90123
-6.86222
-5.44604
-4.18696
-2.42015
-0.914748
1.44216
3.2287
6.50629
8.57895
13.1718
15.4767
21.6796
24.1113
32.2695
34.6516
45.5287
46.6851
61.054
61.0235
77.2563
77.2497
94.3857
94.5631
111.549
14.4968
22.119
17.9143
21.5238
20.0305
21.8303
21.4744
22.2076
22.4588
22.6309
23.1453
22.9411
23.5538
23.1254
23.7175
23.2517
23.5652
23.3596
23.2172
23.2427
22.8855
22.9478
22.4628
22.598
22.0174
22.2918
21.6311
22.0896
21.3941
21.9998
21.3406
22.0805
21.3662
22.1431
21.5394
22.0967
21.8864
21.9588
22.1089
21.9498
22.2965
21.949
22.4399
21.9563
22.5767
21.9507
22.7008
21.9491
22.7685
22.0163
22.699
22.1189
22.4391
22.242
22.0493
22.1321
21.762
21.8861
21.3855
21.5994
20.9789
21.3211
20.5641
21.0691
20.1785
20.7996
19.8757
20.5068
19.7021
20.119
19.7926
19.7706
19.8702
19.5777
19.8887
19.4672
19.8906
19.3814
19.9242
19.3029
19.9809
19.2304
20.0229
19.2332
19.9498
19.3462
19.7818
19.584
19.5473
19.7423
19.4457
19.8124
19.366
19.8792
19.2693
19.9187
19.1816
19.9473
19.1477
19.8708
19.161
19.7646
19.0412
19.6061
18.9125
19.2942
18.8164
18.8063
18.5387
18.3628
18.1279
17.8127
17.6083
17.1329
16.9392
16.2976
16.0511
15.2052
14.8072
13.7008
13.0261
11.6001
10.4725
8.63298
6.87817
4.50333
2.02146
-0.970005
-4.26717
-7.93973
-12.0376
-16.3018
-20.9633
-25.4229
-30.078
-34.0195
-37.8867
-40.5309
-42.9599
-43.8019
-44.5026
-43.3758
-42.2907
-39.7188
-37.2969
-33.8696
-30.873
-27.644
-24.9859
-22.8455
-20.9438
-19.9353
-18.5407
-18.4788
-17.4492
-17.6998
-16.876
-17.0511
-16.7057
-16.7391
-16.1436
-15.9228
-15.0953
-14.5761
-13.6573
-13.0069
-12.0455
-11.3395
-10.3281
-9.56559
-8.37382
-7.56147
-6.05911
-5.1275
-3.17196
-2.0815
0.635408
1.95844
5.76185
7.28025
12.5637
14.1149
21.3096
22.7031
32.4562
33.3111
45.5404
46.8176
60.9031
62.5139
77.5874
78.7706
94.614
16.9999
24.083
19.5139
22.9034
21.0159
22.6347
22.0994
22.69
22.7959
22.8859
23.3001
23.1633
23.5974
23.3668
23.7339
23.4218
23.697
23.5572
23.3411
23.4691
23.0507
23.2315
22.6848
22.9163
22.2606
22.6013
21.8626
22.3646
21.5846
22.2482
21.4236
22.227
21.3933
22.2511
21.5124
22.1551
21.8619
22
22.1228
21.9363
22.3065
21.9671
22.4788
21.9591
22.6233
21.9413
22.7351
21.9756
22.7705
22.0729
22.7558
22.2183
22.5551
22.413
22.1717
22.3378
21.9148
22.1362
21.5772
21.8565
21.1823
21.586
20.7952
21.3025
20.433
21.027
20.1112
20.7151
19.8952
20.2624
19.9573
19.8904
19.9927
19.6564
19.9586
19.5002
19.9363
19.3864
19.9486
19.2929
19.9858
19.2097
20.0138
19.2036
19.9121
19.3117
19.7257
19.5424
19.4861
19.6854
19.3478
19.7673
19.239
19.8209
19.1512
19.8416
19.1059
19.7799
19.0768
19.7627
19.0142
19.6791
18.9553
19.5565
18.8823
19.2798
18.8889
18.8057
18.6785
18.4597
18.3477
18.0102
17.9386
17.488
17.4182
16.8682
16.7497
16.0555
15.8218
14.9179
14.4247
13.2341
12.2901
10.7015
9.12319
7.00937
4.62938
1.81565
-1.5199
-5.17919
-9.51362
-13.9364
-19.0542
-23.8885
-29.2636
-33.7808
-38.4847
-41.8219
-45.0731
-46.7689
-48.2047
-48.0655
-47.3408
-45.1609
-42.0481
-38.4442
-33.9378
-30.4502
-26.1761
-24.1294
-21.0778
-20.1634
-17.5664
-17.4124
-15.7016
-15.8164
-14.9396
-15.1063
-15.0661
-15.4173
-15.2656
-15.2193
-14.8329
-14.3376
-13.7736
-13.0604
-12.396
-11.5264
-10.6734
-9.90338
-8.88127
-8.1159
-6.83237
-6.06487
-4.28618
-3.53161
-1.0074
-0.110676
3.52644
4.61239
9.5885
10.6961
17.2141
18.301
26.6992
27.8978
38.0179
39.4395
50.9882
52.5616
65.5786
66.6635
80.783
16.9832
23.9823
19.3697
22.8933
20.8389
22.5588
21.9658
22.6009
22.7455
22.7878
23.2948
23.0445
23.6597
23.2534
23.8802
23.4089
23.7746
23.5877
23.372
23.4985
23.0732
23.1972
22.6332
22.8054
22.1093
22.3866
21.6082
22.0561
21.2688
21.9091
21.1952
21.9637
21.2519
22.1035
21.46
22.0656
21.8224
21.963
22.1326
21.909
22.3195
21.9211
22.4881
21.947
22.6424
21.956
22.7615
21.9867
22.817
22.0714
22.8037
22.2598
22.5977
22.4768
22.2042
22.3929
21.9473
22.1575
21.5776
21.8455
21.1303
21.5315
20.6791
21.2442
20.2555
20.9332
19.9393
20.5804
19.7529
20.1299
19.8171
19.7491
19.8878
19.5409
19.9016
19.4341
19.907
19.3554
19.9586
19.2707
20.0324
19.2009
20.0676
19.2486
19.9792
19.3728
19.8091
19.6154
19.5702
19.7992
19.4408
19.9212
19.3656
20.0024
19.2842
20.0702
19.2158
20.0893
19.1964
20.0747
19.225
19.9446
19.2086
19.8274
19.1638
19.5918
19.1781
19.1855
19.0234
18.8115
18.7729
18.3924
18.4083
17.9336
17.9563
17.3905
17.3817
16.7046
16.5714
15.7619
15.3999
14.3801
13.6105
12.2436
10.857
8.97484
6.82565
4.25196
1.14625
-2.33262
-6.5715
-11.1107
-16.4369
-21.7901
-27.6557
-33.0917
-38.539
-42.8153
-46.7224
-48.9457
-50.9649
-50.6778
-49.9593
-47.3113
-44.436
-39.8915
-35.4867
-30.5296
-26.2217
-22.8822
-20.4336
-19.2942
-17.6823
-17.8239
-16.9157
-17.3655
-16.2458
-16.5934
-16.5288
-17.0073
-16.9651
-16.9521
-16.3459
-15.7017
-14.8829
-14.211
-13.55
-12.9607
-12.1064
-11.6427
-10.6632
-10.3842
-9.14021
-8.95873
-7.38402
-7.25745
-5.24858
-4.99131
-2.12225
-1.66407
2.53965
3.0123
8.78626
9.27483
16.7728
17.5562
26.7103
27.9356
38.5141
40.01
52.0341
53.1716
66.7265
19.0697
25.9023
20.8683
24.1483
21.7789
23.3005
22.5267
22.9194
23.0294
22.9668
23.4205
23.183
23.6816
23.3996
23.8115
23.5175
23.8178
23.666
23.5229
23.6744
23.2308
23.4685
22.8748
23.1521
22.4026
22.7473
21.8872
22.3679
21.4822
22.1484
21.2464
22.0828
21.212
22.1599
21.3182
22.1209
21.7159
21.9562
22.0518
21.8749
22.3133
21.8807
22.5149
21.8831
22.6733
21.882
22.7862
21.9383
22.8253
22.086
22.776
22.2993
22.6745
22.5733
22.3451
22.5904
22.1007
22.39
21.7708
22.0922
21.3422
21.7759
20.908
21.4603
20.5179
21.1352
20.1832
20.7764
19.9357
20.2825
19.9302
19.8581
19.948
19.5856
19.9248
19.4172
19.9208
19.3061
19.9649
19.2118
20.0294
19.1383
20.0555
19.1828
19.951
19.3063
19.7566
19.5529
19.4985
19.7309
19.3462
19.8372
19.2486
19.9186
19.1659
19.9701
19.124
19.9676
19.1136
19.9525
19.1053
19.8719
19.0907
19.7623
19.0812
19.5101
19.1728
19.1648
19.0624
18.8483
18.8797
18.5125
18.5964
18.1807
18.2546
17.8112
17.8402
17.341
17.3248
16.7099
16.5098
15.7298
15.1749
14.1264
12.9841
11.4466
9.4989
7.23497
4.23875
0.940882
-3.33252
-7.94323
-13.6662
-19.6087
-26.5222
-32.8391
-39.5252
-44.7307
-49.6675
-52.7808
-55.9902
-57.0496
-57.1666
-55.4054
-51.8246
-47.3396
-40.6914
-35.5387
-28.4592
-25.0023
-20.7708
-19.8652
-15.9173
-15.5535
-14.29
-14.5041
-13.7239
-14.0758
-14.0489
-15.3292
-15.8447
-16.4157
-16.655
-16.0986
-15.6248
-14.773
-14.1862
-13.4623
-12.7438
-12.1178
-11.3633
-10.9032
-10.1001
-9.84441
-8.61808
-8.64619
-6.96531
-7.04579
-4.46214
-4.31454
-0.472829
-0.364942
4.4457
4.64511
10.9384
11.2647
19.1423
19.6369
28.8513
29.536
40.4076
40.9324
53.6625
19.0558
26.04
20.9689
24.4623
21.9494
23.5157
22.7448
23.0921
23.2817
23.0275
23.5746
23.2508
23.8317
23.4355
24.0265
23.5701
24.0168
23.8037
23.5913
23.6847
23.3045
23.491
22.8562
23.0954
22.2988
22.5773
21.673
22.0726
21.1599
21.8356
21.0259
21.8512
21.0743
22.0498
21.3486
22.0335
21.7734
21.935
22.1604
21.8388
22.3637
21.8805
22.5335
21.9295
22.7081
21.9363
22.8224
21.9769
22.8661
22.1072
22.8201
22.3161
22.7335
22.6552
22.4263
22.6506
22.1843
22.4564
21.8112
22.1316
21.315
21.7772
20.808
21.4438
20.3575
21.0899
20.034
20.7043
19.8289
20.2009
19.8426
19.7585
19.9029
19.5109
19.8997
19.3723
19.924
19.2771
20.0203
19.184
20.1183
19.1364
20.1419
19.2213
20.0365
19.3706
19.8446
19.6345
19.5812
19.8491
19.4231
20.0072
19.3241
20.1323
19.2405
20.2115
19.2008
20.2358
19.1984
20.2249
19.2507
20.1217
19.2997
20.0081
19.3315
19.7941
19.4409
19.447
19.4645
19.1265
19.3486
18.7919
19.1432
18.4261
18.8452
18.1217
18.4137
17.8252
17.9016
17.348
17.2596
16.63
16.2128
15.371
14.4359
13.1979
11.5626
9.66898
7.0518
4.10093
0.127636
-4.30149
-9.93922
-15.9845
-23.0546
-30.271
-37.8008
-44.4054
-50.2233
-53.9891
-57.841
-59.5818
-60.3697
-58.7299
-56.1363
-50.94
-44.4211
-36.7381
-28.7167
-22.3426
-18.7201
-18.4618
-16.6115
-16.8413
-16.1181
-16.9814
-15.6106
-15.2717
-14.9349
-16.1733
-17.6068
-18.1127
-18.0031
-16.8879
-16.1474
-15.2707
-14.8963
-14.3859
-13.7663
-13.2015
-12.6891
-12.2433
-11.6869
-11.5077
-10.6097
-10.9323
-9.8654
-10.5361
-8.84124
-9.22398
-6.05237
-6.36624
-2.41567
-2.55968
2.76182
2.86014
9.66077
10.4022
18.0989
18.9447
28.4603
29.0395
41.0671
21.5113
27.6001
22.4983
25.4511
22.8366
24.0459
23.2487
23.3298
23.5131
23.1974
23.6054
23.3026
23.8126
23.4612
23.8995
23.5997
23.9084
23.8135
23.706
23.8638
23.4263
23.7633
23.1065
23.4661
22.6449
23.0087
22.0116
22.449
21.366
22.0501
20.9832
21.9383
20.9515
22.0428
21.1413
21.9811
21.6348
21.8011
22.0541
21.7449
22.3296
21.7794
22.5578
21.7845
22.7338
21.784
22.8654
21.8454
22.8957
22.0245
22.837
22.3431
22.6658
22.7246
22.4965
22.8273
22.3285
22.689
22.0074
22.3776
21.5211
22.0077
21.0113
21.6505
20.5973
21.2743
20.2549
20.8596
19.9973
20.3412
19.9066
19.8187
19.8984
19.5094
19.8769
19.3076
19.9265
19.1711
20.0314
19.0667
20.1369
19.0323
20.1494
19.1181
20.0287
19.2799
19.8084
19.5658
19.4987
19.7973
19.3097
19.9554
19.1894
20.0836
19.1009
20.1702
19.0717
20.1831
19.095
20.1584
19.1311
20.0844
19.1488
19.9928
19.1719
19.7463
19.3536
19.3061
19.4456
19.0286
19.3647
18.786
19.232
18.5378
19.0207
18.3444
18.7322
18.1793
18.4456
17.9948
18.0679
17.6349
17.4233
16.8848
16.1826
15.3041
13.9153
12.4327
10.1121
7.61884
4.00234
-0.062856
-5.64677
-11.9899
-20.1354
-28.5156
-37.9325
-45.734
-52.8662
-57.2344
-62.9269
-66.2543
-68.4195
-68.0735
-65.3349
-60.9584
-52.5721
-45.862
-33.9467
-26.6376
-18.62
-19.1588
-13.1615
-11.6099
-11.7435
-13.1758
-12.787
-13.1972
-11.6182
-13.3497
-15.326
-17.3219
-19.6442
-18.2707
-17.6367
-16.0236
-15.4974
-14.5552
-14.2827
-13.4348
-13.1413
-12.5074
-12.4633
-12.2702
-11.4755
-11.9229
-11.1405
-12.1101
-10.8164
-11.5874
-8.52695
-9.10794
-6.10558
-6.90965
-2.42041
-3.27394
2.60811
2.32348
9.20563
8.51366
17.3192
16.3615
28.2799
21.7101
27.4299
23.0337
25.6768
23.544
24.3305
23.8022
23.5956
23.8882
23.4406
23.9632
23.4355
24.0787
23.5678
24.1679
23.6861
24.1269
23.8837
23.7415
23.9539
23.449
23.7702
23.0891
23.4195
22.566
22.8956
21.8758
22.2759
21.1699
21.837
20.815
21.812
20.8897
21.9544
21.2906
21.9509
21.8139
21.7888
22.2057
21.7341
22.3991
21.8074
22.6265
21.8298
22.8158
21.8492
22.9007
21.878
22.9395
22.0116
22.8656
22.3447
22.6756
22.8668
22.5292
22.9673
22.4051
22.8142
22.0784
22.4999
21.5295
22.1012
20.9193
21.6752
20.4797
21.312
20.1533
20.8847
19.9451
20.3577
19.9303
19.7869
19.9184
19.4705
19.9341
19.2312
20.0091
19.0788
20.1335
18.9983
20.259
19.0026
20.2647
19.1505
20.1126
19.3428
19.879
19.6708
19.5355
19.9355
19.3326
20.1199
19.2092
20.2735
19.1283
20.3768
19.1109
20.4067
19.138
20.3912
19.2085
20.3106
19.2817
20.2103
19.3829
19.9731
19.608
19.528
19.8056
19.1946
19.7746
18.945
19.6631
18.7334
19.4347
18.6081
19.1246
18.511
18.7941
18.3971
18.5019
18.2011
18.0628
17.7422
17.2268
16.684
15.5947
14.5094
12.5846
10.5009
7.33252
3.74846
-1.29905
-7.19473
-15.0547
-24.055
-34.3392
-44.2215
-52.1224
-56.4227
-61.5966
-65.854
-69.3807
-70.6887
-70.3843
-66.735
-58.8144
-48.972
-36.4375
-21.3137
-12.9471
-18.9393
-16.9901
-16.1449
-13.6456
-17.5301
-15.4661
-14.2964
-11.6399
-12.851
-17.4633
-18.8379
-19.8669
-18.5617
-17.1542
-16.1195
-15.884
-15.5785
-14.983
-14.0865
-13.7658
-13.3262
-13.0666
-12.9402
-12.1548
-12.6905
-12.2971
-13.9823
-13.9443
-15.326
-12.6956
-13.0832
-11.0322
-11.8775
-8.38522
-9.79064
-4.77052
-4.32149
0.0767012
0.640364
5.95813
6.15583
15.4575
24.7632
28.2926
24.706
26.1631
24.4198
24.6973
24.2428
23.767
24.0694
23.4764
23.9184
23.4773
23.9384
23.5549
24.0192
23.6804
23.9114
23.9364
23.6353
24.0849
23.519
23.9956
23.33
23.7784
22.9534
23.3551
22.2659
22.7011
21.395
21.9854
20.786
21.7228
20.744
21.797
21.0507
21.7302
21.6638
21.6206
22.1033
21.6494
22.3331
21.6891
22.5988
21.6708
22.8223
21.6698
22.981
21.6897
22.9958
21.9171
22.8552
22.3431
22.6164
22.8765
22.538
23.0491
22.4802
23.0443
22.1859
22.7628
21.6539
22.3406
21.0326
21.9707
20.5606
21.6065
20.1956
21.1426
19.9762
20.5248
19.957
19.8309
19.9344
19.3808
19.9882
19.0943
20.0407
18.9588
20.1273
18.9008
20.2602
18.9151
20.2609
19.0457
20.1304
19.2557
19.8538
19.63
19.4626
19.9207
19.2328
20.1172
19.0837
20.2862
18.9918
20.3779
18.9983
20.4075
19.0303
20.3781
19.082
20.3193
19.1201
20.2188