/*--------------------------------*- C++ -*----------------------------------*\
| =========                 |                                                 |
| \\      /  F ield         | OpenFOAM: The Open Source CFD Toolbox           |
|  \\    /   O peration     | Version:  4.1                                   |
|   \\  /    A nd           | Web:      www.OpenFOAM.org                      |
|    \\/     M anipulation  |                                                 |
\*---------------------------------------------------------------------------*/
FoamFile
{
    version     2.0;
    format      ascii;
    class       volScalarField;
    location    "12";
    object      epsilon;
}
// * * * * * * * * * * * * * * * * * * * * * * * * * * * * * * * * * * * * * //

dimensions      [0 2 -3 0 0 0 0];

internalField   nonuniform List<scalar> 
204246
(
2.74788
2.93705
2.95096
2.97195
2.98653
3.00387
3.01845
3.03554
3.04766
3.06539
3.07557
3.09392
3.10091
3.12267
3.13035
3.1507
3.16001
3.16761
3.19589
3.20041
3.22242
3.23236
3.24828
3.26178
3.2763
3.29034
3.30462
3.31729
3.33443
3.34807
3.3647
3.37928
3.39625
3.4114
3.42695
3.44389
3.44915
3.48199
3.48731
3.51055
3.52257
3.54167
3.55576
3.5733
3.58743
3.60716
3.62334
3.64182
3.65912
3.67603
3.69436
3.71104
3.72886
3.73484
3.77085
3.77677
3.80229
3.81577
3.83653
3.85255
3.87145
3.88804
3.90911
3.9279
3.94842
3.96857
3.98761
4.00971
4.02875
4.05083
4.05859
4.09785
4.10794
4.13838
4.15446
4.18081
4.20122
4.22499
4.24635
4.27273
4.29773
4.32293
4.34958
4.37334
4.4025
4.42633
4.45557
4.46714
4.51574
4.52917
4.56891
4.5877
4.62423
4.64404
4.68354
4.7099
4.74314
4.77508
4.80656
4.84017
4.8701
4.90786
4.93787
4.97597
5.00694
5.04447
5.066
5.12654
5.14404
5.19847
5.21815
5.27571
5.30239
5.35224
5.39043
5.43389
5.4743
5.51851
5.5619
5.60626
5.65379
5.6978
5.74848
5.77611
5.85674
5.87834
5.95339
5.98073
6.05379
6.08708
6.15811
6.19516
6.26593
6.30625
6.37762
6.42088
6.49231
6.53851
6.61109
6.66006
6.71416
6.80054
6.84131
6.92605
6.96925
7.05483
7.09889
7.18646
7.23106
7.32068
7.36542
7.4571
7.50152
7.59551
7.63967
7.73632
7.78021
7.85521
7.94301
7.99635
8.08506
8.13664
8.22816
8.27744
8.37199
8.41846
8.51723
8.55999
8.66345
8.70323
8.81327
8.84921
8.9678
9.001
9.13268
9.16014
9.2803
9.37179
9.45464
9.57307
9.65135
9.79869
9.88144
10.0617
10.1605
10.379
10.5082
10.7708
10.9448
11.2275
11.4087
11.5637
11.5837
0.453196
0.691382
0.702036
0.702028
0.713223
0.708487
0.716065
0.712207
0.719749
0.715888
0.724295
0.720564
0.729572
0.724742
0.734885
0.729009
0.740084
0.735036
0.733947
0.744565
0.739041
0.749467
0.74356
0.753905
0.750459
0.76131
0.758073
0.768838
0.763877
0.775433
0.769688
0.781377
0.775599
0.787779
0.782317
0.795859
0.794313
0.793407
0.806467
0.80139
0.814044
0.811118
0.824222
0.821364
0.834359
0.829612
0.843561
0.838109
0.85224
0.846818
0.860737
0.857884
0.873689
0.872353
0.872533
0.887724
0.882768
0.897543
0.89489
0.91015
0.907615
0.922822
0.918348
0.934666
0.929542
0.946251
0.941291
0.957893
0.955653
0.974638
0.974219
0.979066
0.995626
0.994434
1.01349
1.01203
1.03168
1.03012
1.05086
1.04806
1.0696
1.06551
1.08774
1.08384
1.10623
1.10531
1.131
1.1325
1.1419
1.16298
1.16334
1.18866
1.18848
1.21542
1.21393
1.24203
1.23932
1.26774
1.26461
1.29494
1.29289
1.32372
1.32527
1.35675
1.35848
1.39304
1.39475
1.42015
1.44601
1.44988
1.48581
1.48724
1.52576
1.52564
1.56607
1.56621
1.60944
1.61283
1.65713
1.66159
1.70636
1.71026
1.7613
1.76922
1.80264
1.84203
1.84904
1.90269
1.91098
1.96541
1.9733
2.03206
2.04179
2.10293
2.11375
2.17803
2.18984
2.25734
2.27056
2.34453
2.36171
2.41221
2.47271
2.48861
2.56704
2.5847
2.66614
2.68465
2.76958
2.78928
2.87804
2.8992
2.98959
3.01081
3.10515
3.12781
3.23083
3.25818
3.32554
3.40971
3.43391
3.53458
3.55834
3.65965
3.68336
3.78344
3.80635
3.90454
3.92584
4.02104
4.04112
4.13302
4.15146
4.2425
4.26544
4.35129
4.37233
4.40853
4.47523
4.47914
4.54416
4.54095
4.59056
4.58056
4.61556
4.5999
4.63575
4.62392
4.76186
4.88714
5.36273
5.64445
5.78817
0.589514
0.602581
0.608713
0.611995
0.617172
0.619652
0.624368
0.626783
0.631469
0.633979
0.638525
0.641173
0.645419
0.648287
0.652388
0.655505
0.659615
0.662888
0.665906
0.670074
0.672619
0.676955
0.679713
0.683907
0.687141
0.691149
0.694686
0.698562
0.702276
0.706077
0.71016
0.71401
0.718458
0.722473
0.727339
0.731442
0.736468
0.739993
0.745632
0.749226
0.754832
0.759051
0.76448
0.76926
0.774553
0.779738
0.784957
0.790598
0.795784
0.801902
0.807259
0.813983
0.819502
0.826419
0.831354
0.838773
0.843936
0.851144
0.857054
0.864026
0.870549
0.87735
0.884345
0.890984
0.898528
0.905059
0.913101
0.919911
0.928553
0.935691
0.944535
0.951042
0.96013
0.96697
0.975923
0.983482
0.992399
1.00072
1.00964
1.01841
1.02714
1.03655
1.04533
1.05539
1.06463
1.07546
1.08517
1.09631
1.1053
1.11685
1.12618
1.13779
1.1481
1.15975
1.17055
1.18213
1.19346
1.20522
1.21725
1.22952
1.2421
1.2544
1.26749
1.28051
1.29429
1.30797
1.32175
1.33468
1.34929
1.36191
1.37727
1.38986
1.40592
1.41855
1.43535
1.44794
1.46567
1.47841
1.49678
1.5094
1.52856
1.54133
1.56211
1.57422
1.59249
1.60813
1.62304
1.6419
1.65477
1.67525
1.68652
1.70894
1.71858
1.74174
1.75081
1.77392
1.78251
1.80559
1.81386
1.83711
1.84487
1.86172
1.87587
1.88383
1.90152
1.90575
1.92261
1.92519
1.93969
1.94041
1.95251
1.95147
1.95877
1.95486
1.95911
1.95206
1.95555
1.94158
1.93463
1.93028
1.90807
1.90608
1.87542
1.87096
1.83452
1.82796
1.78683
1.77909
1.7346
1.72602
1.67857
1.6696
1.61959
1.61021
1.5613
1.55252
1.50012
1.47681
1.45809
1.41722
1.41167
1.36704
1.36277
1.32123
1.319
1.28439
1.28602
1.26786
1.27784
1.26678
1.27479
1.16249
1.12064
0.747116
0.726011
0.736324
0.742058
0.746472
0.753602
0.756111
0.762794
0.765182
0.771822
0.774206
0.780735
0.783031
0.789599
0.791518
0.798109
0.799933
0.806878
0.810146
0.813364
0.818746
0.820331
0.826491
0.828323
0.834193
0.836136
0.841984
0.843937
0.84999
0.85166
0.858039
0.85981
0.866389
0.86828
0.875042
0.877206
0.884128
0.887667
0.891437
0.897511
0.899792
0.906463
0.908933
0.915754
0.918327
0.925453
0.927832
0.935238
0.937718
0.945502
0.948382
0.956112
0.959197
0.967343
0.971746
0.977115
0.983947
0.987884
0.995805
0.999252
1.0076
1.01115
1.01976
1.0232
1.03203
1.03556
1.04462
1.04844
1.05742
1.06139
1.07039
1.0754
1.08203
1.08836
1.09387
1.10116
1.10601
1.11395
1.11839
1.12687
1.1308
1.13947
1.14342
1.15223
1.1564
1.16524
1.16956
1.17811
1.18334
1.19014
1.19622
1.20244
1.20909
1.2149
1.22197
1.22727
1.23458
1.23963
1.24705
1.2521
1.25935
1.2644
1.27137
1.27681
1.28342
1.28915
1.29499
1.30048
1.30606
1.31087
1.31667
1.32047
1.32671
1.32929
1.33569
1.33739
1.34333
1.34493
1.35001
1.35102
1.35546
1.35572
1.35968
1.35923
1.35935
1.36046
1.35841
1.35951
1.35543
1.35602
1.34977
1.3498
1.34106
1.34025
1.32905
1.32731
1.31336
1.31045
1.29411
1.29028
1.26945
1.2596
1.24516
1.22606
1.21582
1.18948
1.18069
1.14979
1.13967
1.10591
1.0946
1.05804
1.04549
1.00639
0.992769
0.952109
0.938071
0.893852
0.872857
0.841502
0.809795
0.787949
0.748421
0.733631
0.691959
0.677702
0.637959
0.624687
0.588644
0.576632
0.544272
0.533806
0.505246
0.49636
0.471408
0.46399
0.442235
0.432644
0.419372
0.407653
0.399927
0.386082
0.382272
0.368492
0.3654
0.356602
0.356443
0.356297
0.370046
0.3822
0.404973
0.412571
0.41825
0.9184
0.881783
0.883937
0.890802
0.893312
0.899874
0.902181
0.907959
0.910073
0.915704
0.917774
0.923306
0.925318
0.930814
0.932526
0.937939
0.939548
0.944894
0.947379
0.950174
0.954081
0.955398
0.959763
0.961079
0.965185
0.966562
0.970524
0.971871
0.975838
0.976975
0.981079
0.982276
0.986466
0.987751
0.991968
0.993396
0.9975
0.999568
1.00209
1.00537
1.00688
1.01054
1.01198
1.01566
1.01713
1.02083
1.02219
1.0259
1.0273
1.0311
1.03267
1.03646
1.03813
1.04193
1.04399
1.04688
1.04973
1.05209
1.05546
1.05759
1.06127
1.06332
1.06718
1.06915
1.07302
1.07499
1.07884
1.08086
1.08456
1.08655
1.09002
1.09197
1.09463
1.09675
1.09886
1.10099
1.10272
1.10479
1.10624
1.10798
1.10939
1.11063
1.11192
1.11267
1.114
1.11436
1.1156
1.11553
1.11546
1.11582
1.11513
1.11547
1.11409
1.11431
1.1119
1.1122
1.10894
1.10906
1.10492
1.10487
1.09955
1.09886
1.09318
1.09206
1.08559
1.08415
1.07541
1.07165
1.0664
1.05869
1.05524
1.04447
1.04181
1.029
1.02579
1.01142
1.00713
0.992152
0.987045
0.970721
0.964994
0.947256
0.941131
0.920824
0.911062
0.896187
0.880222
0.868747
0.847699
0.838953
0.814736
0.80603
0.780443
0.771283
0.744799
0.735327
0.708077
0.69827
0.670712
0.660766
0.632002
0.618344
0.597248
0.577924
0.562202
0.538457
0.527643
0.501906
0.492565
0.467359
0.458483
0.434642
0.426328
0.404079
0.396454
0.376156
0.369363
0.350395
0.341796
0.329679
0.318988
0.311641
0.299814
0.29579
0.285
0.281854
0.27318
0.27085
0.264036
0.262388
0.257343
0.256388
0.252992
0.252712
0.250806
0.251137
0.250468
0.250739
0.25262
0.252909
0.255916
0.256636
0.259643
0.260327
0.26268
0.263104
0.266396
0.267725
0.274917
0.279734
0.288705
0.292322
0.294913
1.04315
1.01192
1.01037
1.01123
1.01259
1.01569
1.0166
1.01956
1.02045
1.02325
1.02411
1.0268
1.02762
1.03023
1.03082
1.03328
1.03374
1.03597
1.03687
1.03752
1.03865
1.03869
1.03968
1.03965
1.0403
1.04022
1.04058
1.04041
1.0406
1.0402
1.04033
1.03987
1.03995
1.03948
1.0395
1.0389
1.03875
1.03816
1.03749
1.03706
1.03602
1.0355
1.03428
1.03361
1.03225
1.03145
1.02996
1.02903
1.02749
1.02647
1.02499
1.02377
1.02237
1.02077
1.01925
1.01781
1.01579
1.01474
1.01246
1.01169
1.00923
1.00854
1.00581
1.00533
1.00227
1.00176
0.998395
0.997699
0.994291
0.993448
0.989186
0.986817
0.98444
0.980228
0.978536
0.973097
0.971362
0.965122
0.96311
0.955924
0.954029
0.945869
0.943668
0.93464
0.931834
0.922566
0.91935
0.908651
0.90306
0.8956
0.886878
0.880875
0.869773
0.864707
0.851612
0.847282
0.832824
0.82815
0.812922
0.807945
0.791878
0.786185
0.769977
0.763807
0.747029
0.74059
0.722049
0.713419
0.699094
0.686447
0.67478
0.65833
0.649967
0.630558
0.623631
0.602996
0.59548
0.575329
0.567519
0.547427
0.539631
0.519708
0.512008
0.491299
0.481614
0.466365
0.452975
0.441833
0.42535
0.417807
0.400046
0.393546
0.376216
0.370054
0.353674
0.347924
0.332533
0.32715
0.312909
0.307966
0.294311
0.28804
0.279006
0.270951
0.264968
0.25563
0.252103
0.24279
0.239684
0.231346
0.228619
0.221266
0.218901
0.212506
0.210497
0.204992
0.203307
0.198442
0.196311
0.19364
0.191083
0.189719
0.187171
0.186467
0.184489
0.184086
0.1828
0.182704
0.182192
0.182428
0.18239
0.18349
0.183761
0.185624
0.186291
0.188886
0.189966
0.193112
0.195118
0.198629
0.20156
0.205454
0.209322
0.213676
0.218517
0.223349
0.229095
0.234273
0.2407
0.245856
0.251074
0.253387
0.254696
1.13583
1.105
1.09968
1.09548
1.09316
1.09166
1.08981
1.08869
1.08692
1.08586
1.08413
1.08309
1.08131
1.08035
1.07823
1.07735
1.07476
1.07363
1.071
1.0689
1.06645
1.06358
1.06112
1.05775
1.05511
1.05144
1.04854
1.04465
1.04151
1.03743
1.03409
1.02997
1.02632
1.02229
1.01822
1.01425
1.00971
1.0053
1.00112
0.995862
0.991869
0.986079
0.982004
0.975616
0.9715
0.964258
0.960429
0.952231
0.94861
0.939619
0.935863
0.926688
0.922761
0.913082
0.907578
0.900429
0.892509
0.886819
0.87781
0.872914
0.863123
0.858798
0.848425
0.844654
0.833988
0.830282
0.819442
0.815491
0.804868
0.800755
0.789444
0.783538
0.775005
0.766584
0.759348
0.748996
0.742547
0.730616
0.724664
0.711037
0.706017
0.691153
0.68584
0.670225
0.664307
0.648663
0.642374
0.625679
0.61715
0.604143
0.592499
0.581666
0.567638
0.558537
0.542106
0.535413
0.517615
0.511115
0.493216
0.486738
0.468886
0.462133
0.445081
0.438304
0.421738
0.415161
0.398266
0.390497
0.377689
0.367727
0.357742
0.345605
0.338982
0.325387
0.320472
0.306872
0.301979
0.289641
0.284969
0.273546
0.269238
0.258701
0.25476
0.244538
0.240007
0.232928
0.227203
0.222358
0.215575
0.212793
0.205855
0.203514
0.197199
0.195131
0.189516
0.18772
0.182748
0.181182
0.176836
0.175492
0.171541
0.16978
0.167538
0.165245
0.16407
0.161659
0.160937
0.15878
0.158217
0.156449
0.156034
0.154638
0.154362
0.153322
0.153184
0.152493
0.1525
0.152157
0.152088
0.152382
0.152345
0.153035
0.153178
0.154226
0.154566
0.155958
0.1565
0.158329
0.159115
0.161399
0.162442
0.165218
0.166549
0.169809
0.171439
0.175152
0.177098
0.181078
0.183676
0.187762
0.191037
0.19524
0.199075
0.203473
0.207884
0.212605
0.217578
0.222603
0.227876
0.232505
0.236501
0.23844
0.239408
1.21153
1.16941
1.15833
1.14506
1.1384
1.12976
1.12447
1.11716
1.11209
1.10548
1.10046
1.09444
1.08935
1.08398
1.07865
1.07381
1.06813
1.06299
1.05698
1.05154
1.04512
1.03927
1.0324
1.02613
1.01888
1.01223
1.00442
0.997487
0.988921
0.981998
0.972663
0.965809
0.955914
0.949104
0.938712
0.931736
0.921059
0.912779
0.903808
0.893713
0.885526
0.87455
0.866528
0.854823
0.846813
0.834214
0.826517
0.812939
0.805407
0.790965
0.783354
0.768669
0.760845
0.745691
0.736142
0.723949
0.71173
0.701229
0.687814
0.678429
0.66422
0.655847
0.640794
0.633984
0.61843
0.612287
0.596701
0.590485
0.575473
0.569231
0.553877
0.546055
0.534112
0.523841
0.513922
0.501828
0.493297
0.479827
0.472433
0.457507
0.451606
0.435945
0.430034
0.414346
0.408186
0.393124
0.386935
0.371759
0.364168
0.352453
0.343051
0.333586
0.322825
0.31537
0.303223
0.298247
0.285734
0.281158
0.269327
0.265065
0.253977
0.249835
0.239886
0.236003
0.226921
0.223392
0.214694
0.210789
0.204544
0.199972
0.195339
0.190007
0.187209
0.181479
0.179504
0.174049
0.17218
0.167474
0.165771
0.161616
0.160119
0.15644
0.155131
0.151678
0.150186
0.147947
0.146169
0.144663
0.142576
0.141828
0.139735
0.139097
0.137266
0.136731
0.135158
0.134722
0.133382
0.133029
0.131907
0.131635
0.130654
0.130238
0.129893
0.129357
0.129267
0.128818
0.128798
0.128501
0.128546
0.128434
0.128578
0.128535
0.128872
0.128912
0.129462
0.129613
0.130373
0.130642
0.131506
0.132136
0.132994
0.133978
0.13494
0.136335
0.137505
0.139277
0.140653
0.142818
0.144485
0.147088
0.149132
0.152235
0.154713
0.158321
0.161272
0.165375
0.168814
0.173304
0.177176
0.181851
0.185979
0.190815
0.195238
0.200192
0.204899
0.209944
0.214867
0.219877
0.22468
0.229002
0.23238
0.234223
0.235041
1.3158
1.2372
1.21253
1.18224
1.16713
1.14654
1.13513
1.11917
1.10858
1.09539
1.08528
1.07364
1.06358
1.05296
1.04315
1.03296
1.02352
1.01323
1.00322
0.993844
0.982909
0.973607
0.962127
0.952615
0.940921
0.931038
0.918972
0.908857
0.896169
0.886027
0.872601
0.862341
0.848291
0.837925
0.82332
0.812681
0.797815
0.785817
0.772875
0.759029
0.74696
0.732254
0.720508
0.705081
0.693495
0.677194
0.666133
0.648903
0.638202
0.620222
0.6096
0.591548
0.580885
0.562607
0.550536
0.535427
0.521072
0.508049
0.492839
0.481333
0.46568
0.455593
0.439551
0.431346
0.415073
0.408211
0.392335
0.385733
0.371012
0.364723
0.350447
0.343308
0.332211
0.323794
0.314783
0.305407
0.298086
0.287989
0.282106
0.271345
0.266992
0.256153
0.252034
0.241696
0.23763
0.228186
0.224323
0.215297
0.210863
0.204111
0.199061
0.193761
0.188271
0.184287
0.178303
0.175823
0.169856
0.16769
0.162283
0.160357
0.155499
0.153707
0.149511
0.147894
0.144194
0.142775
0.139346
0.13782
0.135444
0.133716
0.131991
0.130044
0.129024
0.126975
0.126283
0.124367
0.123729
0.122111
0.121545
0.120152
0.119673
0.118473
0.118073
0.116974
0.11651
0.115881
0.115314
0.114961
0.114355
0.114215
0.113678
0.113585
0.113184
0.113143
0.112861
0.112871
0.112721
0.112785
0.112727
0.112895
0.112887
0.113109
0.113356
0.113514
0.113976
0.114139
0.114751
0.114981
0.115727
0.116033
0.116921
0.117307
0.118341
0.118821
0.120003
0.12061
0.121946
0.122718
0.124139
0.125181
0.126644
0.127963
0.129553
0.131134
0.132866
0.134752
0.136686
0.138953
0.14117
0.143826
0.146375
0.149451
0.152436
0.156024
0.159508
0.163635
0.16766
0.172301
0.176762
0.181837
0.186696
0.192062
0.197162
0.202688
0.207832
0.213309
0.218201
0.223323
0.22753
0.231728
0.234354
0.236209
0.236892
1.51826
1.37506
1.32335
1.25835
1.22522
1.18271
1.15621
1.12646
1.10274
1.0781
1.05677
1.03655
1.01756
1.00009
0.983121
0.967243
0.952279
0.937453
0.923047
0.910026
0.895403
0.882963
0.868118
0.855704
0.840992
0.828417
0.813601
0.800973
0.785787
0.77324
0.757353
0.744634
0.72817
0.715354
0.698369
0.685231
0.668007
0.653632
0.638328
0.622271
0.607831
0.59114
0.577156
0.560038
0.546416
0.52881
0.515941
0.497898
0.485691
0.46742
0.455659
0.437729
0.426299
0.408664
0.39661
0.381866
0.368668
0.355986
0.342645
0.331594
0.318439
0.308943
0.296062
0.288364
0.275733
0.269564
0.257518
0.252142
0.241226
0.236331
0.226242
0.221242
0.213275
0.208024
0.201528
0.196105
0.19088
0.18535
0.181221
0.175483
0.172519
0.166757
0.164381
0.158971
0.156755
0.151946
0.149911
0.145463
0.143283
0.139928
0.137632
0.134934
0.132566
0.13047
0.127998
0.126555
0.124022
0.123002
0.120637
0.119746
0.117643
0.116831
0.115032
0.114313
0.112744
0.112122
0.110687
0.110038
0.109051
0.108342
0.10761
0.106846
0.106384
0.105577
0.105295
0.104541
0.104291
0.103675
0.103467
0.102955
0.102794
0.10238
0.102262
0.101906
0.101767
0.101647
0.1015
0.101483
0.101383
0.101425
0.10138
0.101478
0.101467
0.10166
0.101695
0.101987
0.102073
0.102456
0.102593
0.103066
0.103255
0.103765
0.104137
0.104632
0.10517
0.105679
0.106359
0.106913
0.107727
0.108353
0.109296
0.11002
0.111095
0.111941
0.113157
0.114146
0.115515
0.116672
0.118201
0.119638
0.12134
0.123089
0.125004
0.127053
0.129271
0.131662
0.134237
0.136979
0.139917
0.143032
0.146383
0.149943
0.153768
0.157827
0.162196
0.16679
0.171748
0.176898
0.182267
0.187941
0.193662
0.199754
0.205688
0.212011
0.217913
0.224134
0.22959
0.23521
0.23967
0.244023
0.246716
0.248605
0.249279
1.82699
1.64085
1.56086
1.45087
1.37748
1.30454
1.24704
1.19521
1.14889
1.10763
1.06834
1.03322
0.997271
0.966019
0.935781
0.909467
0.884197
0.862152
0.84056
0.822364
0.803137
0.787007
0.769309
0.753993
0.737454
0.722588
0.706636
0.692279
0.676621
0.662826
0.646921
0.633181
0.616953
0.603371
0.586955
0.573343
0.556903
0.542526
0.527684
0.512309
0.498164
0.482466
0.468777
0.453065
0.439878
0.424228
0.411772
0.39632
0.384608
0.369575
0.358552
0.344319
0.333981
0.3206
0.310702
0.299332
0.289708
0.27989
0.270911
0.262338
0.254029
0.246548
0.238815
0.232385
0.225105
0.219358
0.212364
0.207041
0.200316
0.195196
0.188635
0.1836
0.177619
0.17279
0.167326
0.162881
0.157878
0.153905
0.149409
0.145833
0.141813
0.138657
0.13515
0.132365
0.129371
0.126891
0.124349
0.122078
0.119809
0.117965
0.115928
0.114309
0.112551
0.111124
0.109573
0.108344
0.10697
0.10592
0.104692
0.103802
0.10271
0.101949
0.101018
0.100359
0.0995533
0.0989939
0.0982658
0.0977869
0.0972529
0.096769
0.096389
0.0959172
0.0956688
0.0952359
0.0950687
0.0947034
0.0945712
0.0942983
0.0942043
0.0940146
0.0939623
0.0938499
0.0938356
0.093792
0.0937921
0.0938846
0.0939075
0.0940775
0.094141
0.0943905
0.0944992
0.0948243
0.0949852
0.0953875
0.095609
0.0960876
0.0963691
0.0969296
0.0972807
0.0979248
0.09836
0.0990628
0.0996374
0.100374
0.101078
0.101884
0.102705
0.103598
0.10454
0.105536
0.106603
0.107719
0.108919
0.110174
0.11152
0.112936
0.114443
0.11606
0.117746
0.119541
0.121417
0.123407
0.125511
0.127736
0.130159
0.1327
0.135512
0.138492
0.141747
0.145239
0.149002
0.153038
0.157374
0.161985
0.166945
0.172141
0.177776
0.183595
0.189672
0.196091
0.202556
0.209442
0.216135
0.223255
0.22987
0.236802
0.242805
0.248917
0.25361
0.258188
0.260834
0.262794
0.26344
2.0001
1.94815
1.86776
1.7632
1.66931
1.57261
1.48136
1.39744
1.31946
1.2504
1.18369
1.12635
1.06745
1.01711
0.965308
0.921519
0.876661
0.838803
0.8009
0.770845
0.741908
0.717596
0.69496
0.674105
0.65556
0.637102
0.620819
0.604453
0.589857
0.575342
0.561617
0.547982
0.534522
0.521571
0.508558
0.496305
0.483775
0.471758
0.460451
0.448669
0.437977
0.426517
0.416099
0.405006
0.394981
0.384354
0.374743
0.364593
0.355451
0.345967
0.337472
0.328917
0.321319
0.313831
0.307346
0.30103
0.295608
0.290029
0.285783
0.281074
0.277967
0.273916
0.271801
0.267826
0.266387
0.262042
0.2605
0.255225
0.253013
0.246533
0.2433
0.236546
0.230117
0.223726
0.215373
0.209443
0.199901
0.194576
0.184768
0.180352
0.170894
0.166941
0.158481
0.155009
0.147788
0.144708
0.138651
0.136035
0.13119
0.128584
0.124732
0.122399
0.119315
0.117116
0.114732
0.112557
0.110802
0.10864
0.107382
0.105284
0.104391
0.102516
0.101715
0.100122
0.099432
0.0980698
0.0974891
0.0963819
0.0958187
0.09494
0.0944703
0.0937709
0.0933745
0.0928409
0.0925068
0.0921167
0.0918334
0.0915735
0.0913567
0.0911986
0.0910508
0.0909833
0.0909268
0.0909141
0.0909113
0.0909985
0.0910616
0.0912197
0.0913667
0.091569
0.0918093
0.0920588
0.0923823
0.0926861
0.093082
0.0934645
0.0939378
0.0943995
0.0949554
0.0954909
0.0961376
0.0967561
0.0975016
0.0982106
0.0990496
0.0998711
0.100799
0.101749
0.102775
0.103867
0.105006
0.106256
0.107525
0.10895
0.110369
0.111989
0.113578
0.115427
0.117231
0.119318
0.12139
0.12377
0.126181
0.128872
0.131676
0.134669
0.13792
0.141264
0.14503
0.148849
0.153216
0.157617
0.162686
0.167743
0.173579
0.179325
0.185987
0.192491
0.199684
0.206939
0.214591
0.222443
0.230355
0.238524
0.246316
0.254292
0.261302
0.268275
0.27361
0.278699
0.2816
0.283722
0.284393
1.81046
1.93716
1.95147
1.94257
1.91111
1.85772
1.79121
1.71398
1.63456
1.55332
1.46804
1.38706
1.30266
1.22618
1.14573
1.07742
1.00461
0.945554
0.883906
0.830271
0.783181
0.739123
0.704624
0.669338
0.642934
0.614654
0.594841
0.572842
0.557753
0.540305
0.528503
0.513737
0.503528
0.49053
0.481551
0.470294
0.462567
0.453032
0.446449
0.438568
0.432565
0.425939
0.419852
0.413754
0.407655
0.402487
0.396426
0.392022
0.385961
0.382436
0.37674
0.373987
0.36926
0.367436
0.365413
0.364301
0.364809
0.364591
0.366327
0.366942
0.370561
0.371947
0.377022
0.378568
0.384125
0.385534
0.390002
0.390681
0.39232
0.391523
0.391581
0.389563
0.3836
0.37951
0.369881
0.364002
0.350882
0.343477
0.327952
0.320392
0.303069
0.295839
0.278435
0.271417
0.25525
0.248463
0.234048
0.228003
0.216362
0.209459
0.200761
0.193386
0.187205
0.179427
0.175505
0.167502
0.16458
0.157182
0.154607
0.147944
0.145654
0.139721
0.137488
0.132205
0.130189
0.125433
0.123705
0.119732
0.117496
0.114525
0.112223
0.110139
0.107583
0.106393
0.103892
0.103061
0.100962
0.100228
0.0985898
0.0980193
0.096757
0.0963347
0.095397
0.0951217
0.0945445
0.0942278
0.0939704
0.0937754
0.0937559
0.0936723
0.0937474
0.0937526
0.0940401
0.0941261
0.0945623
0.0947433
0.0953173
0.0955846
0.0962927
0.096643
0.0974922
0.0979835
0.0988732
0.0995425
0.100478
0.101337
0.102327
0.103384
0.104444
0.105705
0.106855
0.108331
0.109592
0.111294
0.112686
0.114628
0.116174
0.11839
0.120192
0.122549
0.124712
0.12728
0.12985
0.13269
0.13573
0.138938
0.142498
0.146157
0.150302
0.1545
0.159323
0.164174
0.1698
0.175415
0.181951
0.188399
0.19594
0.20333
0.211551
0.219882
0.228703
0.237784
0.24697
0.256469
0.265592
0.2749
0.283166
0.291275
0.29753
0.303305
0.306577
0.308911
0.309618
1.2196
1.52726
1.65056
1.78168
1.84155
1.86472
1.87083
1.86506
1.84799
1.81601
1.77288
1.71908
1.65639
1.5885
1.51177
1.43393
1.34608
1.26424
1.17792
1.09232
1.01813
0.940608
0.883806
0.82053
0.77731
0.727341
0.69574
0.657707
0.636653
0.607632
0.594271
0.571619
0.561525
0.543113
0.53511
0.52049
0.514112
0.503838
0.498094
0.492034
0.48741
0.484423
0.480463
0.479101
0.475772
0.475091
0.472336
0.472216
0.470107
0.470348
0.469361
0.470002
0.469702
0.471647
0.473227
0.47489
0.479746
0.482035
0.489117
0.492724
0.501692
0.506559
0.517311
0.522571
0.534799
0.540045
0.552239
0.557142
0.567316
0.571141
0.577843
0.580375
0.580265
0.580586
0.577699
0.57567
0.568119
0.563006
0.551451
0.544487
0.529098
0.521253
0.503255
0.495113
0.476098
0.467543
0.448913
0.440801
0.425144
0.413954
0.402478
0.389779
0.38157
0.368036
0.362601
0.348641
0.343805
0.330329
0.325792
0.312677
0.308314
0.295599
0.290841
0.278371
0.273616
0.261143
0.256587
0.245101
0.237726
0.228775
0.219239
0.212829
0.20134
0.197026
0.18532
0.181255
0.170621
0.166582
0.157182
0.153589
0.145361
0.142257
0.135246
0.132762
0.127321
0.124305
0.120573
0.117821
0.115459
0.112644
0.111625
0.109145
0.108506
0.106756
0.106294
0.105202
0.104975
0.104393
0.104398
0.104191
0.104405
0.104512
0.104909
0.105356
0.105861
0.106641
0.107225
0.108316
0.109002
0.110369
0.111195
0.112816
0.113805
0.115683
0.116856
0.119005
0.120385
0.122836
0.124546
0.127132
0.129291
0.132071
0.134724
0.137751
0.140977
0.144344
0.148197
0.152023
0.156571
0.160992
0.166332
0.171484
0.177766
0.183796
0.191177
0.198204
0.206843
0.21505
0.224607
0.234024
0.244424
0.254832
0.265803
0.276825
0.287875
0.298855
0.309028
0.318774
0.326507
0.333541
0.337373
0.340175
0.340973
0.575441
0.833327
0.959609
1.1777
1.34325
1.48603
1.60483
1.67494
1.73546
1.76499
1.78433
1.78881
1.78892
1.78066
1.76467
1.73748
1.70162
1.65491
1.59858
1.52888
1.45871
1.3753
1.30071
1.21623
1.1478
1.07188
1.01575
0.952388
0.912426
0.860514
0.834718
0.794593
0.777416
0.744767
0.731457
0.705305
0.694427
0.675727
0.664452
0.654101
0.644305
0.639945
0.632751
0.6307
0.625573
0.624883
0.620822
0.620914
0.61781
0.61831
0.616907
0.617844
0.617317
0.61987
0.621648
0.623424
0.629061
0.631486
0.639711
0.643569
0.654025
0.65927
0.671796
0.677526
0.691772
0.697843
0.712641
0.71897
0.732601
0.73842
0.750019
0.75561
0.761359
0.764595
0.76482
0.765466
0.763499
0.762304
0.756502
0.752961
0.743012
0.737951
0.725203
0.719401
0.705401
0.698872
0.684829
0.678556
0.667198
0.658186
0.65036
0.640692
0.635697
0.626614
0.623646
0.614812
0.612594
0.604217
0.602317
0.594008
0.592192
0.583728
0.581217
0.572021
0.569022
0.558581
0.555329
0.545036
0.536478
0.528191
0.515175
0.508344
0.490938
0.48467
0.464604
0.457445
0.435975
0.427354
0.40494
0.395782
0.372755
0.363381
0.340459
0.331486
0.310507
0.297688
0.28143
0.266068
0.254525
0.236799
0.229826
0.212619
0.206591
0.191986
0.186524
0.174555
0.170115
0.160426
0.157124
0.149253
0.146878
0.14153
0.138562
0.135533
0.133095
0.131626
0.129667
0.12927
0.128049
0.128063
0.127684
0.128115
0.128102
0.129343
0.129664
0.131478
0.13214
0.134519
0.135706
0.138164
0.140112
0.142692
0.145384
0.148158
0.151618
0.154696
0.158949
0.162471
0.167575
0.171707
0.177747
0.182667
0.189802
0.1957
0.204128
0.211194
0.221151
0.229714
0.240821
0.251039
0.263263
0.274944
0.28798
0.300748
0.314008
0.32722
0.339613
0.351914
0.361399
0.370711
0.375251
0.378862
0.379847
0.202287
0.319931
0.37908
0.506084
0.641935
0.78447
0.940616
1.07808
1.21679
1.32262
1.42788
1.49301
1.5614
1.59853
1.64425
1.66346
1.68974
1.69908
1.70384
1.70145
1.69122
1.66955
1.64068
1.60117
1.55863
1.50621
1.45667
1.39845
1.35046
1.29296
1.25238
1.20122
1.17014
1.12502
1.10098
1.06141
1.04167
1.01041
0.98724
0.965714
0.942942
0.929224
0.910378
0.902581
0.887406
0.882179
0.869504
0.866015
0.855613
0.853279
0.845216
0.843328
0.837332
0.836369
0.834797
0.833194
0.834891
0.834466
0.838311
0.839206
0.846042
0.848383
0.857452
0.86042
0.870876
0.874445
0.885327
0.889345
0.899467
0.903405
0.912634
0.917139
0.922182
0.925726
0.926097
0.926717
0.925178
0.924513
0.920403
0.91804
0.910718
0.906775
0.897047
0.892119
0.881361
0.875644
0.86494
0.859467
0.851134
0.844165
0.838825
0.832261
0.829622
0.825435
0.824771
0.822547
0.82335
0.822586
0.824878
0.824674
0.828355
0.828836
0.83317
0.83409
0.838653
0.839576
0.844635
0.846624
0.848202
0.850895
0.850731
0.852562
0.85079
0.851908
0.847856
0.84817
0.841312
0.839723
0.829501
0.826184
0.812149
0.806909
0.789036
0.782414
0.763896
0.747915
0.731877
0.708669
0.694353
0.663831
0.651469
0.616787
0.603515
0.567424
0.552504
0.516378
0.501428
0.466072
0.452132
0.416914
0.403771
0.373232
0.355863
0.333023
0.313063
0.297311
0.275898
0.266593
0.246735
0.239675
0.223435
0.218012
0.205398
0.201465
0.19213
0.189513
0.183073
0.181612
0.178473
0.176446
0.176269
0.175575
0.176222
0.176533
0.179072
0.179836
0.183847
0.18541
0.190674
0.19315
0.199638
0.203221
0.211028
0.215692
0.224978
0.230907
0.241968
0.249844
0.261982
0.27235
0.285709
0.298512
0.312899
0.327854
0.342768
0.359182
0.373616
0.389992
0.401545
0.414382
0.420402
0.425145
0.426443
0.0477386
0.0776775
0.0890197
0.120046
0.165853
0.222508
0.298412
0.380768
0.480183
0.576266
0.687546
0.784509
0.897278
0.98681
1.09263
1.16573
1.25868
1.31604
1.3822
1.43437
1.47164
1.51139
1.5295
1.55035
1.55706
1.56007
1.55903
1.55296
1.5438
1.52808
1.51165
1.49038
1.47179
1.44917
1.43159
1.40922
1.39247
1.37168
1.35029
1.33183
1.30713
1.29001
1.2656
1.25175
1.22986
1.21916
1.19856
1.19062
1.17225
1.16566
1.14973
1.14381
1.13064
1.12598
1.11706
1.10985
1.10607
1.09903
1.09726
1.0923
1.09192
1.08903
1.08975
1.08779
1.089
1.08736
1.08848
1.08689
1.08741
1.08543
1.08563
1.08449
1.08193
1.08068
1.0762
1.07366
1.06752
1.06376
1.05628
1.05151
1.04222
1.03637
1.02565
1.019
1.00779
1.0005
0.989557
0.982476
0.973635
0.966002
0.959843
0.953187
0.949516
0.9456
0.944687
0.943807
0.944846
0.945464
0.9494
0.951998
0.958599
0.962989
0.971127
0.976872
0.986216
0.993016
1.00378
1.01215
1.02176
1.03194
1.04085
1.05216
1.06012
1.07218
1.07924
1.0915
1.09801
1.10963
1.11555
1.12653
1.13139
1.14149
1.14533
1.15521
1.15969
1.16451
1.17025
1.17155
1.17648
1.17579
1.17816
1.17483
1.17596
1.16816
1.16656
1.15276
1.148
1.12786
1.1203
1.09218
1.08213
1.0533
1.02749
1.00201
0.964405
0.940571
0.892498
0.870788
0.816998
0.795168
0.739876
0.71813
0.663242
0.64166
0.588114
0.567282
0.517229
0.498074
0.457136
0.433094
0.404864
0.379464
0.362008
0.337826
0.32896
0.309417
0.303659
0.290458
0.287454
0.280201
0.279559
0.277468
0.278938
0.279607
0.285295
0.286894
0.295508
0.299711
0.308628
0.316951
0.326798
0.339185
0.350535
0.366579
0.38013
0.399447
0.414355
0.435656
0.44996
0.467982
0.476491
0.483067
0.48486
0.00669602
0.0111818
0.0108714
0.0139033
0.020251
0.0289099
0.042864
0.0603256
0.0852218
0.113185
0.151296
0.190488
0.241694
0.29127
0.356018
0.412971
0.48705
0.547785
0.623609
0.703163
0.775375
0.865133
0.929923
1.01702
1.07383
1.14955
1.19353
1.25318
1.27929
1.32189
1.33834
1.36788
1.37864
1.40043
1.40858
1.42738
1.436
1.4532
1.46209
1.47447
1.4798
1.48293
1.48274
1.48234
1.47834
1.47542
1.46783
1.46326
1.45365
1.44841
1.43734
1.43192
1.42103
1.41636
1.40798
1.39989
1.39461
1.38459
1.37989
1.36917
1.36465
1.35372
1.34943
1.33775
1.33323
1.32075
1.31534
1.3023
1.29515
1.28163
1.27327
1.26125
1.24966
1.2392
1.22631
1.21616
1.20261
1.19232
1.17846
1.16809
1.1536
1.14305
1.12813
1.1174
1.10265
1.09167
1.07751
1.0668
1.05459
1.04378
1.03411
1.02451
1.01731
1.00977
1.0052
1.00056
0.998925
0.998014
0.998464
0.999492
1.00331
1.00736
1.01357
1.01965
1.02784