/*--------------------------------*- C++ -*----------------------------------*\
| =========                 |                                                 |
| \\      /  F ield         | OpenFOAM: The Open Source CFD Toolbox           |
|  \\    /   O peration     | Version:  4.1                                   |
|   \\  /    A nd           | Web:      www.OpenFOAM.org                      |
|    \\/     M anipulation  |                                                 |
\*---------------------------------------------------------------------------*/
FoamFile
{
    version     2.0;
    format      ascii;
    class       volScalarField;
    location    "12";
    object      k;
}
// * * * * * * * * * * * * * * * * * * * * * * * * * * * * * * * * * * * * * //

dimensions      [0 2 -2 0 0 0 0];

internalField   nonuniform List<scalar> 
204246
(
2.06963
2.15867
2.17034
2.1757
2.1877
2.19194
2.2025
2.20729
2.21664
2.22171
2.23012
2.23544
2.24307
2.24849
2.25726
2.26192
2.27149
2.2751
2.28349
2.29078
2.2961
2.306
2.30914
2.31922
2.32241
2.33273
2.33576
2.34622
2.34898
2.3607
2.36319
2.37535
2.37794
2.39038
2.39306
2.40474
2.40798
2.4178
2.42571
2.43181
2.44122
2.44616
2.45653
2.4607
2.4719
2.47538
2.48836
2.49121
2.50471
2.50761
2.51993
2.5235
2.53558
2.53913
2.54967
2.55809
2.56468
2.57481
2.58004
2.59132
2.59567
2.60807
2.61159
2.62586
2.62908
2.64395
2.64733
2.66131
2.66551
2.67948
2.68379
2.6959
2.70461
2.71365
2.72499
2.73217
2.7454
2.75139
2.76594
2.77114
2.78821
2.79281
2.81059
2.81542
2.8324
2.83812
2.85512
2.861
2.8762
2.88647
2.89874
2.91128
2.92209
2.93604
2.94603
2.96373
2.97096
2.99101
2.99739
3.01812
3.02476
3.04519
3.05275
3.0733
3.08116
3.10246
3.11025
3.13003
3.14211
3.15923
3.17327
3.18938
3.20733
3.22079
3.24198
3.25347
3.27585
3.28716
3.3107
3.32191
3.34707
3.35797
3.38433
3.39505
3.42013
3.43511
3.45766
3.47488
3.49642
3.51596
3.53647
3.55745
3.57764
3.59985
3.6199
3.64334
3.66329
3.68771
3.70784
3.73327
3.75346
3.77834
3.8007
3.82468
3.84781
3.87195
3.8955
3.91996
3.94371
3.96862
3.99241
4.01777
4.04144
4.06733
4.09091
4.11731
4.14093
4.16749
4.19046
4.21727
4.24027
4.26645
4.29016
4.31553
4.34
4.3644
4.38991
4.41318
4.44015
4.46227
4.4912
4.51203
4.54355
4.56348
4.59907
4.61711
4.65725
4.67899
4.71555
4.74575
4.78073
4.82002
4.85641
4.9059
4.94741
5.00851
5.05964
5.1336
5.19885
5.27788
5.34474
5.38271
5.39925
1.40561
1.38551
1.39261
1.39496
1.40138
1.40266
1.40823
1.40929
1.41438
1.41522
1.42019
1.4209
1.42555
1.42588
1.43051
1.43049
1.43579
1.43637
1.43703
1.441
1.44098
1.44529
1.44514
1.45011
1.45065
1.45581
1.45654
1.46156
1.46183
1.46714
1.46737
1.47299
1.4733
1.47929
1.47986
1.48734
1.48944
1.49157
1.49753
1.49859
1.50613
1.5079
1.51574
1.51773
1.52555
1.52707
1.53528
1.53684
1.54539
1.54709
1.55653
1.55909
1.56926
1.5727
1.57745
1.58555
1.58785
1.59798
1.601
1.6113
1.6145
1.62466
1.62735
1.63778
1.64052
1.65125
1.65416
1.66584
1.66963
1.68218
1.68699
1.69454
1.70544
1.71002
1.72291
1.72765
1.74129
1.74625
1.7605
1.76541
1.77982
1.78467
1.7999
1.80506
1.8216
1.82783
1.84563
1.85306
1.86542
1.88004
1.88889
1.90671
1.91423
1.93376
1.94131
1.96115
1.96877
1.98939
1.99719
2.01919
2.02776
2.05074
2.06041
2.08432
2.09454
2.11989
2.13075
2.15251
2.17128
2.18879
2.21243
2.22626
2.25342
2.26551
2.29493
2.30761
2.33942
2.3531
2.38611
2.40082
2.43494
2.45025
2.48713
2.50416
2.53611
2.56208
2.5902
2.62109
2.64829
2.68207
2.70894
2.74672
2.77366
2.81425
2.84206
2.88506
2.91435
2.95959
2.99106
3.0389
3.07394
3.11631
3.16092
3.20199
3.24924
3.29299
3.34192
3.38861
3.43919
3.48912
3.54147
3.59483
3.64752
3.70494
3.75884
3.82106
3.87851
3.94498
3.99686
4.072
4.12794
4.19808
4.26494
4.32966
4.4061
4.46555
4.54941
4.60498
4.69285
4.74701
4.83477
4.89032
4.97066
5.02936
5.11275
5.16988
5.25161
5.29089
5.38461
5.42035
5.50971
5.54195
5.62673
5.6556
5.73731
5.76334
5.85175
5.88288
6.04926
6.19401
6.60827
6.86468
6.97333
2.04664
1.94341
1.96589
1.97876
1.98052
1.99415
1.99524
2.00693
2.00808
2.01918
2.01992
2.03007
2.0302
2.04096
2.03973
2.04986
2.04824
2.05921
2.06359
2.06163
2.06978
2.06762
2.07591
2.07444
2.08159
2.08046
2.08756
2.08643
2.09477
2.0927
2.10145
2.09956
2.10874
2.10703
2.11642
2.11539
2.12538
2.13041
2.12903
2.13867
2.13792
2.14702
2.14679
2.1565
2.15648
2.16788
2.16709
2.17899
2.1784
2.19116
2.19164
2.20378
2.20484
2.21886
2.22573
2.22669
2.23997
2.24084
2.25352
2.25498
2.2677
2.26928
2.28302
2.2835
2.2979
2.29848
2.31333
2.31495
2.3287
2.33085
2.3459
2.35324
2.3567
2.36885
2.37084
2.3843
2.38662
2.40065
2.40324
2.41822
2.41984
2.43566
2.43757
2.45433
2.45746
2.47362
2.47746
2.49513
2.50385
2.51068
2.52521
2.52922
2.54593
2.55036
2.56793
2.57157
2.58986
2.59385
2.61285
2.61731
2.63666
2.64188
2.66043
2.66637
2.68545
2.69178
2.71242
2.72148
2.73359
2.74897
2.75582
2.77477
2.78077
2.80042
2.80673
2.82671
2.83374
2.85304
2.86029
2.87977
2.88717
2.90736
2.91537
2.93579
2.94543
2.95959
2.97348
2.98373
3.00064
3.00839
3.02621
3.03424
3.05153
3.05957
3.07602
3.08401
3.0996
3.10761
3.12274
3.13103
3.14487
3.15156
3.16236
3.16819
3.17707
3.18162
3.18899
3.19037
3.19581
3.1946
3.19696
3.1931
3.19357
3.18248
3.1824
3.16523
3.16385
3.13717
3.12415
3.1083
3.07517
3.06601
3.02002
3.00761
2.95363
2.93824
2.87762
2.86009
2.79441
2.77505
2.70487
2.68429
2.61041
2.58921
2.51553
2.49531
2.41658
2.38006
2.34417
2.28169
2.26628
2.19625
2.18214
2.11489
2.10308
2.04397
2.03734
1.99736
2.0016
1.97559
1.9808
1.84753
1.7981
2.80529
2.64381
2.64846
2.66454
2.66618
2.67767
2.67813
2.68649
2.68661
2.69441
2.69438
2.70162
2.70134
2.70874
2.7074
2.71409
2.71247
2.71864
2.72108
2.71937
2.72374
2.72146
2.72543
2.72365
2.72673
2.72522
2.7282
2.72669
2.7304
2.72813
2.73205
2.72993
2.73418
2.73225
2.73664
2.73527
2.7393
2.7416
2.74008
2.74437
2.74314
2.74696
2.74613
2.75033
2.74966
2.75485
2.75364
2.75906
2.75799
2.76389
2.76354
2.76926
2.76931
2.77586
2.77915
2.77914
2.78565
2.78571
2.79197
2.79247
2.79869
2.7993
2.8059
2.80587
2.81271
2.81272
2.81971
2.82035
2.82666
2.82755
2.83372
2.8368
2.83773
2.84222
2.84256
2.8472
2.8476
2.85215
2.8526
2.85716
2.85714
2.86159
2.86154
2.86595
2.86633
2.87032
2.87094
2.87456
2.87636
2.87653
2.879
2.87916
2.88151
2.88167
2.88384
2.88374
2.88548
2.88535
2.88672
2.88661
2.88744
2.8873
2.8876
2.8874
2.88753
2.88702
2.88673
2.88575
2.88381
2.88262
2.88013
2.8785
2.87539
2.8731
2.86936
2.86647
2.86194
2.85867
2.8531
2.84909
2.84273
2.83736
2.83099
2.82267
2.81401
2.80603
2.79372
2.78642
2.7696
2.76322
2.74223
2.73538
2.71088
2.70288
2.67461
2.66532
2.63275
2.62181
2.58548
2.57326
2.52918
2.50762
2.47601
2.43766
2.41469
2.36405
2.34465
2.28687
2.26555
2.20375
2.18068
2.11507
2.09021
2.02107
1.9946
1.92336
1.89616
1.81965
1.78266
1.724
1.67136
1.62627
1.56101
1.5284
1.45669
1.42914
1.35809
1.33208
1.26646
1.24251
1.18284
1.16148
1.1081
1.08943
1.04215
1.02603
0.98381
0.96467
0.936917
0.913958
0.89579
0.869398
0.857914
0.830941
0.822433
0.803694
0.800809
0.796745
0.811118
0.828163
0.858153
0.867802
0.875052
3.33729
3.23011
3.22408
3.22855
3.22737
3.23111
3.22918
3.23079
3.22783
3.22901
3.22568
3.22666
3.22296
3.22411
3.21931
3.22041
3.21487
3.2156
3.21275
3.20685
3.20689
3.19921
3.19886
3.19109
3.18977
3.18219
3.1807
3.17306
3.17187
3.16355
3.16251
3.15436
3.15335
3.14547
3.14444
3.13681
3.13501
3.12976
3.12361
3.12174
3.11405
3.11186
3.10444
3.10223
3.095
3.09305
3.08543
3.08354
3.0761
3.07422
3.06741
3.06524
3.05873
3.05646
3.05127
3.04629
3.04326
3.0372
3.03483
3.02874
3.02635
3.02046
3.01815
3.01215
3.00979
3.00358
3.00101
2.99475
2.99183
2.98532
2.98185
2.97563
2.96974
2.96419
2.95688
2.9514
2.94323
2.9376
2.92886
2.9229
2.91354
2.90707
2.89722
2.89028
2.88037
2.87288
2.86302
2.85433
2.84415
2.83434
2.82369
2.81355
2.8017
2.79162
2.77789
2.76856
2.75236
2.74397
2.72525
2.71783
2.69686
2.6888
2.66699
2.65829
2.63517
2.62601
2.59915
2.58635
2.56521
2.54515
2.52763
2.50027
2.48754
2.45431
2.44244
2.40562
2.39196
2.35409
2.3391
2.29884
2.28284
2.24021
2.2236
2.17576
2.15237
2.1166
2.08022
2.05226
2.00581
1.98365
1.93076
1.90989
1.85423
1.83258
1.77557
1.75339
1.69528
1.67255
1.6141
1.59115
1.53058
1.50135
1.45424
1.41478
1.37733
1.33007
1.30125
1.24824
1.22658
1.17246
1.15168
1.10011
1.08043
1.03183
1.01351
0.968566
0.95189
0.909508
0.889832
0.860122
0.836711
0.816086
0.789783
0.777544
0.751794
0.742724
0.720511
0.713163
0.694743
0.688859
0.674062
0.669624
0.658193
0.655135
0.646783
0.645009
0.639098
0.636878
0.636456
0.634842
0.635689
0.634924
0.635913
0.635048
0.635706
0.634502
0.636016
0.636489
0.645835
0.651622
0.66442
0.669149
0.672947
3.82422
3.70029
3.6831
3.67612
3.66436
3.66095
3.64842
3.6441
3.6309
3.62609
3.61269
3.60767
3.59437
3.5896
3.57545
3.57059
3.5557
3.55033
3.53743
3.52643
3.5168
3.50236
3.49411
3.47816
3.46995
3.45353
3.44503
3.42834
3.41979
3.4024
3.39414
3.37656
3.36838
3.35092
3.34247
3.32528
3.31577
3.30013
3.28775
3.27401
3.25978
3.24679
3.2317
3.2188
3.20325
3.19035
3.17427
3.16139
3.14512
3.13212
3.11624
3.10292
3.08742
3.07366
3.059
3.04445
3.0303
3.01595
3.00175
2.98782
2.97334
2.96
2.94489
2.93236
2.91619
2.90438
2.88703
2.87574
2.85776
2.84659
2.82736
2.81321
2.7971
2.77988
2.76483
2.7451
2.73075
2.7087
2.69489
2.66969
2.65786
2.62947
2.61828
2.58775
2.57545
2.54457
2.53158
2.49837
2.47938
2.45425
2.42831
2.40686
2.37594
2.3568
2.32073
2.3054
2.2655
2.25027
2.20865
2.19294
2.1497
2.13262
2.0894
2.07148
2.02736
2.009
1.96144
1.93877
1.90046
1.86925
1.83678
1.79793
1.77219
1.72605
1.70584
1.65546
1.63532
1.58538
1.5647
1.51491
1.49429
1.44488
1.42449
1.37351
1.34924
1.3096
1.27744
1.24649
1.20796
1.18448
1.14153
1.12391
1.08025
1.06338
1.02182
1.00591
0.966546
0.951508
0.914704
0.900701
0.865288
0.848678
0.823159
0.802879
0.78401
0.760927
0.74796
0.723686
0.714192
0.691005
0.682438
0.661585
0.653925
0.635336
0.628566
0.612094
0.60614
0.591204
0.584385
0.574413
0.566708
0.559785
0.551474
0.547391
0.539452
0.53662
0.529968
0.52782
0.522867
0.521434
0.518115
0.517388
0.515666
0.515644
0.515235
0.516249
0.516666
0.518909
0.521033
0.523982
0.527753
0.531456
0.536704
0.541129
0.547858
0.553249
0.561451
0.567638
0.577146
0.583689
0.591118
0.594099
0.596022
4.16686
4.05396
4.0276
4.0014
3.98156
3.96206
3.94199
3.92369
3.90265
3.88472
3.86319
3.84545
3.82374
3.80663
3.78403
3.76763
3.74399
3.72733
3.70463
3.68449
3.6635
3.64095
3.6206
3.59674
3.5764
3.55191
3.53118
3.50628
3.48517
3.45983
3.43866
3.41334
3.39209
3.36708
3.34567
3.32105
3.29902
3.2746
3.25202
3.22729
3.20458
3.1795
3.15648
3.13075
3.10768
3.08082
3.05825
3.03001
3.0079
2.97825
2.95635
2.92612
2.90433
2.87296
2.84789
2.82219
2.79227
2.76957
2.73807
2.71685
2.68438
2.6643
2.63039
2.61272
2.57713
2.56148
2.52481
2.50924
2.47305
2.45727
2.42026
2.39928
2.37002
2.34292
2.31726
2.28584
2.26229
2.22751
2.20525
2.1666
2.14726
2.10454
2.08704
2.04181
2.02308
1.97797
1.95852
1.91159
1.88659
1.84871
1.81632
1.78375
1.74596
1.7174
1.67437
1.65118
1.60346
1.58402
1.53463
1.51527
1.46604
1.44611
1.39873
1.3788
1.33256
1.31313
1.26614
1.24404
1.20679
1.17922
1.14883
1.11615
1.09359
1.0561
1.04054
1.00166
0.986467
0.950507
0.935927
0.902262
0.888637
0.85723
0.844582
0.814078
0.80015
0.777414
0.760641
0.743524
0.724309
0.712342
0.691668
0.683407
0.663201
0.655701
0.637395
0.630668
0.614112
0.608047
0.593197
0.587774
0.574033
0.567686
0.55831
0.550718
0.544115
0.535705
0.531485
0.522919
0.519744
0.511911
0.509135
0.50228
0.499878
0.49394
0.491893
0.486837
0.48516
0.480849
0.47892
0.476526
0.474271
0.473244
0.471197
0.470715
0.469361
0.469213
0.46869
0.468935
0.468997
0.470325
0.470727
0.473029
0.473918
0.477095
0.478446
0.482419
0.484195
0.488621
0.49135
0.495917
0.499505
0.504335
0.508839
0.514167
0.519682
0.525477
0.53203
0.538388
0.54571
0.551745
0.557232
0.559736
0.561116
4.43838
4.31055
4.27011
4.21949
4.1894
4.14994
4.12018
4.08518
4.05403
4.02089
3.98889
3.95677
3.92429
3.89312
3.86005
3.83018
3.79672
3.76675
3.73374
3.70257
3.67032
3.63808
3.60635
3.57326
3.54117
3.50774
3.4749
3.4413
3.40727
3.37381
3.33844
3.30533
3.26877
3.23611
3.19847
3.16586
3.1275
3.09243
3.05819
3.01975
2.98716
2.94759
2.91528
2.87477
2.84251
2.80048
2.7691
2.72539
2.69452
2.64943
2.61848
2.57347
2.54221
2.49661
2.46153
2.42321
2.38246
2.34803
2.30525
2.27325
2.22938
2.19959
2.15445
2.12826
2.0816
2.05852
2.01053
1.98934
1.94218
1.92127
1.87374
1.84832
1.81015
1.7782
1.74564
1.70909
1.68023
1.64036
1.61432
1.57076
1.54891
1.50217
1.4828
1.43492
1.41496
1.3687
1.34872
1.30215
1.27865
1.24127
1.21262
1.1814
1.14909
1.12316
1.08735
1.06775
1.02962
1.0141
0.976398
0.96174
0.92609
0.911834
0.879297
0.865814
0.835713
0.823266
0.794311
0.78096
0.758874
0.743652
0.726218
0.708984
0.696744
0.677479
0.669724
0.650338
0.642954
0.625793
0.618962
0.603474
0.597303
0.583283
0.577713
0.56445
0.558455
0.548724
0.541966
0.534423
0.526846
0.521539
0.513232
0.509823
0.501568
0.498478
0.491014
0.488236
0.481475
0.478955
0.472844
0.47057
0.46487
0.462219
0.458319
0.455155
0.452311
0.448829
0.446934
0.443334
0.441971
0.438634
0.437454
0.434546
0.433544
0.431084
0.430272
0.428316
0.427729
0.426203
0.42555
0.425066
0.42449
0.424487
0.424331
0.424965
0.425259
0.426738
0.427308
0.429636
0.430642
0.433861
0.435423
0.439575
0.441782
0.446885
0.449756
0.455811
0.45931
0.466003
0.470324
0.477184
0.482198
0.489073
0.494729
0.501484
0.507575
0.51423
0.520566
0.527018
0.533158
0.538625
0.542909
0.545169
0.546268
4.71782
4.53329
4.46589
4.37599
4.32718
4.26081
4.21469
4.15962
4.11255
4.06204
4.01482
3.96725
3.92136
3.87698
3.83197
3.78901
3.74522
3.70226
3.65812
3.61635
3.5711
3.529
3.48316
3.44068
3.39493
3.35205
3.30597
3.2631
3.21602
3.17349
3.12521
3.08272
3.03359
2.99108
2.94109
2.89822
2.84786
2.80229
2.7566
2.70746
2.66376
2.61347
2.57053
2.51932
2.47683
2.42422
2.38313
2.32896
2.28887
2.23349
2.1937
2.13869
2.09897
2.04373
2.00068
1.9537
1.90541
1.86348
1.81378
1.77536
1.72528
1.69015
1.63975
1.60916
1.55826
1.53174
1.48065
1.45738
1.40843
1.38644
1.33848
1.31423
1.27557
1.2472
1.21494
1.18357
1.15647
1.12296
1.10011
1.06441
1.0466
1.00962
0.994298
0.958047
0.942946
0.909379
0.894953
0.862687
0.846682
0.821364
0.803371
0.782664
0.763352
0.74675
0.726075
0.714065
0.692546
0.68368
0.662985
0.654924
0.636047
0.628491
0.611775
0.60484
0.589791
0.583548
0.569456
0.562972
0.552287
0.545199
0.536688
0.528962
0.522757
0.514308
0.510105
0.501443
0.497949
0.490041
0.486811
0.479658
0.47673
0.470233
0.467576
0.461426
0.458605
0.453954
0.450802
0.447062
0.443612
0.440878
0.437122
0.435233
0.431425
0.42992
0.426366
0.425019
0.42182
0.42062
0.417773
0.416721
0.414143
0.412949
0.411259
0.409839
0.408753
0.407255
0.406663
0.405286
0.404856
0.403792
0.403506
0.402776
0.402638
0.402253
0.402271
0.402206
0.402526
0.402712
0.403224
0.403962
0.404487
0.405765
0.406475
0.408237
0.409147
0.411476
0.412674
0.415727
0.417362
0.42117
0.423341
0.428004
0.430864
0.436427
0.440104
0.446479
0.451029
0.457941
0.463333
0.470485
0.47645
0.483628
0.489906
0.497205
0.503689
0.510876
0.517269
0.523952
0.529701
0.534996
0.538738
0.540877
0.541811
5.0982
4.82511
4.71571
4.56769
4.47711
4.373
4.29372
4.21197
4.13868
4.06518
3.99493
3.92609
3.8591
3.79439
3.73135
3.67024
3.61157
3.5536
3.49695
3.44384
3.38806
3.33658
3.28113
3.22991
3.17512
3.12391
3.06943
3.01883
2.96402
2.91405
2.85797
2.80789
2.75088
2.70088
2.64299
2.59246
2.53418
2.48104
2.4275
2.37087
2.31914
2.26165
2.2109
2.15303
2.10316
2.04469
1.99674
1.93777
1.89158
1.83265
1.78771
1.7302
1.68631
1.62993
1.58462
1.53616
1.48828
1.44514
1.39757
1.35857
1.31219
1.27714
1.23216
1.20179
1.15812
1.13173
1.08954
1.06662
1.02682
1.00658
0.968576
0.948736
0.91738
0.896556
0.870333
0.848908
0.827159
0.805447
0.787542
0.765311
0.751377
0.728643
0.718145
0.695964
0.68632
0.666258
0.657341
0.638646
0.629395
0.614536
0.604879
0.592466
0.582589
0.572376
0.562221
0.554324
0.543834
0.537892
0.527364
0.522814
0.512843
0.508613
0.499747
0.495877
0.487863
0.484361
0.476855
0.473318
0.467391
0.463636
0.458668
0.454716
0.450734
0.446534
0.443395
0.438999
0.436544
0.432169
0.430204
0.426022
0.424214
0.420361
0.418701
0.415032
0.413311
0.410418
0.408591
0.406131
0.404231
0.402259
0.400219
0.398705
0.396558
0.395452
0.393344
0.392482
0.390565
0.389812
0.38814
0.387496
0.38602
0.385329
0.384424
0.383646
0.383152
0.382406
0.382163
0.381607
0.381483
0.381208
0.381213
0.381183
0.381445
0.381613
0.382195
0.382572
0.383478
0.384096
0.385274
0.386476
0.387893
0.389714
0.391433
0.393803
0.396002
0.398961
0.401717
0.405231
0.408506
0.412551
0.416393
0.421058
0.425552
0.43094
0.436161
0.442318
0.448284
0.455165
0.461697
0.469169
0.476183
0.484085
0.491384
0.49935
0.506583
0.514195
0.520868
0.527546
0.533034
0.538018
0.541383
0.543445
0.544268
5.50718
5.23276
5.08321
4.89396
4.74582
4.59346
4.46197
4.3383
4.22484
4.11625
4.01138
3.91108
3.81019
3.71588
3.62448
3.53858
3.45639
3.37941
3.30519
3.23766
3.16993
3.10857
3.0456
2.98691
2.92664
2.86941
2.81078
2.75569
2.69837
2.6453
2.58771
2.53493
2.47681
2.42461
2.36642
2.31431
2.25629
2.20263
2.14877
2.09311
2.04064
1.98449
1.9328
1.87694
1.82637
1.77114
1.72242
1.66824
1.62154
1.56917
1.52465
1.47515
1.43307
1.38671
1.34678
1.30636
1.26808
1.23208
1.19657
1.16434
1.13157
1.10252
1.07205
1.04589
1.0172
0.992634
0.964972
0.941183
0.91429
0.890707
0.864073
0.840559
0.815585
0.793095
0.769733
0.748869
0.727163
0.708435
0.688796
0.671937
0.654188
0.63925
0.623583
0.610362
0.596766
0.584898
0.573159
0.562282
0.551713
0.542503
0.53295
0.524698
0.516251
0.508796
0.50121
0.494557
0.487674
0.481738
0.475459
0.470141
0.464418
0.459588
0.454498
0.450078
0.445467
0.441448
0.437145
0.433466
0.429833
0.42623
0.423109
0.419606
0.416932
0.413567
0.411241
0.407986
0.405964
0.402872
0.401106
0.398155
0.396672
0.393872
0.392572
0.389947
0.388693
0.386529
0.385275
0.383401
0.382199
0.380617
0.379472
0.378158
0.377082
0.376023
0.375038
0.374227
0.373333
0.372771
0.371994
0.37167
0.371074
0.3708
0.370584
0.3704
0.370391
0.37037
0.370587
0.370728
0.371197
0.37151
0.372224
0.372742
0.373704
0.374454
0.375675
0.376692
0.378195
0.379529
0.38129
0.382967
0.384951
0.386972
0.389235
0.391655
0.39436
0.397327
0.400583
0.404306
0.40818
0.412743
0.417318
0.422712
0.428055
0.434283
0.440439
0.447463
0.454456
0.462213
0.469796
0.478148
0.486209
0.494949
0.503269
0.512085
0.520275
0.528645
0.536057
0.543224
0.549038
0.554173
0.557537
0.55962
0.560399
5.55485
5.54319
5.43678
5.2755
5.12441
4.95705
4.79323
4.62956
4.47245
4.32141
4.17344
4.03587
3.89695
3.76608
3.63439
3.51065
3.38855
3.27798
3.17249
3.07811
2.98951
2.91
2.83676
2.76753
2.7028
2.63939
2.57944
2.52189
2.4668
2.41491
2.36274
2.31335
2.26214
2.21431
2.16459
2.11852
2.07053
2.02534
1.9812
1.93725
1.89497
1.8522
1.8105
1.76858
1.72773
1.68721
1.64751
1.60863
1.57041
1.53398
1.49812
1.46502
1.43238
1.40275
1.37397
1.34789
1.32468
1.30218
1.28447
1.26533
1.25201
1.23503
1.22558
1.20845
1.20165
1.18263
1.17545
1.15276
1.14264
1.11529
1.10032
1.07149
1.04336
1.01633
0.980528
0.954187
0.913433
0.889056
0.847608
0.826647
0.78593
0.768194
0.730896
0.715155
0.682912
0.668852
0.641477
0.629396
0.607088
0.595069
0.577128
0.565947
0.551538
0.540679
0.529336
0.51854
0.509865
0.499042
0.492575
0.481823
0.477048
0.467162
0.462767
0.454035
0.450093
0.442295
0.43878
0.432034
0.428579
0.422764
0.419696
0.414621
0.411789
0.407425
0.404774
0.401031
0.398489
0.395308
0.392945
0.39019
0.38802
0.385616
0.383646
0.381559
0.379747
0.377962
0.376358
0.374785
0.373423
0.371979
0.370875
0.36955
0.368674
0.367478
0.366781
0.365783
0.36525
0.364484
0.364099
0.363564
0.363298
0.363003
0.362894
0.362832
0.362841
0.363019
0.363224
0.363617
0.364024
0.364653
0.365281
0.366168
0.36704
0.368209
0.369345
0.370824
0.372243
0.374072
0.375818
0.37806
0.380197
0.382922
0.385551
0.388761
0.391935
0.395578
0.399363
0.403489
0.407989
0.412774
0.418085
0.42367
0.429899
0.436349
0.443541
0.450843
0.459017
0.46715
0.47595
0.484803
0.494085
0.503423
0.512912
0.522382
0.531619
0.540619
0.548851
0.556471
0.562723
0.568013
0.571493
0.573588
0.574339
4.95566
5.30391
5.35653
5.35239
5.31323
5.22997
5.12145
4.98893
4.84808
4.69511
4.53372
4.36997
4.20007
4.03442
3.86354
3.70434
3.54165
3.39278
3.24466
3.10732
2.98225
2.8644
2.76396
2.67028
2.59207
2.51559
2.45056
2.38682
2.3333
2.28126
2.23708
2.1927
2.15368
2.11334
2.07746
2.04092
2.00889
1.97673
1.9488
1.92138
1.89589
1.87165
1.84607
1.82351
1.7984
1.77802
1.75239
1.73407
1.7083
1.69284
1.66874
1.6562
1.63589
1.62768
1.61521
1.60667
1.60553
1.60288
1.6055
1.60565
1.61387
1.61654
1.62988
1.63296
1.64775
1.65016
1.6605
1.6601
1.66291
1.65685
1.65355
1.63945
1.6147
1.59643
1.55876
1.53262
1.48222
1.45041
1.39219
1.35903
1.29305
1.26195
1.19432
1.1655
1.10124
1.07321
1.01532
0.990198
0.943352
0.913954
0.878759
0.847403
0.821839
0.789291
0.77177
0.738365
0.725305
0.693889
0.682184
0.653577
0.642996
0.617177
0.606869
0.583555
0.574123
0.552884
0.544581
0.526297
0.516183
0.501887
0.491334
0.480659
0.469085
0.461952
0.450049
0.445362
0.43458
0.43031
0.421321
0.417706
0.410173
0.40714
0.40086
0.398386
0.393446
0.390847
0.387097
0.384874
0.382002
0.379873
0.377872
0.375739
0.37451
0.372537
0.371705
0.370129
0.369496
0.368335
0.3679
0.367097
0.366831
0.366467
0.366257
0.366235
0.366191
0.366478
0.366583
0.367234
0.367506
0.368503
0.368956
0.370318
0.370965
0.372705
0.373567
0.375694
0.376785
0.379328
0.380819
0.38353
0.385586
0.388574
0.391266
0.39461
0.398028
0.401856
0.406036
0.410451
0.415418
0.420546
0.426398
0.432373
0.43925
0.446187
0.454185
0.462114
0.471291
0.480237
0.490172
0.500025
0.510554
0.521021
0.531828
0.54249
0.553077
0.563234
0.572725
0.581282
0.588435
0.594245
0.598052
0.600313
0.601078
3.56121
4.2711
4.55049
4.84109
4.97971
5.03257
5.04531
5.02788
4.98943
4.91882
4.82818
4.71715
4.59282
4.45316
4.3
4.13841
3.96384
3.78966
3.61135
3.43231
3.27099
3.10945
2.97707
2.84278
2.73615
2.62931
2.54722
2.46438
2.40368
2.3399
2.2964
2.2477
2.21702
2.17762
2.15305
2.11939
2.10042
2.07613
2.06029
2.04662
2.03486
2.02926
2.02018
2.01733
2.01007
2.00878
2.00168
2.00116
1.99426
1.99436
1.98974
1.9907
1.98917
1.99345
1.99749
2.00144
2.01476
2.02139
2.04146
2.05247
2.07812
2.09277
2.12371
2.13923
2.17403
2.18922
2.22334
2.23661
2.26331
2.27214
2.28443
2.28756
2.28329
2.28026
2.26259
2.24896
2.21654
2.19282
2.14792
2.11725
2.06007
2.02582
1.96084
1.92532
1.85764
1.8204
1.7536
1.7175
1.66093
1.61564
1.5722
1.5237
1.49038
1.44073
1.41623
1.36464
1.3447
1.29386
1.27504
1.22564
1.2075
1.15953
1.14024
1.09314
1.07392
1.02715
1.00883
0.965954
0.937717
0.90389
0.868272
0.842875
0.800131
0.782833
0.738911
0.722503
0.6821
0.665865
0.629631
0.614968
0.582796
0.569883
0.542002
0.531271
0.508756
0.496517
0.480003
0.468549
0.456958
0.445301
0.438464
0.427243
0.423177
0.413818
0.410414
0.403288
0.400696
0.395263
0.39343
0.389218
0.38794
0.385175
0.383625
0.3822
0.380937
0.380386
0.379497
0.379365
0.379033
0.379165
0.379187
0.379966
0.380199
0.381507
0.382021
0.38383
0.384622
0.386945
0.388225
0.390736
0.392696
0.395464
0.398145
0.401223
0.404727
0.408246
0.412616
0.41674
0.422023
0.426911
0.433211
0.43899
0.446467
0.453288
0.462095
0.470044
0.480301
0.489484
0.50073
0.511062
0.523114
0.534255
0.546738
0.558232
0.570574
0.581738
0.592894
0.60256
0.610875
0.617688
0.621721
0.624385
0.625193
1.96543
2.63241
2.94192
3.4334
3.785
4.08393
4.32757
4.47843
4.59691
4.63719
4.6489
4.63828
4.6132
4.56413
4.50694
4.42535
4.33313
4.21985
4.09577
3.9519
3.80598
3.64596
3.49715
3.34143
3.20681
3.06987
2.96055
2.84952
2.77062
2.68248
2.6295
2.56197
2.53134
2.48225
2.46145
2.42354
2.40786
2.38331
2.36865
2.3602
2.35438
2.35468
2.35316
2.3569
2.35697
2.36499
2.36547
2.37625
2.37765
2.38984
2.39235
2.40555
2.40951
2.4262
2.43578
2.44872
2.4687
2.48243
2.5098
2.52659
2.55986
2.57964
2.61788
2.63872
2.68073
2.7019
2.74452
2.76459
2.80272
2.81948
2.85042
2.86538
2.8731
2.87702
2.87391
2.87229
2.85834
2.84686
2.81932
2.79877
2.75802
2.73138
2.68184
2.65153
2.59782
2.56413
2.5099
2.4762
2.42985
2.38782
2.35151
2.30847
2.28031
2.23938
2.21979
2.17969
2.16517
2.12623
2.11307
2.07531
2.06279
2.02539
2.01115
1.97246
1.9572
1.91553
1.89965
1.85981
1.82816
1.79471
1.751
1.72175
1.66522
1.63984
1.57413
1.54825
1.47826
1.44843
1.3758
1.34444
1.27006
1.23805
1.16429
1.13372
1.06688
1.02429
0.971973
0.921706
0.883025
0.826053
0.800624
0.744798
0.723492
0.674784
0.65538
0.614628
0.598429
0.564723
0.552045
0.523989
0.514162
0.493558
0.482459
0.468826
0.459176
0.450381
0.441513
0.437007
0.429327
0.426873
0.421201
0.419682
0.415972
0.415176
0.413121
0.41294
0.41226
0.412623
0.413223
0.413929
0.415787
0.416778
0.419804
0.42108
0.425201
0.427016
0.432176
0.434576
0.440837
0.444033
0.451426
0.455641
0.464322
0.469747
0.479905
0.486712
0.49855
0.507042
0.51999
0.53025
0.54414
0.555846
0.570217
0.582918
0.597052
0.610116
0.622815
0.63496
0.644191
0.653348
0.65767
0.661106
0.662072
0.839809
1.21322
1.39048
1.7445
2.09399
2.44179
2.7991
3.09489
3.38273
3.58879
3.78292
3.89724
4.01675
4.0728
4.12772
4.1378
4.14231
4.12518
4.09913
4.05805
4.00469
3.93907
3.86172
3.775
3.68488
3.58796
3.49761
3.40173
3.32176
3.23594
3.17373
3.10436
3.06251
3.00887
2.98227
2.94041
2.92212
2.8924
2.87133
2.85557
2.84129
2.83784
2.83397
2.83607
2.83593
2.84422
2.84464
2.85749
2.85981
2.87597
2.88033
2.89764
2.90348
2.92341
2.93441
2.94833
2.96923
2.98324
3.01056
3.02697
3.05913
3.07802
3.11413
3.13333
3.17236
3.1911
3.23028
3.24795
3.28287
3.2985
3.3284
3.34449
3.35951
3.36739
3.36738
3.36796
3.36139
3.35568
3.33878
3.32497
3.29645
3.27544
3.23833
3.21232
3.17061
3.1404
3.09727
3.06629
3.02861
2.99202
2.96123
2.92522
2.90039
2.86807
2.85108
2.82349
2.81396
2.79104
2.78461
2.76557
2.76126
2.74507
2.74081
2.7259
2.72212
2.70726
2.70435
2.69169
2.67959
2.6709
2.65159
2.64475
2.61785
2.61008
2.57702
2.56653
2.52833
2.51295
2.46913
2.44803
2.39749
2.37073
2.31287
2.28222
2.22371
2.17125
2.11879
2.05078
2.00207
1.9184
1.87388
1.778
1.73734
1.63607
1.59182
1.49061
1.44632
1.34768
1.30642
1.20996
1.17151
1.08784
1.03818
0.974604
0.918374
0.872685
0.813547
0.783703
0.728155
0.706228
0.65928
0.641778
0.604193
0.59062
0.561404
0.551231
0.52927
0.521999
0.507872
0.499829
0.492225
0.486216
0.482972
0.478606
0.477844
0.475863
0.476236
0.476085
0.478871
0.479769
0.484785
0.4869
0.493973
0.497147
0.50625
0.510774
0.522005
0.528855
0.541082
0.550871
0.564133
0.576632
0.590559
0.605366
0.619283
0.63562
0.64855
0.664718
0.674584
0.686699
0.692213
0.696384
0.697587
0.255943
0.37328
0.412662
0.518175
0.670162
0.849438
1.07908
1.31456
1.58405
1.82819
2.0967
2.31177
2.55094
2.72808
2.92928
3.05502
3.20859
3.29076
3.38694
3.45964
3.50113
3.54226
3.55156
3.55781
3.55197
3.54205
3.52369
3.50246
3.47998
3.45565
3.43085
3.40689
3.38631
3.36814
3.35601
3.34476
3.33977
3.33456
3.3264
3.32377
3.31891
3.31961
3.31933
3.32464
3.32779
3.33946
3.34368
3.35935
3.3645
3.38334
3.39021
3.41013
3.41858
3.44013
3.45389
3.46848
3.48944
3.5025
3.52655
3.54011
3.56621
3.58056
3.60876
3.6221
3.65096
3.66208
3.68779
3.69729
3.71717
3.72442
3.74023
3.74805
3.75288
3.75502
3.75181
3.74846
3.73821
3.72932
3.71255
3.69807
3.67337
3.65281
3.62131
3.59573
3.56005
3.53034
3.49277
3.46171
3.42737
3.39333
3.36369
3.33123
3.30619
3.27766
3.25869
3.23497
3.22402
3.20817
3.20318
3.19408
3.193
3.18944
3.19043
3.18948
3.19285
3.19292
3.20025
3.20384
3.20757
3.21441
3.21593
3.22305
3.22295
3.22914
3.22804
3.23133
3.22879
3.23001
3.22413
3.22389
3.21285
3.21032
3.19487
3.19111
3.17568
3.15952
3.147
3.12216
3.11001
3.07566
3.06343
3.02023
3.0052
2.95533
2.93275
2.8761
2.84488
2.77949
2.74079
2.66126
2.61702
2.53791
2.46403
2.39217
2.29754
2.22883
2.11618
2.05092
1.92619
1.86529
1.73425
1.67797
1.54909
1.49552
1.37323
1.32243
1.20875
1.16208
1.06762
1.01319
0.945082
0.888227
0.84279
0.788118
0.761975
0.715295
0.698057
0.662953
0.65128
0.62744
0.620317
0.605862
0.60238
0.595458
0.594772
0.592226
0.5932
0.595244
0.598134
0.604843
0.609935
0.621328
0.628469
0.644033
0.653776
0.672305
0.684393
0.703994
0.716109
0.731829
0.739279
0.744567
0.746115
0.0432574
0.0664673
0.0629494
0.0747932
0.101091
0.13573
0.190284
0.255904
0.346216
0.442913
0.569482
0.692642
0.846202
0.986655
1.16177
1.30631
1.48672
1.62261
1.78735
1.94921
2.08878
2.25671
2.3664
2.51533
2.60192
2.72671
2.79157
2.88207
2.91933
2.98903
3.01511
3.07074
3.09179
3.14362
3.1652
3.21681
3.24245
3.29203
3.32439
3.36756
3.40277
3.44236
3.47767
3.51364
3.54748
3.58092
3.61366
3.64553
3.67714
3.70852
3.73762
3.7678
3.79541
3.82563
3.85352
3.87836
3.90751
3.92881
3.95635
3.97397
3.99797
4.01163
4.03284
4.04235
4.05915
4.06425
4.07326
4.07378
4.07487
4.07057
4.06755
4.06023
4.04972
4.0398
4.0242
4.01001
3.99006
3.97194
3.94823
3.9266
3.8985
3.87305
3.8408
3.81176
3.77658
3.74444
3.70759
3.67393
3.6385
3.60381
3.57151
3.53868
3.51008
3.48093
3.45721
3.43283
3.41537
3.39734
3.38695
3.377
3.37357
3.37189
3.37234
3.3737
3.37812
3.38276
3.39144
3.4004
3.41079
3.42333
3.43498
3.44988
3.46205
3.47861
3.49062
3.50785
3.51975
3.53673
3.54847
3.56484
3.57542
3.59086
3.59997
3.61524
3.62459
3.63512
3.64615
3.65338
3.66522
3.6689
3.67996
3.68214
3.6915
3.69262
3.69898
3.69878
3.70206
3.69981
3.70195
3.69507
3.69655
3.69095
3.68011
3.67681
3.65753
3.65325
3.62302
3.61489
3.57212
3.55708
3.49799
3.4716
3.39347
3.34949
3.25087
3.19223
3.07207
2.9991
2.87667
2.75427
2.64114
2.48695
2.37539
2.20492
2.10024
1.92247
1.83462
1.65421
1.575
1.4064
1.33456
1.19146
1.13187
1.02183
0.977329
0.902907
0.873786
0.823664
0.796264
0.768855
0.745943
0.735731
0.721477
0.718001
0.715356
0.721016
0.728008
0.7428
0.756697
0.774588
0.786897
0.793504
0.795674
0.0289503
0.0205331
0.01815
0.0178216
0.0184367
0.0199289
0.023646
0.0291866
0.0387801
0.0502674
0.0681233
0.0874765
0.115797
0.144794
0.187582
0.227234
0.285297
0.333528
0.397443
0.473884
0.543939
0.651363
0.728601
0.857714
0.942285
1.08652
1.1787
1.33847
1.42919
1.59737
1.68308
1.85119
1.928
2.08892
2.16039
2.31404
2.38866
2.52068
2.62324
2.72562
2.83387
2.92076
3.02516
3.1012
3.19997
3.26831
3.36416
3.42696
3.51715
3.57684
3.65772
3.71447
3.78514
3.83976
3.90378
3.95602
4.01185
4.05916
4.10656
4.14498
4.18144
4.20824
4.23381
4.24995
4.26572
4.2711
4.27257
4.2686
4.26176
4.24796
4.23277
4.21248
4.19015