/*--------------------------------*- C++ -*----------------------------------*\
| =========                 |                                                 |
| \\      /  F ield         | OpenFOAM: The Open Source CFD Toolbox           |
|  \\    /   O peration     | Version:  4.1                                   |
|   \\  /    A nd           | Web:      www.OpenFOAM.org                      |
|    \\/     M anipulation  |                                                 |
\*---------------------------------------------------------------------------*/
FoamFile
{
    version     2.0;
    format      ascii;
    class       volScalarField;
    location    "12";
    object      p;
}
// * * * * * * * * * * * * * * * * * * * * * * * * * * * * * * * * * * * * * //

dimensions      [0 2 -2 0 0 0 0];

internalField   nonuniform List<scalar> 
204246
(
6.12061
-12.1194
-12.9739
-13.0563
-13.7429
-14.0611
-14.7696
-15.0901
-15.687
-16.0865
-16.467
-16.7284
-17.4786
-17.5455
-17.658
-17.7162
-18.9585
-19.5287
-19.4066
-19.94
-19.9907
-20.1903
-20.3638
-20.5972
-20.8095
-21.0793
-21.3079
-21.5438
-21.6643
-21.7995
-21.8424
-21.9461
-21.9954
-22.1775
-22.431
-23.2299
-23.6462
-23.3447
-23.8688
-23.8865
-23.9943
-24.0997
-24.2758
-24.4263
-24.6141
-24.7213
-24.8883
-24.9777
-25.1133
-25.1397
-25.1667
-25.1415
-26.1108
-26.535
-26.1792
-26.69
-26.6601
-26.7214
-26.774
-26.8967
-26.9867
-27.1136
-27.1524
-27.2491
-27.2605
-27.3125
-27.2428
-27.1648
-27.0159
-27.9241
-28.3735
-28.043
-28.3259
-28.2255
-28.2238
-28.1896
-28.1804
-28.0794
-28.647
-28.5394
-28.5768
-28.571
-28.634
-28.585
-28.537
-28.4248
-29.3969
-29.9065
-29.6284
-29.9737
-29.8909
-29.8731
-29.7935
-30.4521
-30.4554
-30.585
-30.6099
-30.612
-30.3705
-31.0531
-31.0175
-31.0236
-30.9665
-30.9561
-30.9145
-32.0157
-32.4131
-32.2162
-32.4226
-32.1739
-32.8002
-32.756
-32.8825
-32.9412
-32.9957
-32.8365
-33.3856
-33.0481
-33.6197
-33.4843
-33.4173
-33.2657
-34.4213
-34.9009
-34.6764
-35.0561
-34.7086
-35.3789
-35.436
-35.4981
-35.3455
-35.9981
-35.7472
-36.3912
-36.1064
-36.7332
-36.3481
-36.8307
-36.5405
-37.8056
-38.4005
-38.2883
-38.7841
-38.4818
-39.1394
-38.8785
-39.6002
-39.3015
-39.9909
-39.6996
-40.4346
-40.4982
-40.6037
-40.5086
-40.3734
-40.0322
-41.2558
-41.5442
-40.9304
-41.0688
-40.4359
-39.8854
-39.1412
-38.3477
-37.2482
-35.9903
-34.3253
-32.421
-30.0543
-27.4256
-24.3787
-21.1392
-16.5226
-11.8803
-6.48749
-0.610433
6.21324
14.1347
22.7316
32.5362
43.5275
56.1731
70.5307
87.0747
105.772
126.887
150.299
176.579
206.671
246.16
306.149
401.782
530.4
-1.75754
-5.34094
-8.63965
-10.8299
-12.3579
-13.3795
-14.1415
-14.7484
-15.2715
-15.7493
-16.1919
-16.6049
-16.985
-17.2758
-17.5491
-17.8822
-18.3567
-18.8254
-19.1828
-19.5027
-19.7601
-19.9813
-20.1891
-20.404
-20.6318
-20.8768
-21.1153
-21.3379
-21.5145
-21.6555
-21.7712
-21.8819
-22.0024
-22.1732
-22.4332
-22.7682
-23.0684
-23.2885
-23.4997
-23.6733
-23.8274
-23.9754
-24.1316
-24.2953
-24.4651
-24.6277
-24.7787
-24.9039
-25.0017
-25.0753
-25.179
-25.3657
-25.6687
-25.9565
-26.1548
-26.3456
-26.493
-26.608
-26.7131
-26.8199
-26.9309
-27.0389
-27.1342
-27.2151
-27.2649
-27.281
-27.253
-27.2412
-27.3248
-27.5713
-27.8243
-27.9739
-28.0811
-28.1323
-28.1483
-28.1503
-28.1673
-28.2318
-28.3655
-28.4674
-28.534
-28.574
-28.5835
-28.5679
-28.5872
-28.7147
-29.0047
-29.3034
-29.4987
-29.6425
-29.7305
-29.8089
-29.9304
-30.1197
-30.293
-30.4209
-30.5069
-30.5647
-30.643
-30.8086
-30.9241
-30.9628
-30.9783
-31.031
-31.2006
-31.5347
-31.8427
-32.0274
-32.175
-32.3113
-32.4873
-32.6396
-32.7562
-32.8533
-32.9249
-33.0164
-33.1613
-33.2689
-33.3925
-33.4318
-33.4646
-33.6208
-33.9683
-34.3166
-34.5458
-34.7336
-34.8872
-35.0882
-35.2709
-35.3894
-35.5283
-35.7155
-35.9067
-36.123
-36.3248
-36.5049
-36.6185
-36.7292
-36.9524
-37.3798
-37.8305
-38.1771
-38.4766
-38.7197
-38.939
-39.1938
-39.4192
-39.6802
-39.8867
-40.1709
-40.4314
-40.7623
-40.9183
-41.1036
-41.0308
-41.2291
-41.4345
-41.6427
-41.7198
-41.6853
-41.603
-41.1911
-40.8705
-40.2229
-39.5344
-38.5361
-37.3148
-35.7757
-33.9512
-31.8275
-29.318
-26.4275
-22.9285
-18.9687
-14.373
-9.25205
-3.26568
3.56966
11.1478
19.6768
29.1115
39.787
51.7669
65.5042
81.0475
98.6673
117.978
138.749
160.603
185.631
221.537
286.981
383.75
-9.78162
-8.93307
-9.61738
-10.7372
-11.9011
-12.9227
-13.7775
-14.4704
-15.0646
-15.5776
-16.0581
-16.4928
-16.8792
-17.227
-17.5666
-17.9295
-18.2958
-18.6547
-19.0099
-19.3254
-19.6087
-19.8624
-20.1013
-20.3195
-20.5503
-20.7785
-21.0139
-21.2272
-21.4232
-21.585
-21.7425
-21.8795
-22.041
-22.2238
-22.4602
-22.694
-22.9249
-23.1595
-23.3675
-23.5557
-23.726
-23.8905
-24.0492
-24.2152
-24.3799
-24.5518
-24.7077
-24.854
-24.9685
-25.0882
-25.2292
-25.4211
-25.6229
-25.8242
-26.0318
-26.2159
-26.3769
-26.5128
-26.6375
-26.7528
-26.869
-26.9804
-27.0927
-27.1825
-27.2559
-27.2885
-27.3128
-27.348
-27.4479
-27.5688
-27.7009
-27.8388
-27.9515
-28.0342
-28.0781
-28.111
-28.1491
-28.2204
-28.2989
-28.3935
-28.4787
-28.5489
-28.5821
-28.6179
-28.6793
-28.8169
-28.9841
-29.1623
-29.3432
-29.4916
-29.6191
-29.7362
-29.8776
-30.0164
-30.1654
-30.2938
-30.4073
-30.5086
-30.6384
-30.7549
-30.8693
-30.9425
-31.0158
-31.1218
-31.2962
-31.4796
-31.6636
-31.8474
-32.0203
-32.1909
-32.3398
-32.4921
-32.6189
-32.7453
-32.8302
-32.9519
-33.0719
-33.2088
-33.3194
-33.4095
-33.5063
-33.6836
-33.878
-34.0877
-34.3069
-34.5135
-34.7114
-34.8891
-35.062
-35.2114
-35.3711
-35.5279
-35.7064
-35.9031
-36.1077
-36.2896
-36.4579
-36.6335
-36.8709
-37.1667
-37.485
-37.7892
-38.0758
-38.3085
-38.5563
-38.7884
-39.0356
-39.2626
-39.5053
-39.7347
-39.9936
-40.1993
-40.4032
-40.4977
-40.6333
-40.7639
-40.9935
-41.12
-41.1134
-41.028
-40.8014
-40.4879
-40.0322
-39.4551
-38.6859
-37.6933
-36.4418
-34.8749
-33.0606
-30.8767
-28.3902
-25.4456
-22.1345
-18.2882
-13.8957
-8.8077
-2.99013
3.54875
10.9763
19.3014
28.6398
39.0362
50.7255
63.8981
78.9107
95.8535
114.661
134.699
155.651
178.101
206.784
249.942
307.147
-12.6905
-10.8852
-10.7149
-11.1491
-11.8952
-12.7085
-13.4984
-14.1936
-14.8112
-15.3544
-15.8506
-16.3
-16.7097
-17.086
-17.4481
-17.8108
-18.1626
-18.507
-18.8401
-19.1535
-19.4433
-19.7138
-19.9679
-20.1987
-20.4324
-20.6585
-20.8888
-21.101
-21.302
-21.4791
-21.6519
-21.8097
-21.9829
-22.17
-22.3842
-22.5934
-22.8081
-23.0226
-23.2332
-23.429
-23.6076
-23.7824
-23.9457
-24.1156
-24.2788
-24.4494
-24.6051
-24.7593
-24.8924
-25.038
-25.1915
-25.3724
-25.5513
-25.7363
-25.9268
-26.1116
-26.2831
-26.4262
-26.566
-26.6868
-26.8108
-26.9202
-27.0393
-27.1295
-27.2199
-27.2572
-27.3224
-27.375
-27.4661
-27.5538
-27.6553
-27.7617
-27.8607
-27.9502
-28.0052
-28.0642
-28.1019
-28.1787
-28.2326
-28.3296
-28.3905
-28.4861
-28.5197
-28.598
-28.6777
-28.8045
-28.9361
-29.0845
-29.2372
-29.3812
-29.5254
-29.6523
-29.8004
-29.924
-30.0854
-30.1879
-30.3313
-30.4258
-30.5782
-30.6773
-30.8189
-30.8959
-31.0086
-31.1213
-31.3011
-31.4368
-31.6065
-31.7719
-31.9277
-32.1102
-32.2378
-32.4108
-32.5182
-32.6818
-32.7604
-32.9107
-33.0103
-33.1603
-33.2598
-33.3907
-33.5004
-33.6995
-33.8443
-34.0305
-34.2274
-34.4012
-34.6251
-34.7903
-34.998
-35.138
-35.3393
-35.4788
-35.69
-35.8501
-36.0776
-36.2364
-36.4508
-36.6209
-36.9086
-37.1372
-37.4146
-37.7102
-37.984
-38.303
-38.5333
-38.834
-39.0519
-39.3502
-39.5647
-39.8992
-40.1201
-40.4419
-40.6223
-40.8786
-41.0302
-41.3069
-41.4565
-41.647
-41.8003
-41.8541
-41.8362
-41.6998
-41.5037
-41.1845
-40.7605
-40.1932
-39.3849
-38.342
-36.9195
-35.1696
-33.0174
-30.492
-27.5304
-24.1299
-20.2035
-15.711
-10.5102
-4.59016
2.09786
9.64663
18.0836
27.5235
38.035
49.7937
62.8871
77.423
93.3742
110.777
129.82
151.624
178.909
213.668
252.071
-13.6523
-11.9248
-11.5705
-11.7343
-12.1881
-12.7743
-13.4215
-14.0559
-14.6502
-15.1983
-15.6972
-16.1611
-16.581
-16.9804
-17.348
-17.7141
-18.0522
-18.3913
-18.7156
-19.0238
-19.3195
-19.5946
-19.86
-20.0964
-20.3365
-20.562
-20.7935
-21.0049
-21.2159
-21.4
-21.5893
-21.7565
-21.9427
-22.123
-22.3272
-22.5172
-22.7215
-22.9273
-23.1321
-23.3327
-23.5113
-23.6937
-23.86
-24.036
-24.1995
-24.3745
-24.5266
-24.6923
-24.831
-24.9941
-25.1487
-25.3254
-25.4901
-25.6677
-25.8483
-26.0293
-26.2115
-26.3563
-26.51
-26.6355
-26.7708
-26.8763
-27.0146
-27.0919
-27.2076
-27.2472
-27.3323
-27.3868
-27.4825
-27.5438
-27.6391
-27.7336
-27.8029
-27.902
-27.9528
-28.0306
-28.0686
-28.15
-28.1974
-28.2977
-28.3471
-28.4499
-28.4831
-28.5817
-28.6516
-28.7836
-28.8864
-29.0311
-29.1763
-29.294
-29.4518
-29.5696
-29.7287
-29.8495
-30.0163
-30.1189
-30.2773
-30.3711
-30.5303
-30.6226
-30.7728
-30.8588
-30.9914
-31.0948
-31.2617
-31.3884
-31.5526
-31.7103
-31.8538
-32.0291
-32.1586
-32.3356
-32.4406
-32.6094
-32.6958
-32.8532
-32.9553
-33.1058
-33.2089
-33.3513
-33.4619
-33.6422
-33.7867
-33.9654
-34.1387
-34.3117
-34.5202
-34.6754
-34.8853
-35.0331
-35.2386
-35.3864
-35.5993
-35.7589
-35.9845
-36.1443
-36.3584
-36.5472
-36.8115
-37.0281
-37.296
-37.5598
-37.832
-38.1194
-38.3626
-38.6387
-38.8872
-39.1504
-39.4062
-39.6735
-39.9362
-40.1775
-40.4077
-40.59
-40.793
-40.9762
-41.1921
-41.3687
-41.4655
-41.4933
-41.4249
-41.2535
-40.9538
-40.4982
-39.92
-39.1765
-38.3415
-37.3022
-36.0835
-34.5711
-32.7602
-30.5723
-27.9926
-24.9553
-21.4335
-17.3571
-12.6651
-7.34026
-1.26528
5.63604
13.4537
22.2523
32.0763
42.9124
54.7021
67.331
80.7728
95.1295
111.007
129.765
153.135
181.158
209.125
-13.9405
-12.3478
-12.0921
-12.2037
-12.5008
-12.9475
-13.464
-14.02
-14.5646
-15.093
-15.5823
-16.0496
-16.4761
-16.8882
-17.2604
-17.6291
-17.96
-18.2935
-18.6126
-18.9184
-19.2169
-19.4925
-19.7636
-20.004
-20.2483
-20.4746
-20.7072
-20.9193
-21.1358
-21.3259
-21.5267
-21.7021
-21.8976
-22.0761
-22.2771
-22.4552
-22.6503
-22.8475
-23.048
-23.253
-23.4287
-23.6141
-23.7812
-23.9622
-24.1257
-24.3051
-24.4512
-24.6366
-24.7681
-24.9514
-25.1035
-25.2812
-25.4376
-25.6119
-25.7854
-25.9569
-26.155
-26.2928
-26.4613
-26.5837
-26.7332
-26.8414
-26.981
-27.0703
-27.1878
-27.2441
-27.3355
-27.3924
-27.4833
-27.542
-27.6268
-27.71
-27.7696
-27.8607
-27.9124
-27.9923
-28.0339
-28.113
-28.1625
-28.2601
-28.3066
-28.4103
-28.4501
-28.5547
-28.623
-28.7487
-28.8487
-28.9829
-29.1161
-29.2329
-29.3861
-29.5002
-29.6582
-29.7782
-29.945
-30.0513
-30.2131
-30.3153
-30.4751
-30.5732
-30.7255
-30.8249
-30.965
-31.0692
-31.2268
-31.3491
-31.5086
-31.6553
-31.8005
-31.9546
-32.0901
-32.2601
-32.3719
-32.5363
-32.6355
-32.7841
-32.9076
-33.0449
-33.1653
-33.3001
-33.4263
-33.5806
-33.7312
-33.9001
-34.0631
-34.2329
-34.4172
-34.5756
-34.7751
-34.9316
-35.1298
-35.288
-35.4952
-35.6598
-35.8788
-36.0453
-36.2688
-36.4541
-36.7109
-36.9171
-37.1763
-37.435
-37.6992
-37.9944
-38.2429
-38.5438
-38.7895
-39.0955
-39.3445
-39.6663
-39.923
-40.2522
-40.4868
-40.827
-41.0547
-41.3895
-41.5388
-41.7811
-42.1061
-42.2448
-42.4155
-42.4659
-42.5041
-42.5344
-42.3948
-42.0983
-41.5356
-40.7447
-39.6759
-38.3374
-36.6839
-34.707
-32.3576
-29.6162
-26.4289
-22.7648
-18.5319
-13.7137
-8.22413
-1.95
5.1918
13.2919
22.361
32.3785
43.2244
54.7728
66.9699
79.8794
93.9844
110.472
130.139
152.841
174.374
-13.8376
-12.5197
-12.3711
-12.4901
-12.7437
-13.1127
-13.5501
-14.0372
-14.5328
-15.0303
-15.501
-15.9594
-16.3865
-16.8059
-17.1813
-17.5532
-17.8808
-18.2102
-18.5255
-18.8298
-19.1302
-19.4046
-19.6789
-19.9214
-20.1688
-20.396
-20.6299
-20.8429
-21.0635
-21.2558
-21.4674
-21.6449
-21.8495
-22.0259
-22.2318
-22.402
-22.5923
-22.7816
-22.9731
-23.1885
-23.3576
-23.5456
-23.7076
-23.8977
-24.0509
-24.2425
-24.3837
-24.5758
-24.7104
-24.9012
-25.0525
-25.2404
-25.3879
-25.5656
-25.7372
-25.8965
-26.0955
-26.2432
-26.4118
-26.5445
-26.694
-26.8127
-26.9558
-27.0485
-27.1718
-27.2378
-27.3362
-27.3924
-27.4812
-27.5444
-27.6246
-27.6941
-27.7581
-27.8309
-27.8896
-27.9587
-28.0111
-28.0777
-28.1357
-28.2217
-28.2739
-28.3722
-28.4229
-28.5183
-28.5996
-28.7108
-28.8173
-28.9408
-29.0628
-29.1852
-29.3272
-29.4459
-29.5995
-29.7212
-29.8873
-29.9972
-30.1602
-30.2684
-30.4319
-30.5346
-30.6794
-30.7984
-30.9329
-31.0535
-31.1946
-31.3255
-31.473
-31.6151
-31.7549
-31.9003
-32.0415
-32.2077
-32.3226
-32.4864
-32.592
-32.7502
-32.8609
-33.0017
-33.1234
-33.2636
-33.3893
-33.5536
-33.6789
-33.8395
-33.9986
-34.1631
-34.3476
-34.4989
-34.6908
-34.8472
-35.04
-35.2012
-35.3989
-35.5691
-35.7679
-35.9482
-36.1523
-36.352
-36.5752
-36.7965
-37.0407
-37.2843
-37.5366
-37.7973
-38.0515
-38.316
-38.5787
-38.8433
-39.1158
-39.3837
-39.6621
-39.9243
-40.1945
-40.4329
-40.6819
-40.8855
-41.1501
-41.3865
-41.5644
-41.688
-41.7299
-41.6858
-41.541
-41.3045
-41.0454
-40.7058
-40.3446
-39.8421
-39.1755
-38.2629
-37.0738
-35.5554
-33.6812
-31.4115
-28.721
-25.5739
-21.9174
-17.7434
-12.9571
-7.46991
-1.19535
5.93648
13.94
22.7924
32.4167
42.7256
53.666
65.315
78.0573
92.6774
109.506
128.282
145.514
-13.5006
-12.5125
-12.4795
-12.6254
-12.8867
-13.2275
-13.6245
-14.0674
-14.5243
-14.994
-15.4446
-15.8905
-16.311
-16.7302
-17.1081
-17.4833
-17.8098
-18.1369
-18.4498
-18.7525
-19.0532
-19.3263
-19.6037
-19.8468
-20.0973
-20.3251
-20.5618
-20.7752
-21.002
-21.1885
-21.4143
-21.5826
-21.8021
-21.9694
-22.1897
-22.3523
-22.5435
-22.7296
-22.9099
-23.1253
-23.2912
-23.4874
-23.6453
-23.836
-23.9887
-24.1812
-24.325
-24.5163
-24.6565
-24.8472
-25.0022
-25.1911
-25.3441
-25.5187
-25.6937
-25.8509
-26.0419
-26.1953
-26.3671
-26.5045
-26.6583
-26.781
-26.931
-27.0275
-27.1574
-27.2304
-27.3251
-27.3959
-27.4791
-27.548
-27.623
-27.6875
-27.7496
-27.8128
-27.8702
-27.9343
-27.9888
-28.0525
-28.1087
-28.1836
-28.2465
-28.3284
-28.3929
-28.4836
-28.5635
-28.6715
-28.7756
-28.8953
-29.0114
-29.1306
-29.2637
-29.3894
-29.5364
-29.6592
-29.8193
-29.9346
-30.0926
-30.2073
-30.3641
-30.4748
-30.6252
-30.7417
-30.8845
-31.0021
-31.1479
-31.2724
-31.4206
-31.5571
-31.6897
-31.8406
-31.9698
-32.1296
-32.2464
-32.4032
-32.5151
-32.6672
-32.7829
-32.9283
-33.0491
-33.1939
-33.3179
-33.4704
-33.5981
-33.7577
-33.9136
-34.0725
-34.249
-34.4028
-34.5885
-34.7463
-34.9401
-35.101
-35.3023
-35.4719
-35.6822
-35.8569
-36.0783
-36.2713
-36.5055
-36.7046
-36.9374
-37.189
-37.4473
-37.723
-37.9831
-38.2691
-38.5371
-38.8346
-39.1127
-39.4229
-39.7121
-40.0344
-40.3337
-40.6651
-40.9651
-41.2897
-41.5594
-41.8642
-42.1838
-42.4894
-42.7853
-43.0344
-43.2459
-43.3844
-43.3892
-43.2628
-42.9526
-42.485
-41.8279
-40.9797
-39.8938
-38.5468
-36.885
-34.88
-32.4873
-29.6816
-26.4018
-22.6379
-18.3107
-13.35
-7.70625
-1.33783
5.76463
13.5959
22.1094
31.2583
41.0357
51.5381
63.0764
76.1073
90.7569
106.684
120.939
-13.0403
-12.3602
-12.4408
-12.6415
-12.9322
-13.2764
-13.6601
-14.0818
-14.5147
-14.9639
-15.3981
-15.8322
-16.2438
-16.6582
-17.0365
-17.4147
-17.7415
-18.0681
-18.3799
-18.6815
-18.9823
-19.2548
-19.5353
-19.7783
-20.0329
-20.2603
-20.5009
-20.7122
-20.9451
-21.1306
-21.3557
-21.5305
-21.7475
-21.9199
-22.1388
-22.3092
-22.4981
-22.6855
-22.8577
-23.0664
-23.2342
-23.4301
-23.5918
-23.7793
-23.9361
-24.1243
-24.2733
-24.4611
-24.6069
-24.7951
-24.9523
-25.1404
-25.2953
-25.4727
-25.6484
-25.8062
-25.9961
-26.1498
-26.3248
-26.4652
-26.6212
-26.7508
-26.9047
-27.0054
-27.1399
-27.2176
-27.3153
-27.3946
-27.4773
-27.5475
-27.6182
-27.6813
-27.74
-27.8008
-27.8546
-27.9179
-27.9687
-28.0302
-28.082
-28.1509
-28.2113
-28.2982
-28.3516
-28.4501
-28.5191
-28.6325
-28.7265
-28.8445
-28.9599
-29.0716
-29.2099
-29.3285
-29.4755
-29.5996
-29.7549
-29.8748
-30.0291
-30.1495
-30.3032
-30.4202
-30.5693
-30.6893
-30.8322
-30.9535
-31.0969
-31.218
-31.3633
-31.5011
-31.6327
-31.7803
-31.907
-32.0606
-32.181
-32.3314
-32.4486
-32.596
-32.7159
-32.8563
-32.979
-33.1208
-33.2468
-33.3894
-33.517
-33.6715
-33.825
-33.9788
-34.1423
-34.2919
-34.463
-34.6184
-34.7884
-34.96
-35.1423
-35.3201
-35.5077
-35.6919
-35.8892
-36.0855
-36.2929
-36.511
-36.7433
-36.975
-37.2173
-37.4617
-37.7166
-37.9722
-38.2393
-38.5066
-38.785
-39.0618
-39.349
-39.6308
-39.9229
-40.2065
-40.506
-40.8001
-41.1154
-41.3974
-41.6282
-41.8328
-41.9971
-42.1636
-42.2813
-42.3581
-42.4152
-42.4148
-42.4214
-42.3307
-42.1159
-41.7131
-41.094
-40.2135
-39.0361
-37.5211
-35.6325
-33.3336
-30.5648
-27.3106
-23.5148
-19.1278
-14.1219
-8.4751
-2.19175
4.71966
12.2354
20.3465
29.072
38.5306
48.9581
60.6229
73.5596
87.3765
99.5208
-12.4901
-12.1007
-12.2958
-12.5614
-12.8906
-13.255
-13.6443
-14.061
-14.4838
-14.9213
-15.3458
-15.7721
-16.1772
-16.5856
-16.9622
-17.3423
-17.6705
-17.9995
-18.3117
-18.6142
-18.9151
-19.1864
-19.4687
-19.713
-19.9708
-20.198
-20.4402
-20.6527
-20.8854
-21.0791
-21.2988
-21.4825
-21.6941
-21.8744
-22.087
-22.2632
-22.4536
-22.6428
-22.8143
-23.0153
-23.1853
-23.3773
-23.5423
-23.728
-23.8862
-24.0727
-24.2228
-24.4096
-24.5575
-24.7452
-24.9027
-25.0896
-25.2453
-25.4251
-25.599
-25.7588
-25.95
-26.1059
-26.2805
-26.4255
-26.5832
-26.7182
-26.8704
-26.9814
-27.1159
-27.2
-27.3057
-27.384
-27.4707
-27.5372
-27.6066
-27.6673
-27.726
-27.7903
-27.833
-27.8978
-27.9406
-28.0039
-28.0488
-28.1202
-28.1691
-28.254
-28.3092
-28.4006
-28.4731
-28.5767
-28.6696
-28.7814
-28.8957
-29.0064
-29.1427
-29.2612
-29.4027
-29.5282
-29.6783
-29.8018
-29.9541
-30.0776
-30.2292
-30.3504
-30.5016
-30.6253
-30.768
-30.8933
-31.033
-31.1536
-31.2964
-31.4345
-31.5708
-31.7129
-31.842
-31.9925
-32.1134
-32.2629
-32.3797
-32.5277
-32.6486
-32.7913
-32.9137
-33.0593
-33.1846
-33.3317
-33.4524
-33.6016
-33.7539
-33.9067
-34.0695
-34.2214
-34.4102
-34.5579
-34.7558
-34.9078
-35.0982
-35.2641
-35.461
-35.6412
-35.85
-36.0442
-36.2593
-36.4556
-36.6773
-36.9171
-37.1651
-37.4255
-37.6835
-37.96
-38.229
-38.5207
-38.8046
-39.1123
-39.411
-39.7336
-40.0461
-40.3831
-40.7079
-41.0545
-41.3813
-41.7352
-42.1027
-42.4652
-42.8255
-43.1572
-43.456
-43.6828
-43.8303
-43.8887
-43.8419
-43.7049
-43.4695
-43.1302
-42.658
-42.0118
-41.1471
-40.0155
-38.5649
-36.7386
-34.4722
-31.7417
-28.4988
-24.7047
-20.3442
-15.4063
-9.90133
-3.83861
2.77031
9.93882
17.7102
26.208
35.6148
46.098
57.6563
69.8617
80.4645
-11.8946
-11.7608
-12.0611
-12.3951
-12.7723
-13.1657
-13.5739
-13.995
-14.4183
-14.8531
-15.2748
-15.6985
-16.1007
-16.5035
-16.88
-17.261
-17.5922
-17.927
-18.2401
-18.544
-18.8443
-19.1153
-19.3978
-19.6458
-19.904
-20.1345
-20.3757
-20.5916
-20.8257
-21.0226
-21.2445
-21.4296
-21.643
-21.8231
-22.0364
-22.2125
-22.4069
-22.5982
-22.7698
-22.9691
-23.1382
-23.3288
-23.4942
-23.6789
-23.838
-24.0223
-24.1724
-24.3581
-24.5071
-24.6948
-24.8533
-25.0372
-25.1926
-25.3722
-25.5446
-25.7063
-25.8972
-26.056
-26.2286
-26.3797
-26.5372
-26.6775
-26.8286
-26.9481
-27.0829
-27.1771
-27.2881
-27.368
-27.4567
-27.52
-27.5899
-27.6546
-27.7113
-27.7721
-27.8107
-27.8713
-27.9111
-27.9702
-28.0134
-28.0806
-28.1281
-28.2054
-28.2623
-28.3509
-28.4236
-28.5226
-28.6099
-28.7155
-28.8254
-28.9435
-29.0691
-29.1923
-29.3265
-29.4584
-29.5995
-29.7266
-29.878
-30.0033
-30.1531
-30.2766
-30.4252
-30.5566
-30.6962
-30.8296
-30.9644
-31.0863
-31.2233
-31.3632
-31.5029
-31.641
-31.7706
-31.9107
-32.0328
-32.1729
-32.2934
-32.4369
-32.5613
-32.6989
-32.8232
-32.9622
-33.0888
-33.2261
-33.3478
-33.4937
-33.6422
-33.7968
-33.9486
-34.0921
-34.2446
-34.3966
-34.5562
-34.7227
-34.8986
-35.0808
-35.2631
-35.4497
-35.6393
-35.8343
-36.0332
-36.2418
-36.4609
-36.6838
-36.9161
-37.1523
-37.4
-37.6515
-37.9151
-38.1827
-38.4626
-38.7462
-39.0417
-39.3399
-39.6498
-39.9621
-40.2882
-40.6192
-40.9669
-41.3143
-41.6501
-41.9824
-42.3013
-42.619
-42.9265
-43.2621
-43.5926
-43.8988
-44.1571
-44.3206
-44.3701
-44.2906
-44.0695
-43.6942
-43.1341
-42.3517
-41.2963
-39.9123
-38.1305
-35.9184
-33.2281
-30.0281
-26.309
-22.0663
-17.311
-12.0507
-6.28823
0.000617128
6.88043
14.4788
22.9473
32.4028
42.8254
53.7704
63.2073
-11.3078
-11.3753
-11.7565
-12.159
-12.5869
-13.0083
-13.4438
-13.8778
-14.3093
-14.7482
-15.1719
-15.5968
-16.0007
-16.4044
-16.7827
-17.1611
-17.4999
-17.8405
-18.1559
-18.4629
-18.7636
-19.037
-19.3181
-19.5708
-19.8288
-20.0646
-20.3052
-20.5262
-20.7588
-20.9598
-21.1816
-21.3706
-21.5852
-21.7643
-21.9777
-22.1558
-22.3534
-22.5438
-22.7171
-22.9174
-23.0848
-23.2761
-23.4414
-23.6256
-23.7862
-23.968
-24.1194
-24.3019
-24.4525
-24.6373
-24.7969
-24.9782
-25.134
-25.3105
-25.4829
-25.6448
-25.8321
-25.993
-26.1649
-26.3195
-26.4792
-26.6241
-26.7755
-26.9012
-27.0373
-27.141
-27.2564
-27.3444
-27.4353
-27.5011
-27.5696
-27.6365
-27.6974
-27.7542
-27.7991
-27.8493
-27.8925
-27.9434
-27.9895
-28.0472
-28.097
-28.1636
-28.2228
-28.3012
-28.3762
-28.467
-28.5533
-28.6528
-28.7607
-28.8778
-28.9989
-29.1236
-29.2556
-29.3876
-29.5263
-29.6596
-29.8036
-29.938
-30.0815
-30.2142
-30.3558
-30.4906
-30.6321
-30.767
-30.9043
-31.0294
-31.1621
-31.2989
-31.4372
-31.5787
-31.7133
-31.8529
-31.9793
-32.1265
-32.2428
-32.3855
-32.5086
-32.6418
-32.7706
-32.9082
-33.0383
-33.1739
-33.2973
-33.4399
-33.5851
-33.7343
-33.8896
-34.0427
-34.2132
-34.3597
-34.5463
-34.6906
-34.8756
-35.0363
-35.2169
-35.3967
-35.5929
-35.7831
-35.9885
-36.1816
-36.3945
-36.6215
-36.8573
-37.1043
-37.3527
-37.6163
-37.8782
-38.1588
-38.4384
-38.7376
-39.0357
-39.3534
-39.6699
-40.0067
-40.3439
-40.7019
-41.0589
-41.438
-41.8256
-42.2111
-42.594
-42.9643
-43.325
-43.6646
-43.9962
-44.312
-44.6124
-44.8827
-45.1006
-45.2356
-45.2651
-45.1674
-44.9168
-44.4786
-43.8069
-42.8478
-41.5358
-39.8303
-37.6845
-35.069
-31.9775
-28.4089
-24.3755
-19.8825
-14.9281
-9.47983
-3.46176
3.26966
10.8598
19.4042
28.87
38.8069
47.346
-10.731
-10.9878
-11.4344
-11.8793
-12.3521
-12.7923
-13.2536
-13.7057
-14.1489
-14.5967
-15.0272
-15.4571
-15.8666
-16.2746
-16.657
-17.0375
-17.3847
-17.7311
-18.0533
-18.364
-18.6664
-18.9466
-19.2265
-19.4831
-19.7423
-19.981
-20.2236
-20.4486
-20.6786
-20.8853
-21.1049
-21.3009
-21.511
-21.6967
-21.9023
-22.0886
-22.2856
-22.4739
-22.6541
-22.8473
-23.0207
-23.2087
-23.3778
-23.5597
-23.7235
-23.9039
-24.0583
-24.2363
-24.389
-24.5692
-24.7286
-24.9078
-25.0637
-25.2393
-25.4107
-25.5687
-25.7525
-25.9117
-26.0872
-26.2408
-26.405
-26.5501
-26.7053
-26.8336
-26.9737
-27.0831
-27.205
-27.3005
-27.398
-27.4685
-27.5427
-27.6133
-27.6785
-27.7392
-27.787
-27.8389
-27.8813
-27.931
-27.9745
-28.028
-28.0755
-28.1363
-28.1923
-28.2642
-28.3353
-28.4194
-28.5026
-28.5982
-28.7013
-28.8129
-28.9309
-29.0539
-29.1844
-29.3137
-29.4507
-29.5837
-29.7254
-29.8606
-30.0032
-30.1376
-30.2789
-30.4139
-30.5551
-30.6907
-30.8274
-30.9561
-31.0898
-31.2232
-31.3603
-31.4982
-31.6347
-31.769
-31.8959
-32.028
-32.1546
-32.2872
-32.4147
-32.5452
-32.6745
-32.8072
-32.938
-33.0674
-33.1883
-33.325
-33.4658
-33.6142
-33.7601
-33.9051
-34.0539
-34.201
-34.3615
-34.5165
-34.6903
-34.862
-35.0378
-35.2174
-35.4019
-35.59
-35.7816
-35.9801
-36.1901
-36.4054
-36.6302
-36.8606
-37.1008
-37.3479
-37.6049
-37.8703
-38.1467
-38.4325
-38.7296
-39.0364
-39.3543
-39.6822
-40.0225
-40.376
-40.747
-41.1371
-41.5387
-41.9563
-42.3844
-42.8215
-43.2597
-43.6956
-44.1237
-44.5435
-44.9504
-45.3372
-45.6936
-46.0041
-46.2499
-46.4071
-46.4509
-46.3472
-46.0523
-45.512
-44.6631
-43.4574
-41.848
-39.8045
-37.3214
-34.4001
-31.0565
-27.2986
-23.1238
-18.4957
-13.3281
-7.46124
-0.726486
6.97768
15.6118
24.7267
32.5722
-10.1441
-10.5916
-11.101
-11.5552
-12.0758
-12.5368
-13.0155
-13.4855
-13.9383
-14.3957
-14.8357
-15.2731
-15.6905
-16.1051
-16.4958
-16.8825
-17.2402
-17.5947
-17.9247
-18.2412
-18.5475
-18.8337
-19.1147
-19.3764
-19.6392
-19.8821
-20.1271
-20.3558
-20.5864
-20.7961
-21.0138
-21.2133
-21.4215
-21.6112
-21.8139
-22.0028
-22.1995
-22.3889
-22.5728
-22.7621
-22.9395
-23.1253
-23.2978
-23.4775
-23.6448
-23.823
-23.9827
-24.1575
-24.3136
-24.4888
-24.6497
-24.8243
-24.9836
-25.1558
-25.3249
-25.4854
-25.6624
-25.822
-25.9943
-26.15
-26.3146
-26.4607
-26.6181
-26.7491
-26.892
-27.0059
-27.1325
-27.2343
-27.3403
-27.4183
-27.5003
-27.575
-27.644
-27.7119
-27.7658
-27.8225
-27.8679
-27.9203
-27.9646
-28.0202
-28.0656
-28.1262
-28.178
-28.2474
-28.3136
-28.3946
-28.4726
-28.5643
-28.6626
-28.7683
-28.8828
-29.0016
-29.131
-29.2574
-29.3949
-29.5252
-29.6678
-29.8012
-29.9456
-30.0787
-30.2216
-30.3561
-30.4989
-30.6344
-30.7735
-30.9019
-31.0362
-31.1699
-31.3054
-31.4431
-31.5809
-31.7199
-31.8468
-31.982
-32.105
-32.2379
-32.3619
-32.4946
-32.6218
-32.7571
-32.8856
-33.0192
-33.1419
-33.2746
-33.4126
-33.5544
-33.7038
-33.8548
-34.0126
-34.16
-34.3211
-34.4711
-34.637
-34.7976
-34.9726
-35.1463
-35.3326
-35.5163
-35.7119
-35.8976
-36.0996
-36.3132
-36.5358
-36.7689
-37.0053
-37.2545
-37.5052
-37.7715
-38.0409
-38.3277
-38.6188
-38.9281
-39.2423
-39.5743
-39.9112
-40.2654
-40.6259
-41.0094
-41.4105
-41.8299
-42.2679
-42.722
-43.1913
-43.6716
-44.163
-44.6588
-45.1571
-45.6505
-46.1335
-46.5959
-47.026
-47.4062
-47.7154
-47.9232
-47.9888
-47.8581
-47.4687
-46.7618
-45.6857
-44.2051
-42.3116
-40.0082
-37.3169
-34.2568
-30.8324
-27.0117
-22.7014
-17.7176
-11.8536
-4.97137
2.89875
11.3234
18.6488
-9.65851
-10.1821
-10.7566
-11.2034
-11.7494
-12.2335
-12.7188
-13.2065
-13.6708
-14.1427
-14.5944
-15.04
-15.4681
-15.891
-16.2918
-16.6873
-17.0566
-17.4221
-17.7624
-18.0884
-18.4021
-18.6971
-18.9842
-19.2524
-19.5173
-19.7651
-20.0123
-20.2447
-20.4777
-20.6919
-20.909
-21.1107
-21.3165
-21.5092
-21.7098
-21.8996
-22.0961
-22.2862
-22.4732
-22.6613
-22.8429
-23.0278
-23.2036
-23.3832
-23.553
-23.7299
-23.8934
-24.0666
-24.2262
-24.3984
-24.5605
-24.7316
-24.8929
-25.0632
-25.2304
-25.3952
-25.5654
-25.7264
-25.8963
-26.0531
-26.2168
-26.365
-26.5219
-26.6559
-26.8
-26.9181
-27.047
-27.1544
-27.2652
-27.3522
-27.4407
-27.522
-27.5958
-27.6689
-27.7287
-27.7909
-27.8414
-27.8979
-27.9454
-28.0024
-28.0495
-28.1102
-28.1616
-28.2295
-28.293
-28.372
-28.4473
-28.5366
-28.6304
-28.7309
-28.8413
-28.9549
-29.0808
-29.2036
-29.3401
-29.4678
-29.6104
-29.7418
-29.8869
-30.0186
-30.1626
-30.296
-30.4394
-30.5747
-30.7157
-30.8444
-30.9804
-31.1138
-31.2482
-31.3848
-31.5207
-31.6594
-31.7857
-31.9206
-32.0432
-32.1744
-32.2961
-32.4251
-32.5492
-32.6793
-32.8042
-32.9329
-33.0561
-33.1862
-33.3158
-33.4512
-33.5907
-33.7368
-33.8851
-34.0318
-34.1857
-34.3373
-34.4972
-34.656
-34.8242
-34.9954
-35.1755
-35.3569
-35.5445
-35.731
-35.9301
-36.1359
-36.3525
-36.5775
-36.8107
-37.0522
-37.2992
-37.5584
-37.8247
-38.1053
-38.3946
-38.7003
-39.0159
-39.3492
-39.6927
-40.0534
-40.424
-40.8175
-41.2278
-41.658
-42.1087
-42.5805
-43.0739
-43.5865
-44.1218
-44.6739
-45.2433
-45.8236
-46.413
-47.0036
-47.5894
-48.1599
-48.7002
-49.1862
-49.5835
-49.8413
-49.9003
-49.6898
-49.1482
-48.2278
-46.9125
-45.2028
-43.1251
-40.7141
-37.9957
-34.9561
-31.5117
-27.4568
-22.5212
-16.4976
-9.38892
-1.58691
5.34451
-9.43064
-9.89601
-10.45
-10.8853
-11.3989
-11.8913
-12.3688
-12.8689
-13.3415
-13.8251
-14.2883
-14.7442
-15.1851
-15.6184
-16.0328
-16.441
-16.8239
-17.203
-17.5559
-17.8957
-18.2203
-18.5272
-18.8247
-19.1038
-19.3762
-19.631
-19.882
-20.1191
-20.353
-20.5728
-20.7918
-20.9965
-21.2018
-21.396
-21.5956
-21.7859
-21.9825
-22.173
-22.3617
-22.5507
-22.7349
-22.9211
-23.0997
-23.2807
-23.4531
-23.6295
-23.7956
-23.9679
-24.1296
-24.3002
-24.4623
-24.6322
-24.7939
-24.9637
-25.1299
-25.2952
-25.4637
-25.6253
-25.7927
-25.9508
-26.1137
-26.2649
-26.4205
-26.5579
-26.7022
-26.8249
-26.9547
-27.0667
-27.1803
-27.2751
-27.3718
-27.4596
-27.5389
-27.6169
-27.6825
-27.7508
-27.8068
-27.8683
-27.9194
-27.9795
-28.029
-28.091
-28.1429
-28.2101
-28.2715
-28.3486
-28.4221
-28.5102
-28.6011
-28.6978
-28.8048
-28.9133
-29.0342
-29.1533
-29.2869
-29.4119
-29.5532
-29.6823
-29.8278
-29.9579
-30.1032
-30.2353
-30.379
-30.5133
-30.6568
-30.7859
-30.9247
-31.0598
-31.1947
-31.3335
-31.4671
-31.6097
-31.7361
-31.8763
-31.9989
-32.1353
-32.2574
-32.3897
-32.5128
-32.6455
-32.7693
-32.9014
-33.022
-33.1538
-33.2852
-33.4184
-33.5573
-33.6974
-33.8467
-33.9865
-34.1406
-34.2842
-34.4423
-34.5937
-34.758
-34.9207
-35.0958
-35.2689
-35.4524
-35.6291
-35.8214
-36.0205
-36.2284
-36.4455
-36.6708
-36.9054
-37.1428
-37.395
-37.651
-37.9243
-38.2037
-38.5019
-38.809
-39.1367
-39.4743
-39.8323
-40.2006
-40.5951
-41.0092
-41.4453
-41.9052
-42.3895
-42.9002
-43.4344
-44.0007
-44.5922
-45.2137
-45.8587
-46.5301
-47.2234
-47.938
-48.6678
-49.4049
-50.1293
-50.8172
-51.4261
-51.9059
-52.1775
-52.1694
-51.8143
-51.0792
-49.9559
-48.4659
-46.6512
-44.5677
-42.2419
-39.6348
-36.5558
-32.6626
-27.6147
-21.3648
-14.2033
-7.65047
-9.32732
-9.71688
-10.2309
-10.6847
-11.1182
-11.5753
-12.0182
-12.4962
-12.9627
-13.4474
-13.9164
-14.3822
-14.8366
-15.2811
-15.7131
-16.1381
-16.536
-16.9316
-17.2985
-17.6552
-17.994
-18.3161
-18.6276
-18.9203
-19.2042
-19.4708
-19.7307
-19.9768
-20.2149
-20.4406
-20.6626
-20.8725
-21.0796
-21.2765
-21.4759
-21.667
-21.8632
-22.055
-22.2442
-22.4342
-22.6196
-22.8072
-22.9882
-23.1712
-23.3462
-23.5236
-23.6917
-23.8643
-24.0271
-24.197
-24.3589
-24.5281
-24.6899
-24.8596
-25.0255
-25.1902
-25.3584
-25.5197
-25.6862
-25.8442
-26.0072
-26.1596
-26.316
-26.4567
-26.6019
-26.7284
-26.8599
-26.9745
-27.0917
-27.1919
-27.2947
-27.3883
-27.4742
-27.5587
-27.6302
-27.7039
-27.7653
-27.832
-27.8876
-27.9516
-28.0043
-28.0687
-28.1219
-28.1893
-28.2492
-28.3245
-28.396
-28.4826
-28.5717
-28.6656
-28.7703
-28.8752
-28.9927
-29.1078
-29.2367
-29.359
-29.496
-29.6241
-29.7666
-29.8974
-30.0411
-30.1728
-30.3152
-30.4476
-30.5902
-30.7199
-30.8608
-30.9964
-31.1313
-31.2699
-31.4016
-31.5453
-31.6702
-31.8128
-31.9342
-32.0745
-32.1968
-32.3315
-32.4528
-32.587
-32.7093
-32.8435
-32.9619
-33.0971
-33.2298
-33.3631
-33.5033
-33.6398
-33.7901
-33.9278
-34.0832
-34.2245
-34.3836
-34.5326
-34.6958
-34.8542
-35.0265
-35.1948
-35.3767
-35.5474
-35.7369
-35.9305
-36.1308
-36.3407
-36.556
-36.7851
-37.0134
-37.2595
-37.5066
-37.7719
-38.0402
-38.3287
-38.6235
-38.9412
-39.2677
-39.6176
-39.9774
-40.3664
-40.7754
-41.2085
-41.6684
-42.1568
-42.6771
-43.2237
-43.8113
-44.4283
-45.0877
-45.7777
-46.5105
-47.2792
-48.0945
-48.9471
-49.8379
-50.7509
-51.673
-52.5759
-53.4253
-54.1424
-54.6574
-54.8807
-54.7514
-54.2334
-53.329
-52.0686
-50.5314
-48.8052
-46.9332
-44.8185
-42.1143
-38.2954
-33.1535
-26.8164
-20.6837
-9.43487
-9.88622
-10.2883
-10.6349
-10.9688
-11.3652
-11.7711
-12.2066
-12.6409
-13.101
-13.557
-14.0104
-14.4655
-14.9073