/*--------------------------------*- C++ -*----------------------------------*\
| =========                 |                                                 |
| \\      /  F ield         | OpenFOAM: The Open Source CFD Toolbox           |
|  \\    /   O peration     | Version:  4.1                                   |
|   \\  /    A nd           | Web:      www.OpenFOAM.org                      |
|    \\/     M anipulation  |                                                 |
\*---------------------------------------------------------------------------*/
FoamFile
{
    version     2.0;
    format      ascii;
    class       volScalarField;
    location    "4.5";
    object      epsilon;
}
// * * * * * * * * * * * * * * * * * * * * * * * * * * * * * * * * * * * * * //

dimensions      [0 2 -3 0 0 0 0];

internalField   nonuniform List<scalar> 
204246
(
0.734057
0.852562
0.851674
0.851569
0.850283
0.849273
0.847917
0.846344
0.845241
0.845025
0.844835
0.845281
0.845112
0.846502
0.847532
0.848905
0.851087
0.849746
0.852932
0.853021
0.853268
0.852676
0.851974
0.851283
0.849832
0.848574
0.846359
0.84466
0.844715
0.844773
0.84561
0.846134
0.847255
0.848571
0.84964
0.851647
0.850316
0.853224
0.852608
0.852097
0.851521
0.85032
0.849119
0.846913
0.845141
0.844892
0.844832
0.845612
0.846148
0.84688
0.847834
0.848931
0.850868
0.849584
0.852635
0.852101
0.851568
0.850935
0.849712
0.848632
0.848403
0.847887
0.849079
0.849563
0.8507
0.851591
0.852532
0.853559
0.854749
0.856606
0.855526
0.859835
0.861623
0.863345
0.86596
0.86791
0.871132
0.873527
0.877528
0.881724
0.888249
0.893528
0.901998
0.909305
0.921582
0.934496
0.953417
0.976188
1.01833
1.07345
1.1761
1.33703
1.61673
2.02953
2.5047
2.66706
2.71094
2.69989
2.65959
2.58216
2.54761
2.50134
2.44171
2.36726
2.32801
2.27209
2.21209
2.15906
2.12058
2.08117
2.03539
1.99379
1.9728
1.94972
1.94219
1.93965
1.9409
1.94647
1.95737
1.97125
1.99902
2.02619
2.07576
2.11148
2.18958
2.25296
2.34527
2.44404
2.55208
2.68641
2.80923
2.973
3.10999
3.29294
3.44026
3.63244
3.78385
3.97644
4.12592
4.31292
4.44646
4.64991
4.77152
4.96788
5.09168
5.28344
5.41062
5.60004
5.73086
5.91638
6.0456
6.22288
6.34506
6.50915
6.61926
6.7694
6.86687
6.98419
7.10864
7.18976
7.30443
7.36981
7.48249
7.53941
7.65589
7.7065
7.8282
7.87281
7.99862
8.03728
8.17153
8.20745
8.34988
8.38507
8.5393
8.57445
8.71799
8.81631
8.92339
9.05129
9.15364
9.31327
9.41974
9.61519
9.73729
9.97294
10.1245
10.4051
10.5996
10.9008
11.097
11.2729
11.2975
0.0337497
0.108868
0.103274
0.0998192
0.101282
0.0977624
0.0990861
0.0972812
0.099119
0.097845
0.100089
0.0989892
0.101492
0.0998801
0.103232
0.101591
0.105363
0.103788
0.103365
0.104979
0.102043
0.103931
0.100616
0.102012
0.0991884
0.10026
0.0975766
0.0988296
0.096565
0.0992015
0.0972654
0.100201
0.0983979
0.101881
0.100304
0.1041
0.103439
0.102717
0.104247
0.10112
0.102556
0.0996835
0.100713
0.0977394
0.0988832
0.0963944
0.0989783
0.0970378
0.0999223
0.09811
0.101226
0.1004
0.104147
0.103567
0.102975
0.104575
0.101621
0.103163
0.100734
0.101983
0.100001
0.101725
0.0997191
0.102453
0.100494
0.103428
0.101558
0.104653
0.103727
0.107695
0.107237
0.107359
0.110994
0.11008
0.113907
0.113024
0.117566
0.116975
0.122765
0.122116
0.130832
0.131079
0.146568
0.150609
0.176895
0.188849
0.232098
0.266586
0.347405
0.476182
0.697824
1.08243
1.60818
1.89761
1.9386
1.76757
1.28538
0.812524
0.628703
0.561509
0.50351
0.465267
0.410374
0.399086
0.377197
0.374691
0.353514
0.347432
0.349111
0.341174
0.344345
0.339581
0.346611
0.343129
0.352209
0.349821
0.361924
0.361621
0.380167
0.383114
0.412575
0.421082
0.462914
0.478259
0.523121
0.560558
0.604409
0.665448
0.711896
0.797198
0.848314
0.954412
1.01221
1.13132
1.19375
1.31763
1.37747
1.49897
1.55207
1.67171
1.72251
1.82388
1.89122
1.96893
2.05206
2.11551
2.21221
2.26786
2.37924
2.42757
2.54367
2.58722
2.7039
2.74487
2.85731
2.89498
3.00849
3.04643
3.12301
3.20682
3.23937
3.33651
3.36409
3.46613
3.49407
3.59441
3.62094
3.72024
3.74605
3.84298
3.86744
3.96535
3.98962
4.08787
4.119
4.21169
4.2485
4.29376
4.37712
4.39247
4.47619
4.4851
4.55611
4.55736
4.61973
4.61599
4.68179
4.68227
4.85546
4.98942
5.48581
5.77924
5.92721
0.0051728
0.00898203
0.00765289
0.00696981
0.00704238
0.00660386
0.00677996
0.00662266
0.00684061
0.00673507
0.00700548
0.00693439
0.00730229
0.00719217
0.00763055
0.00748754
0.00782947
0.00760464
0.00753441
0.00760086
0.00723866
0.0073965
0.00698184
0.00708017
0.00668438
0.00675219
0.00651534
0.00670105
0.00654198
0.00685734
0.00671477
0.00710475
0.00699491
0.00746416
0.00733652
0.00768236
0.00754801
0.00743432
0.0074866
0.00708149
0.00718087
0.00676662
0.00682574
0.0065469
0.00672155
0.00655658
0.00687177
0.00673184
0.00713124
0.0070196
0.00743501
0.00737347
0.00769393
0.00754284
0.00741926
0.00747173
0.00706453
0.00717241
0.00691512
0.0070994
0.00696388
0.00720846
0.00706069
0.00740628
0.00724076
0.00762523
0.00746717
0.00784819
0.00777009
0.00819172
0.00812237
0.00820441
0.00860784
0.0085307
0.00905037
0.0090003
0.00970366
0.00972415
0.0108941
0.0111339
0.0134874
0.0144474
0.0187642
0.0217674
0.0303011
0.0397194
0.0601488
0.0908218
0.151465
0.262447
0.468529
0.833014
1.30245
1.45028
1.39763
1.05147
0.515633
0.286603
0.208785
0.181845
0.166048
0.154547
0.136141
0.129593
0.124856
0.122995
0.118334
0.116921
0.117182
0.116675
0.118381
0.118325
0.121836
0.122374
0.128179
0.129844
0.138253
0.141637
0.153494
0.159196
0.176245
0.185625
0.209352
0.223687
0.252445
0.278294
0.311907
0.350548
0.39073
0.443745
0.491526
0.559834
0.615539
0.697358
0.75861
0.849691
0.911616
1.00495
1.06303
1.15382
1.20577
1.2833
1.33797
1.40203
1.46125
1.51587
1.57811
1.62538
1.69014
1.73081
1.79652
1.83115
1.89194
1.91583
1.95975
1.97284
1.99606
1.99748
1.9974
1.99762
1.97311
1.95678
1.90578
1.88716
1.84815
1.84016
1.80679
1.80171
1.7675
1.76231
1.72382
1.71798
1.67638
1.67026
1.63084
1.62597
1.58376
1.56512
1.55485
1.5211
1.51962
1.48358
1.48329
1.44919
1.45043
1.42318
1.42801
1.41645
1.43433
1.4274
1.43786
1.3229
1.27636
0.00217042
0.00251763
0.00242217
0.00237828
0.00237654
0.00234978
0.00235778
0.00235
0.00236006
0.00235587
0.00236883
0.00236676
0.00238559
0.00238133
0.0024053
0.00239823
0.00241482
0.00240171
0.00239728
0.00239956
0.0023806
0.00238793
0.00236722
0.00237162
0.00235249
0.00235502
0.00234338
0.00235104
0.00234425
0.00235838
0.00235338
0.00237245
0.00236924
0.0023964
0.00239122
0.00240883
0.00240025
0.00239307
0.00239484
0.00237368
0.00237813
0.00235756
0.00235966
0.00234544
0.0023525
0.00234533
0.00235954
0.00235465
0.00237448
0.00237196
0.00239828
0.0023965
0.00241262
0.00240313
0.00239511
0.00239678
0.00237437
0.00237876
0.00236481
0.00237305
0.00236696
0.00237898
0.00237275
0.00239077
0.0023842
0.00240779
0.00240098
0.00242566
0.00242273
0.0024496
0.00244638
0.00245309
0.00247964
0.00247623
0.00251581
0.00251589
0.00258703
0.00260775
0.00275132
0.0028377
0.00317076
0.00348573
0.00434103
0.00551274
0.0081723
0.0128369
0.0227467
0.0421409
0.0818305
0.16079
0.311296
0.579576
0.956477
1.09771
1.08218
0.840288
0.386979
0.156944
0.0894997
0.0662617
0.055508
0.0500943
0.0432477
0.0376487
0.033572
0.0322967
0.0312856
0.0310395
0.0312879
0.0313088
0.0319753
0.0320039
0.0330508
0.0332063
0.0347008
0.0351202
0.0372307
0.0382459
0.0412147
0.0430699
0.047567
0.0509552
0.0580213
0.0640945
0.0744632
0.0856538
0.100383
0.118496
0.1396
0.166563
0.195891
0.233514
0.272392
0.321266
0.368989
0.427478
0.480762
0.544757
0.598555
0.663134
0.712081
0.76732
0.814214
0.856228
0.900574
0.932077
0.974203
0.998025
1.03859
1.05537
1.08879
1.10029
1.12381
1.12882
1.13809
1.13529
1.13633
1.11999
1.09776
1.07248
1.02368
0.990247
0.924913
0.889824
0.828758
0.805776
0.759554
0.743361
0.704851
0.691427
0.656523
0.644558
0.612861
0.602482
0.574892
0.566274
0.541969
0.531075
0.515756
0.502058
0.49265
0.477001
0.471451
0.455228
0.45098
0.440154
0.439431
0.438695
0.453574
0.467995
0.493862
0.50261
0.508946
0.00229926
0.00228647
0.00228168
0.00227773
0.00227661
0.00227542
0.00227529
0.00227471
0.00227477
0.0022747
0.00227489
0.00227482
0.0022751
0.00227501
0.00227554
0.00227556
0.00227627
0.00227604
0.00227604
0.0022763
0.00227591
0.00227609
0.00227568
0.00227579
0.00227544
0.00227549
0.00227513
0.00227513
0.00227496
0.00227515
0.00227503
0.00227528
0.00227521
0.00227573
0.00227562
0.00227613
0.00227597
0.00227578
0.00227582
0.00227531
0.00227536
0.00227488
0.00227488
0.00227443
0.00227442
0.00227407
0.00227423
0.00227411
0.00227434
0.00227421
0.00227472
0.00227489
0.00227548
0.00227534
0.00227515
0.00227522
0.00227468
0.00227472
0.00227443
0.00227459
0.00227449
0.00227479
0.00227472
0.00227563
0.00227592
0.00227672
0.0022766
0.00227767
0.00227781
0.00227914
0.00227924
0.00227975
0.0022805
0.00228037
0.002282
0.00228245
0.00228669
0.00229079
0.00230427
0.00232424
0.00237533
0.00246814
0.00268677
0.00313625
0.00416967
0.00642354
0.0115218
0.0227467
0.0471342
0.0987279
0.20192
0.394134
0.693935
0.848549
0.85488
0.722756
0.414362
0.146332
0.0587473
0.0310727
0.0222152
0.0190266
0.017408
0.0166814
0.0158995
0.0155875
0.0151579
0.0150296
0.0150553
0.0151128
0.0155816
0.0159973
0.016694
0.0169626
0.017864
0.0183231
0.0196376
0.0206151
0.0227101
0.0245383
0.0277964
0.0310152
0.0362184
0.0416462
0.0494611
0.0585123
0.0698128
0.0836085
0.0994582
0.118878
0.139864
0.165216
0.191036
0.221749
0.251309
0.28593
0.317082
0.353096
0.383006
0.417823
0.443943
0.472886
0.497171
0.51776
0.539252
0.552029
0.567479
0.572435
0.581558
0.582821
0.586208
0.584196
0.58451
0.57565
0.570152
0.552156
0.544714
0.522003
0.508218
0.48772
0.46445
0.448123
0.421351
0.410326
0.387745
0.379694
0.364302
0.359297
0.348372
0.345042
0.336757
0.334448
0.328199
0.326769
0.322633
0.322138
0.319752
0.319117
0.319758
0.319504
0.32157
0.321712
0.324155
0.32435
0.326147
0.3261
0.329043
0.330177
0.33793
0.343387
0.353521
0.357587
0.360507
0.00228217
0.00227907
0.00227431
0.00227239
0.00227148
0.0022709
0.00227075
0.00227056
0.00227053
0.00227089
0.00227215
0.00227352
0.00227386
0.00227389
0.00227391
0.00227389
0.00227385
0.00227385
0.00227381
0.00227379
0.00227374
0.0022738
0.00227411
0.00227417
0.00227417
0.00227412
0.00227403
0.00227401
0.00227395
0.00227394
0.00227391
0.0022739
0.00227409
0.00227413
0.00227413
0.00227413
0.00227403
0.00227403
0.00227402
0.00227384
0.00227385
0.00227383
0.00227367
0.00227369
0.00227368
0.00227353
0.00227355
0.00227353
0.00227337
0.00227338
0.00227336
0.0022732
0.0022732
0.00227313
0.00227298
0.00227298
0.00227288
0.00227276
0.00227276
0.00227274
0.00227263
0.00227263
0.00227261
0.00227257
0.00227255
0.0022725
0.00227267
0.00227346
0.00227434
0.00227457
0.00227459
0.00227453
0.00227452
0.00227449
0.00227455
0.00227498
0.00227628
0.0022788
0.0022836
0.00229228
0.00230979
0.00234571
0.00242767
0.0026163
0.00307002
0.00414518
0.00671024
0.0127052
0.0263908
0.0568863
0.121329
0.250241
0.480897
0.704938
0.746105
0.683339
0.471837
0.193167
0.0705593
0.0307499
0.0165198
0.0112244
0.0091482
0.00826412
0.00779559
0.00758773
0.00747578
0.00747027
0.00766613
0.00808586
0.00871407
0.00918811
0.00966758
0.00995612
0.0104922
0.0108374
0.0114301
0.0117645
0.0125034
0.013253
0.0146499
0.0162086
0.018663
0.0216288
0.0259004
0.0312239
0.0380441
0.0465496
0.0567814
0.0693574
0.0838311
0.101061
0.120007
0.14166
0.164092
0.188665
0.212403
0.237411
0.259446
0.281942
0.299361
0.315804
0.328982
0.338127
0.345338
0.347523
0.349776
0.349431
0.349926
0.347497
0.345957
0.33904
0.335273
0.325789
0.321545
0.31057
0.306288
0.294834
0.289364
0.280851
0.273719
0.268319
0.260531
0.257442
0.251142
0.248997
0.244913
0.24366
0.24105
0.240431
0.239101
0.23904
0.238683
0.239337
0.239587
0.241432
0.242155
0.244779
0.24674
0.249919
0.253001
0.25672
0.260904
0.265323
0.270684
0.275803
0.282243
0.287858
0.295161
0.300914
0.30684
0.309435
0.310906
0.00228801
0.00228286
0.00227828
0.00227618
0.00227482
0.00227397
0.00227362
0.00227346
0.00227334
0.00227325
0.00227356
0.00227446
0.00227487
0.0022749
0.00227489
0.00227488
0.00227486
0.00227482
0.00227479
0.00227472
0.0022746
0.0022746
0.00227458
0.00227446
0.00227446
0.00227445
0.0022743
0.00227431
0.00227426
0.00227412
0.00227412
0.0022741
0.00227397
0.00227399
0.00227398
0.0022738
0.0022738
0.00227378
0.00227362
0.00227361
0.00227353
0.00227339
0.00227339
0.00227324
0.00227317
0.00227315
0.00227315
0.00227314
0.00227311
0.00227309
0.00227307
0.00227313
0.00227363
0.00227435
0.00227454
0.00227454
0.00227454
0.0022745
0.00227437
0.00227437
0.00227428
0.00227416
0.00227417
0.0022741
0.00227398
0.00227399
0.00227397
0.00227383
0.00227385
0.00227384
0.00227371
0.00227372
0.00227369
0.00227363
0.00227361
0.00227356
0.00227372
0.00227446
0.0022762
0.00227978
0.00228698
0.0023016
0.00233442
0.00241093
0.00259872
0.00305736
0.00418839
0.00692666
0.0134118
0.0284891
0.0619536
0.133128
0.271021
0.503276
0.659662
0.672284
0.569068
0.349766
0.131078
0.0515137
0.0245011
0.0139781
0.00963036
0.00756861
0.00668111
0.0063106
0.00625009
0.00625474
0.00642966
0.00688575
0.00719709
0.00730133
0.0072722
0.00739562
0.00758944
0.0080585
0.00849964
0.00915088
0.00979326
0.0106538
0.0117736
0.0134396
0.0157869
0.0189146
0.022918
0.0280309
0.0343218
0.042307
0.051712
0.0631404
0.0759572
0.09089
0.106832
0.124531
0.142316
0.160937
0.178283
0.195438
0.210056
0.223744
0.234124
0.242992
0.248643
0.2505
0.251584
0.251403
0.251478
0.24995
0.248677
0.244957
0.242528
0.237596
0.234878
0.229494
0.22722
0.222572
0.220792
0.216827
0.215022
0.212652
0.210916
0.209795
0.208477
0.208148
0.207556
0.207632
0.20757
0.208458
0.208858
0.210417
0.211194
0.213434
0.214539
0.217494
0.218966
0.222514
0.224336
0.22829
0.231027
0.235129
0.238571
0.24291
0.247032
0.251673
0.256546
0.261627
0.267232
0.272676
0.278721
0.28379
0.288344
0.290487
0.291574
0.00228528
0.00228157
0.0022771
0.00227533
0.00227404
0.00227341
0.0022731
0.00227291
0.00227288
0.00227281
0.00227276
0.00227292
0.00227355
0.00227382
0.00227386
0.00227386
0.00227386
0.00227384
0.00227373
0.00227374
0.00227366
0.00227357
0.00227358
0.00227354
0.00227354
0.00227354
0.00227341
0.00227343
0.00227339
0.00227331
0.00227333
0.0022733
0.00227331
0.00227331
0.00227317
0.00227317
0.00227316
0.00227298
0.00227298
0.00227297
0.00227284
0.00227286
0.00227286
0.00227281
0.00227282
0.00227277
0.00227277
0.00227273
0.00227272
0.00227309
0.00227364
0.00227378
0.00227376
0.00227376
0.00227369
0.00227358
0.00227359
0.00227352
0.00227348
0.0022735
0.0022735
0.00227345
0.00227345
0.00227341
0.00227338
0.00227364
0.00227443
0.00227543
0.00227598
0.00227614
0.00227618
0.00227619
0.00227615
0.00227616
0.00227615
0.00227613
0.00227627
0.00227693
0.00227828
0.00228088
0.00228539
0.00229374
0.00231003
0.00234491
0.00242519
0.00261766
0.00309188
0.00425579
0.00706547
0.0137627
0.0290952
0.0631516
0.133422
0.266924
0.475745
0.605003
0.609152
0.52621
0.348035
0.152079
0.0667702
0.0365497
0.0268885
0.0241624
0.0239412
0.0239437
0.0248861
0.0259121
0.0261056
0.0263202
0.0244524
0.0208722
0.0136828
0.0102378
0.00767485
0.0069762
0.00670749
0.00669108
0.00683046
0.0073711
0.00825737
0.00951653
0.0111263
0.0132975
0.0161918
0.020084
0.0250227
0.0313326
0.0389779
0.0484561
0.0595289
0.0726042
0.0869815
0.102852
0.119053
0.135642
0.151219
0.166048
0.178612
0.189639
0.197495
0.201621
0.203312
0.203663
0.203883
0.203508
0.203076
0.201442
0.199947
0.197204
0.195365
0.192466
0.190964
0.188542
0.187574
0.185684
0.184994
0.183588
0.182989
0.182457
0.182102
0.182099
0.182081
0.182762
0.183092
0.184307
0.185215
0.18696
0.188212
0.190581
0.192286
0.195272
0.197505
0.201225
0.204196
0.208562
0.21214
0.217046
0.221297
0.22656
0.231295
0.236639
0.241684
0.246932
0.252224
0.257661
0.263283
0.268684
0.274227
0.278875
0.282824
0.284772
0.285675
0.00228937
0.00228368
0.0022791
0.00227703
0.00227514
0.00227429
0.0022736
0.00227328
0.00227319
0.00227303
0.002273
0.0022733
0.00227399
0.00227422
0.00227431
0.00227437
0.0022744
0.0022744
0.00227429
0.00227431
0.00227429
0.00227414
0.00227414
0.00227405
0.00227392
0.0022739
0.00227376
0.00227371
0.00227365
0.00227354
0.00227353
0.00227346
0.00227346
0.00227338
0.00227333
0.0022733
0.00227321
0.00227319
0.00227315
0.00227304
0.00227305
0.00227304
0.00227289
0.00227289
0.00227286
0.00227273
0.00227275
0.00227275
0.00227263
0.00227265
0.00227264
0.00227256
0.00227257
0.00227252
0.00227253
0.00227254
0.00227254
0.00227281
0.00227333
0.00227397
0.00227456
0.00227505
0.00227549
0.00227584
0.0022761
0.00227655
0.00227685
0.00227694
0.00227696
0.00227699
0.00227699
0.00227693
0.00227697
0.00227696
0.00227689
0.00227689
0.00227688
0.00227693
0.00227735
0.00227852
0.00228091
0.00228519
0.00229314
0.00230852
0.00234121
0.002415
0.00259292
0.00302815
0.00409153
0.00667864
0.0127566
0.0267562
0.0571223
0.119618
0.233946
0.416737
0.549172
0.56371
0.521682
0.413552
0.263482
0.138313
0.0936967
0.084005
0.0863385
0.0980077
0.123937
0.160383
0.188424
0.198106
0.197481
0.183342
0.132027
0.0704912
0.0304447
0.0165767
0.010038
0.00802289
0.00742591
0.00739156
0.00771173
0.00882544
0.0106627
0.0131891
0.0162989
0.0203227
0.0254798
0.0321691
0.0404216
0.0503135
0.0617774
0.074696
0.0889639
0.104001
0.119421
0.13425
0.148109
0.160151
0.170364
0.178032
0.181777
0.18312
0.183623
0.183611
0.183571
0.18288
0.181984
0.180295
0.178858
0.176904
0.175584
0.173857
0.172881
0.171693
0.171249
0.170729
0.170629
0.170533
0.170599
0.171122
0.171603
0.17252
0.173288
0.1747
0.175722
0.177308
0.178615
0.180655
0.182421
0.185025
0.187319
0.190517
0.19331
0.197109
0.200622
0.205098
0.209321
0.214377
0.219163
0.224763
0.230059
0.235961
0.241661
0.247718
0.253443
0.259388
0.26495
0.270503
0.275315
0.27978
0.282855
0.284842
0.285602
0.00228666
0.00228205
0.00227778
0.00227612
0.00227485
0.00227427
0.00227393
0.00227379
0.00227365
0.00227349
0.00227349
0.0022734
0.00227327
0.00227326
0.00227314
0.00227306
0.00227304
0.0022729
0.00227285
0.00227286
0.00227278
0.00227276
0.00227271
0.00227271
0.00227268
0.0022727
0.00227311
0.00227389
0.00227426
0.0022744
0.00227444
0.00227446
0.00227444
0.00227437
0.00227437
0.00227423
0.00227413
0.00227409
0.00227395
0.00227392
0.00227384
0.00227372
0.00227373
0.00227372
0.00227356
0.00227356
0.00227354
0.00227341
0.00227341
0.00227339
0.00227322
0.00227323
0.00227315
0.00227301
0.00227301
0.0022729
0.00227284
0.00227284
0.00227283
0.00227281
0.00227275
0.00227274
0.00227269
0.00227278
0.00227331
0.00227423
0.00227487
0.00227516
0.00227532
0.0022756
0.00227594
0.00227623
0.00227637
0.0022764
0.00227642
0.00227642
0.00227642
0.00227667
0.00227737
0.0022786
0.00228065
0.00228402
0.00228934
0.00229823
0.00231409
0.00234545
0.00241386
0.00257299
0.00295419
0.00388195
0.00608452
0.0112584
0.022822
0.0478015
0.0971798
0.187785
0.328546
0.482525
0.524114
0.522906
0.492001
0.430035
0.35005
0.310378
0.30778
0.322869
0.370761
0.44533
0.537913
0.593319
0.604113
0.601733
0.556488
0.457278
0.302859
0.138599
0.0504723
0.0227204
0.0125084
0.00940419
0.00844095
0.00832382
0.00849958
0.00960673
0.0118213
0.0153185
0.0198808
0.0257178
0.0328331
0.041773
0.0523015
0.0648824
0.078662
0.0937122
0.10885
0.124044
0.137972
0.15057
0.160493
0.165852
0.167748
0.168349
0.168524
0.168452
0.168277
0.167567
0.166617
0.16517
0.163909
0.162477
0.161575
0.16068
0.160314
0.159948
0.159878
0.159839
0.160137
0.160743
0.161548
0.162482
0.163492
0.164783
0.165947
0.167747
0.169464
0.171708
0.173801
0.176487
0.179144
0.182271
0.185577
0.189324
0.193229
0.197655
0.202269
0.207413
0.212831
0.218598
0.224522
0.230878
0.237249
0.24404
0.250718
0.257698
0.264327
0.271143
0.277266
0.283521
0.28855
0.293333
0.29639
0.298462
0.299208
0.00229319
0.00228603
0.00228253
0.00227948
0.00227797
0.00227666
0.00227576
0.00227537
0.00227503
0.00227479
0.00227452
0.00227443
0.00227443
0.00227427
0.00227417
0.00227417
0.00227404
0.00227393
0.00227391
0.00227377
0.00227374
0.00227367
0.00227357
0.00227357
0.00227356
0.00227339
0.00227339
0.0022733
0.00227319
0.00227317
0.00227312
0.00227308
0.00227302
0.00227303
0.00227299
0.00227297
0.00227329
0.0022741
0.00227445
0.00227446
0.00227446
0.0022744
0.00227432
0.00227428
0.00227419
0.00227419
0.00227417
0.00227404
0.00227404
0.00227404
0.00227388
0.00227388
0.00227385
0.00227371
0.00227371
0.00227367
0.00227367
0.00227365
0.00227353
0.00227353
0.00227349
0.00227335
0.00227335
0.00227331
0.00227323
0.00227324
0.00227318
0.00227318
0.00227314
0.00227309
0.00227309
0.00227307
0.00227324
0.00227384
0.00227488
0.00227604
0.00227717
0.00227818
0.00227932
0.00228063
0.00228227
0.00228458
0.0022879
0.00229291
0.0023011
0.00231517
0.00234232
0.00239933
0.00252739
0.00283036
0.00354466
0.00523993
0.00910149
0.0177222
0.0356186
0.0711367
0.133268
0.233284
0.360978
0.46556
0.506565
0.528902
0.542628
0.561204
0.59181
0.637659
0.696784
0.760976
0.786172
0.791037
0.780537
0.743101
0.669118
0.575581
0.46517
0.356772
0.245083
0.141409
0.0618722
0.033241
0.0203474
0.0151049
0.0127911
0.0124915
0.0128777
0.0149604
0.0192919
0.0254979
0.0333335
0.0425085
0.0533623
0.0658653
0.0802356
0.0956746
0.111719
0.126913
0.14078
0.152155
0.159559
0.162339
0.163279
0.163499
0.163529
0.163319
0.162893
0.161936
0.160715
0.159242
0.158042
0.156924
0.156133
0.155575
0.155396
0.155346
0.155545
0.156223
0.157092
0.157926
0.158887
0.160319
0.161892
0.163507
0.165059
0.166977
0.168972
0.171234
0.173642
0.176575
0.179585
0.183106
0.186939
0.191277
0.195963
0.201141
0.206542
0.212444
0.218761
0.225308
0.232112
0.239261
0.246457
0.254106
0.261586
0.269416
0.276845
0.284456
0.29112
0.297936
0.303147
0.308215
0.311161
0.313363
0.31408
0.00229175
0.00228447
0.00228107
0.00227793
0.00227644
0.00227511
0.00227451
0.00227426
0.00227391
0.00227388
0.00227401
0.00227404
0.002274
0.00227397
0.00227426
0.00227497
0.00227526
0.00227527
0.00227527
0.00227525
0.00227512
0.00227514
0.00227513
0.00227511
0.00227511
0.00227497
0.00227497
0.00227495
0.0022748
0.0022748
0.00227477
0.0022746
0.00227461
0.00227452
0.00227441
0.00227441
0.00227434
0.00227428
0.00227428
0.00227423
0.00227424
0.00227415
0.0022741
0.0022743
0.00227465
0.00227478
0.0022748
0.0022748
0.00227475
0.00227466
0.00227464
0.00227449
0.00227441
0.00227436
0.00227421
0.00227418
0.0022741
0.00227397
0.00227398
0.00227387
0.00227377
0.00227376
0.0022737
0.00227363
0.00227362
0.00227361
0.00227361
0.00227353
0.00227353
0.00227353
0.00227351
0.00227344
0.00227351
0.00227416
0.00227541
0.00227612
0.00227632
0.00227643
0.00227656
0.0022769
0.00227774
0.00227937
0.00228217
0.0022864
0.00229291
0.00230254
0.00231773
0.00234318
0.00239167
0.00249353
0.00271932
0.00324061
0.00442239
0.00709276
0.0127781
0.0245784
0.0466533
0.0859059
0.14601
0.234061
0.338502
0.435795
0.499456
0.553199
0.603435
0.669399
0.741258
0.826454
0.865086
0.869245
0.85005
0.797861
0.715074
0.614021
0.512844
0.421838
0.351062
0.29523
0.2547
0.211797
0.158509
0.0846894
0.0386005
0.0237876
0.0191409
0.0179908
0.0182424
0.0204502
0.0258915
0.0344251
0.0455708
0.0586236
0.0728169
0.08798
0.103649
0.119814
0.135388
0.149242
0.156205
0.15859
0.159299
0.159418
0.159389
0.159172
0.158676
0.15781
0.156535
0.155089
0.153806
0.15306
0.152705
0.152538
0.152491
0.15263
0.153213
0.154235
0.155362
0.156802
0.158235
0.159753
0.161305
0.16328
0.165269
0.167388
0.169662
0.172421
0.175447
0.178808
0.182714
0.186761
0.191369
0.196156
0.20178
0.207425
0.213841
0.220192
0.22755
0.234815
0.242834
0.250923
0.259426
0.268241
0.277045
0.286203
0.294956
0.303999
0.311756
0.319697
0.325634
0.331428
0.334528
0.337003
0.337746
0.00229526
0.00228678
0.00228316
0.00227979
0.00227811
0.00227648
0.00227565
0.00227508
0.00227466
0.00227445
0.00227424
0.00227417
0.00227394
0.00227384
0.00227383
0.0022738
0.00227377
0.00227372
0.00227372
0.00227368
0.00227368
0.00227409
0.00227478
0.00227506
0.00227516
0.00227525
0.00227534
0.0022754
0.00227541
0.00227539
0.0022754
0.00227539
0.00227532
0.00227534
0.00227533
0.0022752
0.0022752
0.00227518
0.00227507
0.00227502
0.00227502
0.00227494
0.00227486
0.00227486
0.00227481
0.0022747
0.0022747
0.00227466
0.00227454
0.00227454
0.00227452
0.00227453
0.00227453
0.0022745
0.00227451
0.00227444
0.00227444
0.00227437
0.00227433
0.00227445
0.00227458
0.00227463
0.00227466
0.00227472
0.00227483
0.00227497
0.00227515
0.00227532
0.0022756
0.00227606
0.00227666
0.00227691
0.00227701
0.00227711
0.00227715
0.00227716
0.00227713
0.00227713
0.00227727
0.00227778
0.00227863
0.00227983
0.0022814
0.00228387
0.00228781
0.00229386
0.00230275
0.00231649
0.0023387
0.00237849
0.00245423
0.00261315
0.00295298
0.00370598
0.00531072
0.00871839
0.015338
0.0278325
0.0485482
0.0816611
0.126822
0.187699
0.261379
0.345498
0.421686
0.502996
0.573685
0.653497
0.691238
0.692884
0.671331
0.61207
0.534076
0.434341
0.352048
0.269613
0.221876
0.179227
0.160452
0.134606
0.121773
0.101601
0.0944927
0.0853168
0.0759641
0.0564224
0.0396331
0.0338942
0.0330401
0.0342717
0.0408159
0.0525141
0.0681774
0.0852044
0.102916
0.120473
0.137644
0.152668
0.159832
0.16218
0.162899
0.163017
0.162873
0.162427
0.161561
0.160493
0.15889
0.157357
0.155753
0.154832
0.154284
0.154086
0.154009
0.154235
0.15496
0.156237
0.157225
0.1586
0.160112
0.162013
0.163665
0.165286
0.167273
0.16968
0.172618
0.17573
0.179313
0.183092
0.187578
0.192136
0.19749
0.202754
0.208739
0.214763
0.221968
0.229093
0.237333
0.245681
0.254981
0.264513
0.274518
0.285015
0.295407
0.306272
0.316498
0.327237
0.336391
0.345707
0.352587
0.359269
0.362661
0.365385
0.366161
0.00229597
0.00228767
0.00228378
0.00227996
0.00227808
0.0022764
0.00227545
0.00227493
0.00227445
0.00227421
0.00227389
0.00227379
0.00227375
0.00227366
0.0022735
0.00227347
0.0022734
0.00227324
0.00227322
0.00227319
0.00227305
0.00227306
0.00227301
0.00227302
0.00227298
0.00227293
0.00227307
0.00227364
0.00227407
0.00227424
0.00227427
0.0022743
0.00227431
0.00227428
0.00227415
0.00227415
0.00227414
0.00227409
0.00227407
0.00227406
0.00227401
0.00227404
0.00227448
0.0022748
0.00227483
0.0022748
0.00227479
0.00227472
0.00227467
0.00227461
0.0022745
0.0022745
0.00227443
0.00227428
0.00227427
0.00227426
0.0022742
0.00227415
0.00227415
0.00227411
0.00227408
0.00227433
0.00227508
0.00227541
0.00227544
0.00227544
0.0022754
0.00227536
0.00227535
0.00227533
0.00227532
0.00227529
0.00227522
0.00227531
0.00227575
0.00227592
0.00227594
0.00227595
0.00227593
0.00227587
0.00227598
0.00227653
0.00227765
0.00227955
0.0022828
0.00228747
0.00229434
0.00230387
0.00231752
0.00233807
0.00237107
0.00242852
0.00253526
0.00274894
0.00317988
0.00407836
0.00583414
0.00924798
0.0151586
0.0251838
0.039762
0.0607975
0.0866602
0.11917
0.152193
0.189386
0.221268
0.257424
0.277129
0.277419
0.268149
0.240758
0.211361
0.170049
0.140668
0.106763
0.0910881
0.0751042
0.0687382
0.0627801
0.0620586
0.0624424
0.0669718
0.0730876
0.0849136
0.0944535
0.0957289
0.0899527
0.0754391
0.0585472
0.0537532
0.0532166
0.0578862
0.0700216
0.0887057
0.110144
0.132374
0.153503
0.164682
0.16799
0.168785
0.168828
0.168559
0.168303
0.167533
0.16657
0.164616
0.162546
0.160188
0.159101
0.158529
0.158336
0.158222
0.158372
0.158937
0.160351
0.161576
0.163159
0.16436
0.165915
0.167684
0.169956
0.172693
0.175387
0.178588
0.181891
0.186161
0.190277
0.195109
0.199363
0.204898
0.210381
0.217165
0.223519
0.231596
0.239706
0.249453
0.259035
0.270013
0.281107
0.292863
0.305072
0.317382
0.330084
0.342227
0.354861
0.365907
0.377099
0.385473
0.393582
0.39757
0.400759
0.401622
0.00229629
0.00228748
0.00228341
0.00227928
0.00227717
0.00227513
0.00227412
0.00227316
0.00227263
0.00227235
0.00227206
0.00227194
0.00227166
0.00227157
0.00227153
0.00227137
0.00227124
0.00227123
0.00227108
0.00227101
0.00227099
0.0022709
0.0022709
0.00227087
0.00227078
0.00227078
0.00227077
0.0022707
0.00227069
0.00227069
0.00227066
0.00227064
0.0022706
0.00227068
0.0022714
0.00227292
0.00227391
0.00227408
0.00227405
0.00227404
0.002274
0.00227397
0.00227396
0.00227393
0.00227394
0.00227388
0.00227387
0.00227379
0.00227378
0.00227408
0.00227451
0.00227468
0.00227477
0.0022749
0.0022751
0.00227524
0.00227535
0.00227539
0.0022754
0.00227541
0.00227535
0.0022754
0.0022754
0.00227531
0.00227531
0.00227527
0.00227514
0.00227514
0.00227512
0.00227508
0.00227507
0.00227517
0.00227541
0.00227546
0.00227547
0.0022754
0.00227543
0.00227543
0.00227541
0.0022756
0.00227618
0.0022772
0.00227869
0.00228063
0.00228312
0.00228665
0.00229179
0.00229938
0.00230998
0.00232495
0.00234552
0.00237578
0.00242143
0.00249701
0.00262586
0.0028664
0.00330743
0.00414844
0.00561511
0.008179
0.0120587
0.0179183
0.0253876
0.0350808
0.0452565
0.0569362
0.0667204
0.0772835
0.0827904
0.0825946
0.0798544
0.0716218
0.0634837
0.0513872
0.0436439
0.034032
0.0300777
0.0256747
0.0241031
0.0227747
0.022787
0.0230496
0.0248367
0.0281148
0.0354097
0.045897
0.0591379
0.0771851
0.0990451
0.118002
0.122192
0.120315
0.111618
0.104223
0.103802
0.108693
0.124496
0.146731
0.169854
0.181334
0.185371
0.186558
0.186667
0.186673
0.185591
0.183948
0.180548
0.177448
0.173409
0.171282
0.169752
0.169244
0.168672
0.168582
0.168463
0.169072
0.169922
0.171582
0.172857
0.174748
0.176727
0.17885
0.18168
0.184518
0.18832
0.191504
0.195468
0.198868
0.203996
0.208555
0.214646
0.220209
0.227948
0.235165
0.244536
0.253379
0.264542
0.275054
0.287488
0.299888
0.313282
0.327069
0.341416
0.356288
0.370677
0.385955
0.399457
0.413529
0.424028
0.434628
0.439673
0.443716
0.4448
0.00230425
0.00229224
0.00228744
0.0022828
0.00228049
0.00227818
0.00227701
0.0022759
0.00227529
0.00227492
0.00227454
0.00227437
0.0022741
0.00227401
0.00227387
0.00227384
0.00227374
0.00227367
0.00227357
0.00227357
0.00227351
0.00227336
0.00227336
0.00227327
0.00227319
0.00227317
0.00227311
0.0022731
0.00227308
0.00227307
0.00227344
0.00227409
0.0022745
0.0022747
0.00227481
0.00227483
0.0022748
0.00227473
0.00227471
0.00227457
0.00227451
0.00227445
0.00227432
0.00227432
0.00227429
0.00227415
0.00227415
0.0022741
0.00227397
0.00227397
0.00227394
0.00227379
0.00227379
0.00227373
0.00227359
0.00227359
0.0022735
0.00227345
0.00227343
0.00227337
0.00227337
0.00227332
0.00227332
0.00227368
0.00227418
0.00227432
0.00227435
0.00227435
0.00227424
0.00227424
0.00227421
0.00227404
0.00227404
0.00227397
0.00227384
0.00227384
0.00227379
0.00227371
0.00227374
0.00227371