/*--------------------------------*- C++ -*----------------------------------*\
| =========                 |                                                 |
| \\      /  F ield         | OpenFOAM: The Open Source CFD Toolbox           |
|  \\    /   O peration     | Version:  4.1                                   |
|   \\  /    A nd           | Web:      www.OpenFOAM.org                      |
|    \\/     M anipulation  |                                                 |
\*---------------------------------------------------------------------------*/
FoamFile
{
    version     2.0;
    format      ascii;
    class       volScalarField;
    location    "4.5";
    object      k;
}
// * * * * * * * * * * * * * * * * * * * * * * * * * * * * * * * * * * * * * //

dimensions      [0 2 -2 0 0 0 0];

internalField   nonuniform List<scalar> 
204246
(
0.85797
0.945838
0.947281
0.945065
0.946229
0.94366
0.944146
0.941503
0.942199
0.940584
0.941946
0.940798
0.94248
0.941404
0.944307
0.943212
0.946962
0.945959
0.946155
0.948302
0.946337
0.948014
0.945671
0.946648
0.944047
0.944602
0.941473
0.942031
0.94002
0.942204
0.940721
0.94324
0.941961
0.945086
0.944081
0.947051
0.94636
0.946348
0.947975
0.945771
0.946832
0.944413
0.945008
0.941873
0.942373
0.940138
0.94224
0.94072
0.943255
0.942004
0.944225
0.943556
0.94648
0.945825
0.945919
0.947599
0.945375
0.946391
0.943982
0.944697
0.943077
0.944517
0.943295
0.945788
0.944511
0.947313
0.946205
0.948479
0.947866
0.950757
0.950281
0.951679
0.954505
0.954277
0.957736
0.957667
0.96159
0.961854
0.966678
0.967643
0.974654
0.976392
0.984821
0.988363
0.99898
1.00693
1.02247
1.03962
1.06832
1.11012
1.18092
1.29292
1.47058
1.71902
1.95656
2.0333
2.04789
2.04527
2.01825
1.98418
1.96381
1.94197
1.90707
1.87204
1.84909
1.8221
1.78908
1.75858
1.74107
1.71605
1.69412
1.66834
1.66098
1.6456
1.64496
1.64118
1.64538
1.64553
1.65549
1.66057
1.68012
1.69259
1.72419
1.74446
1.78466
1.82301
1.86961
1.92582
1.97894
2.05177
2.11
2.19523
2.25757
2.34926
2.4135
2.5067
2.57011
2.66075
2.7209
2.80698
2.86384
2.94414
3.0003
3.07556
3.13175
3.20339
3.26029
3.32915
3.38669
3.45227
3.50836
3.5692
3.62188
3.67638
3.72407
3.77225
3.81512
3.85795
3.89552
3.9322
3.96577
3.99685
4.0295
4.05766
4.09131
4.1172
4.15218
4.17603
4.21218
4.23387
4.27263
4.29335
4.33454
4.35506
4.39985
4.42037
4.46942
4.49449
4.53948
4.57399
4.61723
4.66182
4.70629
4.76204
4.81146
4.87943
4.93817
5.01921
5.09146
5.17752
5.2495
5.29467
5.31251
0.139844
0.228225
0.2199
0.21546
0.216865
0.212345
0.213613
0.2112
0.21322
0.211739
0.214467
0.213265
0.216536
0.214872
0.219408
0.217758
0.222666
0.22081
0.220176
0.222182
0.218652
0.220697
0.216331
0.217672
0.213668
0.214657
0.210999
0.212347
0.209849
0.213003
0.21088
0.214787
0.21295
0.217802
0.216267
0.221209
0.220452
0.219585
0.22146
0.217515
0.218928
0.214886
0.215804
0.211715
0.21289
0.210052
0.213154
0.21104
0.214893
0.213047
0.217295
0.216569
0.221482
0.220887
0.220277
0.222298
0.21877
0.220385
0.217109
0.218375
0.215975
0.218087
0.216007
0.219414
0.217344
0.221371
0.219521
0.223811
0.223032
0.228397
0.228104
0.229214
0.233649
0.232901
0.237962
0.237322
0.24339
0.243212
0.251069
0.251022
0.263818
0.26617
0.289302
0.29736
0.333789
0.352631
0.410332
0.457231
0.556637
0.695388
0.918336
1.25866
1.63603
1.76695
1.77488
1.62562
1.25944
0.884108
0.735894
0.680659
0.635627
0.602212
0.553238
0.541172
0.520943
0.516463
0.496871
0.490884
0.491775
0.485397
0.488
0.484448
0.491174
0.488991
0.498495
0.497504
0.51177
0.514453
0.539939
0.548443
0.588705
0.6052
0.661505
0.689859
0.754518
0.80833
0.879401
0.963006
1.04575
1.15896
1.25444
1.39522
1.50071
1.65938
1.76938
1.92955
2.03279
2.18003
2.27097
2.40246
2.48282
2.5941
2.67193
2.77366
2.84805
2.94639
3.01954
3.11758
3.19104
3.28867
3.35851
3.45312
3.51537
3.60172
3.65096
3.72875
3.76988
3.84374
3.87866
3.94889
3.98621
4.04353
4.10027
4.15522
4.23489
4.28478
4.37433
4.42185
4.51201
4.55992
4.65227
4.70558
4.79279
4.84914
4.94371
4.99928
5.0942
5.13902
5.24384
5.28672
5.38845
5.42909
5.52815
5.56645
5.66386
5.70021
5.80511
5.84684
6.02434
6.18156
6.59275
6.85495
6.96479
0.0133333
0.0289638
0.0260189
0.0245144
0.0246166
0.0235572
0.0239075
0.0235793
0.0240667
0.0238552
0.0245514
0.0244311
0.0253531
0.0251616
0.0262044
0.0259266
0.0266592
0.0261493
0.0259631
0.026096
0.0252595
0.025566
0.0245635
0.0247296
0.0237511
0.0238563
0.0232692
0.0236695
0.0233699
0.0241044
0.0238295
0.0248629
0.0246637
0.0258083
0.025571
0.0263373
0.0260232
0.0257449
0.0258375
0.0248667
0.025036
0.0240171
0.0241013
0.0234026
0.023768
0.02345
0.0241853
0.023921
0.0249635
0.0247546
0.0257741
0.0256734
0.0263927
0.0260558
0.0257675
0.0258691
0.0249195
0.0251159
0.0244874
0.0248765
0.024599
0.0251773
0.0248827
0.0257218
0.0254113
0.0263736
0.0260852
0.0270249
0.0268979
0.0279001
0.0277867
0.0280783
0.0289667
0.0288454
0.0300485
0.0299887
0.0316357
0.0318186
0.0347637
0.0356311
0.0413523
0.0440991
0.0542985
0.061687
0.080672
0.100475
0.14043
0.194225
0.29179
0.449664
0.713585
1.1296
1.51163
1.59817
1.51404
1.1383
0.622916
0.402299
0.320259
0.288967
0.269347
0.252065
0.226408
0.217235
0.210766
0.207872
0.20135
0.199456
0.199873
0.199224
0.201829
0.201919
0.207982
0.209461
0.219816
0.223437
0.238488
0.245226
0.266275
0.278017
0.307828
0.326666
0.36793
0.39646
0.448038
0.496074
0.558724
0.62916
0.706484
0.802594
0.896788
1.02043
1.13192
1.27957
1.40343
1.56587
1.69171
1.85443
1.97168
2.12322
2.22572
2.35297
2.44744
2.55406
2.64519
2.73834
2.82657
2.91009
2.99552
3.07018
3.15053
3.21541
3.28648
3.33353
3.3696
3.37994
3.38805
3.38526
3.36993
3.3451
3.27791
3.22321
3.12848
3.07558
3.00391
2.98191
2.93215
2.91784
2.86502
2.8494
2.78919
2.77172
2.70793
2.69015
2.62816
2.61211
2.5461
2.5152
2.48777
2.43512
2.42432
2.36506
2.35534
2.2978
2.29011
2.23972
2.23716
2.20437
2.21153
2.19506
2.20258
2.06969
2.01601
0.00982637
0.0102784
0.00999081
0.00985265
0.00984552
0.00975728
0.00978301
0.00975855
0.00979214
0.00977934
0.0098248
0.0098191
0.00988603
0.00987333
0.00995218
0.00992959
0.00998058
0.00993804
0.00992274
0.00992926
0.00986676
0.00988909
0.00981945
0.00983239
0.00976684
0.00977381
0.00973246
0.00975693
0.00973682
0.00978443
0.00976941
0.00983716
0.00982918
0.00992133
0.00990547
0.00996133
0.00993343
0.00990923
0.0099138
0.0098426
0.00985552
0.0097852
0.00979096
0.00974207
0.00976488
0.00974341
0.00979142
0.00977677
0.0098475
0.00984144
0.00993064
0.00992555
0.00997626
0.00994579
0.00991906
0.00992369
0.00984923
0.00986229
0.00981298
0.00983874
0.00981945
0.00985989
0.00984092
0.00990337
0.00988413
0.00996455
0.00994439
0.0100271
0.010019
0.0101068
0.0100976
0.0101215
0.0102052
0.0101957
0.0103212
0.0103238
0.0105509
0.0106215
0.0110733
0.0113473
0.0123565
0.0132671
0.0156723
0.0187149
0.0253525
0.0359745
0.0572063
0.095048
0.166566
0.296073
0.520484
0.886244
1.27006
1.37023
1.33021
1.03693
0.534901
0.248955
0.159238
0.12533
0.108874
0.10012
0.0887345
0.0793067
0.0727092
0.0706101
0.068998
0.0685916
0.0689776
0.0690166
0.0701788
0.0703377
0.072413
0.0728969
0.075921
0.0770446
0.0814353
0.0839753
0.0903089
0.0948919
0.104615
0.1129
0.128334
0.143025
0.166313
0.192244
0.226274
0.267737
0.317222
0.378625
0.447766
0.532868
0.624184
0.73351
0.844591
0.973031
1.09505
1.23162
1.35177
1.48391
1.59001
1.69962
1.79347
1.87521
1.95782
2.01839
2.09275
2.13869
2.20814
2.24383
2.30175
2.32256
2.35844
2.36541
2.37398
2.3653
2.3605
2.31892
2.27104
2.21428
2.121
2.04687
1.92628
1.8484
1.72768
1.67701
1.59609
1.56429
1.49435
1.46744
1.40246
1.37781
1.31792
1.29592
1.24301
1.22411
1.17647
1.15452
1.1219
1.09503
1.07276
1.04264
1.02709
0.994976
0.983828
0.959857
0.954773
0.949371
0.962032
0.982085
1.01404
1.02445
1.03216
0.00947619
0.00950726
0.00947424
0.00946333
0.00945983
0.00945496
0.00945439
0.00945245
0.00945278
0.00945229
0.00945317
0.00945299
0.0094545
0.00945431
0.0094575
0.00945843
0.00946163
0.00946089
0.00946084
0.00946148
0.00945989
0.00946054
0.00945881
0.0094591
0.00945733
0.00945734
0.00945574
0.0094558
0.00945502
0.00945583
0.00945543
0.00945654
0.00945622
0.00945861
0.00945856
0.0094603
0.00945946
0.00945845
0.00945846
0.00945583
0.00945587
0.00945365
0.00945362
0.00945166
0.00945166
0.00945054
0.00945131
0.00945083
0.00945193
0.0094516
0.00945412
0.00945492
0.00945651
0.00945555
0.00945479
0.00945538
0.00945423
0.00945522
0.00945469
0.0094558
0.00945552
0.00945784
0.00945847
0.00946362
0.00946423
0.009467
0.00946637
0.00946859
0.00946814
0.00947066
0.00947017
0.0094709
0.00947401
0.00947365
0.00948008
0.00948196
0.00949761
0.00951153
0.00955702
0.00961899
0.00977484
0.0100364
0.0106323
0.0117719
0.0142761
0.0194021
0.0304074
0.0531522
0.0995337
0.190964
0.360027
0.649559
1.03712
1.17865
1.1737
0.992761
0.600928
0.239172
0.110724
0.0671475
0.0524292
0.0468999
0.0440221
0.0427045
0.0411757
0.0404644
0.0395823
0.0393166
0.0393574
0.0394568
0.0403889
0.0413005
0.042938
0.0436082
0.0457158
0.0470102
0.0502504
0.0529133
0.0581812
0.0630984
0.071433
0.0800907
0.0935028
0.108097
0.128565
0.152576
0.182638
0.219161
0.261757
0.313192
0.369903
0.436844
0.506744
0.587258
0.66707
0.756397
0.839513
0.929719
1.00761
1.09074
1.15628
1.22219
1.27723
1.32216
1.36651
1.39429
1.42736
1.43871
1.45625
1.45922
1.46473
1.46054
1.45942
1.43834
1.42206
1.38213
1.35994
1.30895
1.27297
1.2249
1.17126
1.12991
1.06834
1.03826
0.98442
0.963146
0.924766
0.910668
0.882241
0.871994
0.849148
0.841111
0.82233
0.816074
0.80139
0.796953
0.785474
0.780623
0.776224
0.771347
0.770556
0.766307
0.766141
0.761751
0.761359
0.757239
0.75717
0.756485
0.76498
0.770883
0.784435
0.789285
0.79335
0.00947347
0.00945663
0.00944716
0.00944067
0.00943805
0.00943614
0.0094356
0.00943529
0.00943511
0.00943519
0.00943669
0.0094407
0.00944712
0.00945086
0.00945155
0.00945162
0.00945167
0.00945166
0.00945125
0.00945116
0.00945114
0.00945114
0.00945092
0.00945059
0.00945054
0.0094504
0.00945008
0.00945008
0.00944998
0.00944969
0.00944968
0.00944962
0.00944935
0.00944946
0.00944942
0.00944918
0.00944924
0.00944923
0.00944893
0.00944893
0.00944891
0.00944856
0.0094486
0.00944856
0.00944819
0.0094482
0.00944818
0.00944778
0.00944778
0.00944769
0.00944736
0.00944736
0.00944716
0.00944691
0.00944692
0.00944678
0.00944647
0.00944647
0.00944641
0.00944609
0.00944613
0.00944611
0.0094459
0.00944605
0.00944606
0.00944576
0.00944576
0.00944571
0.00944555
0.00944567
0.00944565
0.00944565
0.00944566
0.00944563
0.00944655
0.00944907
0.00945482
0.00946434
0.00948086
0.00950833
0.00955978
0.00965754
0.00986931
0.0103303
0.0113942
0.0138076
0.0193433
0.0317198
0.0586369
0.115387
0.227938
0.437918
0.783591
1.0587
1.10083
1.00945
0.719502
0.330289
0.132753
0.0662718
0.0408211
0.0307737
0.0266347
0.0248076
0.0238181
0.0233757
0.0231392
0.02313
0.0235636
0.0244864
0.0258647
0.0269175
0.0280105
0.0287196
0.0300227
0.0309595
0.0325054
0.0335975
0.0357384
0.0381031
0.042163
0.0469892
0.0542989
0.0634522
0.0763034
0.0924962
0.113304
0.139208
0.170707
0.209008
0.253677
0.306072
0.364455
0.429804
0.498279
0.571029
0.641954
0.71352
0.777252
0.838385
0.886318
0.927993
0.959671
0.979771
0.992837
0.996773
1.00055
0.99944
0.999785
0.992137
0.985251
0.966189
0.953782
0.928648
0.913983
0.883895
0.868353
0.836153
0.819298
0.794877
0.773917
0.756604
0.733464
0.723179
0.702926
0.694976
0.679981
0.674201
0.662764
0.658501
0.649915
0.646856
0.640603
0.638585
0.63452
0.633494
0.631673
0.631219
0.631757
0.632699
0.635575
0.637441
0.642307
0.645151
0.651977
0.656194
0.664927
0.670148
0.680765
0.686711
0.694815
0.697839
0.699858
0.00949
0.00947573
0.00946226
0.00945616
0.00945214
0.00945002
0.00944911
0.00944833
0.00944833
0.00944976
0.00945224
0.00945278
0.0094528
0.00945264
0.00945266
0.0094526
0.00945235
0.00945222
0.00945213
0.00945196
0.00945193
0.0094519
0.00945147
0.00945148
0.00945133
0.00945111
0.00945112
0.00945108
0.0094506
0.0094506
0.00945028
0.00945014
0.00945012
0.00944991
0.00944965
0.0094496
0.00944935
0.00944932
0.00944928
0.00944891
0.00944892
0.00944863
0.0094485
0.0094485
0.00944838
0.00944814
0.00944815
0.00944807
0.00944799
0.00944846
0.00945028
0.00945166
0.0094518
0.0094518
0.00945179
0.00945147
0.00945147
0.00945137
0.00945112
0.00945112
0.00945071
0.00945059
0.00945058
0.00945024
0.00945003
0.00945004
0.00944976
0.00944953
0.00944954
0.00944932
0.0094492
0.00944918
0.00944901
0.00944897
0.00944881
0.00944899
0.00945028
0.00945338
0.00945925
0.00947027
0.00949051
0.00952981
0.00961386
0.00980064
0.0102407
0.0112752
0.0137417
0.0195112
0.0326754
0.0619777
0.123731
0.247573
0.471654
0.818272
1.01373
1.02689
0.896438
0.596722
0.251775
0.107172
0.0571227
0.0367339
0.0279201
0.0235193
0.021519
0.0206468
0.0204846
0.0204812
0.0208229
0.0217834
0.0224317
0.0226471
0.0225966
0.0229848
0.0236377
0.024914
0.0262345
0.0281285
0.0302204
0.0330343
0.0368164
0.0422376
0.0497999
0.059835
0.0728089
0.0893623
0.109944
0.13577
0.16658
0.203555
0.245697
0.294
0.346424
0.403408
0.461591
0.520887
0.577002
0.630343
0.676467
0.717061
0.748326
0.770032
0.77961
0.782406
0.784076
0.783107
0.782331
0.776211
0.770272
0.757885
0.748412
0.732406
0.721517
0.703966
0.693781
0.676643
0.668378
0.653256
0.646018
0.634965
0.627173
0.619841
0.612165
0.608322
0.60149
0.598891
0.593822
0.59205
0.5887
0.587666
0.585764
0.585368
0.584793
0.585018
0.585249
0.586773
0.587336
0.589757
0.591866
0.594659
0.597877
0.601039
0.605442
0.609124
0.614963
0.619622
0.626792
0.632252
0.640551
0.646023
0.65201
0.654513
0.655956
0.00947896
0.00946804
0.00945482
0.00944958
0.00944538
0.00944312
0.00944186
0.00944088
0.00944048
0.00943999
0.00943977
0.00943968
0.00943961
0.00943922
0.00943909
0.00943902
0.00943855
0.00943823
0.00943816
0.00943796
0.00943761
0.00943753
0.00943738
0.00943736
0.00943719
0.00943693
0.00943692
0.00943681
0.00943646
0.00943646
0.0094363
0.00943607
0.00943606
0.00943591
0.00943561
0.00943561
0.00943532
0.00943514
0.00943517
0.00943516
0.00943506
0.00943514
0.00943655
0.00943973
0.00944207
0.00944253
0.00944263
0.00944262
0.00944265
0.00944264
0.00944247
0.00944225
0.00944222
0.00944212
0.00944213
0.00944213
0.00944188
0.00944187
0.00944167
0.00944161
0.00944164
0.00944164
0.00944157
0.00944153
0.00944235
0.0094442
0.00944659
0.00944833
0.00944966
0.00945123
0.00945427
0.00945667
0.00945717
0.00945719
0.00945711
0.00945728
0.00945832
0.009461
0.00946565
0.00947417
0.00948768
0.00951146
0.00955518
0.00964372
0.0098374
0.0102825
0.0113406
0.013857
0.0197483
0.0333267
0.0631859
0.126465
0.250164
0.471662
0.794708
0.963573
0.968753
0.862453
0.616909
0.314651
0.144733
0.0840213
0.0642572
0.0587698
0.0584691
0.0589122
0.0621262
0.0653706
0.0659222
0.0661775
0.0606222
0.0501423
0.0335512
0.0270642
0.0231975
0.022097
0.0217139
0.021771
0.0224327
0.0243158
0.0272564
0.0314426
0.0369166
0.044388
0.0543466
0.0677273
0.0847913
0.106724
0.133462
0.166692
0.205466
0.251159
0.301188
0.356133
0.411914
0.468436
0.521096
0.570189
0.61142
0.64579
0.662114
0.668154
0.670571
0.670665
0.670701
0.668269
0.664872
0.657452
0.650201
0.639346
0.630849
0.619256
0.611261
0.600154
0.593489
0.583726
0.578973
0.570356
0.566131
0.559482
0.555172
0.550892
0.546795
0.544734
0.541366
0.540154
0.538271
0.537718
0.537099
0.537216
0.537715
0.539236
0.540221
0.543379
0.545553
0.549982
0.553045
0.558364
0.562654
0.568532
0.573749
0.579531
0.585593
0.591263
0.597638
0.603435
0.610266
0.616011
0.622764
0.627731
0.632441
0.634608
0.635753
0.00949426
0.00947709
0.00946402
0.00945798
0.00945254
0.00945016
0.00944868
0.00944802
0.00944784
0.00944755
0.00944753
0.00944742
0.00944704
0.00944679
0.00944673
0.00944639
0.00944619
0.00944613
0.00944588
0.00944577
0.00944565
0.00944533
0.00944533
0.0094451
0.00944489
0.00944489
0.00944476
0.00944448
0.00944449
0.00944407
0.00944399
0.00944399
0.00944395
0.00944345
0.00944347
0.00944335
0.00944303
0.00944303
0.00944274
0.00944261
0.00944259
0.00944245
0.0094422
0.00944208
0.00944175
0.00944175
0.00944166
0.00944146
0.00944134
0.00944136
0.0094413
0.00944119
0.00944141
0.00944307
0.00944704
0.00945328
0.00945632
0.00945675
0.00945673
0.00945665
0.0094565
0.00945624
0.00945651
0.0094578
0.00945891
0.00945932
0.00945972
0.00946053
0.00946187
0.00946273
0.00946308
0.00946331
0.00946361
0.00946371
0.00946376
0.00946372
0.00946365
0.00946404
0.00946541
0.0094689
0.0094757
0.00948753
0.00950903
0.00954944
0.00963188
0.00981002
0.0102224
0.0111958
0.0135021
0.0189538
0.0313687
0.058951
0.116287
0.228883
0.424835
0.72141
0.90482
0.926971
0.876732
0.730416
0.51327
0.29896
0.204728
0.183585
0.187248
0.208749
0.259125
0.331343
0.384283
0.400798
0.39746
0.360221
0.250219
0.131249
0.0649827
0.0404661
0.0288002
0.0252995
0.0243754
0.0245152
0.0260953
0.0302007
0.0365772
0.0452773
0.0562209
0.070499
0.0888832
0.112563
0.141816
0.17683
0.217584
0.263376
0.313914
0.366835
0.421007
0.472722
0.521064
0.562669
0.596877
0.612086
0.617314
0.618805
0.619251
0.618622
0.617268
0.613096
0.607935
0.600074
0.592758
0.583649
0.576224
0.567446
0.560844
0.553007
0.547788
0.541492
0.538142
0.533154
0.530367
0.526563
0.524331
0.522403
0.520294
0.519328
0.517861
0.517339
0.516644
0.516549
0.516562
0.51777
0.518761
0.521143
0.522802
0.526518
0.529691
0.534653
0.539036
0.545015
0.55028
0.556978
0.563145
0.569975
0.576816
0.583673
0.590584
0.597339
0.604123
0.610419
0.616425
0.621258
0.625258
0.62723
0.62817
0.00948396
0.0094709
0.00945815
0.00945338
0.00944974
0.00944813
0.00944694
0.00944624
0.00944583
0.00944562
0.00944541
0.0094451
0.0094451
0.00944501
0.0094447
0.00944469
0.00944447
0.00944425
0.00944424
0.00944417
0.00944407
0.00944401
0.00944391
0.00944426
0.00944617
0.00944965
0.00945092
0.00945096
0.00945096
0.00945096
0.00945063
0.00945062
0.00945052
0.00945023
0.00945023
0.00945011
0.00944981
0.00944983
0.00944978
0.00944951
0.00944951
0.00944934
0.00944904
0.009449
0.00944873
0.00944863
0.00944847
0.00944822
0.00944811
0.00944796
0.00944774
0.00944763
0.00944735
0.00944729
0.00944705
0.00944682
0.00944675
0.00944673
0.00944661
0.00944657
0.00944657
0.00944654
0.00944627
0.00944627
0.00944611
0.0094461
0.00944581
0.00944583
0.00944651
0.00944758
0.00944792
0.00944816
0.00944887
0.00944971
0.00945123
0.00945281
0.00945563
0.0094586
0.00946267
0.00946713
0.00947406
0.00948332
0.00949874
0.00952322
0.00956652
0.00964699
0.00981469
0.0101865
0.0110468
0.0130772
0.0177693
0.0284834
0.0516637
0.0999013
0.191372
0.35216
0.590881
0.824981
0.890393
0.894621
0.858836
0.777673
0.665901
0.607036
0.604819
0.632783
0.715627
0.839611
0.985134
1.06262
1.07676
1.07031
0.991389
0.821532
0.553416
0.260952
0.102233
0.0526908
0.0346524
0.0293623
0.0278845
0.0278853
0.0292258
0.0339031
0.0422211
0.0547827
0.0711773
0.0923326
0.118444
0.151249
0.190046
0.236085
0.28658
0.341344
0.396441
0.451175
0.501495
0.5464
0.570887
0.579311
0.581726
0.582133
0.582066
0.580709
0.578146
0.573153
0.567124
0.559479
0.552473
0.544742
0.538312
0.531252
0.525859
0.520045
0.516009
0.511402
0.508515
0.505023
0.503309
0.501183
0.499611
0.498538
0.497722
0.497457
0.497303
0.497777
0.498514
0.499889
0.501579
0.503608
0.506244
0.509769
0.513073
0.517813
0.522125
0.527688
0.533019
0.539417
0.545499
0.552593
0.55933
0.566814
0.574044
0.581608
0.588861
0.59618
0.60308
0.609711
0.615554
0.620372
0.624079
0.626044
0.626893
0.00950634
0.00948474
0.00947437
0.00946543
0.00946102
0.00945714
0.00945434
0.0094531
0.00945194
0.00945138
0.00945075
0.0094502
0.00945005
0.00945002
0.00944963
0.00944942
0.0094494
0.00944915
0.00944902
0.00944893
0.00944865
0.00944844
0.00944832
0.00944801
0.00944802
0.00944781
0.00944764
0.00944761
0.00944734
0.0094471
0.00944711
0.00944711
0.00944702
0.009447
0.0094469
0.00944695
0.00944794
0.00944967
0.00945024
0.00945038
0.00945034
0.00945033
0.00945017
0.00944989
0.00944985
0.00944956
0.00944935
0.00944922
0.00944888
0.00944886
0.00944873
0.00944843
0.00944844
0.00944845
0.00944812
0.00944812
0.0094481
0.00944774
0.00944774
0.00944757
0.0094473
0.0094473
0.00944706
0.00944687
0.00944693
0.00944692
0.00944679
0.00944679
0.00944673
0.00944669
0.00944735
0.00944935
0.00945295
0.0094576
0.00946137
0.00946295
0.00946374
0.00946474
0.00946656
0.00947014
0.00947557
0.00948365
0.00949495
0.00951132
0.00953556
0.0095747
0.00964529
0.00978668
0.0100907
0.0107852
0.012372
0.0160376
0.0241695
0.0418155
0.077281
0.145223
0.259778
0.438416
0.652751
0.816383
0.883727
0.922549
0.947695
0.978482
1.02512
1.09311
1.18105
1.2837
1.34191
1.35575
1.34975
1.30969
1.21181
1.07044
0.888247
0.690694
0.472894
0.260282
0.121361
0.0739058
0.0527809
0.0446008
0.041481
0.0414074
0.044376
0.0536857
0.0701889
0.0927237
0.120894
0.154275
0.194089
0.24014
0.292715
0.348973
0.40712
0.462505
0.513681
0.549837
0.563371
0.56771
0.568714
0.568745
0.56813
0.565861
0.562118
0.556051
0.548784
0.540576
0.533201
0.525987
0.51974
0.51331
0.507893
0.503151
0.499938
0.497036
0.494772
0.492542
0.491334
0.490579
0.489928
0.489673
0.489534
0.489621
0.489998
0.49041
0.491296
0.493172
0.495003
0.497871
0.501089
0.505243
0.509742
0.515548
0.521113
0.527889
0.534926
0.542503
0.550061
0.558279
0.566257
0.574858
0.583289
0.591809
0.600216
0.608378
0.615787
0.623087
0.62893
0.634069
0.637453
0.639635
0.640434
0.00950249
0.00948124
0.00947127
0.00946191
0.00945746
0.00945338
0.0094509
0.00944983
0.00944865
0.00944816
0.00944779
0.00944771
0.00944757
0.00944769
0.00944905
0.00945238
0.00945477
0.00945513
0.00945511
0.00945504
0.00945493
0.00945481
0.00945458
0.00945437
0.00945423
0.00945393
0.00945385
0.00945364
0.00945344
0.00945339
0.00945315
0.00945304
0.00945304
0.00945284
0.00945285
0.00945278
0.00945244
0.00945244
0.00945239
0.00945208
0.00945208
0.00945183
0.0094516
0.00945156
0.00945121
0.00945108
0.00945097
0.00945067
0.00945064
0.00945055
0.00945026
0.00945027
0.00945021
0.0094499
0.00944996
0.00944991
0.00944961
0.00944962
0.00944953
0.00944917
0.00944916
0.00944882
0.00944875
0.00944875
0.00944863
0.00944862
0.00944856
0.00944828
0.00944828
0.00944819
0.00944808
0.00944802
0.00944792
0.00944832
0.00945007
0.00945319
0.00945685
0.00945867
0.00945969
0.00946114
0.00946417
0.00946934
0.00947815
0.0094912
0.00951074
0.00953887
0.00958197
0.0096513
0.00977707
0.0100277
0.0105586
0.0117407
0.0143434
0.0200789
0.0319898
0.05606
0.0997945
0.175263
0.287322
0.447383
0.6266
0.785273
0.884862
0.967795
1.0426
1.13823
1.23994
1.36212
1.43485
1.4483
1.43318
1.37658
1.27525
1.13966
0.990657
0.842483
0.711179
0.592474
0.489386
0.382257
0.264501
0.135462
0.0805782
0.0637863
0.058906
0.0581005
0.0614063
0.0731136
0.0953872
0.127583
0.167946
0.215243
0.26714
0.323706
0.38263
0.443761
0.502912
0.541783
0.554619
0.558377
0.559096
0.558951
0.557826
0.55519
0.550795
0.544543
0.536679
0.528147
0.519972
0.512926
0.506856
0.501642
0.496995
0.493187
0.490015
0.48817
0.486992
0.486194
0.48546
0.485125
0.484871
0.484717
0.48449
0.484439
0.484792
0.485995
0.487581
0.489773
0.492974
0.496517
0.500709
0.505649
0.511569
0.517665
0.524366
0.531263
0.53888
0.546689
0.555197
0.56376
0.572654
0.582046
0.591338
0.600864
0.610228
0.619647
0.627786
0.635926
0.6422
0.647906
0.651118
0.653496
0.654269
0.00951152
0.00948791
0.0094776
0.00946799
0.0094632
0.00945844
0.00945603
0.0094543
0.00945274
0.00945201
0.00945123
0.00945099
0.00945086
0.00945045
0.0094502
0.0094501
0.00945008
0.00945003
0.00944999
0.00944991
0.00945
0.00945118
0.00945225
0.00945241
0.00945238
0.00945236
0.00945229
0.00945229
0.00945205
0.00945185
0.00945184
0.00945176
0.00945146
0.00945147
0.00945133
0.00945104
0.00945103
0.0094508
0.0094506
0.00945052
0.00945025
0.00945021
0.00945003
0.00944979
0.00944978
0.00944963
0.00944944
0.0094494
0.00944936
0.00944931
0.00944923
0.00944985
0.00945213
0.00945495
0.00945559
0.00945567
0.00945561
0.00945536
0.00945535
0.00945503
0.00945492
0.00945488
0.00945448
0.00945435
0.00945432
0.00945408
0.0094541
0.00945393
0.00945394
0.00945477
0.00945633
0.00945696
0.00945711
0.00945716
0.00945717
0.0094571
0.00945707
0.00945782
0.00945954
0.00946195
0.00946503
0.00946881
0.00947351
0.00948077
0.00949189
0.00950881
0.00953416
0.00957324
0.0096357
0.00974403
0.00993963
0.0103286
0.0111234
0.0128249
0.0163531
0.0236766
0.0375926
0.0632761
0.104884
0.16987
0.256347
0.37133
0.504547
0.649492
0.775587
0.905204
1.01142
1.13034
1.2014
1.21143
1.19174
1.12105
1.01848
0.87597
0.746979
0.611177
0.520975
0.429414
0.377042
0.306147
0.258117
0.193766
0.168878
0.152829
0.140846
0.120772
0.107763
0.104438
0.105721
0.117811
0.148627
0.194642
0.250944
0.311041
0.374307
0.439349
0.504654
0.548882
0.563662
0.567926
0.568891
0.568812
0.567231
0.563749
0.557989
0.550821
0.541598
0.532431
0.523152
0.515671
0.508668
0.503421
0.498169
0.494926
0.49195
0.490513
0.488664
0.487807
0.486552
0.485773
0.484604
0.483679
0.483343
0.483313
0.484176
0.48635
0.488902
0.492151
0.496457
0.501079
0.506268
0.511847
0.517526
0.523467
0.530574
0.538043
0.546167
0.554989
0.564819
0.575039
0.585665
0.597009
0.608144
0.619594
0.630431
0.64163
0.651208
0.660638
0.66776
0.674297
0.677735
0.680295
0.681077
0.00951117
0.00948812
0.00947694
0.00946603
0.0094606
0.00945565
0.00945275
0.00945107
0.00944978
0.00944919
0.00944843
0.00944795
0.00944773
0.00944759
0.00944735
0.00944713
0.00944704
0.00944653
0.0094464
0.00944638
0.00944617
0.00944619
0.00944607
0.00944606
0.00944585
0.00944584
0.0094457
0.00944581
0.00944685
0.00944971
0.00945159
0.00945217
0.00945228
0.00945239
0.00945238
0.00945235
0.00945219
0.00945213
0.00945214
0.00945205
0.00945198
0.00945249
0.00945373
0.0094541
0.00945405
0.00945407
0.00945406
0.00945378
0.00945378
0.00945358
0.00945333
0.00945332
0.00945291
0.00945275
0.00945272
0.00945256
0.00945244
0.00945244
0.00945239
0.0094523
0.00945243
0.00945359
0.00945493
0.00945536
0.00945552
0.00945576
0.00945581
0.00945584
0.0094558
0.00945566
0.00945561
0.00945529
0.00945513
0.009455
0.00945467
0.00945462
0.00945459
0.00945454
0.00945451
0.00945453
0.00945528
0.00945718
0.00946079
0.0094667
0.00947647
0.00949023
0.00951046
0.00953853
0.00957856
0.00963779
0.00973004
0.00988401
0.0101565
0.010676
0.0116825
0.0137165
0.017598
0.0250025
0.0376084
0.0586461
0.0887743
0.131602
0.183464
0.247273
0.310933
0.381963
0.443742
0.511783
0.557998
0.564223
0.554043
0.512203
0.463975
0.393476
0.341084
0.277005
0.243399
0.207596
0.193277
0.174069
0.165947
0.151822
0.148426
0.147855
0.153499
0.165373
0.171564
0.170805
0.165298
0.160992
0.161197
0.171111
0.204566
0.25958
0.328126
0.401938
0.478847
0.548314
0.576583
0.584447
0.585999
0.58582
0.584039
0.581307
0.57582
0.568624
0.557641
0.546026
0.533468
0.524131
0.516268
0.512035
0.506988
0.503431
0.499547
0.497931
0.495624
0.494542
0.492499
0.491034
0.490185
0.489849
0.489898
0.490705
0.492974
0.495342
0.498615
0.502246
0.50642
0.509284
0.5134
0.518101
0.524013
0.5295
0.537104
0.545473
0.555315
0.565374
0.576956
0.588671
0.60081
0.613391
0.625963
0.638554
0.65061
0.662767
0.673483
0.684014
0.692017
0.699395
0.703088
0.705884
0.706681
0.00950958
0.00948443
0.0094706
0.00946014
0.00945283
0.00944719
0.00944417
0.00944135
0.00943983
0.00943903
0.00943824
0.00943798
0.00943775
0.00943766
0.0094372
0.00943721
0.00943713
0.00943678
0.00943678
0.0094367
0.00943635
0.00943635
0.00943615
0.00943583
0.00943583
0.00943552
0.00943534
0.00943527
0.0094351
0.00943508
0.00943499
0.00943497
0.00943486
0.00943494
0.00943629
0.00943986
0.00944609
0.00945052
0.00945146
0.0094515
0.0094514
0.00945141
0.00945131
0.0094513
0.00945173
0.00945201
0.0094521
0.00945207
0.00945206
0.00945204
0.00945176
0.00945148
0.00945141
0.00945112
0.00945104
0.00945098
0.00945062
0.00945063
0.00945053
0.00945026
0.00945026
0.00945019
0.00944991
0.00944991
0.00944976
0.00944978
0.00944965
0.0094496
0.00945019
0.00945185
0.00945301
0.00945345
0.00945376
0.00945412
0.00945475
0.0094554
0.00945618
0.00945708
0.00945824
0.00945944
0.00946062
0.00946202
0.00946432
0.0094685
0.00947525
0.00948596
0.00950205
0.00952518
0.00955706
0.00960187
0.0096628
0.00975034
0.00987756
0.0100799
0.0104103
0.0109999
0.0120399
0.013966
0.0172568
0.0229257
0.0314177
0.0441351
0.0602605
0.0810464
0.102836
0.127716
0.148709
0.171064
0.187116
0.189325
0.186648
0.173272
0.158901
0.135756
0.120138
0.0992981
0.0902599
0.0801981
0.0767504
0.0723701
0.0713233
0.07068
0.0730105
0.0774065
0.0859912
0.0984608
0.115864
0.141085
0.170172
0.204385
0.237375
0.26723
0.287906
0.303908
0.326554
0.370271
0.437478
0.516706
0.58942
0.620098
0.629964
0.632329
0.63222
0.631118
0.625349
0.616612
0.60168
0.586589
0.568335
0.554816
0.542807
0.537733
0.531455
0.527586
0.520865
0.518109
0.514025
0.512351
0.509545
0.50802
0.507025
0.506521
0.506605
0.507073
0.509173
0.510666
0.512327
0.513588
0.516805
0.519443
0.523661
0.5281
0.535087
0.541938
0.551196
0.560305
0.571625
0.582045
0.594532
0.606721
0.619637
0.632709
0.646441
0.660331
0.673813
0.68798
0.700382
0.713274
0.722843
0.732383
0.736935
0.740447
0.741435
0.00954013
0.0095032
0.00948879
0.00947459
0.00946754
0.00946045
0.00945689
0.00945342
0.00945153
0.00945042
0.00944935
0.00944894
0.00944831
0.00944805
0.00944766
0.00944764
0.00944729
0.00944699
0.00944687
0.00944683
0.00944661
0.00944638
0.00944637
0.00944622
0.00944619
0.00944602
0.00944599
0.00944589
0.00944623
0.0094478
0.00945011
0.00945059
0.00945068
0.00945065
0.0094505
0.0094503
0.00945022
0.00944995
0.00944992
0.00944976
0.00944951
0.00944951
0.00944937
0.00944907
0.00944908
0.00944891
0.00944867
0.00944868
0.00944864
0.00944827
0.00944827
0.00944821
0.00944787
0.00944788
0.00944783
0.00944748
0.00944748
0.00944738
0.00944704
0.00944704
0.00944687
0.00944658
0.00944659
0.00944645
0.00944613
0.00944613
0.00944612
0.00944576
0.00944576
0.00944576
0.00944544
0.00944545
0.00944544
0.00944503
0.00944505
0.00944486
0.00944478
0.00944483
0.00944485
0.00944471
0.00944471
0.00944503
0.00944674
0.00944977
0.00945574
0.00946446
0.00947777
0.0094955
0.00951987
0.00955183
0.00959507
0.00965334
0.00973205
0.00984251
0.00999687
0.0102264
0.0105663
0.0111158
0.0119697
0.0133814
0.0154706
0.0186643
0.0228122
0.0283564
0.034332
0.0413625
0.0472825
0.0535211
0.0582997
0.0591074
0.0586887
0.0553482
0.052052
0.0460889
0.0424039
0.0369863
0.0348857
0.0323749
0.0316421
0.0309984
0.0311215
0.0312265
0.0321499
0.033138
0.0354952
0.0393708
0.0454861