/*--------------------------------*- C++ -*----------------------------------*\
| =========                 |                                                 |
| \\      /  F ield         | OpenFOAM: The Open Source CFD Toolbox           |
|  \\    /   O peration     | Version:  4.1                                   |
|   \\  /    A nd           | Web:      www.OpenFOAM.org                      |
|    \\/     M anipulation  |                                                 |
\*---------------------------------------------------------------------------*/
FoamFile
{
    version     2.0;
    format      ascii;
    class       volScalarField;
    location    "4.5";
    object      p;
}
// * * * * * * * * * * * * * * * * * * * * * * * * * * * * * * * * * * * * * //

dimensions      [0 2 -2 0 0 0 0];

internalField   nonuniform List<scalar> 
204246
(
-20.7155
-32.6645
-33.3947
-33.6385
-33.8402
-33.9513
-34.0496
-34.0847
-34.1056
-34.0895
-34.048
-33.954
-33.8318
-33.6783
-33.628
-33.6884
-33.9899
-34.0989
-33.777
-33.7546
-33.6955
-33.6661
-33.6069
-33.5671
-33.5229
-33.5054
-33.4789
-33.4649
-33.4094
-33.3626
-33.2561
-33.1531
-33.0221
-32.9968
-33.0642
-33.3209
-33.42
-33.1152
-33.1183
-33.0691
-33.0282
-32.9832
-32.9644
-32.9384
-32.9249
-32.8712
-32.8405
-32.7519
-32.6622
-32.525
-32.4836
-32.527
-32.7655
-32.8951
-32.5862
-32.5875
-32.5401
-32.4984
-32.4496
-32.4268
-32.3934
-32.3771
-32.319
-32.2774
-32.1819
-32.0938
-31.9561
-31.8985
-31.9108
-32.0733
-32.1414
-32.0125
-31.9034
-31.7877
-31.6945
-31.5297
-31.537
-31.3282
-31.3537
-31.0371
-31.0396
-30.6887
-30.6743
-30.3924
-30.1885
-30.0282
-29.9498
-29.8262
-29.598
-29.3918
-29.1744
-29.1
-29.259
-30.1041
-32.3424
-38.1884
-48.5169
-58.5327
-63.0586
-67.0598
-70.6877
-72.7953
-74.0566
-74.8568
-75.7097
-76.984
-77.165
-76.2837
-76.1139
-75.3753
-74.6869
-74.0932
-73.6389
-73.2818
-73.0733
-72.8556
-72.6919
-72.4771
-72.2977
-72.1185
-72.1832
-72.6333
-73.767
-74.4479
-73.9418
-74.5187
-74.1666
-74.7755
-74.5009
-75.1149
-74.8058
-75.4233
-75.0991
-75.7296
-75.3792
-76.087
-75.6818
-75.907
-76.116
-77.2646
-78.2438
-77.8555
-78.3169
-78.7414
-79.1719
-79.2707
-80.1538
-80.1002
-80.9634
-80.9006
-81.774
-81.6942
-82.5188
-82.2319
-82.802
-82.4393
-83.7946
-84.3635
-84.0073
-84.2635
-83.7233
-83.4699
-83.0024
-82.4479
-81.5276
-80.4125
-78.8972
-77.2733
-75.2194
-72.6544
-69.7059
-66.6702
-62.2187
-57.6619
-52.3379
-46.554
-39.8343
-31.9819
-23.4515
-13.6926
-2.73201
9.8924
24.2342
40.7656
59.4509
80.5587
103.966
130.246
160.338
199.827
259.801
355.391
483.973
-29.0265
-30.2236
-31.824
-32.9649
-33.6432
-33.9246
-34.08
-34.1109
-34.1603
-34.1312
-34.1348
-34.0527
-33.9548
-33.8163
-33.7392
-33.7505
-33.8639
-33.9413
-33.8861
-33.816
-33.7541
-33.7115
-33.6592
-33.6178
-33.5716
-33.5457
-33.5126
-33.4924
-33.4521
-33.4244
-33.3465
-33.2705
-33.1394
-33.0824
-33.1048
-33.2103
-33.2802
-33.225
-33.1707
-33.1201
-33.0777
-33.0323
-33.0033
-32.9729
-32.9506
-32.9092
-32.8894
-32.8271
-32.7677
-32.639
-32.5783
-32.5872
-32.6784
-32.7504
-32.7008
-32.6414
-32.5888
-32.5486
-32.503
-32.4675
-32.4334
-32.4094
-32.3634
-32.3321
-32.2607
-32.197
-32.0839
-32.016
-32.0186
-32.0496
-32.0591
-32.0346
-31.9726
-31.8986
-31.8104
-31.73
-31.6307
-31.5292
-31.4245
-31.2866
-31.1319
-30.9732
-30.8064
-30.6545
-30.5009
-30.3485
-30.187
-30.0087
-29.8309
-29.6417
-29.4461
-29.2675
-29.2629
-29.8391
-31.4716
-35.5496
-45.3346
-55.809
-62.7374
-66.7273
-70.0464
-72.3
-74.011
-74.9998
-75.9864
-76.7536
-76.98
-76.8292
-76.482
-75.8388
-75.1101
-74.4933
-73.9027
-73.45
-73.1126
-72.8902
-72.7098
-72.5488
-72.3632
-72.2548
-72.2766
-72.6121
-73.1197
-73.5888
-73.8784
-74.0824
-74.2485
-74.4742
-74.645
-74.8187
-74.9881
-75.1432
-75.3194
-75.4803
-75.6788
-75.8695
-75.9791
-75.9728
-76.259
-76.8495
-77.5044
-77.869
-78.1989
-78.6394
-78.9948
-79.4084
-79.8647
-80.2999
-80.7219
-81.155
-81.5875
-82.0722
-82.4449
-82.7823
-83.0237
-83.3792
-83.7936
-84.2487
-84.5594
-84.7304
-84.8611
-84.6844
-84.5966
-84.1606
-83.7146
-82.8778
-81.901
-80.6472
-79.0046
-77.0011
-74.6647
-71.9279
-68.6087
-64.7992
-60.3282
-55.305
-49.4063
-42.6464
-35.129
-26.6476
-17.2463
-6.59174
5.3754
19.1052
34.6427
52.2532
71.5553
92.3173
114.183
139.237
175.198
240.706
337.531
-36.8614
-34.588
-33.6693
-33.5783
-33.7281
-33.9001
-34.0244
-34.0946
-34.1245
-34.1179
-34.0894
-34.045
-33.9769
-33.882
-33.818
-33.8098
-33.8278
-33.8405
-33.8265
-33.7904
-33.746
-33.7019
-33.6538
-33.6057
-33.5636
-33.5269
-33.496
-33.467
-33.4321
-33.3915
-33.346
-33.29
-33.2053
-33.1471
-33.1432
-33.1678
-33.1849
-33.1742
-33.1434
-33.1032
-33.0634
-33.0229
-32.9854
-32.9567
-32.9276
-32.8944
-32.8596
-32.8227
-32.7713
-32.6916
-32.6338
-32.6274
-32.6453
-32.652
-32.6436
-32.6203
-32.5794
-32.537
-32.492
-32.4542
-32.4147
-32.3816
-32.3502
-32.314
-32.2621
-32.1947
-32.1198
-32.0764
-32.0635
-32.0485
-32.0138
-31.9728
-31.9229
-31.8578
-31.7812
-31.6943
-31.6271
-31.539
-31.4265
-31.2799
-31.1149
-30.9538
-30.8004
-30.6338
-30.4781
-30.3128
-30.1372
-29.9749
-29.8471
-29.764
-29.7502
-29.8432
-30.215
-31.7427
-35.5511
-40.1353
-48.16
-57.4339
-63.5888
-67.9259
-70.6158
-72.7388
-74.2728
-75.3436
-76.3836
-77.0106
-77.1514
-77.1205
-76.7432
-76.1337
-75.4052
-74.7276
-74.1081
-73.6046
-73.187
-72.908
-72.7163
-72.5731
-72.4314
-72.4091
-72.4625
-72.7038
-73.0031
-73.3859
-73.6673
-73.9297
-74.1586
-74.3515
-74.5473
-74.7345
-74.8803
-75.038
-75.1767
-75.3134
-75.4678
-75.6102
-75.7553
-75.8854
-76.1379
-76.5263
-76.9437
-77.3431
-77.7652
-78.1652
-78.5926
-78.9902
-79.4113
-79.8273
-80.2588
-80.6721
-81.1045
-81.4981
-81.9069
-82.2692
-82.6215
-82.9791
-83.3792
-83.7095
-83.9196
-84.0214
-83.9179
-83.8301
-83.5784
-83.1915
-82.6343
-81.8484
-80.8016
-79.4324
-77.7846
-75.7625
-73.457
-70.6606
-67.4995
-63.7964
-59.5443
-54.5757
-48.8743
-42.4387
-35.0914
-26.829
-17.5332
-7.1679
4.50006
17.6457
32.6305
49.5425
68.3332
88.3533
109.29
131.716
160.395
203.539
260.707
-40.266
-37.7139
-36.0243
-35.0811
-34.5944
-34.4192
-34.3241
-34.3011
-34.2712
-34.2345
-34.1807
-34.1223
-34.0607
-33.9933
-33.9365
-33.9094
-33.892
-33.8713
-33.8501
-33.8253
-33.7876
-33.748
-33.709
-33.6731
-33.6349
-33.6004
-33.5611
-33.5219
-33.4755
-33.4271
-33.3838
-33.3374
-33.2891
-33.2498
-33.2354
-33.2176
-33.2085
-33.2022
-33.1813
-33.1525
-33.1241
-33.0892
-33.0575
-33.0205
-32.9848
-32.9407
-32.8965
-32.8586
-32.8176
-32.7756
-32.74
-32.7279
-32.7078
-32.6852
-32.6722
-32.6527
-32.6262
-32.5979
-32.5638
-32.5307
-32.4921
-32.4478
-32.4017
-32.3563
-32.3103
-32.2582
-32.2094
-32.1772
-32.1593
-32.12
-32.0818
-32.0449
-31.9987
-31.9392
-31.8834
-31.8095
-31.7392
-31.6594
-31.5626
-31.4314
-31.2895
-31.1471
-31.0038
-30.8447
-30.6741
-30.4828
-30.273
-30.0636
-29.8777
-29.7413
-29.7177
-29.8811
-30.3536
-32.0836
-36.8402
-42.7763
-50.7161
-59.8084
-65.847
-69.3833
-71.377
-73.0302
-74.272
-75.4486
-76.4812
-77.1014
-77.4177
-77.492
-77.1898
-76.5505
-75.7809
-75.0094
-74.3145
-73.7101
-73.195
-72.8208
-72.5396
-72.3869
-72.3198
-72.3253
-72.366
-72.5399
-72.7614
-73.0398
-73.2964
-73.5603
-73.8166
-74.0162
-74.2203
-74.3787
-74.5643
-74.694
-74.8651
-75.003
-75.1839
-75.3493
-75.5285
-75.7301
-76.0043
-76.3306
-76.6933
-77.0807
-77.4938
-77.9252
-78.3595
-78.8121
-79.2359
-79.6868
-80.1245
-80.5854
-81.0289
-81.492
-81.9057
-82.3489
-82.7433
-83.239
-83.6131
-84.0033
-84.3952
-84.7207
-85.0457
-85.1042
-85.0966
-84.953
-84.7085
-84.3247
-83.7862
-83.048
-81.8598
-80.3228
-78.355
-75.9918
-73.1694
-69.8892
-66.0758
-61.6863
-56.5789
-50.7425
-44.125
-36.6288
-28.2282
-18.8099
-8.30852
3.44416
16.5325
31.0611
47.0093
64.4017
83.4242
105.195
132.445
167.197
205.583
-41.9322
-39.472
-37.6521
-36.364
-35.4958
-34.9699
-34.6475
-34.4636
-34.337
-34.2526
-34.1749
-34.105
-34.0332
-33.9663
-33.91
-33.876
-33.8571
-33.8363
-33.8063
-33.7721
-33.7349
-33.6937
-33.6523
-33.6093
-33.5752
-33.5441
-33.5193
-33.4834
-33.4453
-33.4047
-33.3617
-33.3161
-33.2686
-33.2315
-33.2016
-33.1849
-33.1672
-33.1498
-33.1284
-33.0983
-33.0612
-33.0271
-32.9939
-32.9732
-32.9471
-32.9144
-32.8745
-32.8342
-32.7887
-32.7388
-32.7031
-32.6765
-32.6668
-32.6488
-32.6234
-32.597
-32.5665
-32.5302
-32.5001
-32.4664
-32.4399
-32.4094
-32.3724
-32.3322
-32.2862
-32.2339
-32.1776
-32.1451
-32.1122
-32.0958
-32.0615
-32.0188
-31.9551
-31.8999
-31.8469
-31.7987
-31.741
-31.6635
-31.5567
-31.4381
-31.313
-31.1885
-31.0511
-30.91
-30.7607
-30.6009
-30.4284
-30.2334
-30.0383
-29.8954
-29.8833
-30.075
-30.5488
-31.9821
-36.0681
-41.902
-49.616
-58.5624
-65.5232
-69.0802
-71.7912
-73.0055
-74.1913
-75.241
-76.4099
-77.31
-77.6504
-77.5265
-77.2963
-76.8246
-76.0483
-75.1538
-74.3567
-73.6945
-73.1178
-72.6919
-72.3864
-72.2074
-72.1132
-72.1032
-72.1436
-72.3326
-72.549
-72.8154
-73.0916
-73.3696
-73.6414
-73.8796
-74.111
-74.3136
-74.4976
-74.657
-74.7991
-74.941
-75.0867
-75.2322
-75.3972
-75.5942
-75.8651
-76.1643
-76.4982
-76.8588
-77.2559
-77.6807
-78.1164
-78.5636
-78.9979
-79.4509
-79.8968
-80.3579
-80.812
-81.279
-81.7119
-82.1494
-82.5677
-83.0056
-83.4361
-83.8283
-84.1297
-84.3548
-84.4842
-84.5725
-84.5511
-84.3041
-83.8685
-83.2297
-82.5153
-81.6304
-80.5967
-79.2901
-77.6912
-75.7045
-73.3183
-70.4585
-67.0979
-63.16
-58.5887
-53.3728
-47.3972
-40.585
-32.8374
-24.0866
-14.2847
-3.44792
8.35696
20.9961
34.4393
48.7914
64.6384
83.3427
106.672
134.677
162.632
-42.9261
-40.6332
-38.8197
-37.4377
-36.4075
-35.6986
-35.1982
-34.8727
-34.6408
-34.4892
-34.3729
-34.2747
-34.1838
-34.1121
-34.0513
-33.9975
-33.9489
-33.9141
-33.8798
-33.8425
-33.8076
-33.7772
-33.7442
-33.7132
-33.6773
-33.6465
-33.6063
-33.5654
-33.5216
-33.4811
-33.4408
-33.3967
-33.3611
-33.3315
-33.3036
-33.2673
-33.2438
-33.2272
-33.2066
-33.1839
-33.1613
-33.1283
-33.0994
-33.0617
-33.0287
-32.9882
-32.9497
-32.9128
-32.8747
-32.8448
-32.8167
-32.7947
-32.7525
-32.7237
-32.7066
-32.6847
-32.659
-32.635
-32.604
-32.5765
-32.5364
-32.4976
-32.4554
-32.4151
-32.3766
-32.332
-32.2996
-32.2647
-32.2441
-32.1874
-32.1475
-32.1082
-32.0727
-32.0196
-31.9629
-31.9023
-31.8512
-31.7862
-31.6978
-31.5905
-31.4856
-31.3653
-31.2346
-31.0901
-30.9406
-30.7869
-30.6225
-30.4383
-30.2506
-30.105
-30.0803
-30.2841
-30.8482
-32.1245
-35.1648
-41.2172
-48.219
-56.5601
-64.2206
-69.7897
-72.3171
-73.2779
-74.6308
-75.6916
-76.7936
-77.5879
-78.1415
-78.4516
-78.2252
-77.5039
-76.7366
-75.7788
-74.8395
-74.0351
-73.3443
-72.8195
-72.4164
-72.1624
-72.0425
-72.0809
-72.1809
-72.3366
-72.4868
-72.6916
-72.9356
-73.2004
-73.4365
-73.6802
-73.897
-74.1036
-74.2948
-74.4706
-74.6352
-74.7859
-74.9403
-75.0869
-75.2492
-75.4533
-75.7176
-76.0062
-76.3282
-76.6764
-77.0663
-77.4804
-77.9087
-78.3502
-78.791
-79.2512
-79.7052
-80.1814
-80.6479
-81.1386
-81.6014
-82.1133
-82.5591
-83.0739
-83.4961
-83.9674
-84.4256
-84.8144
-85.2412
-85.4844
-85.747
-85.92
-86.0197
-86.0571
-85.7756
-85.2462
-84.3973
-83.2709
-81.806
-80.0079
-77.8173
-75.2189
-72.1569
-68.5998
-64.4593
-59.7321
-54.3386
-48.1588
-41.096
-33.0471
-24.0017
-13.986
-3.12508
8.43643
20.6362
33.5362
47.6056
64.0458
83.6813
106.372
127.896
-43.2496
-41.201
-39.4833
-38.0725
-36.988
-36.1557
-35.5446
-35.1019
-34.7754
-34.5433
-34.3656
-34.2395
-34.1377
-34.0576
-33.9917
-33.9357
-33.899
-33.8608
-33.8205
-33.781
-33.7393
-33.6958
-33.6569
-33.6158
-33.5838
-33.5499
-33.5246
-33.4915
-33.461
-33.4258
-33.3864
-33.3476
-33.3062
-33.2705
-33.2299
-33.1971
-33.1757
-33.1551
-33.1301
-33.1012
-33.0649
-33.0348
-33.0013
-32.9816
-32.9533
-32.9278
-32.8929
-32.8557
-32.8167
-32.773
-32.7406
-32.706
-32.6879
-32.6622
-32.6353
-32.6104
-32.5794
-32.5421
-32.5108
-32.4765
-32.4535
-32.4221
-32.392
-32.3591
-32.319
-32.2773
-32.2285
-32.1964
-32.1487
-32.1401
-32.1098
-32.0721
-32.0242
-31.9808
-31.9337
-31.8951
-31.8456
-31.7827
-31.7048
-31.6293
-31.5437
-31.4504
-31.3447
-31.2393
-31.1261
-31.0021
-30.8641
-30.7103
-30.5547
-30.4266
-30.3934
-30.5481
-31.0421
-32.0931
-34.4585
-39.718
-46.0397
-53.7028
-61.368
-67.5758
-70.594
-72.9293
-74.2872
-74.9347
-75.9018
-76.9678
-77.8025
-78.2751
-78.2058
-77.8778
-77.0093
-75.9358
-74.892
-73.9296
-73.0962
-72.4902
-72.1143
-71.8379
-71.6924
-71.6435
-71.6868
-71.8957
-72.1318
-72.347
-72.5781
-72.8535
-73.1302
-73.3992
-73.6714
-73.9093
-74.139
-74.3304
-74.5146
-74.6744
-74.8346
-74.987
-75.1517
-75.353
-75.6026
-75.8657
-76.1743
-76.5154
-76.8888
-77.299
-77.7105
-78.1371
-78.5683
-79.018
-79.4739
-79.9446
-80.4156
-80.8946
-81.3658
-81.8439
-82.3073
-82.7664
-83.2273
-83.6797
-84.0847
-84.4371
-84.6982
-84.9075
-85.0122
-84.9773
-84.8119
-84.5463
-84.3115
-83.9689
-83.5214
-82.8328
-81.8809
-80.5991
-78.9562
-76.8916
-74.3696
-71.3607
-67.8158
-63.7477
-59.0667
-53.6786
-47.4818
-40.3991
-32.4168
-23.5689
-13.935
-3.61403
7.32403
18.9582
31.6654
46.2479
63.0525
81.8207
99.0591
-43.205
-41.3786
-39.8133
-38.5004
-37.4444
-36.6066
-35.9532
-35.4566
-35.0851
-34.8141
-34.6105
-34.4557
-34.3251
-34.2237
-34.1371
-34.0706
-34.0096
-33.9614
-33.9197
-33.8796
-33.8412
-33.8063
-33.7739
-33.7483
-33.716
-33.6858
-33.641
-33.6031
-33.5649
-33.5257
-33.486
-33.4435
-33.4112
-33.3843
-33.3664
-33.3252
-33.2859
-33.2606
-33.2403
-33.2174
-33.197
-33.1667
-33.142
-33.1021
-33.0668
-33.0274
-32.9927
-32.9561
-32.9205
-32.8966
-32.8698
-32.8474
-32.8039
-32.7687
-32.745
-32.7192
-32.6957
-32.6758
-32.6456
-32.6195
-32.5839
-32.5492
-32.5061
-32.4656
-32.4271
-32.3878
-32.3642
-32.3305
-32.3182
-32.2512
-32.2094
-32.175
-32.1442
-32.0984
-32.0529
-32.0044
-31.9608
-31.9031
-31.8376
-31.7642
-31.6896
-31.5992
-31.5066
-31.4085
-31.3086
-31.2061
-31.1048
-30.9986
-30.8942
-30.823
-30.8327
-30.9959
-31.4343
-32.3381
-34.1513
-37.7859
-43.4069
-50.1654
-57.4878
-64.23
-69.0518
-72.1726
-73.9542
-75.4219
-76.7028
-77.755
-78.6431
-79.167
-79.1634
-78.6176
-77.9544
-76.8041
-75.6032
-74.4278
-73.4109
-72.6572
-72.1168
-71.8583
-71.7868
-71.7363
-71.8472
-71.9651
-72.1165
-72.3452
-72.6176
-72.8642
-73.0924
-73.344
-73.5774
-73.8129
-74.0168
-74.2181
-74.4084
-74.5787
-74.7362
-74.9041
-75.0882
-75.2837
-75.5218
-75.7912
-76.0928
-76.4163
-76.7734
-77.155
-77.556
-77.9794
-78.4086
-78.8598
-79.3165
-79.7988
-80.2833
-80.7904
-81.2932
-81.8156
-82.3176
-82.8293
-83.3196
-83.8309
-84.3351
-84.8208
-85.295
-85.7345
-86.1579
-86.5128
-86.7916
-86.9638
-86.9254
-86.7043
-86.2793
-85.659
-84.7855
-83.6419
-82.177
-80.356
-78.1153
-75.445
-72.2891
-68.6448
-64.4306
-59.5677
-53.9973
-47.673
-40.5902
-32.762
-24.2437
-15.09
-5.31877
5.16606
16.673
29.6739
44.307
60.2297
74.4958
-42.6293
-41.0708
-39.6935
-38.514
-37.543
-36.7337
-36.0807
-35.566
-35.1558
-34.8428
-34.5916
-34.4111
-34.27
-34.1539
-34.06
-33.9801
-33.9285
-33.8804
-33.8368
-33.7947
-33.7505
-33.7061
-33.6653
-33.6238
-33.5941
-33.5585
-33.5326
-33.5021
-33.48
-33.4468
-33.4107
-33.3755
-33.3345
-33.2985
-33.2564
-33.2262
-33.2055
-33.181
-33.148
-33.1165
-33.0793
-33.0502
-33.0154
-32.9956
-32.9685
-32.9457
-32.9137
-32.8792
-32.8441
-32.8018
-32.7703
-32.7316
-32.7046
-32.6829
-32.6573
-32.6282
-32.5965
-32.5593
-32.5305
-32.4958
-32.4706
-32.4432
-32.4214
-32.3894
-32.3523
-32.3169
-32.2703
-32.2381
-32.1859
-32.1888
-32.1643
-32.1322
-32.0903
-32.0543
-32.0174
-31.9893
-31.9506
-31.9033
-31.8496
-31.8015
-31.7426
-31.6826
-31.6164
-31.5525
-31.4821
-31.414
-31.344
-31.2731
-31.2172
-31.1966
-31.254
-31.4411
-31.8564
-32.6586
-34.1458
-36.795
-40.9547
-46.475
-52.9589
-59.5295
-65.135
-69.41
-72.2813
-74.166
-75.5894
-76.9126
-78.1529
-79.0162
-79.3713
-78.9652
-78.2182
-76.9523
-75.6837
-74.3597
-73.2483
-72.3919
-71.7979
-71.4994
-71.1561
-71.1042
-71.1576
-71.3922
-71.7184
-71.9156
-72.0778
-72.3746
-72.684
-72.9638
-73.264
-73.5296
-73.7973
-74.0266
-74.2438
-74.4317
-74.615
-74.7739
-74.9607
-75.1527
-75.3863
-75.6367
-75.9305
-76.2477
-76.5863
-76.9526
-77.3258
-77.7207
-78.1339
-78.5661
-79.013
-79.4795
-79.9594
-80.4512
-80.9492
-81.4535
-81.9573
-82.4553
-82.9502
-83.4379
-83.9064
-84.3649
-84.793
-85.1787
-85.4759
-85.729
-85.9159
-86.0587
-86.185
-86.2439
-86.2384
-86.0828
-85.7345
-85.1182
-84.1927
-82.9044
-81.2048
-79.0659
-76.445
-73.3261
-69.6524
-65.3617
-60.4245
-54.8176
-48.5513
-41.6415
-34.1224
-26.0135
-17.2971
-7.85825
2.54314
14.186
27.1127
40.9288
53.0844
-41.6783
-40.4105
-39.2639
-38.2896
-37.4656
-36.7537
-36.1711
-35.6865
-35.2978
-34.9858
-34.7538
-34.5683
-34.4215
-34.3097
-34.2076
-34.124
-34.0526
-33.9974
-33.9509
-33.9088
-33.8672
-33.8319
-33.8008
-33.7779
-33.746
-33.7166
-33.6692
-33.6335
-33.5908
-33.5585
-33.5208
-33.4806
-33.4502
-33.4231
-33.4059
-33.3659
-33.3274
-33.2998
-33.2761
-33.2522
-33.2328
-33.2029
-33.1788
-33.1374
-33.1074
-33.0621
-33.0288
-32.9928
-32.9583
-32.9367
-32.9108
-32.895
-32.8526
-32.8155
-32.7871
-32.7573
-32.7329
-32.7131
-32.6829
-32.6582
-32.6217
-32.581
-32.5369
-32.5048
-32.4701
-32.4344
-32.414
-32.3801
-32.3622
-32.2987
-32.2627
-32.2345
-32.21
-32.1735
-32.1386
-32.0981
-32.0591
-32.0149
-31.9747
-31.9284
-31.8802
-31.8198
-31.7646
-31.7062
-31.6498
-31.5989
-31.5581
-31.5299
-31.5195
-31.55
-31.6479
-31.8573
-32.2524
-32.9559
-34.1755
-36.2119
-39.3393
-43.6213
-48.9158
-54.737
-60.3522
-65.2255
-69.0803
-71.9871
-74.1997
-75.9966
-77.5639
-78.8108
-79.6228
-79.7839
-78.798
-77.8029
-76.6997
-75.165
-73.7221
-72.6664
-72.0053
-71.6687
-71.4954
-71.4183
-71.3608
-71.4018
-71.6497
-72.0008
-72.2847
-72.5286
-72.7499
-72.9933
-73.2394
-73.5086
-73.7425
-73.9725
-74.1808
-74.3769
-74.5538
-74.7322
-74.9216
-75.1256
-75.3546
-75.6102
-75.89
-76.1879
-76.5129
-76.8591
-77.217
-77.6028
-78.0062
-78.4348
-78.8741
-79.342
-79.83
-80.3446
-80.862
-81.3952
-81.9256
-82.4647
-82.9964
-83.5385
-84.0742
-84.6042
-85.132
-85.6475
-86.1622
-86.6341
-87.0465
-87.3521
-87.54
-87.6321
-87.6138
-87.4932
-87.2552
-86.8451
-86.2118
-85.3084
-84.0726
-82.4357
-80.3419
-77.7669
-74.6576
-70.961
-66.6651
-61.7638
-56.274
-50.2129
-43.6025
-36.4372
-28.6753
-20.1961
-10.8116
-0.343262
11.2107
23.4199
34.0333
-40.327
-39.3734
-38.4878
-37.7241
-37.0638
-36.4844
-35.9943
-35.5737
-35.2166
-34.9232
-34.6849
-34.4994
-34.3318
-34.1998
-34.0939
-34.0017
-33.9415
-33.8903
-33.8466
-33.8034
-33.7612
-33.7189
-33.679
-33.6373
-33.6069
-33.5717
-33.5467
-33.5194
-33.4981
-33.4656
-33.4338
-33.4011
-33.3607
-33.326
-33.282
-33.2534
-33.2242
-33.1965
-33.1707
-33.1393
-33.1025
-33.0743
-33.0396
-33.0184
-32.9917
-32.9683
-32.9373
-32.9054
-32.8716
-32.8287
-32.7964
-32.7544
-32.7338
-32.7077
-32.6782
-32.6545
-32.623
-32.5865
-32.5586
-32.5238
-32.5022
-32.4783
-32.4544
-32.4206
-32.3863
-32.3547
-32.3116
-32.2828
-32.2389
-32.239
-32.2151
-32.185
-32.1465
-32.1212
-32.0952
-32.0748
-32.0428
-32.0078
-31.9713
-31.9428
-31.9047
-31.8718
-31.839
-31.8159
-31.7972
-31.7836
-31.7687
-31.7625
-31.7895
-31.8604
-31.9945
-32.2252
-32.6126
-33.2454
-34.2634
-35.8562
-38.2485
-41.5553
-45.7534
-50.6065
-55.6787
-60.5027
-64.7173
-68.1897
-70.9626
-73.1861
-75.0024
-76.4101
-77.3963
-77.8308
-77.5847
-76.8845
-75.8322
-74.6642
-73.4847
-72.2992
-71.4155
-70.8111
-70.5973
-70.7525
-70.8688
-70.9826
-71.2158
-71.4617
-71.59
-71.9671
-72.3051
-72.6076
-72.9093
-73.1933
-73.4811
-73.7399
-73.9883
-74.2121
-74.4244
-74.6065
-74.7901
-74.9834
-75.2092
-75.4511
-75.7248
-76.0181
-76.3291
-76.6552
-76.984
-77.3369
-77.7185
-78.1259
-78.5515
-79.0021
-79.4759
-79.9766
-80.4929
-81.0217
-81.5515
-82.0848
-82.6249
-83.1686
-83.7008
-84.2265
-84.7425
-85.2521
-85.7561
-86.2671
-86.7592
-87.2303
-87.6567
-88.0253
-88.3101
-88.4812
-88.5251
-88.413
-88.1008
-87.5549
-86.7342
-85.5687
-83.9859
-81.9508
-79.4093
-76.3148
-72.6633
-68.454
-63.7101
-58.4503
-52.6861
-46.3955
-39.5219
-31.9398
-23.4891
-14.0439
-3.622
7.33056
16.7785
-38.7309
-38.0745
-37.4698
-36.9491
-36.4814
-36.0599
-35.7101
-35.3911
-35.116
-34.8822
-34.6846
-34.5243
-34.4146
-34.3141
-34.2206
-34.1334
-34.0598
-34.003
-33.9551
-33.9147
-33.8763
-33.8448
-33.8171
-33.7967
-33.768
-33.742
-33.6971
-33.6672
-33.6182
-33.5846
-33.5481
-33.5095
-33.4799
-33.4531
-33.436
-33.3985
-33.3655
-33.3358
-33.3057
-33.2822
-33.263
-33.234
-33.2102
-33.1693
-33.1438
-33.1029
-33.07
-33.0258
-32.9908
-32.9691
-32.9424
-32.9257
-32.8843
-32.8498
-32.8219
-32.7893
-32.7653
-32.7462
-32.7184
-32.6959
-32.6584
-32.6238
-32.5794
-32.5419
-32.5071
-32.4725
-32.452
-32.4191
-32.3975
-32.3397
-32.3069
-32.2852
-32.266
-32.2372
-32.2129
-32.1805
-32.149
-32.1163
-32.0927
-32.0638
-32.0388
-32.0067
-31.981
-31.9554
-31.9397
-31.9319
-31.9305
-31.9506
-32.0079
-32.114
-32.2795
-32.5288
-32.9128
-33.4987
-34.376
-35.6702
-37.5395
-40.1049
-43.4073
-47.3443
-51.6788
-56.0946
-60.2705
-64.0005
-67.1928
-69.8789
-72.1281
-73.9409
-75.3284
-76.2437
-76.6205
-76.5718
-75.7675
-74.7539
-73.7747
-72.8855
-72.2387
-71.6644
-71.3192
-71.1145
-70.977
-70.9772
-71.3543
-71.8044
-72.0604
-72.2057
-72.3844
-72.6447
-72.9337
-73.1981
-73.48
-73.7254
-73.933
-74.1479
-74.3649
-74.5706
-74.7705
-74.9726
-75.1903
-75.4278
-75.6865
-75.9611
-76.2608
-76.5776
-76.8931
-77.2218
-77.5817
-77.9762
-78.3875
-78.829
-79.2971
-79.803
-80.3266
-80.8669
-81.414
-81.9753
-82.53
-83.0951
-83.661
-84.2236
-84.7875
-85.3469
-85.8964
-86.4285
-86.9566
-87.4784
-87.9908
-88.4665
-88.903
-89.2784
-89.566
-89.7399
-89.7588
-89.5747
-89.1576
-88.4513
-87.374
-85.8709
-83.8925
-81.3982
-78.3821
-74.8463
-70.8176
-66.3203
-61.3592
-55.9027
-49.8848
-43.1649
-35.5882
-27.0495
-17.5844
-7.63821
0.915027
-36.8694
-36.5224
-36.2018
-35.9342
-35.6775
-35.4307
-35.2191
-35.0063
-34.8218
-34.6558
-34.4955
-34.3718
-34.258
-34.1569
-34.0651
-33.9777
-33.9244
-33.8789
-33.8386
-33.7938
-33.7556
-33.7181
-33.6843
-33.6468
-33.6182
-33.587
-33.5667
-33.5386
-33.5196
-33.4903
-33.4608
-33.4286
-33.3881
-33.3523
-33.3093
-33.2834
-33.2506
-33.2217
-33.2001
-33.1684
-33.1329
-33.1056
-33.0719
-33.0512
-33.0212
-32.9968
-32.9695
-32.9394
-32.9041
-32.8605
-32.8269
-32.7845
-32.7655
-32.7381
-32.7087
-32.6863
-32.6543
-32.6195
-32.5928
-32.5617
-32.5423
-32.5156
-32.4894
-32.4576
-32.425
-32.3944
-32.3543
-32.3271
-32.2902
-32.2864
-32.2568
-32.2287
-32.1954
-32.1773
-32.1593
-32.1459
-32.1228
-32.0986
-32.0683
-32.0471
-32.0245
-32.0135
-32.0035
-32.0055
-32.0182
-32.0428
-32.0819
-32.1389
-32.2157
-32.3344
-32.5147
-32.7731
-33.1528
-33.6986
-34.4752
-35.5671
-37.086
-39.1271
-41.7498
-44.9243
-48.5348
-52.384
-56.2353
-59.8898
-63.1978
-66.1056
-68.6097
-70.6848
-72.327
-73.5049
-74.1814
-74.3976
-74.1759
-73.741
-73.0178
-72.1117
-71.3201
-70.8573
-70.5146
-70.3925
-70.3588
-70.3748
-70.5166
-70.7954
-71.3686
-71.9229
-72.1504
-72.3277
-72.5843
-72.8729
-73.164
-73.4821
-73.762
-74.0124
-74.2538
-74.457
-74.6512
-74.8476
-75.0653
-75.2931
-75.5524
-75.8252
-76.1058
-76.4046
-76.7024
-77.0039
-77.3357
-77.7024
-78.0973
-78.5242
-78.9759
-79.4638
-79.9835
-80.5334
-81.0922
-81.657
-82.2242
-82.8002
-83.3779
-83.9645
-84.5584
-85.1548
-85.7524
-86.358
-86.9663
-87.5686
-88.1686
-88.7598
-89.3418
-89.8975
-90.3994
-90.8256
-91.15
-91.322
-91.2991
-91.037
-90.4642
-89.5028
-88.0905
-86.1888
-83.7929
-80.9075
-77.5616
-73.7892
-69.6003
-64.9576
-59.7813
-53.9176
-47.1901
-39.4883
-30.855
-21.7311
-13.8617
-34.8272
-34.7967
-34.7592
-34.7483
-34.725
-34.6732
-34.6268
-34.5533
-34.479
-34.4072
-34.3279
-34.2584
-34.1899
-34.1361
-34.1043
-34.067
-34.0084
-33.9624
-33.9272
-33.8956
-33.8643
-33.8413
-33.8151
-33.7996
-33.7747
-33.7505
-33.7142
-33.6843
-33.6418
-33.6096
-33.5702
-33.5325
-33.5017
-33.473
-33.455
-33.4206
-33.3909
-33.3609
-33.3278
-33.3042
-33.2851
-33.2581
-33.2352
-33.1957
-33.1679
-33.1289
-33.0973
-33.0532
-33.0193
-32.9948
-32.965
-32.9453
-32.9067
-32.8742
-32.8448
-32.8101
-32.7884
-32.7699
-32.7442
-32.7223
-32.6855
-32.6576
-32.6187
-32.583
-32.5412
-32.5061
-32.4823
-32.4499
-32.4281
-32.3752
-32.34
-32.3246
-32.3065
-32.2849
-32.2672
-32.2463
-32.2279
-32.203
-32.1854
-32.1674
-32.1568
-32.1437
-32.1417
-32.1428
-32.1509
-32.1691
-32.2105
-32.2675
-32.3519
-32.4878
-32.6822
-32.9543
-33.3304
-33.846
-34.5449
-35.4935
-36.7723
-38.4487
-40.5811
-43.1731
-46.173
-49.4653
-52.896
-56.3003
-59.5315
-62.4995
-65.1648
-67.4671
-69.3923
-70.9199
-72.0306
-72.7442
-73.0947
-73.1861
-72.9869
-72.6347
-72.0477
-71.5554
-71.1644
-70.9094
-70.8109
-70.8455
-71.0107
-71.2487
-71.5202
-71.7714
-72.0368
-72.3563
-72.8015
-73.0974
-73.2356
-73.4589
-73.667
-73.9168
-74.181
-74.4071
-74.6205
-74.8209
-75.0277
-75.2432
-75.487
-75.7508
-76.0235
-76.3137
-76.5999
-76.8813
-77.1815
-77.5147
-77.8817
-78.2888
-78.722
-79.1928
-79.7031
-80.2543
-80.8233
-81.4104
-81.9921
-82.5696
-83.1438
-83.7244
-84.3173
-84.9331
-85.5656
-86.2043
-86.8555
-87.5282
-88.2168
-88.9077
-89.613
-90.3272
-91.0213
-91.6721
-92.2641
-92.7581
-93.1091
-93.2751
-93.1998
-92.7896
-91.9591
-90.6531
-88.8649
-86.6083
-83.9138
-80.8241
-77.3728
-73.5291
-69.1969
-64.2028
-58.3386
-51.4531
-43.5802
-35.1508
-27.7768
-32.6097
-32.8861
-33.1299
-33.3786
-33.5885
-33.7406
-33.8674
-33.9427
-33.9879
-34.0121
-34.0109
-34.0004
-33.9798
-33.9479
-33.8929
-33.8527
-33.8433
-33.8215
-33.794
-33.7668
-33.7433
-33.7084
-33.6819
-33.6529
-33.63
-33.6051
-33.5941
-33.5646
-33.5466
-33.5195
-33.492
-33.4601
-33.4208
-33.3807
-33.3371
-33.3146
-33.2833
-33.2553
-33.2335
-33.2012
-33.1678
-33.1422
-33.1117
-33.0954
-33.0622
-33.037
-33.0088
-32.979
-32.9429
-32.8992
-32.8615
-32.8165
-32.8003
-32.7761
-32.7483
-32.723
-32.6894
-32.6569
-32.6318
-32.604
-32.5893
-32.559
-32.5319
-32.5026
-32.4717
-32.4385
-32.3986
-32.3688
-32.3323
-32.3204
-32.2954
-32.264
-32.2402
-32.2254
-32.2073
-32.1988
-32.1862
-32.1755
-32.1514
-32.1317
-32.1084
-32.1048
-32.1138
-32.1343
-32.1578
-32.1996
-32.2559
-32.3425
-32.4704
-32.6267
-32.8281
-33.0988
-33.4625
-33.9431
-34.58
-35.4223
-36.5294
-37.9464
-39.7288
-41.8893
-44.4104
-47.2257
-50.2418
-53.3357
-56.3816
-59.2815
-61.9789
-64.3905
-66.4842
-68.2357
-69.6123
-70.6051
-71.2107
-71.4863
-71.572
-71.4588
-71.1923
-70.9308
-70.7025
-70.5246
-70.4216
-70.4104
-70.5069
-70.7138
-71.0166
-71.3631
-71.6706
-71.9432
-72.2295
-72.5629
-73.0672
-73.4498
-73.6083
-73.7963
-74.0545
-74.2915
-74.4865
-74.7036
-74.9364
-75.1604
-75.4029
-75.6626
-75.9318
-76.1916
-76.4618
-76.7302
-77.0125
-77.3174
-77.6566
-78.0449
-78.4609
-78.9125
-79.4048
-79.9448
-80.5188
-81.1287
-81.7286
-82.3183
-82.9039
-83.4907
-84.0794
-84.6849
-85.3218
-85.9862
-86.6768
-87.3897
-88.1292
-88.9033
-89.7191
-90.5678
-91.4331
-92.2753
-93.0827
-93.8501
-94.5477
-95.1239
-95.527
-95.6639
-95.4306
-94.7347
-93.5575
-91.9214
-89.853
-87.4027
-84.6369
-81.5546
-78.066
-73.9784
-69.0304
-62.9936
-55.8743
-48.0698
-41.0692
-30.2245
-30.8185
-31.3519
-31.871
-32.3303
-32.7023
-33.0181
-33.2654
-33.4483
-33.5935
-33.6957
-33.7589
-33.8085
-33.8408
-33.8854
-33.8913
-33.8649
-33.8475
-33.8436
-33.83
-33.8123
-33.8019
-33.7888
-33.7782
-33.7598
-33.7475
-33.7176
-33.6881
-33.658
-33.6285
-33.5879
-33.5549
-33.5221
-33.487
-33.4616
-33.4295
-33.3996
-33.3696
-33.3376
-33.3158
-33.2961
-33.2724
-33.2539
-33.2199
-33.1907
-33.1548
-33.1204
-33.0797
-33.0474
-33.0188
-32.9845
-32.9571
-32.9152
-32.8783
-32.8481
-32.8199
-32.8011
-32.7821
-32.7592
-32.7405
-32.7076
-32.6849
-32.6515
-32.6141
-32.5735
-32.5397
-32.5103
-32.4752
-32.4509
-32.4029
-32.3719
-32.3659
-32.3339
-32.3095
-32.3036
-32.2942
-32.2872
-32.2668
-32.2506
-32.2317
-32.2339
-32.2371
-32.2505
-32.2569
-32.2799
-32.3135
-32.3717
-32.4514
-32.5568
-32.7049
-32.9019
-33.1721
-33.5252
-33.9826
-34.5715
-35.3341
-36.3132
-37.5446
-39.0694
-40.9083
-43.062
-45.4938
-48.1476
-50.9376
-53.7655
-56.539
-59.1972
-61.6441
-63.8443
-65.7656
-67.3788
-68.6636
-69.6134
-70.2672
-70.6924
-70.9074
-70.9057
-70.8205
-70.6938
-70.5803
-70.5043
-70.4966
-70.5635
-70.7131
-70.935
-71.2142
-71.5286
-71.8679
-72.2172
-72.534
-72.8355
-73.1179
-73.418
-73.7139
-74.0732
-74.3187
-74.4426
-74.6083
-74.8144
-75.0349
-75.2723
-75.5344
-75.8101
-76.074
-76.3415
-76.6005
-76.8579
-77.126
-77.4281
-77.7744
-78.1631
-78.5985
-79.0774
-79.6081
-80.1792
-80.801
-81.4311
-82.0562
-82.6491
-83.2287
-83.8151
-84.4203
-85.0539
-85.7117
-86.4046
-87.1331
-87.9168
-88.7597
-89.6576
-90.6037
-91.5871
-92.5843
-93.5881
-94.5995
-95.6094
-96.5658
-97.4144
-98.0638
-98.4151
-98.3565
-97.8235
-96.8184
-95.3738
-93.5264
-91.3699
-88.9627
-86.2697
-83.1228
-79.1955
-74.1228
-67.8505
-60.676
-54.0743
-27.6594
-28.5585
-29.4214
-30.2155
-30.9318
-31.5371
-32.0531
-32.4703
-32.7995
-33.0663
-33.2638
-33.4107
-33.5191
-33.5875
-33.6177
-33.6611
-33.684
-33.6932
-33.6988
-33.6963
-33.6929
-33.6881
-33.674
-33.6545
-33.6398
-33.625
-33.6227
-33.6085
-33.5943
-33.565
-33.5374
-33.4989
-33.4601
-33.4181
-33.3694
-33.3512
-33.3188
-33.2858
-33.2614
-33.2308
-33.2012
-33.1778
-33.1529
-33.1404
-33.1189
-33.0988
-33.0664
-33.0352
-32.9922
-32.9471
-32.9057
-32.8589
-32.8431
-32.8151
-32.7835
-32.7564
-32.7234
-32.694
-32.6715
-32.6481
-32.6333
-32.61
-32.5901
-32.5624
-32.5307
-32.4918
-32.4484
-32.412
-32.3712
-32.353
-32.3294
-32.2931
-32.2773
-32.2559
-32.2407
-32.2367
-32.2364
-32.2356
-32.2223
-32.2046
-32.1884
-32.166
-32.1832
-32.2068
-32.2348
-32.2821
-32.3408
-32.4274
-32.5534
-32.7182
-32.9411
-33.2185
-33.5659
-33.999
-34.5439
-35.2342
-36.1125
-37.2022
-38.5349
-40.1321
-42.0045
-44.1352
-46.4878
-49.0067
-51.6183
-54.2419
-56.8204
-59.2562
-61.5062
-63.5347
-65.307
-66.7976
-67.9847
-68.8965
-69.5661
-69.9876
-70.256
-70.3869
-70.4207
-70.4079
-70.3806
-70.3942
-70.4534
-70.5736
-70.7516
-70.9731
-71.2319
-71.5159
-71.83
-72.1521
-72.5018
-72.8534
-73.1776
-73.4597
-73.7611
-74.0415
-74.3188
-74.5868
-74.8735
-75.0765
-75.264
-75.5096
-75.7591
-76.0006
-76.2392
-76.5087
-76.7595
-77.0128
-77.2859
-77.5942
-77.9419
-78.3356
-78.7799
-79.2822
-79.8355
-80.4574
-81.1005
-81.7488
-82.364
-82.9603
-83.5454
-84.1348
-84.7503
-85.3924
-86.0796
-86.8118
-87.6159
-88.4908
-89.4411
-90.4611
-91.5437
-92.6714
-93.8446
-95.0678
-96.3326
-97.5904
-98.8066
-99.8962
-100.793
-101.389
-101.572
-101.265
-100.475
-99.2119
-97.5719
-95.6928
-93.6673
-91.4372
-88.6673
-84.8108
-79.6346
-73.2702
-67.119
-24.9189
-26.1401
-27.3456
-28.4492
-29.4451
-30.3001
-31.0325