/*--------------------------------*- C++ -*----------------------------------*\
| =========                 |                                                 |
| \\      /  F ield         | OpenFOAM: The Open Source CFD Toolbox           |
|  \\    /   O peration     | Version:  4.1                                   |
|   \\  /    A nd           | Web:      www.OpenFOAM.org                      |
|    \\/     M anipulation  |                                                 |
\*---------------------------------------------------------------------------*/
FoamFile
{
    version     2.0;
    format      ascii;
    class       volScalarField;
    location    "2.5";
    object      epsilon;
}
// * * * * * * * * * * * * * * * * * * * * * * * * * * * * * * * * * * * * * //

dimensions      [0 2 -3 0 0 0 0];

internalField   nonuniform List<scalar> 
204246
(
1.23947
1.27239
1.2693
1.27164
1.27394
1.27272
1.27362
1.27345
1.27409
1.27401
1.27528
1.27572
1.27775
1.27962
1.28275
1.2843
1.28546
1.28097
1.28341
1.28177
1.28055
1.27938
1.27656
1.27552
1.27424
1.2743
1.27478
1.27514
1.2769
1.27935
1.28127
1.28469
1.287
1.28871
1.28864
1.28839
1.2838
1.28551
1.28329
1.28044
1.27902
1.27652
1.27599
1.27626
1.27646
1.27815
1.28049
1.28233
1.2855
1.2871
1.28945
1.29098
1.29139
1.28762
1.28997
1.28849
1.28699
1.28606
1.28346
1.28169
1.27794
1.27579
1.27619
1.27709
1.27831
1.28082
1.28221
1.28545
1.28744
1.29052
1.28812
1.29084
1.28885
1.28688
1.28521
1.28179
1.27981
1.27563
1.27341
1.27379
1.27474
1.27598
1.27854
1.27996
1.2832
1.28516
1.28815
1.28567
1.28822
1.28615
1.28421
1.2826
1.27944
1.27709
1.27688
1.27716
1.27814
1.27938
1.2809
1.28373
1.28527
1.28848
1.29057
1.29196
1.29217
1.29081
1.28723
1.2893
1.28859
1.29009
1.29065
1.29328
1.29632
1.29846
1.30415
1.30695
1.31456
1.31982
1.33084
1.33919
1.35102
1.36115
1.37381
1.38308
1.40857
1.42166
1.4551
1.48729
1.54463
1.61389
1.7272
1.87907
2.09848
2.25409
2.29605
2.27251
2.13111
1.84853
1.6583
1.57962
1.51377
1.41889
1.29891
1.21596
1.13225
1.0325
0.933198
0.876958
0.826011
0.758857
0.693706
0.653919
0.609424
0.560513
0.518541
0.479254
0.445741
0.407357
0.380248
0.350595
0.328445
0.302006
0.279695
0.259969
0.239793
0.22445
0.205269
0.193055
0.176116
0.167414
0.152306
0.145183
0.132902
0.127194
0.117858
0.113546
0.106432
0.103586
0.0989127
0.0970183
0.0952941
0.0951694
0.0949884
0.0955694
0.0964274
0.0986118
0.101675
0.106903
0.112789
0.121017
0.129355
0.139167
0.141994
0.0400389
0.109434
0.109254
0.109373
0.112919
0.111831
0.115501
0.114842
0.118967
0.118581
0.123465
0.122714
0.12763
0.125757
0.131088
0.128641
0.132758
0.129743
0.128675
0.130483
0.125282
0.127593
0.122598
0.125221
0.123138
0.126316
0.124664
0.128562
0.12636
0.131652
0.129387
0.134748
0.131872
0.135542
0.131633
0.134231
0.131533
0.128178
0.13023
0.124317
0.126011
0.122797
0.125537
0.123668
0.127297
0.125038
0.130276
0.127996
0.133433
0.13089
0.135061
0.133016
0.135655
0.13313
0.1303
0.132784
0.127843
0.12985
0.125591
0.127031
0.122493
0.124078
0.120649
0.124768
0.122247
0.127579
0.125476
0.131637
0.130859
0.136391
0.134903
0.132446
0.134058
0.129514
0.130896
0.125476
0.126695
0.122024
0.123866
0.120825
0.125081
0.122628
0.128028
0.125927
0.131924
0.131049
0.136339
0.134785
0.132286
0.13401
0.129985
0.131595
0.127158
0.128789
0.124389
0.12803
0.125027
0.129399
0.126853
0.13208
0.129767
0.134971
0.133698
0.137771
0.135403
0.137655
0.133805
0.132867
0.135442
0.133402
0.136946
0.134297
0.139667
0.137229
0.144787
0.143301
0.153424
0.153203
0.166859
0.168075
0.187115
0.190759
0.217444
0.225482
0.250097
0.285296
0.313039
0.384646
0.436481
0.567444
0.703601
0.980531
1.31794
1.58938
1.63591
1.56981
1.25348
0.795966
0.491296
0.37858
0.316225
0.275497
0.239989
0.206081
0.199222
0.182417
0.178466
0.159544
0.154753
0.137851
0.133882
0.12218
0.120185
0.112048
0.110799
0.103448
0.102095
0.0949762
0.0919803
0.0895814
0.0858168
0.0851835
0.0818555
0.0815469
0.0792963
0.079324
0.0780851
0.0784334
0.0781424
0.079174
0.0794943
0.0819586
0.0838667
0.0875758
0.0914508
0.0965171
0.102598
0.109066
0.11753
0.126206
0.137652
0.149138
0.16385
0.179148
0.199909
0.222222
0.251677
0.281884
0.32123
0.363188
0.425861
0.473787
0.489888
0.00780831
0.00990919
0.00986239
0.00983703
0.00993705
0.00985895
0.0100656
0.0100253
0.010275
0.0102721
0.0105792
0.0106216
0.0110221
0.0109671
0.0114416
0.0112327
0.0115605
0.0112622
0.0111625
0.0111907
0.0107347
0.0108896
0.0105325
0.0107668
0.0106052
0.0108674
0.0107763
0.0111174
0.0110043
0.0115024
0.0113891
0.0118841
0.0116
0.0118859
0.0114851
0.0116621
0.0113448
0.0111282
0.0111639
0.0106524
0.0107966
0.010561
0.0107887
0.0106623
0.0109554
0.0108248
0.0112569
0.0111119
0.0116338
0.0114578
0.0118444
0.0116475
0.0118635
0.0116027
0.011428
0.0115235
0.0110855
0.0112296
0.0108011
0.0108779
0.0104648
0.0106108
0.0103577
0.0106966
0.0105533
0.0110017
0.0109215
0.0115931
0.0115909
0.0120214
0.0118088
0.0116185
0.0116639
0.011211
0.0112939
0.01077
0.0108297
0.0104533
0.0106336
0.0104234
0.0107853
0.0106506
0.0111323
0.0110596
0.0116883
0.0116414
0.0120113
0.0117766
0.0115747
0.0116212
0.011183
0.011273
0.0108397
0.0109775
0.010688
0.011023
0.0108004
0.011194
0.0110298
0.0115266
0.0113973
0.0119303
0.0118386
0.0121238
0.0118445
0.011995
0.0115747
0.0114727
0.0115591
0.0114351
0.0117771
0.0115886
0.0121196
0.0119462
0.0127336
0.0126456
0.0139109
0.0141627
0.0162219
0.0167688
0.019948
0.0210582
0.0259019
0.0283966
0.0354986
0.044652
0.058137
0.0827884
0.118365
0.18811
0.301873
0.519899
0.873147
1.20664
1.26774
1.17005
0.809566
0.346527
0.149552
0.0882634
0.0638577
0.0533019
0.0489291
0.0454174
0.0447166
0.0433559
0.0432987
0.0416189
0.0412783
0.0391675
0.0387057
0.0374955
0.0375334
0.0372885
0.0375883
0.0373884
0.0375533
0.0371698
0.0368896
0.0368346
0.036401
0.0364771
0.0363192
0.0365968
0.0365562
0.0372482
0.0374323
0.0387976
0.0393354
0.0415498
0.0426823
0.0460301
0.0480767
0.0529393
0.0564534
0.0634259
0.0692502
0.0788237
0.0883885
0.100681
0.114843
0.131809
0.152575
0.174842
0.202624
0.230725
0.267931
0.303237
0.351517
0.38812
0.417161
0.424342
0.426026
0.00735475
0.00772979
0.00768076
0.00766563
0.00766699
0.0076606
0.00766413
0.00766045
0.00766454
0.00766332
0.0076688
0.00766882
0.00767438
0.0076749
0.00768286
0.00768272
0.00769175
0.00768814
0.00768776
0.00769022
0.0076799
0.00768604
0.00767784
0.00768413
0.00768016
0.00768654
0.00768468
0.00769308
0.0076906
0.00770374
0.00770075
0.00771641
0.00770744
0.00771686
0.00770411
0.00770977
0.00770032
0.00769389
0.00769456
0.00767925
0.00768189
0.00767521
0.00768058
0.00767759
0.00768498
0.00768209
0.00769421
0.00769166
0.00770971
0.00770497
0.00771706
0.00771032
0.00771705
0.0077084
0.00770256
0.00770502
0.00769145
0.00769542
0.00768309
0.00768477
0.00767122
0.00767236
0.00766366
0.00767043
0.00766705
0.0076778
0.00767735
0.00770072
0.00770932
0.00772315
0.00771632
0.00770912
0.00771117
0.00769742
0.00769977
0.00768374
0.0076844
0.00767152
0.00767451
0.00766811
0.00767601
0.00767321
0.00768542
0.00768538
0.00771115
0.00771705
0.00772886
0.00772114
0.00771346
0.00771581
0.00770222
0.00770452
0.00768955
0.00769123
0.00768124
0.00768912
0.00768242
0.00769228
0.0076882
0.0077015
0.00769921
0.00772002
0.00771804
0.00772981
0.00772071
0.00772628
0.00771186
0.00770796
0.00770748
0.00770068
0.00771021
0.00770379
0.00772071
0.007715
0.00774591
0.0077462
0.0078172
0.00785418
0.00800052
0.00809381
0.00836609
0.00855298
0.00906353
0.00954556
0.0106396
0.0125296
0.015935
0.0230743
0.0367127
0.066219
0.125292
0.247869
0.477051
0.859422
1.08279
1.09052
0.865851
0.416907
0.144134
0.0590856
0.0315541
0.0232359
0.0208625
0.0201074
0.0200777
0.0201626
0.0209037
0.0212474
0.021387
0.0212343
0.0210377
0.020401
0.0201198
0.0199641
0.0199986
0.019944
0.0199897
0.0199027
0.0198485
0.0198725
0.0198449
0.0199693
0.0200334
0.0203982
0.0206575
0.0212979
0.0218521
0.022787
0.0236987
0.0251164
0.0268334
0.0292418
0.0321681
0.0358294
0.040377
0.0458972
0.0528978
0.0612145
0.0706399
0.0823132
0.0946289
0.110552
0.126752
0.147259
0.16723
0.192519
0.217945
0.251069
0.2864
0.330091
0.371668
0.402032
0.413569
0.0077804
0.00772346
0.00769192
0.00767682
0.00766933
0.00766298
0.00766054
0.00765917
0.00765863
0.00765791
0.00765852
0.00765957
0.00765974
0.00765941
0.00765942
0.00765857
0.00765822
0.0076582
0.00765738
0.00765702
0.00765689
0.00765651
0.00765622
0.00765619
0.0076558
0.00765586
0.00765542
0.00765541
0.00765493
0.00765501
0.00765455
0.00765408
0.00765465
0.00765655
0.00765703
0.00765762
0.00765782
0.00765776
0.00765775
0.00765747
0.00765682
0.00765653
0.0076565
0.00765535
0.00765536
0.00765505
0.00765449
0.00765452
0.00765409
0.00765321
0.00765341
0.00765335
0.00765284
0.00765271
0.00765258
0.00765221
0.00765273
0.00765593
0.00765817
0.00765853
0.0076582
0.00765821
0.00765768
0.00765714
0.00765715
0.00765682
0.00765591
0.0076559
0.00765518
0.00765481
0.00765482
0.00765393
0.00765393
0.0076539
0.00765357
0.00765357
0.00765346
0.00765259
0.00765273
0.00765263
0.00765177
0.00765179
0.00765169
0.00765079
0.0076508
0.0076503
0.00765027
0.00765003
0.00764999
0.0076524
0.0076564
0.0076583
0.00765891
0.00765927
0.00765925
0.00765917
0.0076586
0.00765852
0.0076581
0.00765802
0.00765744
0.0076578
0.00765982
0.00766132
0.00766149
0.00766144
0.00766106
0.00766124
0.00766144
0.00766139
0.00766113
0.00766071
0.00766068
0.00766044
0.00766094
0.00766086
0.00766057
0.00766081
0.00766464
0.00767193
0.00768874
0.0077127
0.00776349
0.00784524
0.00802287
0.00840902
0.00924081
0.0112069
0.0156697
0.0263221
0.0505579
0.105599
0.220807
0.444569
0.793637
0.969721
0.952384
0.718883
0.306241
0.103266
0.0430756
0.0233992
0.0169319
0.0151886
0.0148409
0.0148957
0.015421
0.0159253
0.0160552
0.0160114
0.0158268
0.0155491
0.0155231
0.0155216
0.0156337
0.0157051
0.0157484
0.0157346
0.0157316
0.0157913
0.015885
0.0162039
0.0166204
0.0173773
0.0182296
0.0195066
0.0209666
0.0230219
0.0254928
0.0288765
0.0331949
0.038902
0.0461277
0.0548893
0.0655383
0.077786
0.0929505
0.110399
0.130309
0.153008
0.176264
0.202453
0.228491
0.257496
0.284441
0.313304
0.338591
0.36617
0.391204
0.418662
0.438297
0.452809
0.458387
0.00774917
0.00771406
0.00768258
0.0076699
0.00766076
0.00765614
0.00765369
0.007652
0.00765125
0.00765036
0.00764944
0.00764881
0.00764878
0.00764839
0.00764808
0.00764795
0.0076476
0.00764825
0.00765128
0.00765293
0.00765299
0.00765285
0.00765242
0.00765212
0.0076519
0.00765114
0.00765114
0.00765074
0.00764993
0.00764993
0.00764941
0.00764863
0.00764865
0.0076481
0.0076473
0.00764726
0.00764704
0.00764675
0.00764663
0.00764641
0.00764628
0.00764596
0.00764683
0.00765041
0.0076531
0.00765376
0.00765374
0.00765363
0.00765359
0.00765302
0.00765277
0.00765257
0.00765203
0.00765199
0.00765182
0.00765167
0.00765156
0.00765141
0.00765243
0.0076545
0.00765499
0.00765512
0.00765515
0.00765442
0.00765443
0.00765444
0.0076537
0.00765376
0.00765351
0.00765292
0.00765288
0.00765272
0.00765269
0.00765254
0.00765246
0.0076541
0.00765609
0.00765648
0.0076562
0.0076558
0.00765565
0.00765494
0.00765477
0.00765469
0.00765399
0.00765398
0.00765359
0.00765278
0.00765275
0.00765202
0.00765141
0.0076514
0.007651
0.00765079
0.0076508
0.00765062
0.00765031
0.00765085
0.00765304
0.00765424
0.00765432
0.00765437
0.00765441
0.00765369
0.00765371
0.00765376
0.0076533
0.00765328
0.00765311
0.00765291
0.00765281
0.00765248
0.00765318
0.00765629
0.00766143
0.00766653
0.00767089
0.00767542
0.00768041
0.00768399
0.00768654
0.00769172
0.00770189
0.00772191
0.00776341
0.00785712
0.00807135
0.00860755
0.00993586
0.0133376
0.0217255
0.0422156
0.0888988
0.189658
0.380123
0.684466
0.86694
0.869629
0.748031
0.493839
0.239818
0.096198
0.0419756
0.0229092
0.0157269
0.0132103
0.0122334
0.0118835
0.0117892
0.0117686
0.0118111
0.0118751
0.0120354
0.0122088
0.0124204
0.012491
0.0125314
0.0125326
0.0125559
0.0126773
0.0128872
0.0133123
0.0138808
0.0147593
0.0158959
0.0175404
0.0198168
0.0229428
0.0271103
0.0323165
0.0391826
0.0475514
0.0583846
0.0706493
0.0854972
0.101179
0.120136
0.140361
0.162947
0.187925
0.21241
0.240033
0.266322
0.297413
0.324577
0.355767
0.378585
0.404369
0.419898
0.438485
0.447899
0.455879
0.458777
0.0077735
0.00772824
0.00770095
0.00768715
0.00767207
0.00766561
0.00765948
0.0076565
0.00765365
0.00765223
0.00765093
0.00765011
0.00764936
0.0076492
0.00764902
0.00764867
0.0076492
0.00765273
0.00765694
0.00765768
0.00765778
0.0076575
0.00765674
0.00765671
0.00765591
0.00765531
0.00765529
0.0076545
0.00765399
0.00765396
0.00765338
0.00765278
0.00765277
0.00765227
0.00765166
0.00765168
0.00765132
0.00765095
0.00765092
0.00765091
0.00765077
0.00765048
0.00765108
0.0076548
0.00765838
0.00765901
0.00765914
0.00765889
0.00765819
0.00765819
0.00765791
0.00765771
0.00765753
0.00765753
0.00765722
0.00765714
0.00765915
0.00766073
0.0076609
0.00766086
0.00766074
0.0076605
0.00766044
0.00765997
0.00765922
0.00765922
0.00765897
0.0076581
0.0076581
0.00765788
0.00765704
0.00765707
0.00765662
0.00765587
0.00765584
0.00765501
0.00765451
0.00765436
0.00765349
0.0076533
0.00765322
0.00765277
0.00765271
0.00765241
0.00765239
0.00765212
0.00765229
0.0076545
0.00765667
0.00765726
0.00765749
0.00765747
0.00765704
0.00765704
0.00765672
0.00765592
0.00765591
0.00765499
0.00765466
0.00765458
0.00765361
0.0076534
0.00765333
0.00765306
0.00765299
0.00765297
0.00765276
0.00765244
0.00765338
0.00765651
0.00765935
0.00766067
0.00766237
0.00766373
0.00766405
0.00766384
0.00766372
0.00766392
0.00766412
0.00766412
0.0076641
0.00766502
0.00766911
0.0076777
0.00769597
0.00773219
0.0078041
0.00796454
0.0083491
0.00934535
0.011905
0.0184765
0.0343762
0.0713336
0.148837
0.297191
0.536298
0.744902
0.772197
0.730155
0.614226
0.440886
0.237686
0.0858556
0.034017
0.0186104
0.0136122
0.01208
0.0115444
0.0114167
0.0114053
0.0114629
0.0114993
0.0114844
0.0114164
0.01139
0.011425
0.0115601
0.011862
0.0123499
0.0130542
0.0140683
0.0154968
0.0174714
0.020211
0.0238883
0.0289812
0.0355357
0.0441343
0.0542141
0.0666768
0.0807403
0.0984329
0.118011
0.141296
0.164401
0.19044
0.215831
0.243073
0.271948
0.298484
0.32542
0.345382
0.366335
0.380012
0.397102
0.406441
0.41947
0.42684
0.43872
0.444489
0.448681
0.450264
0.00777407
0.00772686
0.00770538
0.00768665
0.00767558
0.00766971
0.00766453
0.00766222
0.00765996
0.00765917
0.00765896
0.00765783
0.00765732
0.00765732
0.00765682
0.00765602
0.00765604
0.00765572
0.00765495
0.00765497
0.00765472
0.00765382
0.00765381
0.00765343
0.00765269
0.00765263
0.0076526
0.00765244
0.00765207
0.00765207
0.00765177
0.00765177
0.00765389
0.00765646
0.00765697
0.00765697
0.0076562
0.00765621
0.00765602
0.00765513
0.00765512
0.00765468
0.00765425
0.00765414
0.00765409
0.00765398
0.00765382
0.00765465
0.00765826
0.00766067
0.00766118
0.0076612
0.00766121
0.00766113
0.00766017
0.00766017
0.00765975
0.00765887
0.00765886
0.00765813
0.00765743
0.00765727
0.00765636
0.00765614
0.00765584
0.00765511
0.00765515
0.00765503
0.0076542
0.00765428
0.00765416
0.00765325
0.00765328
0.00765324
0.0076526
0.00765275
0.00765276
0.00765212
0.00765215
0.007652
0.00765192
0.00765191
0.00765179
0.0076532
0.00765716
0.00765877
0.00765868
0.00765822
0.00765826
0.00765822
0.00765811
0.00765816
0.00765797
0.00765796
0.00765773
0.00765785
0.00765785
0.007657
0.00765704
0.00765687
0.00765601
0.00765604
0.0076557
0.0076553
0.00765523
0.00765477
0.00765492
0.00765492
0.00765462
0.00765456
0.00765422
0.00765411
0.00765384
0.00765416
0.00765728
0.00766284
0.00766787
0.00766996
0.00767107
0.00767189
0.00767256
0.00767363
0.00767558
0.0076804
0.00769011
0.00770997
0.00774496
0.00780878
0.0079375
0.00823716
0.00897605
0.0108841
0.0156344
0.0272069
0.0530799
0.107202
0.205286
0.362337
0.556118
0.631675
0.617148
0.548668
0.442455
0.312194
0.175025
0.0693929
0.0305493
0.017754
0.0131361
0.0114817
0.0108298
0.0105475
0.0104079
0.0103422
0.0103298
0.0103473
0.0104616
0.0107364
0.0112436
0.0120813
0.0133198
0.0151223
0.0176323
0.0210913
0.0258149
0.0319949
0.040354
0.0509675
0.0647231
0.0804361
0.0990794
0.1186
0.141944
0.166806
0.196144
0.224048
0.253755
0.279628
0.304823
0.328403
0.347859
0.364638
0.375577
0.38723
0.394558
0.404976
0.411001
0.41978
0.424579
0.431535
0.434947
0.437388
0.438414
0.00777534
0.00772814
0.00770721
0.0076884
0.00767677
0.00766844
0.00766361
0.00765937
0.00765737
0.0076557
0.00765523
0.00765465
0.0076544
0.00765597
0.00765873
0.00765916
0.00765917
0.00765918
0.00765873
0.0076582
0.00765821
0.00765783
0.00765703
0.00765701
0.00765644
0.00765577
0.00765577
0.0076552
0.00765451
0.00765453
0.00765392
0.00765323
0.00765321
0.0076525
0.00765192
0.00765188
0.00765113
0.00765077
0.00765068
0.00765002
0.00764985
0.00764977
0.00764979
0.00764961
0.00764945
0.00765113
0.00765621
0.00765914
0.00765962
0.0076595
0.00765886
0.00765888
0.00765839
0.00765765
0.00765764
0.00765693
0.00765635
0.00765625
0.00765594
0.007656
0.00765566
0.00765557
0.00765528
0.00765543
0.00765687
0.00765772
0.00765777
0.0076572
0.00765729
0.00765724
0.00765643
0.00765645
0.00765616
0.00765535
0.00765535
0.00765481
0.00765409
0.0076541
0.0076532
0.00765278
0.00765272
0.00765186
0.00765158
0.0076515
0.00765138
0.00765123
0.00765098
0.00765087
0.00765054
0.00765136
0.00765498
0.0076584
0.00765911
0.00765932
0.00765935
0.00765906
0.0076592
0.00765916
0.00765917
0.00765901
0.00765868
0.00765867
0.00765771
0.00765761
0.00765875
0.0076592
0.00765959
0.00766027
0.00766121
0.00766223
0.00766288
0.00766352
0.00766391
0.0076642
0.00766423
0.00766424
0.00766391
0.00766395
0.0076639
0.00766377
0.00766374
0.0076637
0.00766433
0.00766703
0.0076735
0.00768496
0.00770343
0.00773457
0.00778761
0.00789048
0.0081106
0.00863862
0.0099248
0.0131033
0.0204704
0.0368139
0.068899
0.126309
0.211003
0.319373
0.412135
0.432087
0.403556
0.325426
0.233312
0.140515
0.0644145
0.0292748
0.0176773
0.0134381
0.0116609
0.0109742
0.0107223
0.0106707
0.0106745
0.0107797
0.011038
0.0115536
0.0124397
0.0138906
0.0162314
0.0196293
0.024521
0.0309404
0.0395292
0.050087
0.0637221
0.0800079
0.100788
0.124296
0.151406
0.177569
0.20523
0.231365
0.261001
0.287617
0.313715
0.331053
0.344954
0.356115
0.366767
0.376931
0.384464
0.392468
0.39807
0.405722
0.41082
0.417903
0.421892
0.427738
0.430554
0.432693
0.433512
0.00777267
0.00773056
0.00771103
0.00769002
0.0076769
0.00767053
0.00766323
0.0076593
0.00765675
0.00765385
0.00765265
0.00765189
0.00765069
0.00764967
0.00764958
0.00764942
0.0076489
0.00764888
0.00764879
0.00764865
0.00764836
0.00764839
0.00764823
0.00764818
0.00765026
0.00765436
0.00765572
0.00765559
0.00765526
0.00765518
0.00765462
0.00765429
0.00765407
0.00765329
0.00765332
0.00765316
0.00765266
0.0076526
0.00765249
0.00765238
0.00765217
0.007653
0.00765579
0.00765739
0.00765733
0.00765734
0.007657
0.0076563
0.00765625
0.00765529
0.00765498
0.00765498
0.00765392
0.00765366
0.00765368
0.00765292
0.00765273
0.00765274
0.00765249
0.00765249
0.0076523
0.00765234
0.00765439
0.00765804
0.00765893
0.00765911
0.00765901
0.00765829
0.00765827
0.00765776
0.00765709
0.00765704
0.00765661
0.0076564
0.00765635
0.00765579
0.00765581
0.00765556
0.00765476
0.00765474
0.00765404
0.00765349
0.00765325
0.00765259
0.00765246
0.00765206
0.0076514
0.00765142
0.00765145
0.00765104
0.007651
0.00765086
0.00765029
0.00765027
0.00765001
0.0076502
0.00765328
0.00766051
0.00766529
0.00766612
0.00766607
0.00766609
0.00766613
0.00766591
0.00766591
0.00766562
0.00766529
0.00766536
0.00766507
0.00766509
0.00766461
0.00766441
0.00766547
0.00766627
0.00766661
0.00766688
0.00766682
0.00766673
0.00766693
0.00766727
0.00766734
0.00766721
0.00766725
0.00766974
0.00767545
0.00768601
0.00770161
0.00772294
0.00775436
0.00780412
0.00789052
0.00806092
0.00842629
0.00927167
0.011199
0.0155614
0.0245398
0.0418511
0.0701678
0.111755
0.159753
0.203989
0.223772
0.22205
0.197136
0.146151
0.0972448
0.0572278
0.0344953
0.0241267
0.0188595
0.0150289
0.0121676
0.0113294
0.0111522
0.0111846
0.0115189
0.0123852
0.0139003
0.0162931
0.0200002
0.0253656
0.033156
0.0435525
0.0573377
0.0738494
0.0937759
0.115981
0.142859
0.172208
0.205367
0.235823
0.264677
0.286551
0.307849
0.323741
0.340309
0.350261
0.359516
0.365273
0.372973
0.380223
0.387243
0.393729
0.399522
0.406037
0.411618
0.418265
0.422604
0.427861
0.430527
0.432637
0.433409
0.00777372
0.00773457
0.00771664
0.00769736
0.00768283
0.00767593
0.00766824
0.00766476
0.00766039
0.00765855
0.00765628
0.00765537
0.0076542
0.00765376
0.00765274
0.00765183
0.00765158
0.00765142
0.00765123
0.00765115
0.00765089
0.00765128
0.00765523
0.00766087
0.00766222
0.00766215
0.00766198
0.00766172
0.00766103
0.00766095
0.00766057
0.0076598
0.00765981
0.00765946
0.00765867
0.00765867
0.0076583
0.00765752
0.0076575
0.007657
0.00765661
0.00765653
0.0076564
0.00765633
0.00765601
0.00765633
0.00765829
0.00765929
0.00765931
0.00765933
0.00765927
0.00765833
0.00765833
0.00765808
0.0076572
0.00765719
0.00765684
0.007656
0.00765601
0.00765539
0.00765478
0.0076548
0.00765416
0.00765347
0.00765345
0.00765294
0.00765243
0.00765252
0.00765243
0.00765201
0.00765188
0.00765158
0.00765207
0.00765527
0.0076586
0.00765919
0.00765896
0.00765897
0.00765858
0.00765782
0.0076578
0.00765708
0.00765644
0.00765623
0.00765544
0.00765529
0.00765502
0.00765428
0.00765432
0.00765415
0.00765333
0.00765334
0.00765311
0.00765225
0.00765228
0.00765192
0.00765113
0.00765114
0.00765065
0.00765021
0.0076501
0.00764982
0.0076498
0.0076497
0.0076496
0.00765158
0.00765609
0.0076616
0.00766477
0.00766618
0.00766757
0.00766992
0.00767218
0.00767288
0.00767316
0.00767309
0.00767292
0.00767335
0.00767357
0.0076735
0.00767336
0.00767333
0.00767319
0.00767351
0.00767618
0.00768235
0.00769117
0.00770459
0.00772464
0.00775612
0.0078035
0.00788074
0.00801319
0.0082677
0.00877967
0.00987686
0.0121339
0.0166592
0.0246222
0.0375955
0.0549489
0.0754337
0.0933518
0.0979862
0.0977139
0.0922172
0.0788503
0.0565057
0.0375374
0.0261581
0.0216266
0.0191777
0.0165073
0.0137829
0.0130313
0.0130014
0.0134647
0.0150279
0.0178122
0.0219439
0.0278748
0.0360905
0.047798
0.063301
0.0837559
0.107863
0.135783
0.164095
0.194345
0.223756
0.255816
0.284162
0.308727
0.322618
0.332479
0.33863
0.348287
0.356181
0.364489
0.369446
0.375863
0.382378
0.390224
0.397885
0.405633
0.413592
0.421106
0.42921
0.434945
0.440964
0.444332
0.446865
0.447707
0.00777853
0.00774122
0.00772148
0.00770242
0.00768851
0.00767977
0.00767324
0.00766889
0.00766638
0.00766348
0.00766172
0.00766094
0.00766071
0.00765977
0.00765942
0.00765944
0.00765926
0.00765903
0.00765983
0.00765996
0.00766003
0.00765997
0.00765907
0.00765908
0.00765899
0.00765803
0.00765802
0.00765777
0.00765693
0.00765693
0.00765648
0.0076558
0.00765579
0.00765551
0.00765469
0.00765469
0.00765429
0.0076535
0.00765347
0.00765271
0.0076522
0.00765232
0.0076523
0.00765186
0.00765175
0.00765152
0.00765171
0.00765416
0.00765643
0.0076568
0.00765676
0.00765661
0.00765654
0.00765626
0.00765671
0.00765865
0.00765969
0.00765971
0.00765972
0.00765967
0.00765877
0.00765875
0.00765827
0.00765752
0.00765751
0.00765671
0.00765637
0.00765628
0.00765535
0.00765512
0.00765504
0.0076545
0.00765442
0.00765429
0.0076543
0.00765401
0.00765407
0.00765614
0.00765815
0.00765828
0.00765827
0.00765779
0.0076572
0.00765699
0.00765619
0.00765603
0.0076557
0.00765482
0.00765484
0.00765477
0.00765382
0.00765382
0.0076536
0.00765274
0.00765275
0.00765233
0.00765221
0.00765211
0.0076519
0.00765187
0.00765153
0.00765169
0.00765412
0.00765679
0.00765791
0.00765865
0.00765997
0.00766043
0.00766042
0.00766004
0.00766009
0.00765987
0.00765912
0.00765915
0.00765877
0.00765868
0.00765997
0.00766051
0.00766068
0.00766043
0.00766048
0.00766039
0.00766027
0.00766089
0.00766353
0.00766962
0.00767989
0.00769429
0.00771364
0.0077383
0.00776948
0.00781393
0.00788018
0.00798776
0.00816449
0.00848312
0.00906855
0.0101986
0.012214
0.0157071
0.0208358
0.0276328
0.0355713
0.041243
0.0430129
0.0424962
0.0406228
0.0367947
0.0317307
0.0244648
0.0218339
0.0214798
0.021668
0.0210782
0.0184253
0.0167877
0.0166743
0.018097
0.0221624
0.028943
0.0383223
0.0502765
0.0662879
0.0869067
0.113646
0.144694
0.179738
0.213428
0.24493
0.269769
0.292693
0.310787
0.327641
0.336587
0.342618
0.346043
0.351965
0.358358
0.367092
0.373955
0.382132
0.390352
0.400817
0.411338
0.422159
0.432522
0.442463
0.452538
0.459866
0.467001
0.47096
0.473883
0.474779
0.00776435
0.00773846
0.00771381
0.00770109
0.00768512
0.00767498
0.00766928
0.00766324
0.0076596
0.00765712
0.00765513
0.00765414
0.00765333
0.00765312
0.00765276
0.00765265
0.0076552
0.00765919
0.00766005
0.00766
0.00765932
0.00765932
0.00765915
0.00765836
0.00765835
0.00765786
0.00765715
0.00765714
0.00765641
0.0076558
0.00765576
0.00765525
0.00765504
0.00765488
0.0076548
0.00765462
0.00765475
0.00765637
0.00765767
0.00765772
0.00765714
0.00765714
0.00765664
0.00765594
0.00765595
0.0076554
0.00765466
0.00765467
0.0076545
0.00765403
0.00765409
0.00765392
0.00765348
0.00765331
0.00765296
0.00765359
0.00765635
0.00765794
0.00765801
0.00765804
0.00765765
0.00765724
0.00765722
0.00765712
0.00765697
0.00765662
0.0076571
0.00765939
0.00766021
0.0076602
0.00765964
0.00765965
0.00765933
0.00765848
0.0076585
0.00765793
0.00765725
0.00765728
0.00765676
0.0076561
0.00765612
0.00765576
0.00765502
0.00765504
0.00765489
0.00765446
0.00765438
0.00765439
0.00765432
0.00765421
0.00765518
0.00765919
0.00766293
0.00766366
0.00766368
0.00766297
0.00766298
0.00766275
0.00766182
0.00766185
0.00766164
0.00766074
0.00766084
0.00766081
0.00765993
0.00766
0.00766002
0.00765906
0.00765908
0.00765884
0.00765813
0.00765809
0.00765793
0.00765784
0.00765763
0.00765779
0.00766009
0.00766224
0.00766257
0.00766261
0.00766228
0.00766227
0.0076623
0.00766247
0.00766483
0.00767007
0.00767727
0.00768807
0.0077022
0.00771975
0.00774217
0.00777243
0.00781503
0.00787716
0.00796701
0.00810157
0.00830502
0.00863564
0.00917397
0.0100757
0.0114413
0.0133727
0.0158619
0.0184061
0.0204445
0.0209131
0.0209117
0.0201668
0.0191266
0.0177439
0.017434
0.0176605
0.0190144
0.0210744
0.022334
0.0223127
0.0220406
0.0230675
0.0278049
0.0370535
0.0507937
0.0683651
0.0903454
0.11642
0.148013
0.183173
0.221644
0.257539
0.28827
0.307194
0.318927
0.325025
0.333353
0.340407
0.348134
0.351997
0.357124
0.362893
0.373285
0.383997
0.396098
0.407386
0.420536
0.434536
0.448332
0.461765
0.474105
0.486523
0.495545
0.50397
0.508465
0.511808
0.512756
0.00777888
0.00775278
0.00772891
0.00770984
0.00769875
0.00768646
0.00768079
0.00767281
0.00766911
0.00766605
0.00766398
0.00766165
0.00766054
0.00765924
0.00765891
0.0076583
0.00765821
0.00765783
0.00765797
0.00765974
0.00766047
0.00766047
0.00766028
0.00765981
0.00765965
0.00765951
0.00765866
0.00765866
0.00765841
0.00765765
0.00765764
0.00765721
0.00765642
0.00765641
0.00765588
0.00765536
0.00765535
0.00765534
0.00765522
0.00765489
0.00765524
0.00765687
0.00765778
0.0076578
0.00765781
0.00765765
0.00765675
0.00765674
0.00765623
0.00765547
0.00765539
0.00765454
0.00765417
0.00765399
0.00765359
0.0076535
0.00765342
0.00765326
0.00765298
0.00765395
0.00765713
0.00765849
0.00765866
0.00765861
0.00765773
0.00765775
0.00765714
0.00765663
0.0076566
0.00765587
0.00765561
0.00765546
0.00765496
0.00765484
0.00765477
0.00765461
0.00765445
0.00765415
0.007655
0.00765728
0.00765805
0.00765809
0.00765736
0.00765735
0.00765709
0.00765634
0.00765633
0.00765578
0.00765511
0.00765507
0.00765461
0.00765446
0.00765425
0.00765426
0.00765405
0.00765393
0.00765531
0.00765816
0.00765886
0.00765906
0.00765898
0.0076587
0.00765905
0.00766094
0.00766155
0.00766173
0.00766165
0.00766105
0.00766108
0.00766068
0.00765982
0.00765985
0.00765947
0.00765867
0.00765869
0.00765868
0.00765823
0.00765836
0.0076582
0.00765782
0.0076579
0.00765794
0.00765781
0.0076577
0.00765817
0.00766041
0.00766589
0.00767458
0.00768718
0.00770349
0.00772268
0.00774653
0.00777727
0.00781947
0.0078765
0.0079573
0.00806416
0.00821382
0.00841586
0.0087114
0.00911561
0.00967452
0.0104033
0.0112181
0.0121082
0.0127094
0.0129303
0.0128897
0.0127513
0.012506
0.0125108
0.0127785
0.0138296
0.015995
0.0195693
0.0236557
0.0283144
0.0322255
0.0367316
0.045069
0.0610616
0.0847146
0.114925
0.148602
0.184408
0.220185
0.256792
0.290536
0.31763
0.328744
0.333446
0.335495
0.338205
0.343491
0.351622
0.359291
0.366948
0.37468
0.385857
0.400596
0.416628
0.432222
0.447671
0.465099
0.481449
0.49804
0.512647
0.52742
0.538414
0.548834
0.553896
0.557761
0.558807
0.00775622
0.00773723
0.00771283
0.0077011
0.00768547
0.00767711
0.00766914
0.0076647
0.00765976
0.00765736
0.00765572
0.00765442
0.00765349
0.00765249
0.00765238
0.00765204
0.00765171
0.0076525
0.00765338
0.00765353
0.00765336
0.0076531
0.00765301
0.00765256
0.00765256
0.00765181
0.00765163
0.00765297
0.00765444
0.00765494
0.00765504
0.00765486
0.00765486
0.00765467
0.00765396
0.00765411
0.0076541
0.00765358
0.0076537
0.00765374
0.00765332
0.00765346
0.00765335
0.00765271
0.00765275
0.00765266
0.00765193
0.00765203
0.00765205
0.00765107
0.00765107
0.007651
0.00764997
0.00764997
0.00764959
0.00764874
0.00764874
0.00764811
0.00764754
0.00764754
0.00764745
0.00764694
0.00764694
0.00764683
0.00764658
0.00764648
0.0076461
0.00764659
0.00765005
0.0076534
0.00765416
0.00765416
0.00765355
0.00765353
0.00765337
0.00765325
0.00765321
0.00765287
0.0076529
0.00765254
0.00765252
0.00765412
0.00765562
0.007656
0.00765601
0.00765567
0.00765568
0.00765545
0.0076545
0.00765448
0.00765379
0.00765314
0.00765302
0.00765277
0.0076527
0.00765233
0.00765228
0.00765224
0.00765216
0.00765217
0.00765177
0.00765177
0.00765115
0.00765113
0.00765275
0.00765442
0.0076551
0.00765595
0.00765718
0.00765797
0.00765836
0.00765847
0.00765846
0.00765822
0.00765852
0.00765845
0.00765823
0.00765847
0.00765851
0.007658
0.00765813
0.00765806
0.00765796
0.00765804
0.00765831
0.0076607
0.00766594
0.00767459
0.00768745
0.00770343
0.00772226
0.00774399
0.00777049
0.00780303
0.00784758
0.00790685
0.0079845
0.00808409
0.00820819
0.00836225
0.00854919
0.00877535
0.0090478
0.00934312
0.00967231
0.00994935
0.0101866
0.0102713
0.0103023
0.0102938
0.0103409
0.0104798
0.0109547
0.0119408
0.0140196
0.0177976
0.0239702
0.0320009
0.0413136
0.0518
0.066937
0.0914224
0.12716
0.170252
0.215499
0.257225
0.292754
0.318417
0.33623
0.344737