/*--------------------------------*- C++ -*----------------------------------*\
| =========                 |                                                 |
| \\      /  F ield         | OpenFOAM: The Open Source CFD Toolbox           |
|  \\    /   O peration     | Version:  4.1                                   |
|   \\  /    A nd           | Web:      www.OpenFOAM.org                      |
|    \\/     M anipulation  |                                                 |
\*---------------------------------------------------------------------------*/
FoamFile
{
    version     2.0;
    format      ascii;
    class       volScalarField;
    location    "2.5";
    object      k;
}
// * * * * * * * * * * * * * * * * * * * * * * * * * * * * * * * * * * * * * //

dimensions      [0 2 -2 0 0 0 0];

internalField   nonuniform List<scalar> 
204246
(
1.21542
1.23449
1.23517
1.23392
1.23817
1.23503
1.2376
1.23556
1.23794
1.23594
1.23874
1.23708
1.24078
1.23921
1.244
1.24219
1.24567
1.24273
1.24149
1.24321
1.23961
1.24163
1.23744
1.23875
1.23605
1.23807
1.23643
1.23906
1.23742
1.24183
1.2403
1.24531
1.24399
1.2478
1.24532
1.24711
1.24452
1.24281
1.24417
1.23993
1.24097
1.23747
1.23914
1.23738
1.23991
1.23822
1.24256
1.24097
1.24583
1.24448
1.24795
1.24691
1.24908
1.24704
1.24573
1.24756
1.2442
1.24556
1.24187
1.24268
1.2383
1.23935
1.2369
1.24031
1.23833
1.24279
1.24133
1.2454
1.24471
1.2486
1.24743
1.24672
1.24739
1.2441
1.24498
1.24077
1.24144
1.23681
1.23781
1.23535
1.23879
1.23683
1.24132
1.23988
1.24395
1.24324
1.24707
1.24583
1.24503
1.24565
1.24238
1.2433
1.23929
1.24016
1.23732
1.24033
1.23819
1.24181
1.24002
1.24468
1.24331
1.24737
1.24674
1.24948
1.24759
1.24909
1.24638
1.24577
1.24736
1.24636
1.24914
1.24804
1.25287
1.2517
1.25771
1.25726
1.26466
1.2657
1.27524
1.27817
1.28817
1.29219
1.30276
1.30876
1.32251
1.33353
1.35233
1.37554
1.40904
1.45519
1.52184
1.61544
1.73674
1.81599
1.83157
1.81811
1.72943
1.57237
1.46934
1.42822
1.3865
1.32279
1.24983
1.19491
1.13996
1.06871
1.00292
0.962473
0.925314
0.871585
0.824004
0.791336
0.755596
0.713036
0.67866
0.642787
0.613607
0.577837
0.551204
0.523364
0.499989
0.473557
0.449307
0.428789
0.405607
0.388829
0.365651
0.3518
0.330351
0.320015
0.299997
0.291185
0.274152
0.266841
0.253339
0.247699
0.237437
0.232837
0.226435
0.223278
0.221441
0.220953
0.221162
0.221771
0.223715
0.226912
0.23234
0.240085
0.249553
0.261335
0.274005
0.287402
0.291912
0.0636705
0.198593
0.198197
0.198475
0.203893
0.202379
0.207351
0.20669
0.212048
0.211532
0.217455
0.216929
0.222964
0.221383
0.227576
0.225258
0.22932
0.225957
0.22455
0.226485
0.220869
0.223076
0.217476
0.219866
0.217693
0.221
0.219408
0.22386
0.221914
0.228207
0.226238
0.232566
0.230164
0.233885
0.229766
0.231964
0.228696
0.22443
0.2265
0.219774
0.221204
0.217365
0.219987
0.218111
0.222129
0.2201
0.226396
0.224506
0.231119
0.228944
0.233658
0.231669
0.234055
0.231234
0.22789
0.23042
0.224797
0.22649
0.22127
0.222368
0.216918
0.218301
0.214797
0.219175
0.216886
0.22351
0.221949
0.229638
0.229295
0.235535
0.234015
0.231223
0.232538
0.226912
0.227833
0.221102
0.221901
0.216207
0.217784
0.21468
0.219313
0.217121
0.223866
0.22231
0.229764
0.22928
0.235152
0.233533
0.230693
0.23219
0.227312
0.228573
0.223196
0.224558
0.219969
0.223705
0.220815
0.225709
0.223441
0.229784
0.227881
0.23404
0.233035
0.23749
0.235209
0.237436
0.233158
0.231901
0.233911
0.231764
0.235306
0.232855
0.239045
0.2371
0.246216
0.245459
0.258241
0.259681
0.277143
0.280513
0.303158
0.309139
0.340181
0.351177
0.382681
0.421998
0.460357
0.539205
0.603207
0.74509
0.888954
1.1558
1.43276
1.56796
1.57997
1.48957
1.21151
0.847215
0.568318
0.458001
0.395583
0.348774
0.304857
0.269324
0.261421
0.243201
0.237874
0.214177
0.207046
0.184574
0.178505
0.162725
0.159541
0.148439
0.146392
0.135857
0.13361
0.123039
0.118522
0.114394
0.108567
0.107431
0.101902
0.101249
0.0970785
0.0968785
0.0941094
0.094296
0.0931777
0.0939752
0.0937896
0.0957403
0.0979382
0.10219
0.106889
0.112917
0.120572
0.129133
0.139756
0.151538
0.165432
0.18087
0.198193
0.218529
0.243031
0.272916
0.308681
0.350449
0.39784
0.451997
0.51711
0.567114
0.585222
0.0176527
0.0231779
0.0232355
0.0230319
0.0233604
0.023169
0.0236335
0.0235696
0.0240517
0.0240615
0.0246957
0.0247976
0.0256181
0.0255438
0.0264282
0.0260477
0.0265871
0.0260444
0.0258467
0.0258896
0.0250533
0.0252656
0.024581
0.0249812
0.0247156
0.0251929
0.0250493
0.025717
0.0255355
0.0265302
0.0263504
0.0272644
0.026774
0.027236
0.0265263
0.0268172
0.026201
0.0257938
0.025832
0.0248642
0.0250648
0.0246138
0.0250146
0.0248128
0.0253701
0.0251621
0.0260105
0.0257889
0.0267786
0.0265035
0.027216
0.026873
0.0272175
0.0267374
0.0264092
0.0265569
0.0257454
0.0259718
0.0251484
0.0252558
0.0244454
0.024668
0.0242346
0.0248532
0.0246244
0.0255059
0.0254185
0.0267747
0.0268253
0.0275661
0.0271924
0.026829
0.0268763
0.0259991
0.0261072
0.0250936
0.0251629
0.0244037
0.0246917
0.0243515
0.0250128
0.0248012
0.0257645
0.0256944
0.02694
0.0268857
0.0275244
0.0271122
0.0267288
0.026782
0.025943
0.0260686
0.0252202
0.0254174
0.0249079
0.0255072
0.0251572
0.0258806
0.0256194
0.0266082
0.0264014
0.0274051
0.0272697
0.0277856
0.027305
0.0275522
0.0267638
0.0265543
0.0266497
0.0264278
0.0270293
0.0267272
0.0277144
0.027454
0.0289353
0.0288615
0.0313603
0.0319856
0.0359161
0.037101
0.0429372
0.0451083
0.0537187
0.0583017
0.0708202
0.0861464
0.108846
0.147532
0.201708
0.300967
0.451877
0.720646
1.11387
1.39678
1.43499
1.31583
0.942856
0.44928
0.20298
0.125615
0.0939954
0.079878
0.0737854
0.0688912
0.0678049
0.0660118
0.065898
0.0636684
0.0631978
0.0605454
0.0600003
0.0586125
0.0587232
0.0584668
0.0590444
0.0589642
0.059364
0.0590555
0.058842
0.0588581
0.0585672
0.0587776
0.0586805
0.0592876
0.0594242
0.0608414
0.0614548
0.0637606
0.0649081
0.0684492
0.0707306
0.0760598
0.0800237
0.0876616
0.0940766
0.104881
0.11495
0.129802
0.144739
0.164299
0.185918
0.21332
0.244477
0.280963
0.322364
0.36878
0.422058
0.478277
0.541674
0.598206
0.638664
0.654126
0.658665
0.0179253
0.0178661
0.0178151
0.0177867
0.017793
0.0177791
0.0177885
0.0177797
0.0177896
0.0177858
0.0177993
0.0177998
0.0178159
0.0178168
0.017838
0.0178368
0.0178608
0.0178559
0.0178592
0.0178677
0.0178415
0.0178493
0.0178265
0.017839
0.017828
0.0178421
0.0178372
0.0178563
0.0178505
0.0178814
0.0178752
0.0179128
0.0178932
0.0179147
0.0178858
0.0178985
0.0178766
0.0178618
0.0178636
0.0178295
0.0178371
0.0178224
0.0178356
0.0178295
0.0178484
0.0178426
0.0178734
0.0178676
0.0179078
0.0178951
0.0179188
0.0179019
0.0179162
0.0178959
0.0178823
0.0178882
0.0178571
0.0178664
0.0178379
0.0178421
0.017811
0.0178141
0.0177933
0.0178101
0.017803
0.01783
0.0178295
0.0178846
0.0179017
0.0179316
0.0179151
0.0178976
0.0179016
0.0178684
0.0178735
0.0178363
0.0178386
0.0178124
0.0178215
0.0178084
0.0178287
0.0178231
0.0178545
0.0178548
0.0179142
0.0179198
0.017943
0.0179239
0.0179059
0.0179111
0.0178798
0.0178854
0.0178521
0.0178568
0.0178337
0.0178524
0.0178371
0.0178608
0.0178517
0.017884
0.0178788
0.0179241
0.0179192
0.0179456
0.0179253
0.0179383
0.0179046
0.0178949
0.0178937
0.0178761
0.0178975
0.017883
0.0179226
0.0179105
0.0179841
0.0179868
0.0181517
0.0182355
0.0185614
0.0187624
0.019348
0.0197348
0.0207944
0.0217577
0.0239319
0.0275272
0.0338017
0.0463605
0.0690831
0.115661
0.202814
0.372244
0.66429
1.10545
1.30371
1.2998
1.04516
0.55208
0.205853
0.0917443
0.0532731
0.0412543
0.0377163
0.0365938
0.0365189
0.0365855
0.0374695
0.0379123
0.0380918
0.0378856
0.0376059
0.0367389
0.0363588
0.0361566
0.0362104
0.0361546
0.03622
0.0361418
0.0361236
0.0362297
0.036225
0.0365192
0.0367484
0.0374856
0.0380696
0.0392327
0.0403113
0.0420044
0.0438607
0.0466374
0.0501959
0.0549488
0.060918
0.0682016
0.0775455
0.0886488
0.103064
0.119914
0.139303
0.163243
0.188834
0.221973
0.256068
0.3
0.343246
0.39894
0.45382
0.526277
0.596454
0.682924
0.755075
0.813402
0.834455
0.0179412
0.0178792
0.0178181
0.017794
0.0177815
0.0177711
0.0177672
0.0177649
0.0177639
0.0177629
0.0177636
0.0177647
0.0177645
0.0177641
0.0177645
0.0177645
0.0177645
0.0177638
0.0177638
0.0177637
0.0177619
0.017762
0.0177609
0.0177604
0.0177604
0.0177602
0.0177592
0.0177592
0.0177587
0.0177591
0.017759
0.0177587
0.0177582
0.01776
0.0177601
0.0177605
0.0177601
0.017759
0.0177591
0.017758
0.0177579
0.017757
0.0177565
0.0177558
0.0177556
0.0177549
0.0177557
0.0177556
0.0177556
0.0177546
0.0177548
0.0177541
0.0177539
0.0177536
0.0177534
0.0177565
0.0177618
0.0177635
0.0177635
0.0177634
0.0177626
0.0177627
0.0177614
0.0177608
0.0177607
0.0177607
0.0177591
0.0177591
0.0177591
0.0177578
0.0177572
0.0177571
0.0177565
0.017755
0.0177551
0.0177538
0.0177533
0.0177533
0.0177529
0.0177516
0.0177517
0.0177509
0.0177508
0.0177508
0.0177497
0.0177494
0.0177501
0.01775
0.0177496
0.0177491
0.0177503
0.0177569
0.017763
0.0177655
0.0177664
0.0177683
0.0177688
0.0177698
0.0177697
0.0177697
0.0177685
0.0177686
0.017768
0.0177679
0.0177661
0.017766
0.0177659
0.0177656
0.0177655
0.0177646
0.0177649
0.0177647
0.0177647
0.017764
0.0177647
0.0177641
0.017765
0.0177682
0.0177805
0.0177992
0.0178384
0.0178903
0.017999
0.0181685
0.01853
0.0192881
0.0208577
0.0244265
0.0321497
0.0497696
0.0877995
0.169765
0.331304
0.625496
1.04228
1.20863
1.18381
0.924704
0.445933
0.159559
0.0722273
0.042699
0.0327314
0.0299474
0.0293545
0.0293858
0.0300232
0.0306786
0.0308474
0.0307711
0.0304757
0.0300424
0.0299948
0.0299847
0.0301269
0.0302756
0.0304329
0.0304517
0.030496
0.0306761
0.0309639
0.0316758
0.0325664
0.0340725
0.035808
0.0383471
0.0413667
0.0455376
0.0507806
0.0579071
0.0672823
0.0794307
0.0950099
0.113597
0.136606
0.162772
0.195599
0.232808
0.275109
0.323452
0.372883
0.429844
0.485635
0.549218
0.606292
0.670398
0.72523
0.784748
0.827472
0.874861
0.903574
0.926681
0.935089
0.0179102
0.0178501
0.0178008
0.0177801
0.0177655
0.0177579
0.0177541
0.0177508
0.017749
0.0177483
0.0177481
0.0177463
0.0177459
0.0177458
0.0177447
0.0177443
0.0177443
0.0177441
0.0177436
0.0177425
0.0177414
0.0177406
0.0177403
0.0177396
0.0177394
0.017739
0.0177386
0.0177378
0.0177372
0.0177361
0.0177356
0.0177345
0.017734
0.0177335
0.0177321
0.0177316
0.0177316
0.0177309
0.0177304
0.0177303
0.0177301
0.0177298
0.0177295
0.017729
0.0177303
0.017738
0.0177514
0.017756
0.0177565
0.0177566
0.0177566
0.0177562
0.0177558
0.0177558
0.0177549
0.0177548
0.0177557
0.0177562
0.0177561
0.0177554
0.0177554
0.0177546
0.017754
0.0177538
0.0177528
0.0177527
0.0177524
0.0177518
0.0177517
0.0177517
0.0177515
0.0177513
0.0177523
0.0177552
0.0177563
0.0177561
0.0177551
0.0177552
0.0177551
0.0177539
0.017754
0.0177536
0.0177525
0.0177525
0.0177518
0.0177512
0.017751
0.0177505
0.0177504
0.01775
0.0177497
0.0177493
0.0177486
0.0177486
0.0177475
0.0177468
0.0177468
0.0177458
0.017745
0.017745
0.0177442
0.0177433
0.0177433
0.0177428
0.017742
0.0177422
0.0177421
0.0177416
0.0177415
0.0177411
0.0177414
0.017745
0.0177534
0.0177646
0.0177755
0.0177835
0.0177892
0.017795
0.0178021
0.0178098
0.0178176
0.0178277
0.0178469
0.0178851
0.0179631
0.0181396
0.0185383
0.019516
0.021862
0.0276652
0.0414156
0.073675
0.143931
0.288575
0.547799
0.934983
1.11723
1.11639
0.9783
0.677944
0.359406
0.152297
0.0708267
0.0417941
0.0307132
0.0267776
0.0252326
0.0246743
0.0245207
0.0244865
0.0245447
0.0246349
0.024867
0.0251152
0.0254405
0.0255997
0.0257455
0.0257994
0.0259488
0.02624
0.0267783
0.0276984
0.028984
0.0309703
0.0336371
0.0375242
0.0429313
0.0503218
0.0602211
0.0725039
0.0887346
0.108286
0.133656
0.162144
0.196936
0.233442
0.278035
0.325274
0.378154
0.436698
0.494902
0.561936
0.623313
0.692084
0.745498
0.802249
0.833266
0.868736
0.887039
0.913929
0.927478
0.938756
0.942802
0.0179541
0.0178713
0.0178317
0.0178048
0.017781
0.01777
0.0177604
0.0177554
0.0177507
0.0177482
0.0177462
0.0177454
0.0177453
0.0177447
0.0177446
0.0177482
0.0177561
0.0177587
0.0177587
0.0177587
0.017758
0.0177573
0.0177573
0.017756
0.0177555
0.0177555
0.0177546
0.0177538
0.0177538
0.017753
0.0177523
0.0177523
0.0177517
0.0177507
0.0177506
0.0177496
0.0177492
0.0177491
0.0177484
0.0177484
0.017748
0.0177479
0.0177474
0.017748
0.0177528
0.0177643
0.0177691
0.0177699
0.01777
0.0177695
0.0177694
0.0177687
0.0177687
0.0177683
0.0177673
0.0177672
0.017766
0.0177653
0.0177649
0.0177637
0.0177633
0.0177627
0.0177616
0.0177613
0.0177603
0.0177596
0.0177592
0.0177582
0.017758
0.017758
0.0177571
0.0177572
0.0177569
0.0177559
0.0177559
0.017755
0.0177543
0.0177541
0.0177533
0.0177529
0.0177529
0.0177525
0.0177522
0.0177522
0.0177519
0.0177519
0.0177552
0.0177602
0.0177612
0.0177613
0.017761
0.0177601
0.0177601
0.017759
0.0177585
0.0177584
0.0177574
0.0177569
0.0177568
0.0177563
0.0177561
0.0177554
0.0177555
0.0177554
0.0177551
0.017755
0.0177546
0.0177549
0.0177583
0.0177644
0.0177685
0.0177704
0.017772
0.0177737
0.017774
0.017774
0.0177737
0.0177732
0.0177737
0.0177742
0.0177758
0.01778
0.0177906
0.0178103
0.0178476
0.0179153
0.0180463
0.0183335
0.0190146
0.0207505
0.0250946
0.0359156
0.0612208
0.117952
0.232369
0.44271
0.765108
0.997512
1.024
0.977156
0.840739
0.626041
0.359682
0.139066
0.0590842
0.0351829
0.0273808
0.024983
0.0241494
0.0239491
0.0239299
0.0240137
0.0240783
0.0240687
0.0240269
0.0240206
0.0241476
0.0245012
0.0252053
0.0263095
0.0279156
0.030217
0.033513
0.0380835
0.0445336
0.0531897
0.0652223
0.0805614
0.100703
0.124297
0.153774
0.187168
0.229362
0.275776
0.331064
0.385773
0.448179
0.509187
0.575259
0.644396
0.70233
0.752787
0.782859
0.813922
0.829856
0.851266
0.861666
0.880232
0.890659
0.906795
0.914295
0.919448
0.921551
0.0179485
0.017873
0.0178381
0.0178073
0.0177888
0.0177795
0.0177715
0.0177681
0.0177649
0.0177625
0.0177613
0.0177609
0.0177595
0.0177585
0.0177585
0.0177577
0.0177566
0.0177566
0.017756
0.0177551
0.0177551
0.0177543
0.0177534
0.0177534
0.0177526
0.017752
0.0177521
0.017752
0.0177515
0.0177513
0.0177509
0.0177515
0.0177552
0.0177581
0.0177584
0.0177582
0.0177584
0.0177584
0.0177579
0.017758
0.0177581
0.0177578
0.0177578
0.0177577
0.0177577
0.0177576
0.0177575
0.0177569
0.0177554
0.0177531
0.0177508
0.0177497
0.0177496
0.0177496
0.0177488
0.0177488
0.0177482
0.0177476
0.0177475
0.0177466
0.0177461
0.0177459
0.0177446
0.0177443
0.017744
0.0177428
0.0177425
0.0177422
0.0177406
0.0177402
0.0177402
0.017739
0.0177385
0.0177385
0.0177384
0.0177378
0.0177376
0.0177373
0.0177382
0.0177438
0.0177551
0.0177591
0.0177594
0.017759
0.0177575
0.017755
0.017753
0.0177511
0.0177505
0.0177505
0.0177499
0.0177498
0.0177495
0.0177498
0.0177535
0.0177597
0.0177613
0.0177616
0.0177617
0.0177617
0.0177613
0.0177601
0.0177601
0.0177593
0.0177587
0.0177587
0.0177585
0.0177582
0.0177582
0.017758
0.0177577
0.0177577
0.0177574
0.0177584
0.0177634
0.0177722
0.0177817
0.0177857
0.0177875
0.0177886
0.0177897
0.017792
0.0177967
0.0178077
0.0178284
0.0178662
0.0179283
0.0180404
0.0182662
0.018793
0.0200784
0.023336
0.0312483
0.0500077
0.090725
0.173342
0.318598
0.545956
0.797992
0.880246
0.861854
0.78075
0.646243
0.469607
0.270828
0.111641
0.0525431
0.0334324
0.0265304
0.0240253
0.0230215
0.0225995
0.0224236
0.0223669
0.0223702
0.0224581
0.0227693
0.0234441
0.0246585
0.0266334
0.0295826
0.033874
0.0399217
0.048234
0.0596626
0.0746609
0.0950831
0.120983
0.154598
0.192948
0.238599
0.286582
0.344176
0.405224
0.47697
0.544814
0.616463
0.673686
0.721886
0.75875
0.784589
0.805314
0.816505
0.83081
0.838865
0.852103
0.859109
0.870247
0.875638
0.883344
0.887253
0.889708
0.890983
0.01795
0.0178745
0.0178413
0.0178109
0.0177891
0.0177793
0.0177696
0.0177642
0.0177618
0.0177607
0.01776
0.0177594
0.0177596
0.0177594
0.0177585
0.0177577
0.0177576
0.0177561
0.0177554
0.0177554
0.0177545
0.0177538
0.0177538
0.017753
0.0177521
0.017752
0.0177509
0.0177503
0.0177501
0.017749
0.0177486
0.0177484
0.0177473
0.0177473
0.0177468
0.0177458
0.0177459
0.0177456
0.017745
0.0177451
0.017745
0.0177443
0.0177443
0.0177439
0.0177441
0.0177482
0.0177573
0.017761
0.0177612
0.0177612
0.0177607
0.0177602
0.0177601
0.0177598
0.0177595
0.0177587
0.0177578
0.0177575
0.0177568
0.017756
0.0177556
0.0177545
0.0177539
0.0177532
0.0177517
0.017751
0.0177508
0.0177508
0.01775
0.0177491
0.0177491
0.0177479
0.0177471
0.0177472
0.0177459
0.0177455
0.0177455
0.017745
0.017745
0.0177449
0.0177438
0.0177438
0.0177436
0.0177429
0.0177428
0.0177426
0.0177425
0.0177423
0.0177421
0.0177447
0.0177531
0.0177619
0.0177638
0.0177637
0.0177637
0.0177666
0.0177731
0.0177756
0.0177756
0.0177756
0.0177752
0.0177742
0.0177742
0.0177733
0.0177727
0.0177727
0.0177721
0.0177712
0.0177712
0.0177711
0.0177698
0.0177699
0.0177696
0.0177693
0.0177698
0.0177701
0.0177701
0.0177693
0.0177694
0.0177694
0.0177694
0.0177707
0.0177731
0.0177785
0.0177897
0.0178085
0.0178411
0.0178982
0.0179926
0.0181739
0.0185616
0.019488
0.0217085
0.0270926
0.0393088
0.0658077
0.116685
0.205872
0.335102
0.501797
0.631652
0.655572
0.612608
0.504781
0.373789
0.23461
0.111237
0.052393
0.033615
0.0270404
0.0243926
0.0234063
0.0230706
0.0230176
0.0230702
0.023396
0.0240966
0.0254114
0.0276037
0.0311334
0.0367562
0.044899
0.0566531
0.0721789
0.0930645
0.118903
0.152498
0.19293
0.244588
0.302772
0.369517
0.433762
0.501878
0.565521
0.635406
0.691145
0.73759
0.759473
0.776268
0.78726
0.799424
0.810298
0.81793
0.827069
0.832897
0.840833
0.844752
0.85108
0.854323
0.859
0.861418
0.863062
0.863915
0.0179482
0.0178792
0.0178477
0.0178137
0.0177916
0.017781
0.0177684
0.0177624
0.0177585
0.0177539
0.0177512
0.0177496
0.0177487
0.0177481
0.0177461
0.0177448
0.0177446
0.0177445
0.0177444
0.0177441
0.0177443
0.0177462
0.0177475
0.0177473
0.0177473
0.0177466
0.0177461
0.0177461
0.0177454
0.0177445
0.0177445
0.0177433
0.0177428
0.0177427
0.0177424
0.0177417
0.0177417
0.0177413
0.0177411
0.0177436
0.0177499
0.0177521
0.0177521
0.0177519
0.0177511
0.0177508
0.0177505
0.0177495
0.0177491
0.0177488
0.0177472
0.0177466
0.0177466
0.0177467
0.0177464
0.0177464
0.017746
0.017746
0.0177456
0.0177455
0.0177478
0.0177552
0.0177592
0.0177597
0.0177596
0.017759
0.017759
0.0177584
0.0177575
0.0177575
0.0177572
0.0177558
0.0177553
0.0177553
0.0177541
0.0177535
0.0177536
0.0177531
0.017752
0.0177521
0.0177517
0.0177515
0.0177516
0.0177507
0.0177507
0.0177505
0.0177495
0.0177494
0.017749
0.0177489
0.0177488
0.0177485
0.0177484
0.017748
0.0177489
0.0177542
0.0177629
0.0177672
0.0177685
0.0177693
0.01777
0.0177713
0.017772
0.0177728
0.0177732
0.0177742
0.0177747
0.0177757
0.0177762
0.0177774
0.017778
0.0177783
0.0177783
0.0177779
0.0177783
0.0177784
0.0177784
0.0177791
0.017779
0.0177785
0.0177784
0.0177783
0.0177788
0.017783
0.0177912
0.017808
0.0178362
0.0178781
0.0179369
0.0180236
0.0181722
0.0184719
0.0191172
0.0205962
0.0239238
0.0313444
0.0463895
0.0749948
0.121322
0.18905
0.26681
0.341546
0.37952
0.37648
0.3341
0.251726
0.171143
0.102156
0.0603427
0.0423154
0.0336323
0.0285192
0.0253169
0.0244162
0.0242589
0.0244869
0.0255062
0.0277749
0.0315596
0.0374363
0.0465178
0.0597051
0.0789262
0.104645
0.138806
0.179845
0.22957
0.285291
0.35261
0.425657
0.507075
0.58004
0.646357
0.690372
0.726381
0.746145
0.766159
0.775335
0.784658
0.789269
0.797111
0.804054
0.810823
0.816213
0.821477
0.827083
0.83187
0.83818
0.842128
0.846681
0.849287
0.850913
0.85169
0.0179509
0.0178859
0.0178566
0.0178262
0.0178014
0.0177898
0.0177767
0.0177709
0.0177641
0.0177614
0.0177578
0.0177563
0.0177536
0.0177521
0.0177513
0.0177513
0.017751
0.0177504
0.0177503
0.0177499
0.0177501
0.0177542
0.0177648
0.0177708
0.0177717
0.0177714
0.017771
0.0177707
0.01777
0.0177699
0.0177693
0.0177683
0.0177683
0.0177675
0.0177668
0.0177667
0.0177659
0.0177652
0.0177651
0.0177648
0.0177633
0.0177629
0.0177628
0.0177618
0.0177609
0.0177608
0.0177601
0.0177586
0.0177585
0.017758
0.0177568
0.0177569
0.0177566
0.0177555
0.0177556
0.0177553
0.0177545
0.0177545
0.0177544
0.0177531
0.0177531
0.0177522
0.0177516
0.0177514
0.0177505
0.0177502
0.01775
0.0177495
0.0177494
0.0177495
0.0177492
0.0177493
0.0177525
0.0177572
0.0177581
0.0177581
0.017758
0.0177578
0.0177575
0.0177572
0.0177571
0.0177562
0.017756
0.017756
0.017755
0.017755
0.017755
0.0177539
0.0177538
0.0177533
0.0177524
0.0177524
0.0177515
0.0177508
0.0177507
0.0177499
0.0177498
0.0177498
0.0177492
0.0177493
0.0177488
0.0177487
0.0177485
0.0177487
0.0177519
0.0177596
0.0177699
0.0177789
0.0177828
0.0177846
0.0177862
0.0177884
0.0177911
0.0177939
0.0177954
0.017796
0.0177962
0.0177963
0.0177964
0.0177961
0.0177963
0.0177963
0.0177961
0.0177968
0.0178006
0.0178095
0.0178245
0.0178495
0.0178849
0.0179372
0.0180163
0.0181468
0.0183776
0.0188247
0.0197281
0.0216592
0.0256034
0.0334466
0.0471728
0.0694794
0.0994255
0.134943
0.169532
0.180997
0.182479
0.173615
0.147854
0.105985
0.0704894
0.0479663
0.0390376
0.0346287
0.0311263
0.0284655
0.0278693
0.0281288
0.0298133
0.0339918
0.0408816
0.0509486
0.0654762
0.0857963
0.114901
0.153616
0.204705
0.264879
0.334368
0.40465
0.479396
0.55098
0.626427
0.68887
0.728449
0.74402
0.752046
0.757728
0.765852
0.774799
0.7817
0.785596
0.790129
0.795705
0.801979
0.808024
0.814705
0.820637
0.827235
0.833691
0.838195
0.842579
0.845311
0.846916
0.847639
0.017959
0.0178984
0.0178649
0.0178356
0.0178118
0.0177969
0.0177848
0.0177769
0.0177726
0.0177692
0.017768
0.0177674
0.0177673
0.0177666
0.0177667
0.0177663
0.017766
0.0177651
0.0177649
0.0177642
0.0177634
0.0177634
0.0177628
0.0177619
0.0177619
0.0177608
0.0177601
0.0177601
0.0177588
0.0177582
0.0177582
0.0177578
0.0177561
0.0177557
0.0177557
0.0177547
0.0177541
0.0177541
0.0177533
0.0177524
0.0177524
0.0177519
0.0177514
0.0177513
0.0177511
0.017751
0.0177507
0.0177512
0.0177557
0.0177617
0.0177625
0.0177623
0.0177636
0.0177674
0.0177685
0.0177685
0.0177677
0.017767
0.0177667
0.0177656
0.0177653
0.0177646
0.0177638
0.0177638
0.0177636
0.0177625
0.0177626
0.0177621
0.0177612
0.0177612
0.0177612
0.0177611
0.0177611
0.0177604
0.0177604
0.0177603
0.0177591
0.0177591
0.0177591
0.0177578
0.0177578
0.0177576
0.0177564
0.0177564
0.0177555
0.0177546
0.0177545
0.0177532
0.0177529
0.0177525
0.0177515
0.0177515
0.0177512
0.01775
0.0177501
0.0177497
0.0177493
0.0177491
0.0177491
0.017749
0.0177488
0.0177496
0.0177544
0.0177604
0.0177621
0.0177626
0.0177631
0.017764
0.0177642
0.0177642
0.0177641
0.0177634
0.0177635
0.0177634
0.0177635
0.0177633
0.0177631
0.0177631
0.0177656
0.0177666
0.0177667
0.0177665
0.017767
0.0177701
0.0177779
0.0177922
0.0178125
0.0178385
0.0178709
0.01791
0.017959
0.018032
0.0181436
0.0183289
0.0186376
0.0192015
0.0202455
0.0222645
0.0258711
0.0321322
0.0413942
0.0538193
0.0686525
0.0808939
0.0854607
0.0850578
0.0820744
0.0750048
0.0634734
0.0471145
0.0403408
0.0390117
0.039011
0.0383677
0.0359185
0.035066
0.0358375
0.040904
0.0518054
0.0684915
0.0912851
0.120859
0.16101
0.212966
0.280107
0.357595
0.443921
0.525227
0.598847
0.653745
0.700447
0.731155
0.747996
0.754578
0.757741
0.759669
0.762931
0.768331
0.774484
0.779631
0.784876
0.790347
0.79788
0.805101
0.8125
0.818929
0.826517
0.833651
0.838887
0.843865
0.847076
0.848866
0.849565
0.0179354
0.0178935
0.0178532
0.0178326
0.017807
0.0177905
0.0177812
0.017771
0.0177653
0.0177612
0.0177576
0.0177557
0.0177545
0.0177542
0.0177536
0.0177537
0.017758
0.0177648
0.0177663
0.0177661
0.0177661
0.0177656
0.0177647
0.0177647
0.0177635
0.0177629
0.0177629
0.0177615
0.0177611
0.017761
0.0177604
0.0177596
0.0177595
0.0177595
0.0177586
0.0177587
0.0177598
0.0177599
0.01776
0.0177597
0.0177593
0.0177593
0.0177589
0.0177581
0.017758
0.0177575
0.0177565
0.0177564
0.0177559
0.0177549
0.0177549
0.0177544
0.0177539
0.0177538
0.0177539
0.0177536
0.0177537
0.0177579
0.0177655
0.0177677
0.0177676
0.017767
0.0177669
0.0177663
0.0177657
0.0177656
0.0177647
0.0177645
0.0177642
0.0177634
0.0177634
0.0177635
0.0177624
0.0177624
0.0177622
0.0177611
0.0177611
0.0177605
0.0177596
0.0177596
0.0177587
0.0177579
0.0177579
0.0177573
0.0177569
0.0177568
0.0177565
0.0177579
0.0177633
0.0177668
0.0177671
0.0177671
0.0177662
0.0177653
0.0177653
0.0177644
0.0177637
0.0177636
0.0177629
0.0177619
0.0177619
0.0177609
0.0177604
0.0177604
0.0177596
0.0177596
0.0177595
0.0177586
0.0177588
0.0177587
0.0177575
0.0177576
0.0177575
0.0177564
0.0177564
0.0177558
0.0177551
0.0177551
0.0177548
0.0177546
0.0177546
0.0177546
0.0177566
0.0177622
0.017773
0.0177885
0.0178061
0.0178265
0.0178477
0.0178729
0.017906
0.0179558
0.0180296
0.0181394
0.0182956
0.0185278
0.0188833
0.0194732
0.0204453
0.0220921
0.0246191
0.02825
0.033028
0.0381037
0.0426849
0.0440236
0.0441717
0.0429012
0.0409583
0.0375571
0.0351707
0.0347236
0.0354561
0.0373495
0.0403656
0.0432123
0.0462631
0.0521441
0.0654452
0.0879738
0.121188
0.164092
0.218675
0.283936
0.362782
0.449865
0.543357
0.628126
0.695233
0.724496
0.737932
0.744222
0.748957
0.75384
0.757874
0.7594
0.760514
0.763167
0.768659
0.775534
0.783042
0.789045
0.798115
0.808781
0.820011
0.830248
0.840977
0.851626
0.859311
0.865842
0.870252
0.872668
0.873476
0.0179559
0.0179132
0.0178743
0.0178434
0.0178259
0.0178064
0.0177975
0.0177852
0.0177799
0.0177751
0.017772
0.0177688
0.0177674
0.0177661
0.0177661
0.017765
0.017765
0.0177661
0.0177672
0.0177671
0.0177667
0.0177671
0.0177671
0.017767
0.0177658
0.0177658
0.0177657
0.0177652
0.0177653
0.0177653
0.0177642
0.0177644
0.0177639
0.017763
0.0177629
0.017762
0.0177614
0.017761
0.01776
0.0177596
0.017759
0.0177581
0.0177581
0.0177568
0.0177564
0.0177563
0.0177552
0.0177545
0.0177545
0.0177531
0.0177521
0.0177521
0.0177519
0.0177514
0.0177513
0.0177512
0.017751
0.0177505
0.0177512
0.0177564
0.0177625
0.017764
0.0177639
0.0177637
0.0177637
0.0177632
0.0177623
0.0177623
0.0177614
0.0177609
0.0177605
0.0177598
0.0177595
0.0177591
0.017759
0.0177586
0.0177587
0.0177584
0.0177582
0.0177602
0.0177634
0.0177641
0.0177641
0.0177636
0.0177635
0.0177623
0.0177619
0.0177616
0.0177604
0.0177604
0.0177603
0.0177595
0.0177595
0.0177593
0.0177587
0.0177585
0.0177582
0.017759
0.0177631
0.017765
0.017765
0.0177649
0.0177647
0.0177642
0.0177631
0.0177618
0.0177617
0.0177613
0.0177602
0.0177602
0.0177601
0.0177592
0.0177593
0.0177593
0.0177582
0.0177582
0.0177582
0.0177575
0.0177578
0.0177576
0.017757
0.017757
0.0177567
0.0177572
0.0177603
0.0177675
0.017781
0.0177994
0.0178235
0.0178531
0.0178868
0.0179269
0.0179772
0.0180471
0.018143
0.0182788
0.0184608
0.0187198
0.0190752
0.019604
0.0203437
0.0213883
0.0227866
0.0244021
0.0262278
0.0276151
0.028197
0.0281699
0.0279472
0.0271845
0.0268881
0.0269423
0.0279993
0.0306801
0.0358692
0.0428079
0.0519733
0.0630233
0.078907
0.104538
0.1459
0.203667
0.276294
0.358257
0.446271
0.535248
0.625586
0.704111
0.73845
0.748902
0.751733
0.751908
0.751943
0.752781
0.755688
0.758191
0.760192
0.761915
0.767072
0.776408
0.788435
0.800139
0.812908
0.827775
0.841779
0.855521
0.86827
0.88097
0.890358
0.898704
0.903061
0.905965
0.906812
0.0179176
0.0178828
0.0178422
0.0178224
0.0177963
0.0177819
0.0177695
0.0177623
0.0177547
0.0177508
0.0177469
0.0177444
0.0177425
0.0177402
0.017739
0.0177375
0.0177359
0.0177353
0.0177353
0.0177349
0.0177336
0.0177333
0.0177332
0.0177329
0.0177327
0.0177321
0.017732
0.0177316
0.0177324
0.0177381
0.0177464
0.0177482
0.0177481
0.017748
0.0177475
0.0177472
0.0177468
0.0177462
0.0177457
0.0177447
0.0177432
0.0177416
0.0177398
0.0177387
0.0177385
0.0177379
0.0177371
0.017737
0.0177362
0.0177353
0.0177353
0.0177349
0.0177339
0.0177339
0.0177332
0.0177324
0.0177324
0.0177314
0.0177308
0.0177306
0.0177294
0.017729
0.0177288
0.0177285
0.0177283
0.0177281
0.0177279
0.0177275
0.017729
0.0177361
0.0177497
0.0177551
0.0177559
0.0177556
0.0177551
0.017755
0.0177544
0.0177544
0.0177544
0.0177542
0.0177537
0.0177545
0.0177578
0.0177589
0.0177591
0.017759
0.0177583
0.0177582
0.0177572
0.0177569
0.0177568
0.017756
0.017756
0.017756
0.0177553
0.0177553
0.0177549
0.0177549
0.0177571
0.0177586
0.0177589
0.0177589
0.0177589
0.017759
0.0177578
0.0177579
0.0177579
0.0177577
0.0177577
0.0177569
0.0177571
0.0177569
0.0177558
0.0177558
0.0177553
0.0177544
0.0177542
0.0177532
0.0177538
0.0177565
0.0177574
0.0177574
0.0177573
0.0177581
0.0177614
0.0177692
0.0177818
0.0178008
0.0178263
0.0178564
0.0178902
0.0179262
0.017969
0.0180218
0.0180937
0.0181895
0.018318
0.0184854
0.0186977
0.0189646
0.0192929
0.0196976
0.020197
0.0207544
0.0213949
0.0219604
0.0224806
0.0226857
0.0227527
0.0227108
0.0227273
0.0228526
0.023458
0.0248066
0.0278393
0.0335522
0.0437611
0.0586543
0.0787849
0.106537
0.148906
0.213095
0.300915
0.404942
0.513992
0.615761
0.703826
0.752077
0.767484
0.770239
0.770061
0.766765
0.762466
0.76039
0.759901
0.759933
0.762882
0.768773
0.776695
0.789248
0.80476
0.820251
0.834852
0.851599
0.86719
0.882762
0.89687
0.910892
0.921496
0.931525
0.936325
0.939946
0.940968
0.0179695
0.0179223
0.0178959
0.0178571
0.0178392
0.0178164
0.0178013
0.0177871
0.0177798
0.0177717
0.0177684
0.0177649
0.0177637
0.0177626
0.0177613
0.0177603
0.0177601
0.0177593
0.0177581
0.0177577
0.0177577
0.0177562
0.0177557
0.0177557
0.0177548
0.0177542
0.0177542
0.0177528
0.0177525
0.0177523
0.0177516
0.0177514
0.0177512
0.0177507
0.0177506
0.0177502
0.0177513
0.0177566
0.0177608
0.0177614
0.0177613
0.0177612
0.0177608
0.01776
0.0177598
0.0177591
0.0177581
0.0177579
0.0177573
0.0177568
0.0177558
0.0177551
0.017755
0.0177539
0.017753
0.0177529
0.0177526
0.0177521
0.0177519
0.0177509
0.0177509
0.0177506
0.0177506
0.0177504
0.0177503
0.0177524
0.0177604
0.0177673
0.0177685
0.0177685
0.0177681
0.0177674
0.0177673
0.0177665
0.0177657
0.0177655
0.0177644
0.017764
0.0177637
0.0177627
0.0177626
0.0177619
0.0177612
0.0177611
0.0177599
0.0177592
0.0177592
0.0177579
0.0177571
0.0177571
0.0177568
0.017756
0.0177561
0.0177561
0.0177549
0.0177549
0.0177547
0.0177534
0.0177535
0.0177529
0.0177517
0.0177518
0.0177514
0.0177501
0.0177502
0.0177501
0.0177489
0.0177489
0.0177489
0.0177477
0.0177478
0.0177478
0.0177465
0.0177465
0.0177463
0.0177451
0.0177451
0.0177446
0.0177438
0.0177441
0.0177441
0.0177433
0.0177434
0.0177433
0.0177433
0.0177457
0.0177524
0.0177651
0.0177841
0.0178108
0.0178421
0.0178784
0.0179173
0.0179638
0.0180174
0.0180883
0.0181765
0.0182961
0.0184405
0.0186272
0.0188426
0.0190989
0.0193822
0.0196876
0.0200111
0.0203153
0.0206039
0.0208082
0.0209794
0.0210571
0.0211618
0.0212561
0.0215467
0.022094
0.0233686