/*--------------------------------*- C++ -*----------------------------------*\
| =========                 |                                                 |
| \\      /  F ield         | OpenFOAM: The Open Source CFD Toolbox           |
|  \\    /   O peration     | Version:  4.1                                   |
|   \\  /    A nd           | Web:      www.OpenFOAM.org                      |
|    \\/     M anipulation  |                                                 |
\*---------------------------------------------------------------------------*/
FoamFile
{
    version     2.0;
    format      ascii;
    class       volScalarField;
    location    "2.5";
    object      p;
}
// * * * * * * * * * * * * * * * * * * * * * * * * * * * * * * * * * * * * * //

dimensions      [0 2 -2 0 0 0 0];

internalField   nonuniform List<scalar> 
204246
(
-40.7405
-52.4793
-52.0047
-51.247
-50.8073
-50.2162
-49.7997
-49.2549
-48.8907
-48.5089
-48.2235
-47.8926
-47.5871
-47.2571
-47.0581
-47.0092
-47.2532
-47.2861
-46.8869
-46.7982
-46.6759
-46.5951
-46.4899
-46.4074
-46.3222
-46.2738
-46.227
-46.2034
-46.1445
-46.0942
-45.9724
-45.8466
-45.6973
-45.6523
-45.6919
-45.9058
-45.9714
-45.8238
-45.7647
-45.6849
-45.6249
-45.5637
-45.5296
-45.4999
-45.4904
-45.4585
-45.4351
-45.3374
-45.2292
-45.0785
-45.0245
-45.044
-45.2392
-45.3288
-45.1964
-45.1416
-45.0589
-45.0011
-44.9384
-44.9053
-44.8785
-44.8719
-44.8377
-44.8093
-44.7159
-44.6168
-44.4624
-44.3921
-44.4213
-44.6271
-44.7325
-44.6033
-44.528
-44.4416
-44.3767
-44.319
-44.2862
-44.2534
-44.2489
-44.2096
-44.1909
-44.1048
-44.0033
-43.8473
-43.7715
-43.7972
-43.9988
-44.1007
-43.9691
-43.8966
-43.8216
-43.7794
-43.7394
-43.6989
-43.6264
-43.5905
-43.535
-43.5343
-43.5019
-43.4693
-43.3563
-43.2321
-43.0925
-43.0539
-43.0872
-43.3091
-43.3627
-43.038
-43.0876
-42.9722
-42.8871
-42.7696
-42.698
-42.5996
-42.5166
-42.3855
-42.232
-41.9821
-41.9355
-41.5955
-41.3311
-41.0905
-40.926
-40.6489
-40.1556
-39.7195
-39.1833
-38.6244
-38.0673
-37.6113
-37.3259
-37.4318
-38.0335
-39.5035
-42.2276
-47.0826
-54.6058
-65.0216
-73.451
-77.7919
-82.4884
-85.2737
-87.3953
-88.4347
-89.8087
-90.2936
-91.2408
-91.8424
-92.4197
-92.8828
-93.3118
-93.4777
-93.3737
-93.2028
-93.4059
-94.0084
-95.0615
-95.448
-94.7722
-95.1244
-94.7466
-94.3578
-93.8177
-93.1325
-92.3141
-91.6601
-89.8077
-88.6776
-86.4216
-84.5976
-81.5042
-78.6072
-74.3733
-70.1414
-65.2491
-59.6512
-53.1657
-45.7247
-37.484
-27.8657
-16.8526
-4.18945
10.189
26.6507
45.1738
65.9201
88.9261
114.786
144.295
183.345
242.469
336.129
461.772
-51.9582
-51.3458
-51.5144
-51.4187
-51.1037
-50.6087
-50.1065
-49.6469
-49.2014
-48.8152
-48.457
-48.1225
-47.813
-47.5182
-47.2772
-47.1286
-47.2019
-47.215
-47.0782
-46.9387
-46.8101
-46.7014
-46.6058
-46.5273
-46.4528
-46.3955
-46.3378
-46.2887
-46.2319
-46.1797
-46.0944
-45.9966
-45.8618
-45.8046
-45.8084
-45.8913
-45.9097
-45.8718
-45.8447
-45.7842
-45.7351
-45.6702
-45.6392
-45.5961
-45.5655
-45.5275
-45.499
-45.4387
-45.3638
-45.2397
-45.1808
-45.1853
-45.2387
-45.2593
-45.2439
-45.2177
-45.1532
-45.1171
-45.0493
-45.0055
-44.9678
-44.9399
-44.9196
-44.8829
-44.8052
-44.7236
-44.6105
-44.5534
-44.551
-44.6154
-44.6582
-44.6549
-44.6286
-44.5543
-44.4989
-44.4389
-44.391
-44.3519
-44.3268
-44.3011
-44.2638
-44.1917
-44.1186
-43.9992
-43.9357
-43.9343
-43.994
-44.0314
-44.0227
-44.0029
-43.932
-43.8942
-43.8482
-43.792
-43.7256
-43.6815
-43.6239
-43.6033
-43.5651
-43.5352
-43.4673
-43.3867
-43.2828
-43.217
-43.2267
-43.2686
-43.2878
-43.245
-43.1815
-43.1064
-43.0218
-42.93
-42.8367
-42.7539
-42.6732
-42.5931
-42.4406
-42.2641
-42.0994
-41.9219
-41.7326
-41.5402
-41.3404
-41.0584
-40.7264
-40.3441
-39.9116
-39.3941
-38.8147
-38.1891
-37.5981
-37.2402
-37.2267
-37.7818
-39.477
-42.7214
-50.6636
-63.24
-72.424
-78.1025
-81.835
-84.4399
-86.787
-88.3523
-89.3527
-90.2309
-90.9809
-91.7271
-92.2779
-92.8965
-93.2201
-93.6604
-93.7173
-93.9525
-93.9862
-94.5679
-95.0979
-95.422
-95.5681
-95.6641
-95.8092
-95.6167
-95.5451
-95.1281
-94.7084
-94.1114
-93.3075
-92.3633
-90.9682
-89.3466
-87.2363
-84.7286
-81.6023
-77.9694
-73.7384
-68.9011
-63.2658
-56.8342
-49.6184
-41.3996
-32.0736
-21.4048
-9.30824
4.5368
20.1543
37.5792
56.6107
77.1929
99.2312
124.694
160.6
226.887
325.001
-60.891
-55.8722
-53.2162
-52.0145
-51.2134
-50.6221
-50.1065
-49.6357
-49.2162
-48.8275
-48.4736
-48.1586
-47.8593
-47.5915
-47.3383
-47.1687
-47.1079
-47.089
-47.0146
-46.9034
-46.779
-46.6468
-46.5256
-46.4183
-46.3302
-46.2563
-46.2127
-46.1896
-46.1531
-46.1016
-46.0344
-45.9566
-45.858
-45.7977
-45.7777
-45.7827
-45.785
-45.7693
-45.7359
-45.6877
-45.6324
-45.5848
-45.5338
-45.493
-45.4701
-45.4538
-45.4192
-45.3725
-45.3111
-45.2168
-45.1548
-45.1459
-45.1529
-45.1528
-45.1387
-45.1074
-45.0602
-45.0062
-44.9572
-44.9141
-44.8846
-44.8543
-44.8359
-44.8033
-44.7542
-44.6901
-44.6091
-44.5463
-44.5241
-44.544
-44.5391
-44.5059
-44.4754
-44.4343
-44.3806
-44.3357
-44.2834
-44.2584
-44.2373
-44.2229
-44.1854
-44.1291
-44.0648
-43.9898
-43.9346
-43.9073
-43.9152
-43.9048
-43.8782
-43.8423
-43.8063
-43.7663
-43.7406
-43.7068
-43.6645
-43.6148
-43.5715
-43.54
-43.5053
-43.4573
-43.3937
-43.3219
-43.2371
-43.1927
-43.1732
-43.1658
-43.1459
-43.1121
-43.0641
-43.0127
-42.9479
-42.8679
-42.7874
-42.7023
-42.6171
-42.4917
-42.3628
-42.2248
-42.0656
-41.9043
-41.7195
-41.5226
-41.2954
-41.0164
-40.6927
-40.3263
-39.9223
-39.4809
-39.0312
-38.5646
-38.2115
-38.0039
-38.1148
-38.9847
-42.0383
-47.3107
-53.2854
-62.3282
-71.5253
-77.6293
-81.155
-83.8311
-86.177
-87.801
-88.9708
-89.8483
-90.7014
-91.4137
-91.98
-92.3541
-92.5583
-92.7959
-93.0186
-93.1582
-93.4407
-93.7572
-94.1329
-94.3648
-94.4621
-94.4049
-94.2462
-93.9597
-93.6079
-93.1593
-92.4431
-91.4481
-90.3073
-88.9519
-87.3617
-85.5256
-83.3916
-80.8558
-77.9315
-74.4813
-70.4468
-65.7385
-60.2677
-54.034
-46.8899
-38.8389
-29.6796
-19.3002
-7.52741
5.77692
20.8618
37.6588
56.0823
75.5545
96.0328
117.962
147.012
190.385
247.806
-63.1278
-58.8063
-55.6853
-53.5212
-52.073
-51.1112
-50.3945
-49.8347
-49.3614
-48.9491
-48.5795
-48.2497
-47.9644
-47.7153
-47.5205
-47.3823
-47.2803
-47.1868
-47.0943
-47.0007
-46.9055
-46.8149
-46.7273
-46.6547
-46.5815
-46.5257
-46.4594
-46.3873
-46.3187
-46.2495
-46.1825
-46.1103
-46.0509
-46.007
-45.9829
-45.9602
-45.9377
-45.9145
-45.8888
-45.8545
-45.8278
-45.7908
-45.7571
-45.7112
-45.6635
-45.6134
-45.5615
-45.5142
-45.4624
-45.4217
-45.388
-45.3586
-45.3252
-45.3026
-45.2806
-45.2562
-45.2277
-45.2007
-45.161
-45.1247
-45.0738
-45.0374
-44.9913
-44.9341
-44.875
-44.8213
-44.783
-44.749
-44.7442
-44.7224
-44.7052
-44.6943
-44.6717
-44.6362
-44.607
-44.5592
-44.5225
-44.4648
-44.4239
-44.3753
-44.3245
-44.2676
-44.2065
-44.166
-44.1389
-44.1405
-44.1041
-44.0738
-44.0651
-44.0523
-44.0254
-43.9952
-43.9357
-43.8917
-43.844
-43.7921
-43.7349
-43.6956
-43.6587
-43.6119
-43.5659
-43.5086
-43.472
-43.434
-43.4136
-43.3773
-43.3491
-43.3219
-43.2759
-43.2146
-43.1535
-43.0879
-43.0075
-42.9375
-42.8616
-42.7666
-42.6346
-42.4876
-42.3704
-42.2353
-42.0799
-41.9073
-41.723
-41.487
-41.194
-40.8577
-40.4597
-40.0219
-39.5713
-39.171
-38.8463
-38.6194
-38.7311
-39.5427
-42.1402
-48.0642
-55.3057
-63.6881
-72.3143
-78.3008
-82.0091
-84.5306
-86.7707
-88.5754
-89.5944
-90.3777
-91.0721
-91.6521
-92.2558
-92.8979
-93.3685
-93.7002
-93.9845
-94.4657
-94.6398
-95.1288
-95.3713
-95.6719
-95.986
-96.3802
-96.6642
-96.7473
-96.7873
-96.8065
-96.7785
-96.7067
-96.1939
-95.8646
-94.8673
-93.5269
-91.6809
-89.4544
-86.8173
-83.7522
-80.1261
-75.931
-71.0217
-65.3748
-58.8691
-51.4923
-43.198
-33.8033
-23.2297
-11.3642
1.80609
16.3171
32.062
49.1353
67.8664
89.8783
117.834
153.066
191.684
-62.8168
-59.1932
-56.272
-54.0841
-52.5012
-51.355
-50.5002
-49.8559
-49.3325
-48.9051
-48.5305
-48.2043
-47.9085
-47.6552
-47.4344
-47.2596
-47.1027
-47.0055
-46.9346
-46.8463
-46.738
-46.6168
-46.5023
-46.3908
-46.2994
-46.2049
-46.179
-46.1553
-46.1233
-46.0846
-46.0181
-45.9506
-45.8846
-45.8329
-45.7836
-45.7493
-45.73
-45.7119
-45.6767
-45.6319
-45.5738
-45.5329
-45.4902
-45.4641
-45.4444
-45.4258
-45.3926
-45.3444
-45.2916
-45.2112
-45.1637
-45.1354
-45.1187
-45.1054
-45.0926
-45.065
-45.0214
-44.9611
-44.9108
-44.868
-44.8588
-44.834
-44.8189
-44.7748
-44.7328
-44.685
-44.6157
-44.5647
-44.5113
-44.4959
-44.4845
-44.4537
-44.4199
-44.3776
-44.3234
-44.2824
-44.2357
-44.2284
-44.2076
-44.1952
-44.1549
-44.1069
-44.0585
-43.9933
-43.9467
-43.8944
-43.8908
-43.869
-43.8312
-43.7874
-43.751
-43.708
-43.6886
-43.6558
-43.6326
-43.6018
-43.5734
-43.5356
-43.4867
-43.4338
-43.3741
-43.3301
-43.2509
-43.2008
-43.1592
-43.1504
-43.1206
-43.0769
-43.0322
-42.9911
-42.9467
-42.8962
-42.8504
-42.7764
-42.7164
-42.6389
-42.5085
-42.3983
-42.2755
-42.1579
-42.0253
-41.8836
-41.718
-41.5393
-41.343
-41.097
-40.8175
-40.539
-40.251
-39.9414
-39.6566
-39.5008
-39.6399
-40.3517
-42.2265
-46.2723
-53.0172
-61.1183
-69.1875
-75.7274
-80.3034
-83.3295
-84.9118
-86.5378
-87.9437
-89.056
-89.9167
-90.4688
-90.9601
-91.4233
-91.8275
-92.0702
-92.4172
-92.684
-93.1115
-93.3028
-93.672
-93.8657
-93.9257
-94.0189
-93.9722
-93.8612
-93.6539
-93.1819
-92.5754
-91.8814
-91.0823
-90.1404
-89.3295
-88.2938
-86.9933
-85.3426
-83.3309
-80.8942
-77.979
-74.4581
-70.3324
-65.5848
-60.0062
-53.4795
-45.975
-37.4281
-27.7696
-17.0628
-5.38738
7.09298
20.3269
34.3753
49.9365
68.4889
91.8222
120.06
148.203
-61.4224
-58.5671
-56.1825
-54.2485
-52.7522
-51.5772
-50.68
-49.9792
-49.4219
-48.9726
-48.6003
-48.2853
-48.011
-47.7556
-47.5559
-47.4103
-47.3308
-47.227
-47.1272
-47.0468
-46.9531
-46.8772
-46.8001
-46.7494
-46.6801
-46.6207
-46.5501
-46.4769
-46.4096
-46.3415
-46.2789
-46.2158
-46.169
-46.1255
-46.0977
-46.0667
-46.0259
-45.9883
-45.9606
-45.9326
-45.9129
-45.8768
-45.8603
-45.8117
-45.7606
-45.7063
-45.65
-45.6056
-45.5626
-45.5444
-45.5135
-45.4767
-45.4326
-45.3931
-45.3578
-45.3308
-45.3078
-45.2918
-45.2565
-45.2246
-45.1682
-45.1296
-45.0717
-45.0259
-44.9736
-44.9271
-44.9036
-44.8767
-44.8756
-44.8279
-44.7888
-44.7676
-44.7489
-44.7263
-44.7057
-44.6626
-44.6299
-44.5637
-44.5208
-44.462
-44.42
-44.3662
-44.3126
-44.2876
-44.2638
-44.2589
-44.1973
-44.1578
-44.146
-44.134
-44.11
-44.0875
-44.035
-43.9926
-43.9336
-43.883
-43.8249
-43.7848
-43.7484
-43.7117
-43.6797
-43.6207
-43.609
-43.5675
-43.5485
-43.4947
-43.4577
-43.4278
-43.382
-43.3263
-43.2727
-43.2303
-43.1666
-43.1097
-43.0183
-42.9169
-42.8385
-42.7257
-42.6284
-42.5174
-42.3946
-42.2471
-42.0976
-41.9267
-41.7282
-41.5019
-41.2457
-41.0033
-40.775
-40.5789
-40.4233
-40.3837
-40.6192
-41.3683
-43.0413
-46.2406
-51.4716
-58.5722
-66.8843
-74.5745
-80.2482
-83.7749
-86.9088
-88.9126
-89.3195
-89.8685
-90.7455
-91.4666
-91.9843
-92.5913
-93.0782
-93.5395
-93.9768
-94.4697
-94.8371
-95.2818
-95.5099
-95.9135
-96.3086
-96.6546
-97.1243
-97.4777
-97.7591
-97.993
-98.263
-98.3968
-98.2185
-97.8511
-97.069
-96.0237
-94.6114
-92.8038
-90.5744
-87.998
-85.0452
-81.6506
-77.7164
-73.2516
-68.078
-61.9949
-54.9761
-47.0072
-38.0608
-28.1487
-17.4029
-5.91879
6.23933
19.093
33.0827
49.3839
68.9084
91.6321
113.23
-58.9496
-56.8352
-55.1222
-53.6331
-52.3438
-51.3006
-50.4772
-49.792
-49.2362
-48.7859
-48.4128
-48.1096
-47.8465
-47.6212
-47.4131
-47.2192
-47.0213
-46.8967
-46.8378
-46.7733
-46.6984
-46.589
-46.4693
-46.3527
-46.2611
-46.1528
-46.1303
-46.1094
-46.0854
-46.0608
-46.0093
-45.9538
-45.8858
-45.8295
-45.7698
-45.7281
-45.7078
-45.6861
-45.646
-45.5991
-45.5388
-45.5013
-45.454
-45.4376
-45.4193
-45.4029
-45.3765
-45.3321
-45.2884
-45.2294
-45.1863
-45.1236
-45.0947
-45.0862
-45.071
-45.0387
-44.9951
-44.9345
-44.8889
-44.8453
-44.839
-44.8089
-44.7868
-44.7501
-44.7246
-44.6867
-44.6195
-44.5675
-44.4986
-44.4828
-44.4674
-44.4227
-44.381
-44.3399
-44.2871
-44.2525
-44.2102
-44.2103
-44.1795
-44.1638
-44.1278
-44.1016
-44.0649
-43.9993
-43.9511
-43.8818
-43.8756
-43.8633
-43.8099
-43.7632
-43.7213
-43.6739
-43.6566
-43.6297
-43.6211
-43.5973
-43.5723
-43.5286
-43.4916
-43.4418
-43.3815
-43.3478
-43.2545
-43.2064
-43.1418
-43.1681
-43.1539
-43.0799
-43.0275
-42.9767
-42.9426
-42.9121
-42.8945
-42.8428
-42.8098
-42.7596
-42.6513
-42.5689
-42.4838
-42.4196
-42.3414
-42.2493
-42.1413
-42.044
-41.9375
-41.7944
-41.6487
-41.4842
-41.327
-41.1978
-41.1272
-41.1785
-41.4716
-42.1746
-43.5979
-46.1923
-50.3634
-56.1643
-63.2539
-70.4983
-76.7847
-81.3793
-84.4374
-86.4097
-87.9134
-89.047
-89.777
-89.9483
-90.414
-91.0097
-91.4803
-91.797
-92.0274
-92.3611
-92.8356
-93.0199
-93.3735
-93.7298
-93.7528
-93.8818
-93.9422
-94.04
-93.923
-93.7065
-93.3861
-93.0152
-92.8281
-92.4335
-92.1308
-91.7479
-91.3306
-90.5786
-89.3748
-87.71
-85.6404
-83.0921
-79.9542
-76.2517
-71.9205
-66.7846
-60.7784
-53.9141
-46.2185
-37.6447
-28.2242
-18.0314
-7.12906
4.51407
17.1857
31.6479
48.3466
67.0895
84.3504
-55.9406
-54.6827
-53.5505
-52.5768
-51.6473
-50.8299
-50.1666
-49.5789
-49.0954
-48.6896
-48.3597
-48.085
-47.8569
-47.6512
-47.4799
-47.3222
-47.2323
-47.1511
-47.0545
-46.9993
-46.9267
-46.8765
-46.808
-46.7906
-46.7356
-46.6792
-46.6065
-46.5339
-46.4716
-46.4045
-46.3449
-46.2893
-46.2532
-46.2136
-46.1911
-46.1568
-46.1025
-46.056
-46.0294
-46.0037
-45.9861
-45.9445
-45.9288
-45.8706
-45.8218
-45.7752
-45.7193
-45.6781
-45.6395
-45.622
-45.5905
-45.5748
-45.5279
-45.4738
-45.4332
-45.406
-45.3835
-45.37
-45.3353
-45.3055
-45.246
-45.2143
-45.1506
-45.1147
-45.0492
-45.0053
-44.9922
-44.9657
-44.9669
-44.9119
-44.8677
-44.8498
-44.8292
-44.8049
-44.7872
-44.7454
-44.7149
-44.6467
-44.6109
-44.5477
-44.5123
-44.4429
-44.3925
-44.3762
-44.3492
-44.3513
-44.2876
-44.2399
-44.2248
-44.2111
-44.1887
-44.1684
-44.1142
-44.0688
-44.0023
-43.9644
-43.9128
-43.8799
-43.8222
-43.7826
-43.7629
-43.7154
-43.7203
-43.6752
-43.651
-43.5853
-43.5438
-43.5205
-43.489
-43.4514
-43.4038
-43.3374
-43.2692
-43.2258
-43.1486
-43.0681
-43.0209
-42.9402
-42.8584
-42.7589
-42.6778
-42.5847
-42.479
-42.3587
-42.2358
-42.1231
-42.0069
-41.9023
-41.8208
-41.7699
-41.7689
-41.8839
-42.2053
-42.8584
-44.0402
-46.0635
-49.2889
-53.8802
-59.7125
-66.2133
-72.6417
-78.2537
-82.6874
-85.855
-88.0702
-89.6691
-90.6343
-91.4158
-91.9297
-92.3845
-92.6751
-93.1651
-93.5418
-94.047
-94.37
-94.99
-95.4332
-95.7954
-96.1676
-96.6492
-97.1547
-97.5412
-98.0267
-98.473
-98.8805
-98.9643
-98.9363
-98.7361
-98.2317
-97.4263
-96.3919
-95.2491
-93.8475
-92.1167
-90.1079
-87.7338
-84.8143
-81.3618
-77.3684
-72.7038
-67.278
-61.1529
-54.358
-46.8031
-38.4759
-29.4524
-19.7375
-9.25978
2.19689
15.0822
29.6279
45.5225
59.8044
-52.5882
-52.0487
-51.4962
-50.9922
-50.4446
-49.9287
-49.4583
-49.0163
-48.6266
-48.2928
-48.0129
-47.7788
-47.5698
-47.3834
-47.2114
-47.055
-46.9022
-46.7866
-46.7314
-46.6734
-46.6047
-46.5074
-46.4116
-46.3023
-46.2156
-46.133
-46.1011
-46.0737
-46.0537
-46.0396
-46.0004
-45.9561
-45.8831
-45.8301
-45.7641
-45.7172
-45.7016
-45.6793
-45.6405
-45.5957
-45.5373
-45.497
-45.444
-45.4266
-45.4055
-45.3964
-45.3779
-45.3356
-45.295
-45.2361
-45.1904
-45.1253
-45.0963
-45.0894
-45.0734
-45.0388
-44.9928
-44.9316
-44.8883
-44.8418
-44.833
-44.7965
-44.7771
-44.749
-44.7341
-44.6979
-44.6301
-44.5781
-44.5031
-44.4891
-44.4665
-44.4129
-44.3738
-44.3306
-44.277
-44.2458
-44.2055
-44.2073
-44.1699
-44.1524
-44.1212
-44.1148
-44.0794
-44.0099
-43.9595
-43.8808
-43.8729
-43.8555
-43.7994
-43.753
-43.7115
-43.6656
-43.6542
-43.6295
-43.6235
-43.5921
-43.5727
-43.5378
-43.5065
-43.457
-43.3959
-43.3725
-43.2815
-43.2421
-43.1348
-43.1837
-43.1778
-43.1164
-43.0483
-42.9968
-42.9934
-42.9835
-42.9651
-42.9168
-42.8853
-42.8268
-42.7715
-42.7287
-42.6635
-42.636
-42.6075
-42.5665
-42.499
-42.4457
-42.4097
-42.3579
-42.3028
-42.2602
-42.2501
-42.2635
-42.3259
-42.4885
-42.8444
-43.4722
-44.5018
-46.1284
-48.6125
-52.1464
-56.7448
-62.1185
-67.8115
-73.2202
-77.9028
-81.5961
-84.3551
-86.3429
-87.7236
-88.7285
-89.6533
-90.6014
-91.2866
-91.6132
-91.9425
-92.139
-92.6222
-92.897
-93.2286
-93.6665
-93.9325
-94.0534
-94.1825
-94.413
-94.5171
-94.5479
-94.5589
-94.6888
-94.8871
-95.0205
-95.2573
-95.4074
-95.3415
-95.0687
-94.587
-93.7608
-92.5409
-90.9153
-88.7129
-85.8636
-82.435
-78.4131
-73.7045
-68.3197
-62.3243
-55.6659
-48.3185
-40.3126
-31.6586
-22.2716
-11.9501
-0.413763
12.4386
26.242
38.4212
-49.1587
-49.2395
-49.2062
-49.1546
-49.0181
-48.8295
-48.6028
-48.3694
-48.1335
-47.9358
-47.7501
-47.5865
-47.4533
-47.3169
-47.2043
-47.0974
-47.0316
-46.9651
-46.8974
-46.8668
-46.8214
-46.8087
-46.7686
-46.7553
-46.7229
-46.6709
-46.6084
-46.5465
-46.4943
-46.4329
-46.3783
-46.319
-46.2838
-46.2449
-46.2349
-46.2098
-46.1526
-46.1069
-46.0793
-46.0553
-46.0403
-46.0027
-45.9852
-45.9397
-45.8933
-45.8298
-45.7733
-45.7354
-45.6979
-45.6832
-45.6528
-45.6407
-45.5935
-45.5335
-45.4882
-45.4634
-45.4436
-45.4321
-45.3973
-45.3682
-45.307
-45.2753
-45.209
-45.1729
-45.1026
-45.0625
-45.0551
-45.0305
-45.0353
-44.9768
-44.9339
-44.9181
-44.892
-44.8678
-44.8506
-44.808
-44.7783
-44.7091
-44.6731
-44.6049
-44.5663
-44.4924
-44.4509
-44.4417
-44.4122
-44.4192
-44.3557
-44.3063
-44.2925
-44.2755
-44.2495
-44.2281
-44.1723
-44.1279
-44.0611
-44.0286
-43.9739
-43.938
-43.8852
-43.8513
-43.8329
-43.7749
-43.7933
-43.7623
-43.7401
-43.6557
-43.6064
-43.5876
-43.5694
-43.5446
-43.4761
-43.4196
-43.3698
-43.3281
-43.268
-43.224
-43.1801
-43.1075
-43.0555
-42.9923
-42.9359
-42.8701
-42.8151
-42.7456
-42.6747
-42.6262
-42.5841
-42.5787
-42.6058
-42.6762
-42.7869
-42.9813
-43.3382
-43.9372
-44.8601
-46.2223
-48.2065
-50.9763
-54.6069
-58.968
-63.8154
-68.7571
-73.4542
-77.6341
-81.175
-84.0941
-86.4985
-88.4411
-89.904
-90.9011
-91.8242
-92.8248
-93.1578
-93.4245
-93.8616
-94.4659
-94.8246
-95.1909
-95.7445
-96.3059
-96.8486
-97.2486
-97.6694
-98.1212
-98.4442
-98.6757
-98.8316
-98.7589
-98.6861
-98.3572
-97.799
-97.1728
-96.603
-95.9655
-95.0935
-93.9346
-92.3092
-90.0503
-87.2134
-83.864
-79.9023
-75.2603
-70.0382
-64.2362
-57.7741
-50.6826
-43.0053
-34.6188
-25.3303
-14.9601
-3.46568
8.74241
19.3902
-45.7314
-46.3176
-46.7507
-47.0752
-47.3221
-47.4356
-47.4566
-47.4479
-47.3698
-47.2879
-47.2026
-47.109
-47.0235
-46.9373
-46.8449
-46.7499
-46.6548
-46.5907
-46.5565
-46.5064
-46.463
-46.3968
-46.3253
-46.2374
-46.1758
-46.0957
-46.0783
-46.0518
-46.0221
-46.0145
-45.9932
-45.9613
-45.8933
-45.8361
-45.7689
-45.7289
-45.7179
-45.6908
-45.654
-45.6094
-45.551
-45.5129
-45.459
-45.4376
-45.4174
-45.4137
-45.3961
-45.3544
-45.315
-45.2567
-45.2107
-45.1468
-45.119
-45.1128
-45.0963
-45.0587
-45.0107
-44.9499
-44.9075
-44.8615
-44.8551
-44.8136
-44.7984
-44.7694
-44.7566
-44.7196
-44.6526
-44.6033
-44.5249
-44.5112
-44.4839
-44.4273
-44.3923
-44.3482
-44.2947
-44.2634
-44.2224
-44.2274
-44.1894
-44.1748
-44.1436
-44.1412
-44.1032
-44.0343
-43.9852
-43.9002
-43.8918
-43.8739
-43.8174
-43.7711
-43.7293
-43.6841
-43.674
-43.6516
-43.6514
-43.6133
-43.5968
-43.5612
-43.5361
-43.491
-43.4293
-43.402
-43.308
-43.2688
-43.2143
-43.2238
-43.1993
-43.1427
-43.0896
-43.0641
-43.0562
-43.0452
-43.0316
-43.0089
-42.9864
-42.9331
-42.8963
-42.8701
-42.83
-42.8143
-42.7925
-42.7936
-42.7768
-42.7649
-42.7723
-42.7715
-42.7991
-42.8576
-42.9448
-43.0479
-43.1858
-43.3938
-43.7478
-44.3136
-45.1477
-46.3125
-47.939
-50.1624
-53.0692
-56.6055
-60.6391
-64.9255
-69.2405
-73.3406
-77.0223
-80.1782
-82.8065
-84.9514
-86.7108
-88.1637
-89.3683
-90.2328
-91.5687
-92.5036
-92.5599
-92.9505
-93.4466
-93.709
-93.8765
-94.1424
-94.4398
-94.814
-95.2118
-95.5969
-95.9181
-96.2414
-96.6472
-97.3491
-97.8944
-98.3739
-98.5608
-98.4794
-98.3178
-98.0554
-97.5305
-96.7484
-95.6331
-93.9732
-91.7354
-89.029
-85.7924
-81.9056
-77.4448
-72.4542
-66.8434
-60.6242
-53.8473
-46.3833
-38.0368
-28.6754
-18.3088
-7.35623
2.13656
-42.478
-43.4248
-44.2615
-44.9357
-45.5178
-45.9329
-46.2148
-46.4481
-46.5665
-46.6317
-46.7014
-46.7196
-46.7322
-46.729
-46.7207
-46.6948
-46.6886
-46.6778
-46.6591
-46.66
-46.6501
-46.6638
-46.649
-46.6456
-46.623
-46.6116
-46.5707
-46.521
-46.4803
-46.427
-46.381
-46.3281
-46.3026
-46.2801
-46.2746
-46.244
-46.1893
-46.142
-46.1097
-46.0883
-46.0782
-46.0415
-46.0158
-45.969
-45.9229
-45.86
-45.809
-45.7764
-45.7387
-45.7223
-45.6907
-45.6797
-45.6324
-45.5685
-45.5243
-45.5023
-45.4826
-45.4714
-45.4387
-45.4092
-45.3455
-45.315
-45.2526
-45.2157
-45.1425
-45.1036
-45.098
-45.074
-45.0788
-45.0198
-44.9778
-44.9647
-44.934
-44.9112
-44.8943
-44.8502
-44.817
-44.7461
-44.7121
-44.646
-44.6061
-44.5301
-44.4927
-44.4843
-44.4548
-44.4617
-44.3968
-44.349
-44.3388
-44.3179
-44.2896
-44.2661
-44.2096
-44.1658
-44.1014
-44.0687
-44.0161
-43.9818
-43.9246
-43.8934
-43.8785
-43.8258
-43.8374
-43.807
-43.8054
-43.7039
-43.6533
-43.6482
-43.6325
-43.6038
-43.5459
-43.4862
-43.4417
-43.4017
-43.3629
-43.3368
-43.2997
-43.2559
-43.231
-43.1745
-43.1307
-43.0977
-43.0891
-43.0671
-43.0285
-43.0148
-43.0308
-43.0931
-43.1973
-43.328
-43.4817
-43.7033
-44.0551
-44.5954
-45.3539
-46.376
-47.7423
-49.5626
-51.9211
-54.8049
-58.1522
-61.8095
-65.6367
-69.4675
-73.1217
-76.4646
-79.4482
-82.0754
-84.4087
-86.53
-88.4926
-90.1836
-91.535
-92.9096
-94.0478
-94.0807
-94.4583
-94.9613
-95.4798
-95.7473
-96.1292
-96.4899
-96.9459
-97.3643
-97.7189
-97.9852
-98.2035
-98.4059
-98.7649
-99.1233
-99.394
-99.5559
-99.7279
-99.8238
-99.6615
-99.272
-98.6661
-97.611
-95.9786
-93.8922
-91.3602
-88.2229
-84.5073
-80.2957
-75.519
-70.1422
-64.2191
-57.6332
-50.1691
-41.7147
-32.3086
-22.3626
-13.7417
-39.3524
-40.6026
-41.7647
-42.7421
-43.5984
-44.2918
-44.8253
-45.2543
-45.5546
-45.7689
-45.9568
-46.0776
-46.1659
-46.2351
-46.2722
-46.2826
-46.2707
-46.2625
-46.2721
-46.2703
-46.2744
-46.2448
-46.206
-46.1422
-46.1058
-46.0606
-46.0408
-46.0207
-45.9989
-45.9948
-45.978
-45.9542
-45.8921
-45.836
-45.7804
-45.7363
-45.7273
-45.7138
-45.6823
-45.6409
-45.5857
-45.5494
-45.4958
-45.4762
-45.4527
-45.4486
-45.4315
-45.3918
-45.3532
-45.2937
-45.2473
-45.1871
-45.1623
-45.1553
-45.1365
-45.0978
-45.049
-44.9895
-44.9495
-44.9067
-44.8999
-44.8584
-44.841
-44.8103
-44.7964
-44.7572
-44.6909
-44.6429
-44.5638
-44.5493
-44.5185
-44.4648
-44.4344
-44.3894
-44.3393
-44.3093
-44.2673
-44.2711
-44.2352
-44.2195
-44.1889
-44.1828
-44.1427
-44.0749
-44.0262
-43.943
-43.9332
-43.9095
-43.8544
-43.8165
-43.7704
-43.7264
-43.7156
-43.6938
-43.6946
-43.6608
-43.6445
-43.6112
-43.5866
-43.5374
-43.474
-43.4464
-43.3609
-43.3255
-43.278
-43.2688
-43.2401
-43.1873
-43.1466
-43.1317
-43.1243
-43.1204
-43.1071
-43.1054
-43.091
-43.0513
-43.0125
-43.0092
-42.9585
-42.9371
-42.9233
-42.9496
-42.9622
-42.9837
-43.0267
-43.0516
-43.0979
-43.1995
-43.3722
-43.5833
-43.7874
-44.0024
-44.3305
-44.8179
-45.5036
-46.4155
-47.593
-49.1175
-51.0609
-53.4368
-56.2272
-59.3297
-62.6638
-66.1215
-69.5626
-72.8624
-75.9371
-78.7423
-81.2802
-83.5844
-85.688
-87.5897
-89.301
-90.7813
-91.6691
-92.9043
-93.7455
-93.7747
-94.0201
-94.495
-94.8115
-95.1946
-95.6516
-96.164
-96.714
-97.2725
-97.8181
-98.3595
-98.991
-99.6181
-100.136
-100.515
-100.892
-101.26
-101.472
-101.483
-101.342
-100.882
-99.8906
-98.4298
-96.5794
-94.1926
-91.212
-87.738
-83.7636
-79.2243
-74.1411
-68.4142
-61.8233
-54.2255
-45.6528
-36.5301
-28.5341
-36.4191
-37.9204
-39.3364
-40.5913
-41.7074
-42.6547
-43.4096
-44.036
-44.5472
-44.9249
-45.2516
-45.5135
-45.7291
-45.8925
-46.0258
-46.119
-46.2046
-46.2674
-46.3141
-46.3677
-46.4055
-46.4534
-46.4638
-46.4845
-46.484
-46.4986
-46.4846
-46.4538
-46.423
-46.3826
-46.3527
-46.3075
-46.2878
-46.2709
-46.2673
-46.2421
-46.1876
-46.1393
-46.1119
-46.096
-46.0903
-46.0594
-46.0319
-45.982
-45.9339
-45.8743
-45.8271
-45.7961
-45.7601
-45.7451
-45.7128
-45.6963
-45.6509
-45.5912
-45.5448
-45.5175
-45.4994
-45.4898
-45.4592
-45.4308
-45.3699
-45.3417
-45.2843
-45.2446
-45.17
-45.1307
-45.1214
-45.0951
-45.0976
-45.0383
-44.9966
-44.9841
-44.9459
-44.9286
-44.9115
-44.8683
-44.8356
-44.7668
-44.7344
-44.675
-44.6337
-44.5576
-44.519
-44.5062
-44.4741
-44.4775
-44.4114
-44.3634
-44.3511
-44.3133
-44.3003
-44.2783
-44.223
-44.1817
-44.1229
-44.0941
-44.041
-44.0062
-43.9539
-43.9232
-43.905
-43.8545
-43.8603
-43.8291
-43.8382
-43.7304
-43.6753
-43.6772
-43.6685
-43.6253
-43.5778
-43.5273
-43.4962
-43.4648
-43.4324
-43.423
-43.3673
-43.3184
-43.3412
-43.313
-43.2918
-43.2594
-43.2636
-43.2781
-43.2793
-43.3012
-43.3412
-43.428
-43.5832
-43.7785
-43.9755
-44.1916
-44.4927
-44.947
-45.5803
-46.4064
-47.446
-48.7539
-50.3884
-52.376
-54.7173
-57.3564
-60.2427
-63.3061
-66.4505
-69.5751
-72.5931
-75.4486
-78.1176
-80.6133
-82.9648
-85.1815
-87.3108
-89.3441
-91.1149
-92.5925
-93.8093
-94.9462
-95.1143
-95.3331
-95.6404
-95.8932
-96.266
-96.6154
-97.0239
-97.4107
-97.8499
-98.3781
-99.0393
-99.7708
-100.437
-101.056
-101.687
-102.38
-102.977
-103.371
-103.626
-103.688
-103.359
-102.589
-101.439
-99.7903
-97.5219
-94.7349
-91.5264
-87.8298
-83.6007
-78.7508
-73.0596
-66.2924
-58.4727
-50.0454
-42.4526
-33.6395
-35.3474
-36.9879
-38.482
-39.8028
-40.963
-41.9044
-42.7184
-43.392
-43.9199
-44.3757
-44.7491
-45.0525
-45.3019
-45.4938
-45.6358
-45.7369
-45.8236
-45.9098
-45.9695
-46.0167
-46.025
-46.0313
-46.0175
-46.0135
-45.9949
-45.9929
-45.9915
-45.9832
-45.9833
-45.9646
-45.9482
-45.9014
-45.8549
-45.8108
-45.7777
-45.7728
-45.7554
-45.72
-45.6805
-45.6322
-45.6028
-45.5578
-45.5587
-45.538
-45.5111
-45.4879
-45.449
-45.4111
-45.3512
-45.302
-45.2457
-45.2237
-45.2159
-45.1937
-45.1525
-45.1024
-45.0474
-45.012
-44.9747
-44.9667
-44.9278
-44.9088
-44.8732
-44.855
-44.8117
-44.7458
-44.6967
-44.6206
-44.6066
-44.5742
-44.5259
-44.4977
-44.4486
-44.4047
-44.3784
-44.3387
-44.3387
-44.3067
-44.2907
-44.2552
-44.2432
-44.1994
-44.132
-44.0821
-44.0022
-43.9907
-43.966
-43.9124
-43.8717
-43.8261
-43.7888
-43.7781
-43.7568
-43.7576
-43.7296
-43.7129
-43.6781
-43.6522
-43.6013
-43.5374
-43.5068
-43.4291
-43.3967
-43.3507
-43.341
-43.3047
-43.251
-43.2197
-43.2196
-43.2098
-43.2052
-43.1892
-43.1843
-43.1641
-43.1228
-43.1105
-43.073
-43.0593
-43.0532
-43.0377
-43.0635
-43.0768
-43.1029
-43.168
-43.2272
-43.2894
-43.3973
-43.5752
-43.8021
-44.0549
-44.3252
-44.6544
-45.0838
-45.6615
-46.3931
-47.3051
-48.4381
-49.8345
-51.5224
-53.5194
-55.7825
-58.2829
-60.9845
-63.8154
-66.7058
-69.5822
-72.3762
-75.0487
-77.5964
-80.0395
-82.3878
-84.6526
-86.8224
-88.8554
-90.6888
-92.2177
-93.1087
-94.2523
-95.1342
-95.238
-95.4483
-95.818
-96.3451
-96.9119
-97.3795
-97.835
-98.3885
-99.0834
-99.8934
-100.756
-101.604
-102.482
-103.408
-104.254
-104.887
-105.411
-105.932
-106.302
-106.306
-105.889
-104.961
-103.385
-101.25
-98.7587
-95.8895
-92.5518
-88.6259
-83.8623
-77.9463
-70.8701
-63.0491
-55.7931
-31.0612
-32.9472
-34.7742
-36.4507
-37.9605
-39.3123
-40.4557
-41.4376
-42.2801
-42.9785
-43.576
-44.0814
-44.5107
-44.863
-45.1563
-45.3875
-45.5861
-45.7462
-45.8776
-45.9974
-46.0872
-46.1743
-46.2223
-46.2743
-46.305
-46.3473
-46.3526
-46.3508
-46.3388
-46.3141
-46.2942
-46.2626
-46.2456
-46.2277
-46.2212
-46.1988
-46.1565
-46.1225
-46.0994
-46.0829
-46.0727
-46.0447
-46.0141
-45.9723
-45.9329
-45.8795
-45.8345
-45.8012
-45.7673
-45.753
-45.7153
-45.677
-45.6331
-45.5865
-45.5457
-45.5168
-45.5006
-45.4866
-45.4548
-45.4261
-45.3749
-45.3489
-45.2981
-45.2558
-45.1915
-45.1505
-45.1304
-45.0931
-45.088
-45.0323
-44.9904
-44.9721
-44.9343
-44.9208
-44.8996
-44.86
-44.8299
-44.769
-44.7364
-44.6839
-44.6409
-44.5821
-44.5397
-44.5154
-44.4726
-44.4666
-44.4059
-44.3646
-44.3663
-44.3245
-44.2978
-44.2655
-44.2116
-44.173
-44.1219
-44.0949
-44.0499
-44.0204
-43.98
-43.9449
-43.9166
-43.8671
-43.863
-43.8229
-43.8188
-43.7316
-43.683
-43.6726
-43.6578
-43.617
-43.5832
-43.5433
-43.5196
-43.4921
-43.4799
-43.4661
-43.4297
-43.4483
-43.3984
-43.3796
-43.3885
-43.3698
-43.3693
-43.3834
-43.4089
-43.4635
-43.5363
-43.6399
-43.799
-44.0074
-44.225
-44.4582
-44.7434
-45.1362
-45.6582
-46.3154
-47.1344
-48.1321
-49.347
-50.8157
-52.5429
-54.4973
-56.6729
-59.0519
-61.5879
-64.2314
-66.9182
-69.5894
-72.1972
-74.7159
-77.1677
-79.5644
-81.9008
-84.1629
-86.3547
-88.4685
-90.4596
-92.1336
-93.5061
-94.3479
-95.337
-95.8903
-95.8531
-96.2009
-96.6308
-97.1363
-97.6586
-98.1999
-98.8546
-99.6628
-100.621
-101.658
-102.713
-103.776
-104.786
-105.726
-106.659
-107.677
-108.69
-109.459
-109.823
-109.618
-108.734
-107.28
-105.472
-103.368
-100.901
-97.9262
-94.1602
-89.1997
-82.9547
-75.7417
-68.9356
-28.6607
-30.7101
-32.6898
-34.5112
-36.1725
-37.6672
-38.9727
-40.1016
-41.0939
-41.9296
-42.6362
-43.2578
-43.7787
-44.2127
-44.5727
-44.8646
-45.0975
-45.2969
-45.4726
-45.6052
-45.7088
-45.7699
-45.8175
-45.8481
-45.8782
-45.9045
-45.9339
-45.9592
-45.9744
-45.9856
-45.9746
-45.9607
-45.9248
-45.8885
-45.859
-45.8327
-45.8089
-45.7884
-45.7626
-45.7326
-45.6931
-45.6673
-45.6389
-45.6266
-45.6067
-45.5906
-45.5684
-45.5283
-45.4834
-45.4235
-45.3795
-45.3283
-45.2926
-45.2787
-45.2531
-45.2153
-45.1725
-45.1261
-45.0915
-45.0585
-45.0507
-45.0195
-45.0053
-44.9451
-44.9324
-44.8841
-44.8215
-44.7701
-44.6899
-44.6768
-44.651
-44.608
-44.5766
-44.5292
-44.4911
-44.466
-44.4324
-44.4273
-44.3986
-44.3874
-44.3355
-44.3228
-44.2742
-44.2102
-44.1554
-44.0743
-44.0632
-44.0381
-43.9874
-43.9505
-43.9133
-43.8763
-43.8591
-43.8395
-43.8362
-43.8093
-43.7934
-43.7467
-43.7344
-43.6886
-43.6279
-43.5848
-43.5094
-43.4813
-43.4414
-43.4283
-43.3923
-43.3467
-43.314
-43.3078
-43.296
-43.2989
-43.289
-43.2758
-43.2402
-43.2274
-43.2134
-43.1712
-43.1766
-43.1235
-43.1188
-43.1487
-43.1673
-43.1852
-43.235
-43.3056
-43.381
-43.4892
-43.6568
-43.8712
-44.117
-44.3787
-44.6965
-45.1058
-45.6209
-46.25
-47.0006
-47.8873
-48.9596
-50.2382
-51.7455
-53.4521
-55.356
-57.4585
-59.7281
-62.1323
-64.6158
-67.1393
-69.6449
-72.095
-74.5002
-76.8853
-79.2351
-81.5211
-83.7529
-85.9409
-88.0787
-90.081
-91.8738
-93.3058
-94.405
-95.0346
-95.8878
-96.5198
-96.7574
-97.1353
-97.5555
-98.0933
-98.7643
-99.5643
-100.557
-101.751
-103.033
-104.335
-105.607
-106.751
-107.854
-109.064
-110.477
-111.893
-112.989
-113.564
-113.53
-112.875
-111.742
-110.279
-108.508
-106.426
-103.785
-100.032
-94.8822
-88.4639
-82.1616
-26.4699
-28.6482