/*--------------------------------*- C++ -*----------------------------------*\
| =========                 |                                                 |
| \\      /  F ield         | OpenFOAM: The Open Source CFD Toolbox           |
|  \\    /   O peration     | Version:  4.1                                   |
|   \\  /    A nd           | Web:      www.OpenFOAM.org                      |
|    \\/     M anipulation  |                                                 |
\*---------------------------------------------------------------------------*/
FoamFile
{
    version     2.0;
    format      ascii;
    class       volScalarField;
    location    "53";
    object      p;
}
// * * * * * * * * * * * * * * * * * * * * * * * * * * * * * * * * * * * * * //

dimensions      [0 2 -2 0 0 0 0];

internalField   nonuniform List<scalar> 
204246
(
107.625
8.142
39.775
31.6582
24.1006
34.0195
21.2961
34.0569
20.6786
33.9563
20.3447
34.6365
18.976
34.9975
20.2869
32.4681
26.6921
21.3006
33.4174
18.813
34.6744
19.1453
33.3107
19.8551
33.1305
19.5919
33.9241
17.7626
34.745
17.3939
34.6623
17.7728
33.6916
20.2577
29.8894
26.4187
19.765
32.1571
18.4862
31.945
18.9525
32.1667
18.7854
33.1978
17.1629
34.1782
17.1392
34.0124
18.4203
31.905
20.7717
29.4295
26.5676
19.5736
32.0788
18.2815
31.7223
18.6412
31.7887
18.3125
32.6368
16.4931
33.4124
16.2668
33.027
17.3846
30.7066
19.5022
28.1927
24.7658
19.1041
28.7979
17.7033
29.7552
17.2517
30.1278
16.7656
31.1014
14.9675
31.9954
14.83
31.7537
16.0311
29.5996
18.3161
27.1706
23.7839
18.1423
27.9695
16.7631
29.1612
16.0657
30.3451
14.1362
31.3181
13.6798
31.3637
13.6639
30.866
14.5142
28.8076
15.4889
27.8118
16.3985
25.9005
19.9538
16.5285
24.9269
13.4116
26.2933
10.3372
26.093
9.45503
24.1541
8.07708
22.047
6.51379
19.1527
4.88051
15.5959
2.96355
10.6229
3.98508
-2.96212
4.29617
-7.59258
0.532974
-13.063
-3.85144
-18.2714
-8.17917
-23.2567
-11.949
-27.6852
-14.7665
-30.2687
-17.0575
-30.1697
-20.2937
-24.7032
-30.2648
-17.7214
-31.3244
-14.764
-29.8259
-12.3529
-27.7746
-10.1434
-25.4818
-8.10971
-23.0062
-6.41817
-19.7043
-5.87928
-15.2528
-6.47539
-8.92119
-12.262
-2.52374
-9.38838
0.569584
-7.05948
3.76182
-4.5213
9.69855
-1.15531
15.3692
4.24206
18.9697
12.2649
24.1419
21.0797
32.9068
31.8263
42.9717
48.5881
52.4421
66.4533
69.2776
83.0779
92.2641
106.016
120.251
135.349
155.127
172.9
201.214
223.941
267.794
296.76
384.46
400.431
607.453
46.4273
31.1541
26.5914
33.2802
25.3146
30.7741
24.7109
29.8717
24.6373
29.5434
24.4744
29.6715
24.5174
28.8227
26.0046
26.69
29.3362
23.7403
29.3447
23.9273
29.0506
24.4807
28.646
24.3248
28.7754
23.8966
29.1894
23.3686
28.9458
23.3794
28.494
23.8188
27.3805
25.3175
25.3168
28.2573
22.7353
27.8663
23.2374
27.5118
23.2203
27.7759
22.9802
28.3545
22.6956
28.2411
23.0556
27.78
24.0009
26.7597
25.1846
25.0021
28.1611
22.619
27.7688
23.1172
27.3481
23.0091
27.4886
22.6221
27.8958
22.1486
27.5767
22.2902
26.8993
22.9822
25.7424
23.8846
23.9536
26.3945
21.7207
25.8071
21.5392
25.7561
21.3793
25.8721
20.9969
26.3074
20.5799
26.0713
20.8254
25.5163
21.6708
24.4526
22.7363
22.7938
25.3853
20.705
24.9547
20.5613
25.147
20.2434
25.662
19.7848
25.535
19.7635
25.3005
19.8707
24.7693
20.309
23.9891
20.3093
23.2725
20.8876
21.621
22.8912
18.4269
22.6015
17.4864
22.3506
16.4377
21.0575
15.6907
19.5458
14.3116
17.744
12.4395
15.5938
10.4313
12.6405
8.86801
7.55204
8.4326
2.29671
2.47803
-2.59165
-1.02626
-7.38684
-5.66017
-12.3318
-10.4149
-17.1528
-14.907
-21.2881
-19.0619
-24.0588
-22.5612
-24.7936
-25.5964
-22.6688
-28.4282
-22.3936
-27.4146
-21.0644
-25.5337
-19.0834
-23.291
-16.9627
-20.9562
-14.9183
-18.5796
-13.2377
-15.9463
-11.8056
-12.6401
-11.0642
-8.42747
-11.8173
-7.57694
-7.72072
-3.78463
-5.79962
-0.195101
-3.96943
3.45992
0.259337
7.06139
5.46544
11.2161
11.2555
17.2075
18.198
24.5649
27.9997
32.6855
40.9152
44.6722
53.9181
60.3524
69.6503
79.3039
89.6047
103.007
114.444
131.921
144.222
167.562
181.158
216.334
223.007
297.673
263.145
397.827
16.8234
38.3099
26.445
32.5822
26.3711
30.8975
25.3694
29.8754
25.1489
29.4686
24.9943
29.2896
25.1025
28.6478
26.0489
27.1611
27.8333
25.3177
28.5067
24.6801
28.7532
24.6233
28.6593
24.5061
28.6598
24.2358
28.7593
23.886
28.6392
23.8025
28.2859
24.1376
27.4191
25.1668
25.752
26.7226
24.1172
27.1917
23.6587
27.3994
23.479
27.6239
23.3287
27.915
23.1932
27.95
23.3988
27.6705
24.0242
26.9162
25.0436
25.5426
26.6331
23.9788
27.0926
23.5034
27.23
23.2358
27.3306
22.9438
27.4547
22.626
27.2922
22.622
26.8065
23.0192
25.865
23.7744
24.3955
25.0403
22.8084
25.3198
22.0613
25.5354
21.689
25.6843
21.3467
25.8673
21.0564
25.7945
21.1397
25.4245
21.6586
24.6206
22.5623
23.2843
23.9945
21.7755
24.4384
21.0557
24.8461
20.6022
25.1644
20.2112
25.2044
20.0476
25.0641
20.0557
24.665
20.2321
24.0386
20.3679
23.2241
20.8265
21.7424
21.8106
19.589
21.9706
18.1482
21.808
16.9579
20.9201
15.9441
19.5716
14.5825
17.9076
12.8404
15.5962
11.3034
12.1387
9.83267
7.73112
7.29159
3.36519
3.40627
-1.00181
-1.5134
-5.62072
-6.38546
-10.5474
-11.2414
-15.51
-15.7761
-19.9792
-19.6192
-23.1812
-22.7467
-24.4471
-25.5235
-23.9847
-27.0677
-23.1346
-26.7752
-21.4693
-25.2033
-19.3921
-23.0085
-17.2105
-20.5674
-15.3118
-17.8772
-13.81
-14.8954
-12.6324
-11.5448
-11.5686
-9.13928
-10.6474
-6.48538
-9.4516
-3.92838
-5.87397
-0.985986
-2.41293
2.91794
1.47845
6.88683
6.03245
10.8891
11.8612
17.0253
19.3902
24.4356
29.3039
34.0784
40.9267
46.0143
55.3328
61.4117
71.7853
81.1411
92.3826
105.686
118.482
136.898
150.995
176.347
191.208
230.835
238.826
314.951
293.695
382.474
11.3519
28.5873
22.7719
29.2676
25.0087
28.84
25.6189
28.1059
25.9739
27.7653
26.1326
27.5349
26.511
26.8968
27.346
25.9952
28.2582
25.611
27.7564
25.8568
27.3848
26.0764
27.2237
25.9401
27.2287
25.6995
27.2196
25.5359
26.8988
25.5424
26.4356
25.8061
25.7165
26.4601
24.8658
27.0157
24.5194
26.4024
24.7326
26.1327
24.7212
26.1746
24.6719
26.2932
24.7551
26.1305
25.0566
25.833
25.5626
25.3795
26.1792
24.708
26.9093
24.4599
26.347
24.6855
26.0519
24.6079
25.9923
24.4282
25.9509
24.324
25.5909
24.3885
25.075
24.6323
24.4414
24.969
23.6061
25.4209
23.1811
24.7862
23.0477
24.4505
22.9087
24.3351
22.7305
24.296
22.6839
23.9982
22.8637
23.5941
23.2572
23.076
23.7584
22.4044
24.3788
22.1349
23.9072
22.0949
23.7647
22.0012
23.7594
21.9449
23.5451
21.9649
23.2974
22.0219
22.9571
22.1088
22.5783
22.0593
22.0293
22.2674
21.104
22.6252
20.208
21.8582
19.6694
21.0737
19.1143
19.9129
18.3671
18.6313
17.1695
17.152
15.4711
15.2491
13.6764
12.5864
11.7732
9.1312
9.04093
5.40887
4.61306
1.21428
-0.0776546
-3.27459
-5.32217
-8.2666
-10.56
-13.3426
-15.7279
-18.0691
-20.4288
-21.892
-24.1119
-24.1791
-26.4729
-25.0277
-27.5737
-25.3069
-26.8629
-24.3106
-24.8932
-22.5076
-22.4843
-20.4126
-19.8979
-18.3256
-17.5867
-16.5889
-15.3363
-15.1299
-12.7011
-13.3519
-10.1589
-11.9361
-8.48927
-9.20544
-6.97307
-6.72389
-4.28977
-4.14745
-1.41375
-0.594728
2.10241
2.70101
6.25942
7.55918
11.2707
13.9075
17.3952
21.6594
25.4567
31.4067
35.8518
42.8359
49.0554
56.1673
64.8851
72.4716
84.1402
92.2974
107.748
116.239
137.041
144.025
177.079
171.951
229.446
216.319
287.418
10.7026
28.9771
21.9627
28.4502
25.5293
28.3232
26.3145
28.0891
26.425
27.8014
26.542
27.5048
26.8296
26.996
27.2701
26.4474
27.5936
26.4193
27.3086
26.4046
27.2228
26.331
27.2392
26.1504
27.2232
25.9764
27.1115
25.8886
26.8203
25.8558
26.4171
25.9825
25.8402
26.25
25.2674
26.3398
25.2186
26.0367
25.1589
26.031
25.0182
26.108
24.9702
26.1514
25.0788
26.0532
25.2759
25.8653
25.593
25.566
25.9714
25.1398
26.2266
25.1352
25.9454
25.0649
25.922
24.8595
25.9048
24.6919
25.801
24.63
25.5128
24.6186
25.107
24.7004
24.5958
24.8402
23.9684
24.84
23.7871
24.4914
23.5085
24.3254
23.2443
24.238
23.0443
24.1356
23.0064
23.9106
23.0809
23.6157
23.276
23.246
23.5397
22.7832
23.7383
22.701
23.5263
22.4933
23.513
22.2957
23.4904
22.2139
23.3491
22.1562
23.1726
22.1293
22.9116
22.1043
22.6067
22.0485
22.0858
22.15
21.3439
22.0686
20.7931
21.5088
20.1631
20.8554
19.5391
19.9327
18.7213
18.7757
17.5354
17.3962
16.073
15.4866
14.3595
12.937
12.1983
9.97439
9.3443
6.58456
5.63802
2.46981
1.00046
-2.0683
-4.05922
-7.10882
-9.4181
-12.2638
-14.7705
-17.1663
-19.6365
-21.309
-23.5336
-24.1925
-26.0857
-25.7278
-27.1287
-25.8837
-26.5566
-24.8359
-24.6567
-22.8576
-22.2342
-20.5447
-19.8092
-18.0783
-17.4891
-15.8442
-15.1785
-14.0834
-12.9309
-12.4849
-10.5506
-10.9532
-8.75227
-8.78638
-6.70914
-6.3036
-4.14489
-3.30373
-0.969369
-0.132678
2.70597
3.40624
6.77968
8.38737
11.947
14.8769
18.6982
22.7823
27.0054
32.6057
37.7107
44.7236
51.4212
59.3265
68.3925
77.0679
89.2588
98.7165
115.076
124.813
147.076
155.146
189.314
186.294
235.553
224.207
269.304
11.2207
24.5412
20.5532
25.4936
24.0561
26.5017
25.5307
26.8192
26.2767
26.8525
26.6754
26.6941
27.0666
26.428
27.4068
26.1838
27.512
26.4042
27.0939
26.6257
26.8576
26.6983
26.7651
26.6038
26.697
26.4677
26.5444
26.386
26.2393
26.3231
25.8943
26.3135
25.5094
26.4246
25.1128
26.2657
25.1683
25.7792
25.3085
25.5841
25.2934
25.5384
25.3227
25.5105
25.4695
25.3922
25.6875
25.2504
25.9426
25.1319
26.1636
25.0005
26.2131
25.2066
25.7994
25.3404
25.6063
25.293
25.4691
25.2129
25.2895
25.1767
24.9925
25.1272
24.6398
25.0625
24.3188
25.056
23.9068
24.8572
23.7842
24.3494
23.7236
23.966
23.5622
23.7449
23.4497
23.5405
23.4541
23.2755
23.5415
23.0229
23.6763
22.804
23.7951
22.6103
23.7794
22.749
23.4143
22.7935
23.2227
22.7835
23.07
22.8096
22.8647
22.8244
22.664
22.8271
22.4468
22.795
22.24
22.6934
21.9192
22.5778
21.5636
22.3603
21.2061
21.8107
20.8211
21.0375
20.3326
20.1768
19.6125
19.1971
18.5843
17.9593
17.2302
16.3001
15.6235
14.093
13.5311
11.3334
10.7361
8.01355
6.9894
4.1231
2.47011
-0.484058
-2.66751
-5.68328
-8.26825
-11.2164
-14.0318
-16.673
-19.5117
-21.4847
-24.0984
-25.0729
-27.2242
-27.247
-28.4846
-27.883
-27.9671
-26.9053
-26.1308
-24.7111
-23.6135
-22.0622
-20.9838
-19.6065
-18.4303
-17.4634
-16.0807
-15.7151
-13.7914
-13.9595
-11.9293
-12.1323
-10.3932
-10.3092
-8.91604
-8.19629
-7.03595
-5.79209
-4.49881
-3.34252
-1.36898
-0.465058
1.9603
3.45886
6.09418
8.5156
11.3946
14.8295
18.115
22.5225
26.792
31.9318
37.7562
43.2698
51.1936
56.9907
67.4797
73.5641
87.4491
93.3435
112.122
115.364
145.792
139.32
180.528
177.99
218.601
14.2179
25.5048
21.1712
26.0545
24.5849
26.6552
26.0552
26.9486
26.6967
27.0183
26.9468
26.8846
27.2062
26.661
27.3918
26.5054
27.325
26.793
26.9824
26.9516
26.8593
26.9296
26.8616
26.7949
26.8232
26.6841
26.6544
26.6286
26.3518
26.5456
26.0215
26.4694
25.6264
26.3412
25.3682
26.0923
25.5435
25.7206
25.6248
25.6066
25.5588
25.5913
25.5676
25.5564
25.6872
25.4856
25.8004
25.4074
25.9603
25.3058
26.0792
25.2734
25.9924
25.5126
25.6702
25.5823
25.5778
25.4904
25.4932
25.4028
25.3437
25.3467
25.1114
25.2851
24.7955
25.1855
24.4655
25.0249
24.1431
24.7617
24.1256
24.3657
24.0159
24.0078
23.8543
23.7754
23.716
23.573
23.6683
23.3611
23.6719
23.1547
23.7051
22.964
23.7109
22.8344
23.5586
23.0097
23.2519
23.0163
23.1067
22.9597
22.9769
22.9418
22.8176
22.9065
22.6685
22.8613
22.4883
22.7707
22.3248
22.646
22.0285
22.5169
21.6733
22.27
21.3913
21.768
21.0805
21.1285
20.5913
20.3868
19.8804
19.5164
18.9146
18.4174
17.7509
16.8459
16.2479
14.8747
14.2941
12.4477
11.6984
9.47588
8.29688
5.74891
4.07242
1.28967
-0.90354
-3.8757
-6.51952
-9.52758
-12.461
-15.2565
-18.2612
-20.5346
-23.2844
-24.7201
-26.8453
-27.3678
-28.6071
-28.2194
-28.5386
-27.2931
-26.8721
-25.0325
-24.1379
-22.1782
-21.1145
-19.4029
-18.3113
-17.0227
-15.8737
-15.0645
-13.7436
-13.2395
-11.6505
-11.4711
-9.90306
-9.56674
-8.16815
-7.3931
-6.15253
-4.98745
-3.3968
-2.52207
-0.42975
0.510785
2.95075
4.44172
7.18659
9.55256
12.6993
15.9726
19.681
23.946
28.6171
33.7897
40.035
45.8309
54.1494
60.431
71.3728
77.8988
92.2124
98.5403
117.941
120.285
148.168
144.791
176.004
172.132
200.94
14.1543
23.9595
20.2552
24.4572
23.5288
25.3373
25.2503
26.0183
26.1974
26.3394
26.7272
26.4399
27.0146
26.4052
27.2002
26.3861
27.1461
26.7089
26.8423
26.9108
26.7404
26.9541
26.6942
26.886
26.6307
26.7854
26.4641
26.7089
26.1811
26.5803
25.8861
26.4564
25.561
26.2841
25.2918
25.9268
25.3576
25.5336
25.4838
25.3595
25.463
25.2962
25.5186
25.258
25.6411
25.2089
25.7779
25.1785
25.9469
25.1442
26.0649
25.2199
25.9346
25.4993
25.6247
25.601
25.4996
25.6058
25.3536
25.5532
25.2006
25.4858
24.9599
25.387
24.6664
25.2427
24.4013
25.0438
24.1235
24.6764
24.05
24.27
23.9509
23.9113
23.7729
23.5987
23.6751
23.3478
23.6421
23.1345
23.6553
22.951
23.6928
22.8097
23.6919
22.7878
23.5085
23.0076
23.1969
23.1035
23.0238
23.13
22.8608
23.163
22.6946
23.1581
22.5486
23.1307
22.3949
23.0605
22.2752
22.9071
22.1231
22.7843
21.8568
22.5553
21.7146
22.0139
21.4527
21.4573
21.0488
20.8172
20.4735
20.0309
19.6557
18.9983
18.6055
17.6358
17.2133
15.8371
15.344
13.5472
12.8433
10.6618
9.55128
7.07711
5.39207
2.65507
0.388388
-2.60053
-5.4054
-8.54698
-11.7444
-14.8278
-18.175
-20.8639
-23.9909
-25.8984
-28.3787
-29.2418
-30.6948
-30.4928
-30.6662
-29.6034
-28.7193
-27.1143
-25.649
-23.9086
-22.3166
-20.8442
-19.292
-18.3157
-16.7549
-16.2813
-14.6279
-14.5381
-12.9249
-12.8621
-11.5555
-11.2862
-10.3803
-9.63393
-8.843
-7.86768
-6.81003
-5.8519
-4.37453
-3.47801
-1.70637
-0.365705
1.62403
3.6023
5.94704
8.59367
11.4789
14.7269
18.5828
22.3209
27.5698
31.6565
38.7805
43.1026
52.5431
56.9816
69.3492
73.253
90.8553
91.4883
116.104
114.172
142.631
142.517
169.537
17.3105
25.6439
21.6636
25.636
24.4685
26.033
25.9034
26.3957
26.6497
26.6155
27.0143
26.6846
27.1862
26.6289
27.2763
26.6021
27.1543
26.9417
26.9023
27.1078
26.8417
27.1524
26.8409
27.0741
26.8078
27.0138
26.6155
26.9558
26.3599
26.8183
26.0403
26.637
25.7202
26.4046
25.5086
25.9905
25.645
25.6562
25.6771
25.512
25.6547
25.4296
25.7089
25.3785
25.8067
25.346
25.9012
25.3146
26.0099
25.3063
26.0471
25.3923
25.8957
25.6622
25.6212
25.7583
25.5445
25.7642
25.4509
25.7105
25.3231
25.6568
25.1118
25.5796
24.8361
25.4118
24.5667
25.1674
24.3465
24.7932
24.3058
24.4002
24.2092
24.0614
24.0489
23.7466
23.9223
23.4874
23.8439
23.2668
23.7923
23.0835
23.7784
22.9373
23.6802
22.9376
23.4576
23.1468
23.1602
23.2156
23.0013
23.2279
22.8556
23.2279
22.7113
23.2244
22.5671
23.1944
22.426
23.0815
22.3494
22.8974
22.186
22.7558
21.9798
22.5074
21.9044
22.0119
21.6924
21.5375
21.3257
20.9938
20.8132
20.3311
20.112
19.4724
19.1935
18.3232
17.9923
16.8097
16.3647
14.8598
14.1558
12.3475
11.1991
9.08827
7.40472
4.9338
2.65358
-0.188124
-3.05167
-6.19859
-9.54183
-12.7852
-16.3687
-19.3707
-22.7766
-25.1312
-27.8591
-29.2772
-30.9103
-31.2006
-31.694
-30.7891
-30.204
-28.242
-26.8621
-24.5399
-22.9066
-20.9267
-19.4037
-18.0759
-16.6871
-15.8888
-14.4505
-13.934
-12.4638
-12.0337
-10.7783
-10.248
-9.23765
-8.56285
-7.61907
-6.77919
-5.53927
-4.91347
-3.34715
-2.52044
-0.781039
0.439004
2.47119
4.26446
6.74365
9.17899
12.2885
15.3649
19.3986
23.0137
28.4607
32.4172
39.6943
43.9013
53.4306
57.6865
70.1182
73.4901
90.2647
90.7236
112.31
109.962
132.716
131.554
152.96
17.0894
25.0599
21.2261
24.8726
23.8214
25.2951
25.3449
25.8447
26.2253
26.2348
26.7326
26.4214
26.9666
26.4492
27.0864
26.4864
26.9945
26.8222
26.78
27.0132
26.7421
27.0758
26.7356
27.0398
26.703
26.9802
26.5722
26.9184
26.3421
26.7809
26.024
26.5893
25.6625
26.2949
25.3882
25.8178
25.378
25.4409
25.4275
25.258
25.407
25.1779
25.4778
25.1503
25.6128
25.1527
25.7703
25.1649
25.9239
25.2001
25.9898
25.3517
25.8495
25.6356
25.5989
25.7447
25.5104
25.7677
25.4056
25.7488
25.2864
25.6809
25.1035
25.5838
24.8432
25.394
24.567
25.117
24.2986
24.6898
24.187
24.2733
24.0669
23.9211
23.881
23.6093
23.7392
23.3321
23.691
23.1104
23.6536
22.9812
23.6639
22.8497
23.597
22.9056
23.4012
23.1226
23.1374
23.2318
22.9927
23.2778
22.8511
23.3101
22.7128
23.3212
22.5777
23.3077
22.4574
23.2229
22.3968
23.0776
22.343
22.9313
22.1682
22.7121
22.1405
22.2372
21.9611
21.8432
21.6475
21.3841
21.2189
20.7996
20.6199
20.0122
19.8095
18.953
18.6976
17.5487
17.1616
15.7138
15.0704
13.3239
12.2666
10.2045
8.614
6.18864
3.96687
1.13108
-1.75855
-5.00252
-8.5071
-12.0325
-15.9359
-19.4248
-23.3011
-26.2602
-29.5108
-31.4005
-33.4777
-33.9156
-34.3561
-33.3966
-32.3835
-30.5101
-28.5408
-26.3216
-24.0203
-22.1433
-20.0419
-18.9119
-17.1639
-16.6676
-15.0956
-14.95
-13.5563
-13.453
-12.3467
-12.1152
-11.3105
-10.8506
-10.1581
-9.54795
-8.61642
-7.95782
-6.83007
-6.05913
-4.73907
-3.67293
-2.13974
-0.667784
1.23298
3.1455
5.6258
7.92484
11.294
13.9025
18.4882
21.3045
27.5275
30.483
38.7641
41.733
52.7355
54.997
70.3542
70.2968
89.6428
90.151
110.432
111.057
130.975
20.0464
27.0796
23.0675
26.339
25.0717
26.2706
26.1596
26.4059
26.7479
26.5728
27.0605
26.6564
27.157
26.6286
27.1813
26.6797
27.0246
27.0203
26.8633
27.1773
26.8617
27.2329
26.8941
27.2264
26.867
27.1981
26.726
27.1661
26.5131
27.0408
26.2045
26.8199
25.8879
26.5018
25.6502
26.0081
25.6486
25.6219
25.6617
25.429
25.6269
25.3253
25.6652
25.2745
25.7566
25.2623
25.8772
25.2625
25.9712
25.3128
25.9904
25.4401
25.8583
25.7089
25.624
25.8395
25.568
25.8834
25.5056
25.8736
25.4064
25.839
25.2499
25.7776
25.0201
25.5944
24.775
25.3121
24.5385
24.8912
24.4521
24.4787
24.3326
24.1088
24.1629
23.7748
24.0141
23.4847
23.907
23.2407
23.8212
23.0575
23.7676
22.9452
23.627
22.9909
23.4066
23.1958
23.135
23.2947
22.9812
23.3275
22.8488
23.3376
22.7179
23.3544
22.5891
23.3416
22.4819
23.2508
22.4414
23.0738
22.3737
22.9564
22.2322
22.7112
22.2713
22.2787
22.1529
21.9293
21.8849
21.5478
21.5322
21.0812
21.0572
20.4679
20.4145
19.6503
19.5268
18.556
18.2799
17.0884
16.532
15.1047
14.1199
12.3826
10.8561
8.70969
6.5253
3.86823
0.953339
-2.2525
-5.88088
-9.55341
-13.7289
-17.5653
-21.8393
-25.3222
-29.0222
-31.5691
-34.0703
-35.2171
-36.2588
-35.8305
-35.304
-33.1692
-31.1963
-28.206
-25.6153
-22.9736
-20.704
-19.1326
-17.3959
-16.6316
-15.0451
-14.5226
-13.0581
-12.4967
-11.3535
-10.7526
-10.0171
-9.47578
-8.86489
-8.31805
-7.56689
-7.00552
-6.03917
-5.41624
-4.2632
-3.38773
-1.97728
-0.747762
1.06942
2.70556
5.13579
7.17711
10.4739
12.7758
17.3306
19.7387
25.8767
28.3822
36.4903
38.8971
49.7846
50.9583
65.159
65.4871
81.2976
81.7569
98.482
99.0053
115.831
19.855
26.8725
22.9857
26.0552
24.8203
26.1045
25.9161
26.3358
26.5766
26.5141
26.9316
26.6047
27.0602
26.5999
27.06
26.6207
26.9223
26.8826
26.8012
27.0495
26.8179
27.1322
26.8134
27.159
26.773
27.1866
26.6839
27.1563
26.5151
27.0267
26.2285
26.7726
25.8492
26.3981
25.5054
25.8711
25.343
25.3856
25.3447
25.1345
25.3392
25.0482
25.4146
25.0478
25.552
25.0979
25.7235
25.1789
25.8832
25.2477
25.966
25.4144
25.8495
25.6996
25.6233
25.8414
25.5357
25.8953
25.4738
25.9204
25.3948
25.8779
25.2625
25.7965
25.0549
25.5803
24.7822
25.2651
24.4854
24.8163
24.3122
24.3463
24.185
23.95
23.9895
23.6141
23.8077
23.3219
23.7207
23.1005
23.6755
22.9475
23.6504
22.8742
23.5572
22.9601
23.3756
23.1767
23.1252
23.3131
22.9773
23.3883
22.8625
23.4277
22.7391
23.4507
22.6253
23.4484
22.5345
23.3744
22.5044
23.2345
22.5125
23.1064
22.4351
22.905
22.4612
22.4796
22.4168
22.1918
22.1932
21.8624
21.9057
21.459
21.494
20.918
20.9062
20.1713
20.0847
19.1555
18.9255
17.7919
17.3121
15.9547
15.0914
13.4676
12.0889
10.0909
8.06287
5.55426
2.75275
-0.398574
-4.04595
-7.85977
-12.2701
-16.5529
-21.344
-25.5549
-30.0148
-33.2929
-36.5413
-38.0928
-39.2516
-38.7421
-37.7187
-35.6002
-32.9547
-29.9967
-26.5045
-23.7622
-20.5874
-19.0989
-17.0254
-16.6359
-15.1382
-15.1298
-13.9357
-13.8786
-12.8968
-12.5683
-11.8887
-11.5602
-11.0869
-10.6633
-10.0686
-9.59099
-8.64483
-8.1189
-7.07645
-6.31883
-5.12298
-4.1196
-2.60633
-1.3708
0.674786
2.1294
4.96128
6.55394
10.417
12.0319
17.2827
18.8835
25.9949
27.3875
36.8728
38.1117
49.7888
51.4582
65.1459
67.0516
81.8996
83.2364
99.0031
22.7703
28.8532
24.8736
27.5579
26.1397
27.0255
26.8185
26.8952
27.1076
26.9062
27.2543
26.8556
27.2682
26.7654
27.1992
26.7601
26.9528
27.0337
26.8705
27.1359
26.9206
27.2434
26.9435
27.3267
26.9183
27.3639
26.8304
27.3498
26.6786
27.2522
26.4255
27.0363
26.1012
26.6661
25.8142
26.0972
25.6949
25.6151
25.619
25.3495
25.5527
25.2003
25.5818
25.1538
25.6582
25.159
25.7779
25.1914
25.9215
25.2483
25.9826
25.4223
25.8557
25.7102
25.6415
25.8812
25.5639
25.9573
25.536
26
25.4816
26.0012
25.392
25.9559
25.2463
25.7811
25.0088
25.4929
24.7314
25.0421
24.5963
24.5786
24.4503
24.1646
24.2707
23.7967
24.0925
23.4839
23.9384
23.2247
23.8194
23.0213
23.7263
22.9182
23.5847
22.9919
23.3803
23.2052
23.1306
23.3338
22.9681
23.3967
22.8378
23.4303
22.717
23.4558
22.6129
23.4543
22.5336
23.3856
22.5153
23.2298
22.5156
23.1248
22.4362
22.9093
22.545
22.4794
22.515
22.2443
22.3324
21.9906
22.1021
21.6963
21.8025
21.3012
21.3912
20.7559
20.7809
20.0148
19.8973
18.9941
18.6167
17.5531
16.7869
15.4719
14.1978
12.4882
10.5595
8.27158
5.52456
2.45987
-1.26237
-5.20648
-9.89417
-14.5288
-19.8025
-24.5679
-29.6612
-33.727
-37.7196
-40.1926
-42.441
-42.7996
-42.8329
-40.6898
-38.1668
-34.2527
-30.1571
-26.0894
-22.3007
-19.8978
-17.6093
-16.9771
-15.225
-14.7886
-13.3141
-12.6087
-11.6786
-10.7319
-10.4853
-9.89829
-9.85207
-9.3972
-9.2387
-8.82622
-8.40008
-8.02742
-7.37806
-6.83377
-5.943
-5.1901
-3.91305
-2.95482
-1.13423
0.0589955
2.65247
3.9278
7.64471
8.82854
13.7986
14.97
21.4648
22.678
30.8481
32.2312
42.2013
43.7022
55.2651
56.7749
69.8904
70.8459
85.0518
23.0139
29.0305
25.1888
27.6985
26.3897
27.2595
26.9211
27.142
27.224
27.0891
27.356
27.0111
27.3353
26.8504
27.2163
26.7181
26.978
26.8708
26.864
27.0378
26.8627
27.1862
26.8369
27.3093
26.8355
27.3826
26.7959
27.3974
26.7
27.2982
26.4855
27.0237
26.1256
26.5924
25.7289
25.9996
25.3852
25.4038
25.2151
25.0209
25.2494
24.9279
25.3111
24.9817
25.474
25.0425
25.6889
25.1202
25.8977
25.2262
25.9885
25.4274
25.8713
25.727
25.6653
25.908
25.5703
25.9919
25.5387
26.0461
25.4947
26.0574
25.4137
26.0093
25.3065
25.8003
25.0393
25.4814
24.7023
24.9935
24.4767
24.473
24.3305
24.0135
24.1077
23.6406
23.8927
23.308
23.7932
23.0455
23.7314
22.9039
23.6516
22.8542
23.5501
22.9594
23.3818
23.1932
23.1364
23.3694
22.981
23.478
22.849
23.5576
22.7255
23.588
22.6365
23.5795
22.5834
23.517
22.5843
23.4077
22.5926
23.2975
22.6302
23.0852
22.7318
22.7021
22.7525
22.4686
22.6312
22.2332
22.462
21.9818
22.2031
21.6641
21.8146
21.2033
21.2781
20.5478
20.5013
19.6519
19.3811
18.3963
17.7589
16.6028
15.5108
14.0295
12.3412
10.3303
7.8514
5.04206
1.53714
-2.29712
-7.0084
-11.9251
-17.6653
-23.2055
-29.2206
-34.2623
-39.2674
-42.4616
-45.1768
-45.8981
-45.5109
-43.4017
-40.1502
-36.385
-31.059
-26.8071
-21.2792
-18.8177
-15.901
-15.939
-14.5098
-15.3009
-14.28
-14.4185
-13.5125
-12.7785
-11.9445
-11.7132
-11.5884
-11.3528
-11.2428
-10.8476
-10.1026
-9.76082
-9.06664
-8.59837
-7.82144
-7.24215
-6.18605
-5.53395
-3.99427
-3.23233
-0.946486
-0.31701
2.91259
3.43718
7.61658
8.07067
13.55
14.0791
21.3875
22.1885
31.2142
32.3507
43.0172
44.3396
56.5134
57.5699
71.107
25.5223
30.9273
26.9409
29.0079
27.6253
28.0896
27.73
27.6988
27.7167
27.4553
27.6608
27.2286
27.5593
27.0199
27.3598
26.8437
26.9863
27.0263
26.8698
27.0939
26.9016
27.2682
26.9119
27.4265
26.9323
27.4845
26.9024
27.4804
26.8303
27.4237
26.6636
27.2601
26.3632
26.8913
26.068
26.2506
25.8141
25.664
25.5491
25.2799
25.4005
25.0553
25.4417
25.005
25.5393
24.9978
25.697
25.0289
25.8855
25.1414
25.9833
25.3638
25.8788
25.6877
25.6542
25.9109
25.5466
26.0117
25.5456
26.0877
25.545
26.1259
25.5269
26.1239
25.4358
26.0268
25.2384
25.7107
24.9286
25.2534
24.7057
24.675
24.5796
24.2295
24.3772
23.8145
24.1629
23.4659
23.9584
23.1704
23.8083
22.9526
23.6943
22.8563
23.5645
22.944
23.3749
23.1829
23.1255
23.3611
22.9469
23.4725
22.8027
23.5388
22.6889
23.5761
22.5978
23.5823
22.5381
23.5277
22.5441
23.4069
22.5798
23.2798
22.5946
23.0703
22.7518
22.6875
22.7899
22.4799
22.6852
22.3086
22.5753
22.1077
22.414
21.8746
22.1484
21.5929
21.7561
21.1478
21.1839
20.523
20.3179
19.6169
19.0542
18.2083
17.2426
16.0828
14.5472
12.8209
10.5252
7.94089
4.5321
0.720203
-4.12097
-9.3386
-15.6355
-21.8356
-28.7109
-34.7935
-41.0281
-45.5383
-49.883
-51.9026
-53.1897
-51.5383
-48.8489
-44.1127
-38.2672
-31.6039
-24.8183
-20.0932
-16.0911
-16.4197
-14.4065
-14.123
-13.0817
-12.1962
-11.9682
-10.4713
-10.3173
-9.42859
-10.1228
-9.76381
-10.1776
-10.1676
-10.1393
-9.99178
-9.75179
-9.44377
-8.92847
-8.56412
-7.65374
-7.24624
-6.00058
-5.45049
-3.55126
-3.13501
-0.135907
0.069768
3.90566
4.01816
8.88522
8.99163
15.2671
15.6092
23.4151
23.8566
33.1798
33.7478
44.6699
45.1697
57.9482
26.2962
31.5082
27.7181
29.5867
28.2764
28.5885
28.2299
28.1262
28.1819
27.7794
28.065
27.5074
27.8367
27.2073
27.5633
26.8862
27.1584
26.8899
26.8758
27.0459
26.8265
27.2551
26.7977
27.4398
26.8699
27.5418
26.8857
27.6031
26.8588
27.5414
26.7512
27.2945
26.492
26.7951
26.1181
26.196
25.5866
25.4938
25.1043
24.9174
25.1467
24.7956
25.2193
24.871
25.4336
24.9444
25.6872
25.0378
25.9029
25.1797
26.0001
25.4087
25.8935
25.7447
25.6859
25.9577
25.587
26.0648
25.5677
26.1474
25.5527
26.2
25.5377
26.2068
25.517
26.0774
25.3151
25.741
24.945
25.2582
24.6479
24.6435
24.476
24.1082
24.2428
23.6935
24.0103
23.2949
23.8968
22.9894
23.7883
22.846
23.6707
22.7937
23.5616
22.911
23.3973
23.1916
23.1419
23.4318
22.9555
23.5804
22.8115
23.6757
22.6905
23.7149
22.6144
23.709
22.5836
23.6568
22.607
23.5591
22.655
23.4451
22.7501
23.2336
22.9205
22.8787
23.0097
22.6468
22.9644
22.4829
22.8854
22.348
22.7674
22.1876
22.5465
21.9644
22.2193
21.65
21.7443
21.1862
21.0392
20.4607
19.9969
19.318
18.5218
17.6016
16.354
14.9827
13.0497
10.8704
7.863
4.40131
-0.233366
-5.41996
-11.8737
-18.6377
-26.4144
-33.4575
-40.8176
-46.001
-51.1466
-54.3376
-56.3934
-55.4408
-52.1613
-48.391
-40.8143
-34.4512
-23.7661
-17.844
-11.6932
-13.8109
-12.4185
-15.6427
-14.7593
-15.954
-14.2998
-13.0733
-11.3362
-10.8806
-11.2682
-11.8394
-12.0247
-11.7757
-11.2939
-10.8688
-10.6721
-10.4038
-10.0478
-9.77541
-9.11185
-8.90296
-7.96563
-7.61067
-6.23108
-5.81134
-3.57063
-3.54359
-0.65597
-0.907529
2.62568
2.35035
7.32419
7.53613
14.0255
14.841
22.4528
23.4205
32.7909
33.5094
45.4218
28.7168
33.3954
29.4654
30.6873
29.3029
29.4236
28.8457
28.6099
28.5757
28.0656
28.2864
27.7303
28.0094
27.3952
27.6785
27.0749
27.1947
27.0661
26.9374
27.039
26.8337
27.3261
26.7986
27.5156
26.9024
27.5579
26.9112
27.5673
26.911
27.5464
26.8478
27.443
26.6892
27.1487
26.4305
26.5166
26.0518
25.8546
25.532
25.2103
25.1815
24.8683
25.2459
24.8039
25.4305
24.7648
25.6232
24.8357
25.8735
24.9911
25.9706
25.2503
25.8987
25.6676
25.6307
25.9605
25.4994
26.0633
25.5225
26.1508
25.5621
26.2243
25.6014
26.2522
25.6012
26.2633
25.4941
26.0055
25.124
25.4815
24.8852
24.7713
24.7676
24.2953
24.5111
23.8374
24.2594
23.4319
24.0007
23.0766
23.796
22.8555
23.6764
22.7362
23.572
22.8407
23.3788
23.1527
23.1021
23.4227
22.8891
23.5855
22.7322
23.6842
22.6064
23.7329
22.5287
23.738
22.4946
23.6939
22.5248
23.5814
22.5933
23.4362
22.6994
23.2189
22.9095
22.8547
23.0164
22.6261
22.9902
22.4669
22.945
22.3461
22.8709
22.2376
22.7344
22.1103
22.5032
21.923
22.1648
21.6272
21.6543
21.2091
20.82
20.3983
19.7308
19.1135
18.064
17.0356
15.4162
13.6331
11.0114
7.95839
3.65218
-1.36961
-8.09956
-15.4533
-24.2901
-32.8698
-42.0972
-48.9072
-55.7859
-60.4094
-64.6584
-64.8648
-62.6573
-58.9119
-52.0743
-43.8994
-32.8337
-21.7512
-10.9693
-13.2351
-11.8841
-11.0939
-11.0355
-11.9007
-13.786
-11.4062
-10.1444
-7.81095
-8.86276
-9.05856
-10.6096
-11.3738
-11.7655
-11.4353
-11.6167
-11.3101
-11.2392
-10.9716
-10.3465
-10.1827
-9.64825
-9.46706
-8.58339
-8.22005
-6.38105
-6.4419
-3.7713
-4.31317
-1.22176
-2.03587
2.0221
1.30108
7.03524
6.406
13.6047
12.6159
21.5942
20.546
32.6205
29.8677
33.8283
30.8059
31.3879
30.3414
30.0478
29.8554
29.1174
29.337
28.5418
28.827
28.1165
28.4117
27.6796
27.9844
27.1991
27.4665
27.0354
26.9778
27.0451
26.7049
27.4227
26.6812
27.5812
26.8046
27.6774
26.8831
27.7143
26.9223
27.7002
26.9175
27.5067
26.8
27.0818
26.3813
26.5577
25.8381
25.677
25.2912
24.9013
24.9643
24.7364
25.1192
24.7332
25.4872
24.7726
25.7345
24.8523
25.9865
25.0421
26.0027
25.3248
25.8566
25.7772
25.6345
26.0557
25.5398
26.1586
25.4858
26.2552
25.4961
26.3448
25.5747
26.3418
25.6805
26.306
25.6351
26.0846
25.2597
25.5335
24.943
24.8107
24.6489
24.2409
24.4058
23.7821
24.1899
23.3061
24.0584
22.9497
23.8853
22.742
23.7625
22.6487
23.6265
22.8005
23.4027
23.1929
23.0831
23.5695
22.8373
23.7503
22.6865
23.8511
22.5704
23.8836
22.509
23.8729
22.5018
23.8219
22.5635
23.7085
22.6678
23.568
22.8172
23.3561
23.0686
22.9928
23.2268
22.7384
23.2615
22.5727
23.2682
22.4732
23.2173
22.45
23.1123
22.3844
22.9353
22.2865
22.6497
22.1352
22.2424
21.868
21.5679
21.2766
20.7357
20.3079
19.4767
18.7206
17.4498
16.0775
13.923
11.3772
7.56497
2.94633
-3.41078
-10.8871
-20.1053
-29.455
-40.0885
-47.1278
-54.1265
-59.4396
-65.3469
-67.5819
-65.5806
-64.2078
-57.3683
-50.4087
-34.7878
-21.6804
-3.09659
-5.54273
-12.0286
-15.6691
-15.1921
-17.1762
-16.8224
-13.7044
-10.8931
-8.60834
-10.0611
-11.7772
-12.0045
-12.0344
-11.9865
-11.2316
-11.6791
-11.5595
-11.7854
-11.4706
-11.1829
-11.0519
-10.6016
-10.6013
-9.79751
-9.61489
-8.20168
-8.42584
-6.47139
-7.20322
-5.34623
-6.92119
-3.98131
-5.15806
-0.319875
-0.0153886
4.58888
5.05806
10.4153
10.4813
19.7743
33.2012
35.046
32.19
32.3637
31.0623
30.5062
30.1951
29.4328
29.4772
28.8004
28.923
28.2992
28.5444
27.8485
28.1092
27.5032
27.5329
27.4045
26.9324
27.3931
26.6778
27.5065
26.7072
27.4957
26.8484
27.5614
26.8984
27.6289
26.8688
27.6466
26.858
27.5917
26.822
27.4508
26.6871
26.9434
26.4717
26.0857
25.7764
25.2207
25.0016
24.6118
25.1258
24.4627
25.4674
24.5045
25.6239
24.62
25.8943
24.8437
26.001
25.0984
25.9083
25.6596
25.5523
26.0355
25.3865
26.1887
25.3856
26.2862
25.4603
26.3573
25.5646
26.327
25.7136
26.4285
25.7294
26.3081
25.4111
25.6904
25.1668
24.9243
24.9613
24.3789
24.6814
23.8578
24.4618
23.3518
24.1436
22.9535
23.9086
22.6892
23.7881
22.5801
23.6424
22.7284
23.3491
23.1768
23.0029
23.589
22.7717
23.76
22.6235
23.8594
22.5066
23.9146
22.428
23.9264
22.4005
23.8886
22.4656
23.7413
22.5976
23.5624
22.7749
23.334
23.0857
22.9278
23.2813
22.656
23.3243
22.4711
23.2932
22.3896
23.2352
22.3797
23.161
22.3651
23.0568
22.3424
22.8621
22.3103