/*--------------------------------*- C++ -*----------------------------------*\
| =========                 |                                                 |
| \\      /  F ield         | OpenFOAM: The Open Source CFD Toolbox           |
|  \\    /   O peration     | Version:  4.1                                   |
|   \\  /    A nd           | Web:      www.OpenFOAM.org                      |
|    \\/     M anipulation  |                                                 |
\*---------------------------------------------------------------------------*/
FoamFile
{
    version     2.0;
    format      ascii;
    class       volScalarField;
    location    "30";
    object      p;
}
// * * * * * * * * * * * * * * * * * * * * * * * * * * * * * * * * * * * * * //

dimensions      [0 2 -2 0 0 0 0];

internalField   nonuniform List<scalar> 
6750
(
-67.5523
-39.7658
-95.2928
-104.001
-119.975
-128.124
-134.309
-138.324
-140.679
-139.888
-140.99
-135.231
-137.094
-65.9365
-135.269
-67.4345
-39.4322
-94.9212
-103.82
-120.155
-128.415
-134.682
-138.4
-140.639
-139.861
-141.008
-135.319
-136.895
-65.4874
-135.2
-67.3182
-39.1033
-94.6309
-103.743
-120.338
-128.656
-134.988
-138.419
-140.599
-139.848
-141.039
-135.266
-136.718
-65.031
-135.17
-67.1677
-38.655
-94.2441
-103.634
-120.562
-128.941
-135.297
-138.475
-140.545
-139.842
-141.068
-135.081
-136.6
-64.7308
-135.01
-67.0196
-38.1451
-93.8657
-103.558
-120.783
-129.194
-135.566
-138.613
-140.606
-139.895
-141.056
-134.531
-136.426
-64.4894
-134.836
-66.8892
-37.6213
-93.4931
-103.479
-120.979
-129.429
-135.926
-138.884
-140.6
-139.934
-141.003
-134.72
-136.396
-64.1966
-134.639
-66.8068
-37.1791
-93.1912
-103.405
-121.098
-129.607
-136.176
-138.888
-140.593
-139.983
-140.964
-135.095
-136.341
-63.9258
-134.441
-66.7973
-37.0542
-93.0994
-103.38
-121.134
-129.671
-136.308
-138.992
-140.564
-139.959
-140.952
-135.278
-136.275
-63.6813
-134.291
-66.8556
-37.3015
-93.2646
-103.437
-121.097
-129.629
-136.252
-139.004
-140.586
-139.95
-140.947
-135.115
-136.233
-63.8414
-134.036
-66.9767
-37.7983
-93.6072
-103.533
-120.982
-129.48
-135.986
-138.913
-140.6
-139.96
-140.888
-134.589
-136.131
-64.0494
-133.807
-67.139
-38.3599
-94.013
-103.635
-120.801
-129.241
-135.62
-138.686
-140.62
-139.98
-141.025
-134.467
-136.025
-64.2175
-133.611
-67.3109
-38.8833
-94.4106
-103.729
-120.587
-128.986
-135.321
-138.545
-140.592
-139.958
-141.046
-134.911
-136.073
-64.3681
-133.444
-67.4773
-39.3312
-94.8093
-103.851
-120.366
-128.696
-135.018
-138.488
-140.66
-139.991
-141.068
-135.306
-136.133
-64.5889
-133.342
-67.6029
-39.6559
-95.1067
-103.938
-120.185
-128.451
-134.727
-138.497
-140.694
-140.045
-141.057
-135.427
-136.263
-65.0042
-133.186
-67.7263
-39.9779
-95.4795
-104.124
-120.004
-128.153
-134.334
-138.402
-140.757
-140.132
-141.015
-135.386
-136.412
-65.4007
-133.074
-90.5835
-28.9989
-97.0442
-103.552
-120.477
-128.492
-134.765
-138.607
-141.18
-140.05
-141.735
-134.407
-143.322
-50.4517
-188.353
-90.4503
-28.6817
-96.6301
-103.311
-120.662
-128.805
-135.189
-138.707
-141.133
-140.02
-141.74
-134.473
-143.07
-49.9818
-188.323
-90.3327
-28.4222
-96.3613
-103.222
-120.839
-129.017
-135.483
-138.719
-141.088
-140.008
-141.759
-134.378
-142.83
-49.5451
-188.402
-90.1799
-28.0395
-95.9574
-103.073
-121.056
-129.292
-135.802
-138.78
-141.023
-139.99
-141.788
-134.22
-142.708
-49.222
-188.178
-90.0406
-27.6135
-95.5661
-102.976
-121.269
-129.521
-136.051
-138.884
-141.078
-140.02
-141.783
-133.665
-142.494
-48.9677
-187.938
-89.9276
-27.1674
-95.156
-102.873
-121.455
-129.735
-136.393
-139.147
-141.048
-140.027
-141.724
-133.855
-142.452
-48.6636
-187.655
-89.8718
-26.7789
-94.7991
-102.787
-121.564
-129.891
-136.625
-139.124
-141.037
-140.065
-141.692
-134.133
-142.362
-48.4084
-187.366
-89.8788
-26.6688
-94.6856
-102.756
-121.592
-129.943
-136.741
-139.226
-140.982
-140.047
-141.64
-134.288
-142.226
-48.1644
-187.186
-89.9257
-26.8833
-94.8876
-102.816
-121.559
-129.903
-136.681
-139.223
-141.001
-140.044
-141.637
-134.169
-142.197
-48.3105
-186.697
-90.029
-27.3121
-95.28
-102.922
-121.449
-129.77
-136.426
-139.146
-141.013
-140.051
-141.556
-133.712
-142.059
-48.4817
-186.262
-90.1816
-27.7887
-95.7213
-103.047
-121.274
-129.547
-136.071
-138.929
-141.042
-140.072
-141.699
-133.567
-141.899
-48.6396
-185.884
-90.351
-28.2241
-96.1268
-103.16
-121.064
-129.315
-135.784
-138.801
-140.99
-140.04
-141.685
-133.97
-141.925
-48.7789
-185.55
-90.5251
-28.6049
-96.5382
-103.322
-120.847
-129.029
-135.464
-138.727
-141.046
-140.061
-141.696
-134.314
-141.953
-48.9859
-185.346
-90.655
-28.8604
-96.811
-103.419
-120.671
-128.812
-135.18
-138.738
-141.068
-140.089
-141.681
-134.432
-142.122
-49.359
-184.961
-90.7963
-29.1657
-97.2229
-103.665
-120.482
-128.487
-134.729
-138.606
-141.14
-140.169
-141.654
-134.42
-142.29
-49.73
-184.685
-129.24
-7.83839
-98.8432
-102.774
-121.515
-129.416
-135.966
-139.365
-142.27
-140.499
-143.332
-132.377
-154.986
-16.6476
-284.575
-129.09
-7.61395
-98.419
-102.447
-121.676
-129.73
-136.421
-139.501
-142.215
-140.469
-143.311
-132.397
-154.623
-16.1618
-284.528
-128.979
-7.49385
-98.1974
-102.341
-121.824
-129.89
-136.665
-139.498
-142.166
-140.46
-143.304
-132.263
-154.194
-15.7382
-284.73
-128.838
-7.26482
-97.7822
-102.123
-122.008
-130.142
-136.978
-139.57
-142.099
-140.432
-143.317
-132.155
-154.07
-15.3871
-284.352
-128.74
-7.02057
-97.3718
-101.994
-122.185
-130.325
-137.182
-139.618
-142.127
-140.43
-143.306
-131.659
-153.785
-15.1479
-283.96
-128.687
-6.74366
-96.8944
-101.851
-122.335
-130.505
-137.466
-139.83
-142.052
-140.387
-143.221
-131.813
-153.694
-14.8452
-283.462
-128.701
-6.47961
-96.4399
-101.75
-122.412
-130.622
-137.65
-139.779
-142.018
-140.387
-143.177
-131.919
-153.511
-14.6056
-282.918
-128.734
-6.39887
-96.2837
-101.712
-122.424
-130.657
-137.728
-139.86
-141.931
-140.372
-143.081
-132.016
-153.181
-14.3555
-282.611
-128.739
-6.54093
-96.5572
-101.775
-122.402
-130.618
-137.666
-139.831
-141.941
-140.375
-143.088
-131.931
-153.213
-14.4957
-281.672
-128.782
-6.81907
-97.0415
-101.892
-122.314
-130.51
-137.446
-139.782
-141.95
-140.377
-142.986
-131.625
-153.019
-14.6346
-280.82
-128.89
-7.11036
-97.5487
-102.054
-122.17
-130.315
-137.133
-139.597
-141.982
-140.39
-143.109
-131.483
-152.761
-14.7805
-280.04
-129.036
-7.35262
-97.9628
-102.196
-121.989
-130.122
-136.878
-139.498
-141.892
-140.35
-143.036
-131.787
-152.723
-14.8766
-279.309
-129.212
-7.57612
-98.3776
-102.424
-121.801
-129.853
-136.548
-139.396
-141.901
-140.347
-143.015
-132.016
-152.655
-15.0356
-278.86
-129.343
-7.69262
-98.5972
-102.537
-121.65
-129.684
-136.3
-139.405
-141.891
-140.334
-142.981
-132.103
-152.951
-15.3557
-278.04
-129.506
-7.90819
-99.0127
-102.865
-121.48
-129.351
-135.805
-139.217
-141.946
-140.372
-142.956
-132.119
-153.151
-15.635
-277.454
-169.569
10.3206
-97.4012
-103.352
-123.025
-131.447
-138.283
-141.117
-144.258
-141.792
-145.784
-131.155
-167.433
21.5474
-397.077
-169.425
10.4203
-97.0664
-102.989
-123.114
-131.71
-138.686
-141.262
-144.197
-141.766
-145.724
-131.128
-166.892
22.0356
-396.935
-169.335
10.4137
-96.9007
-102.877
-123.218
-131.822
-138.857
-141.239
-144.133
-141.75
-145.677
-131.033
-166.121
22.4694
-397.24
-169.251
10.4435
-96.5224
-102.621
-123.33
-132.028
-139.123
-141.305
-144.075
-141.722
-145.657
-130.95
-165.995
22.8482
-396.573
-169.258
10.4336
-96.1122
-102.483
-123.447
-132.163
-139.269
-141.31
-144.057
-141.68
-145.623
-130.58
-165.608
23.052
-395.873
-169.348
10.4502
-95.5881
-102.325
-123.527
-132.301
-139.469
-141.429
-143.927
-141.583
-145.486
-130.633
-165.395
23.3134
-394.958
-169.505
10.4785
-95.0433
-102.233
-123.554
-132.379
-139.586
-141.361
-143.839
-141.522
-145.391
-130.577
-165.023
23.544
-393.927
-169.568
10.4725
-94.8422
-102.194
-123.541
-132.396
-139.618
-141.388
-143.708
-141.485
-145.244
-130.627
-164.347
23.8069
-393.3
-169.476
10.4669
-95.1888
-102.25
-123.541
-132.357
-139.555
-141.343
-143.697
-141.478
-145.234
-130.508
-164.473
23.7003
-391.599
-169.379
10.4657
-95.7555
-102.353
-123.495
-132.271
-139.378
-141.321
-143.713
-141.489
-145.144
-130.361
-164.197
23.5461
-390.022
-169.361
10.475
-96.3094
-102.526
-123.412
-132.107
-139.122
-141.182
-143.731
-141.482
-145.214
-130.263
-163.778
23.3975
-388.529
-169.429
10.4974
-96.7171
-102.672
-123.281
-131.954
-138.912
-141.112
-143.621
-141.445
-145.1
-130.444
-163.6
23.3277
-387.087
-169.58
10.4738
-97.0877
-102.935
-123.157
-131.721
-138.603
-140.992
-143.56
-141.395
-145.03
-130.528
-163.324
23.2455
-386.138
-169.702
10.4766
-97.245
-103.052
-123.045
-131.596
-138.408
-140.994
-143.521
-141.35
-144.977
-130.516
-163.838
22.9567
-384.598
-169.867
10.37
-97.5653
-103.413
-122.94
-131.306
-137.951
-140.778
-143.532
-141.319
-144.942
-130.497
-164.059
22.8752
-383.499
-219.909
15.1546
-94.6572
-107.21
-125.759
-135.264
-142.383
-144.597
-148.117
-144.801
-150.137
-133.176
-183.738
55.5875
-541.326
-219.777
15.2564
-94.4599
-106.864
-125.769
-135.458
-142.697
-144.72
-148.03
-144.766
-150.015
-133.155
-182.988
56.1054
-540.744
-219.717
15.2281
-94.3614
-106.761
-125.832
-135.534
-142.798
-144.671
-147.929
-144.722
-149.906
-133.18
-181.831
56.5198
-541.011
-219.72
15.1894
-94.0832
-106.514
-125.862
-135.682
-142.993
-144.707
-147.865
-144.688
-149.835
-133.072
-181.649
57.1315
-539.866
-219.899
15.0745
-93.7372
-106.391
-125.915
-135.777
-143.079
-144.683
-147.788
-144.606
-149.763
-132.802
-181.107
57.358
-538.588
-220.145
14.8991
-93.259
-106.246
-125.917
-135.871
-143.201
-144.715
-147.579
-144.454
-149.531
-132.744
-180.66
57.5257
-536.878
-220.384
14.5997
-92.7284
-106.175
-125.89
-135.915
-143.253
-144.625
-147.407
-144.333
-149.336
-132.638
-180
57.6335
-534.877
-220.471
14.4529
-92.5275
-106.14
-125.85
-135.912
-143.242
-144.596
-147.213
-144.245
-149.114
-132.69
-178.863
57.7652
-533.471
-220.339
14.6579
-92.8778
-106.188
-125.877
-135.879
-143.175
-144.547
-147.166
-144.212
-149.056
-132.481
-178.97
57.8032
-530.654
-220.096
14.9396
-93.428
-106.266
-125.878
-135.811
-143.03
-144.539
-147.208
-144.252
-149.021
-132.397
-178.555
57.5429
-527.857
-219.892
15.147
-93.9334
-106.423
-125.862
-135.681
-142.82
-144.436
-147.215
-144.223
-149.026
-132.36
-177.929
57.177
-525.134
-219.851
15.3363
-94.2768
-106.548
-125.786
-135.559
-142.649
-144.384
-147.104
-144.189
-148.883
-132.477
-177.513
56.8724
-522.474
-219.972
15.4209
-94.5516
-106.797
-125.734
-135.373
-142.377
-144.259
-146.971
-144.074
-148.736
-132.476
-176.881
56.6717
-520.627
-220.087
15.4381
-94.6428
-106.903
-125.656
-135.278
-142.233
-144.26
-146.925
-144.024
-148.683
-132.332
-177.552
56.3648
-517.998
-220.254
15.3044
-94.8267
-107.243
-125.62
-135.045
-141.841
-144.045
-146.891
-143.931
-148.627
-132.197
-177.694
56.5425
-516.124
-283.747
4.2623
-93.3771
-116.028
-130.588
-141.625
-149.244
-150.771
-155.337
-150.869
-158.503
-141.168
-210.48
79.6389
-731.133
-283.626
4.45126
-93.2878
-115.73
-130.544
-141.755
-149.459
-150.841
-155.175
-150.786
-158.247
-141.123
-209.416
80.3445
-729.723
-283.614
4.50589
-93.2529
-115.636
-130.579
-141.809
-149.504
-150.769
-155.009
-150.689
-158.035
-141.278
-207.886
80.6539
-729.49
-283.706
4.61794
-93.0929
-115.421
-130.547
-141.901
-149.619
-150.757
-154.892
-150.623
-157.857
-141.093
-207.362
81.6412
-727.332
-283.923
4.56819
-92.883
-115.311
-130.553
-141.966
-149.651
-150.719
-154.736
-150.502
-157.699
-140.865
-206.444
81.8523
-724.919
-284.147
4.3506
-92.5782
-115.184
-130.495
-142.016
-149.705
-150.692
-154.418
-150.284
-157.317
-140.734
-205.577
81.8184
-721.744
-284.367
3.88693
-92.2135
-115.131
-130.43
-142.032
-149.705
-150.581
-154.148
-150.103
-156.982
-140.654
-204.434
81.5977
-718.089
-284.446
3.66488
-92.0763
-115.105
-130.369
-142.01
-149.657
-150.509
-153.878
-149.948
-156.656
-140.776
-202.766
81.2728
-714.977
-284.342
3.9788
-92.3345
-115.149
-130.419
-141.993
-149.587
-150.466
-153.794
-149.89
-156.522
-140.502
-202.503
81.2649
-710.113
-284.142
4.38244
-92.7222
-115.214
-130.455
-141.943
-149.457
-150.454
-153.864
-149.956
-156.533
-140.435
-201.74
80.5408
-705.334
-283.929
4.57263
-93.0608
-115.355
-130.491
-141.847
-149.275
-150.364
-153.87
-149.922
-156.483
-140.473
-200.745
79.6562
-700.728
-283.827
4.69612
-93.277
-115.464
-130.457
-141.748
-149.132
-150.317
-153.772
-149.897
-156.329
-140.606
-200.065
78.7833
-696.069
-283.925
4.72092
-93.4405
-115.676
-130.455
-141.606
-148.9
-150.197
-153.583
-149.729
-156.113
-140.604
-199.098
78.1305
-692.47
-284.032
4.6932
-93.4847
-115.772
-130.402
-141.53
-148.792
-150.202
-153.546
-149.698
-156.069
-140.377
-199.77
77.5654
-688.154
-284.195
4.45524
-93.576
-116.062
-130.409
-141.348
-148.463
-150.006
-153.48
-149.559
-155.968
-140.078
-199.689
77.9477
-685.051
-358.843
-15.9117
-96.1496
-130.683
-138.93
-151.673
-160.403
-160.972
-168.127
-161.722
-174.389
-156.885
-256.563
96.802
-983.37
-358.731
-15.6927
-96.1011
-130.437
-138.852
-151.751
-160.518
-160.975
-167.836
-161.546
-173.961
-156.867
-255.13
97.9724
-979.287
-358.752
-15.5912
-96.0881
-130.348
-138.868
-151.798
-160.523
-160.891
-167.581
-161.377
-173.589
-157.15
-253.084
98.0122
-977.62
-358.837
-15.3923
-96.0058
-130.163
-138.803
-151.846
-160.557
-160.827
-167.356
-161.241
-173.204
-156.9
-251.584
99.3389
-973.139
-358.987
-15.4175
-95.9286
-130.062
-138.781
-151.893
-160.543
-160.795
-167.109
-161.087
-172.884
-156.78
-249.79
99.2691
-968.399
-359.138
-15.5814
-95.8065
-129.959
-138.696
-151.907
-160.535
-160.742
-166.657
-160.804
-172.273
-156.673
-248.096
98.5355
-962.245
-359.3
-15.9262
-95.6776
-129.925
-138.615
-151.901
-160.493
-160.629
-166.277
-160.586
-171.771
-156.776
-246.45
97.0462
-954.508
-359.361
-16.0859
-95.6439
-129.917
-138.55
-151.865
-160.411
-160.531
-165.914
-160.375
-171.282
-157.087
-244.029
95.3687
-948.085
-359.309
-15.8743
-95.7696
-129.96
-138.614
-151.875
-160.34
-160.501
-165.789
-160.308
-170.994
-156.807
-242.625
94.7472
-940.626
-359.203
-15.5803
-95.9538
-130.024
-138.674
-151.852
-160.216
-160.472
-165.873
-160.403
-171.011
-156.788
-241.203
93.0238
-932.8
-359.092
-15.4634
-96.1306
-130.155
-138.741
-151.794
-160.054
-160.373
-165.872
-160.364
-170.92
-156.945
-239.891
90.8301
-924.643
-359.092
-15.3718
-96.2225
-130.267
-138.739
-151.718
-159.932
-160.322
-165.791
-160.368
-170.794
-157.235
-238.951
88.5093
-916.847
-359.246
-15.3969
-96.3081
-130.455
-138.768
-151.614
-159.735
-160.206
-165.562
-160.154
-170.508
-157.334
-237.664
86.8813
-910.966
-359.338
-15.4473
-96.3467
-130.552
-138.738
-151.548
-159.653
-160.219
-165.566
-160.177
-170.524
-157.034
-238.219
85.4014
-904.495
-359.491
-15.7212
-96.4247
-130.797
-138.773
-151.405
-159.379
-160.049
-165.51
-160.037
-170.412
-156.576
-237.981
85.77
-899.824
-442.583
-39.2512
-103.523
-150.739
-152.289
-166.523
-177.603
-176.532
-189.216
-178.973
-202.636
-179.777
-332.347
120.601
-1312.91
-442.552
-39.0256
-103.461
-150.531
-152.177
-166.553
-177.617
-176.466
-188.717
-178.637
-201.746
-179.699
-328.88
123.421
-1306.13
-442.633
-38.9236
-103.434
-150.447
-152.171
-166.596
-177.594
-176.396
-188.352
-178.42
-201.124
-180.469
-325.677
122.952
-1301.58
-442.702
-38.7715
-103.383
-150.295
-152.088
-166.614
-177.552
-176.298
-187.971
-178.211
-200.366
-180.346
-322.111
123.344
-1292.35
-442.842
-38.7865
-103.385
-150.213
-152.053
-166.654
-177.499
-176.301
-187.623
-178.063
-199.74
-180.522
-318.727
121.341
-1283.17
-442.967
-38.8405
-103.398
-150.144
-151.969
-166.647
-177.436
-176.263
-187.032
-177.768
-198.82
-180.742
-315.675
119.036
-1271.59
-443.118
-38.9747
-103.451
-150.139
-151.897
-166.633
-177.365
-176.188
-186.55
-177.585
-198.09
-181.206
-312.568
116.241
-1260.28
-443.204
-39.0223
-103.495
-150.159
-151.852
-166.602
-177.259
-176.1
-186.083
-177.377
-197.417
-181.941
-308.997
113.222
-1248.84
-443.211
-38.9604
-103.529
-150.207
-151.929
-166.657
-177.208
-176.117
-185.967
-177.404
-197.066
-181.977
-306.678
109.577
-1234.18
-443.173
-38.8407
-103.57
-150.277
-152.014
-166.687
-177.111
-176.086
-186.06
-177.545
-197.041
-182.408
-304.509
105.452
-1219.88
-443.195
-38.7592
-103.634
-150.405
-152.105
-166.686
-176.99
-175.993
-186.092
-177.569
-197.017
-182.883
-302.177
101.941
-1208.92
-443.269
-38.6842
-103.671
-150.529
-152.145
-166.652
-176.906
-175.948
-186.043
-177.62
-197.019
-183.405
-301.284
99.0187
-1197.06
-443.4
-38.778
-103.76
-150.719
-152.215
-166.597
-176.763
-175.861
-185.863
-177.472
-196.931
-183.674
-300.14
96.4718
-1187.63
-443.465
-38.8341
-103.821
-150.831
-152.228
-166.56
-176.718
-175.893
-185.969
-177.598
-197.195
-183.642
-301.212
93.4448
-1176.73
-443.601
-39.0724
-103.929
-151.058
-152.308
-166.469
-176.51
-175.756
-185.981
-177.489
-197.139
-183.188
-301.046
93.6147
-1169.21
-535.55
-64.6373
-114.782
-176.125
-172.675
-188.147
-203.819
-199.638
-223.052
-204.396
-251.036
-208.535
-446.633
159.353
-1771.38
-535.55
-64.4515
-114.713
-175.95
-172.524
-188.115
-203.706
-199.487
-222.227
-203.774
-249.563
-207.911
-442.791
160.684
-1749.35
-535.666
-64.3682
-114.685
-175.876
-172.49
-188.143
-203.637
-199.436
-221.639
-203.498
-248.082
-208.798
-435.55
160.473
-1741.31
-535.759
-64.2423
-114.663
-175.767
-172.393
-188.135
-203.497
-199.306
-220.98
-203.191
-246.438
-209.417
-427.48
160.842
-1722.66
-535.936
-64.2253
-114.706
-175.73
-172.355
-188.169
-203.397
-199.361
-220.456
-203.1
-245.057
-210.498
-420.126
157.097
-1704.69
-536.086
-64.1972
-114.78
-175.72
-172.295
-188.161
-203.265
-199.365
-219.654
-202.864
-243.578
-211.34
-414.731
150.674
-1684.41
-536.271
-64.2131
-114.907
-175.773
-172.264
-188.161
-203.165
-199.361
-219.014
-202.818
-242.528
-212.52
-413.247
140.057
-1652.84
-536.397
-64.2038
-114.986
-175.834
-172.269
-188.172
-203.046
-199.32
-218.388
-202.724
-241.469
-214.149
-407.605
131.214
-1629.63
-536.475
-64.218
-114.999
-175.896
-172.373
-188.297
-203.041
-199.415
-218.265
-202.844
-240.661
-215.033
-400.739
127.738
-1611.71
-536.499
-64.1997
-114.996
-175.97
-172.492
-188.419
-203.018
-199.421
-218.384
-203.066
-240.556
-215.694
-396.734
122.891
-1596.2
-536.558
-64.2179
-115.039
-176.104
-172.63
-188.51
-202.985
-199.361
-218.437
-203.121
-240.683
-216.331
-395.756
116.139
-1573.65
-536.631
-64.2201
-115.091
-176.251
-172.742
-188.566
-202.997
-199.365
-218.513
-203.318
-241.13
-217.334
-394.822
109.084
-1553.52
-536.766
-64.3479
-115.213
-176.46
-172.888
-188.599
-202.956
-199.318
-218.413
-203.177
-241.373
-218.104
-393.946
105.05
-1540.55
-536.829
-64.3987
-115.293
-176.598
-172.972
-188.631
-202.991
-199.387
-218.692
-203.334
-242.064
-217.479
-396.717
100.805
-1528.03
-536.975
-64.5964
-115.426
-176.832
-173.137
-188.641
-202.909
-199.318
-218.914
-203.304
-242.487
-216.52
-398.604
101.24
-1518.9
-636.224
-93.5005
-128.58
-206.276
-199.877
-216.555
-240.332
-230.68
-272.782
-237.229
-323.746
-231.659
-598.255
250.654
-2393.59
-636.276
-93.3353
-128.522
-206.132
-199.695
-216.465
-240.065
-230.477
-271.574
-236.506
-320.825
-233.01
-582.587
247.79
-2343.62
-636.455
-93.2429
-128.51
-206.08
-199.64
-216.483
-239.942
-230.515
-270.771
-236.46
-319.064
-236.647
-579.473
233.849
-2309.95
-636.592
-93.1133
-128.519
-206.023
-199.54
-216.472
-239.703
-230.437
-269.797
-236.337
-316.315
-238.488
-569.382
225.306
-2264.78
-636.816
-93.0772
-128.587
-206.057
-199.519
-216.532
-239.559
-230.632
-269.07
-236.587
-314.096
-241.536
-560.044
211.454
-2233.34
-636.996
-93.0301
-128.684
-206.129
-199.509
-216.573
-239.373
-230.757
-268.012
-236.574
-311.849
-243.761
-552.2
196.787
-2185.78
-637.21
-93.0489
-128.833
-206.27
-199.567
-216.647
-239.274
-230.927
-267.208
-236.828
-310.32
-245.774
-545.966
184.724
-2152.29
-637.365
-93.0604
-128.94
-206.392
-199.662
-216.76
-239.197
-231.028
-266.381
-236.924
-308.855
-249.054
-535.972
181.864
-2134.7
-637.505
-93.1159
-128.995
-206.48
-199.82
-217
-239.349
-231.35
-266.5
-237.53
-308.344
-250.423
-537.759
166.14
-2095.37
-637.615
-93.1269
-129.024
-206.562
-200.003
-217.26
-239.534
-231.524
-266.839
-238.065
-308.793
-252.941
-539.673
150.504
-2041.03
-637.766
-93.1861
-129.108
-206.715
-200.234
-217.507
-239.763
-231.661
-267.315
-238.467
-309.566
-255.357
-527.316
147.454
-2031.26
-637.887
-93.2309
-129.193
-206.895
-200.462
-217.726
-240.036
-231.825
-267.799
-238.785
-311.052
-257.151
-527.389
149.011
-2011.31
-638.053
-93.3915
-129.337
-207.149
-200.74
-217.929
-240.298
-231.979
-268.31
-238.883
-313.355
-256.519
-530.909
150.488
-2001.96
-638.131
-93.4561
-129.426
-207.324
-200.934
-218.097
-240.582
-232.217
-269.326
-239.511
-316.429
-256.968
-544.272
142.649
-1970.69
-638.294
-93.6626
-129.576
-207.596
-201.232
-218.291
-240.818
-232.371
-270.287
-239.885
-318.645
-256.965
-548.576
146.952
-1950.32
-743.57
-130.193
-145.665
-243.644
-236.679
-254.566
-291.83
-273.431
-347.47
-281.151
-447.12
-255.256
-874.585
356.453
-3277.75
-743.698
-130.033
-145.632
-243.54
-236.481
-254.448
-291.363
-273.144
-345.57
-279.919
-439.331
-252.613
-797.789
372.933
-3217.4
-743.958
-129.914
-145.646
-243.53
-236.424
-254.471
-291.118
-273.204
-343.973
-279.677
-432.195
-255.273
-759.164
355.233
-3160.64
-744.171
-129.775
-145.691
-243.539
-236.339
-254.495
-290.744
-273.169
-342.336
-279.63
-425.847
-262.541
-741.304
323.855
-3057.8
-744.465
-129.739
-145.788
-243.654
-236.378
-254.634
-290.528
-273.51
-340.987
-280.191
-420.411
-268.852
-728.781
295.486
-2973.66
-744.711
-129.706
-145.907
-243.814
-236.463
-254.795
-290.317
-273.808
-339.637
-280.57
-417.383
-272.651
-722.527
267.362
-2916.47
-744.987
-129.766
-146.073
-244.056
-236.665
-255.029
-290.279
-274.219
-338.645
-281.331
-415.375
-279.468
-742.343
244.83
-2850.46
-745.217
-129.813
-146.218
-244.264
-236.901
-255.316
-290.36
-274.555
-337.744
-281.669
-412.649
-280.379
-733.849
199.987
-2752.93
-745.455
-129.899
-146.355
-244.422
-237.173
-255.715
-290.798
-275.164
-338.072
-282.649
-411.189
-286.043
-714.492
189.893
-2673.81
-745.659
-129.95
-146.462
-244.566
-237.475
-256.152
-291.382
-275.611
-338.893
-283.382
-410.787
-284.805
-693.62
185.738
-2688.58
-745.885
-130.084
-146.613
-244.799
-237.871
-256.605
-292.084
-276.014
-340.089
-283.904
-412.903
-288.497
-706.609
187.393
-2659.58
-746.052
-130.191
-146.744
-245.046
-238.274
-257.037
-292.873
-276.44
-341.734
-284.471
-417.557
-287.402
-712.923
177.382
-2611.81
-746.255
-130.412
-146.934
-245.378
-238.758
-257.474
-293.693
-276.855
-343.59
-284.814
-423.535
-291.166
-717.023
172.246
-2594.28
-746.353
-130.52
-147.038
-245.598
-239.096
-257.807
-294.396
-277.237
-345.661
-285.16
-428.876
-285.548
-728.344
173.372
-2569.08
-746.528
-130.783
-147.226
-245.941
-239.59
-258.245
-295.192
-277.689
-347.947
-285.477
-435.233
-277.701
-747.874
184.102
-2566.62
-852.7
-175.126
-164.344
-286.089
-279.811
-297.433
-352.479
-322.492
-440.217
-321.571
-605.559
-235.577
-1239.8
377.898
-4369.22
-852.913
-174.979
-164.342
-286.046
-279.623
-297.369
-351.96
-322.468
-438.604
-322.213
-602.494
-249.271
-1247.04
401.514
-4133.74
-853.269
-174.835
-164.38
-286.102
-279.598
-297.466
-351.731
-322.862
-437.01
-323.675
-595.52
-265.929
-1143.53
426.724
-4094.72
-853.578
-174.696
-164.46
-286.186
-279.561
-297.612
-351.36
-323.21
-435.144
-325.63
-585.049
-274.611
-1055.83
401.159
-3912.73
-853.966
-174.665
-164.589
-286.387
-279.703
-297.928
-351.215
-323.988
-433.393
-327.791
-575.237
-282.313
-1018.66
353.081
-3826.26
-854.313
-174.648
-164.734
-286.633
-279.915
-298.296
-351.13
-324.693
-431.819
-329.362
-569.608
-287.257
-1012.64
294.307
-3754.34
-854.689
-174.739
-164.931
-286.972
-280.301
-298.791
-351.342
-325.564
-430.725
-331.038
-564.401
-270.801
-1165.72
171.414
-3390.81
-855.026
-174.825
-165.118
-287.282
-280.717
-299.326
-351.798
-326.367
-429.856
-333.034
-556.416
-298.259
-945.926
263.08
-3549.32
-855.372
-174.977
-165.336
-287.575
-281.179
-299.944
-352.791
-327.531
-431.058
-335.212
-553.516
-298.074
-938.057
299.563
-3564.6
-855.671
-175.114
-165.529
-287.844
-281.681
-300.601
-354.091
-328.555
-433.486
-337.338
-558.733
-314.809
-1039.3
269.576
-3447.88
-855.977
-175.349
-165.773
-288.208
-282.337
-301.329
-355.701
-329.55
-437.088
-338.596
-565.774
-315.423
-969.981
256.661
-3429.89
-856.204
-175.542
-165.972
-288.548
-282.99
-302.031
-357.433
-330.503
-441.443
-339.958
-574.556
-323.704
-949.731
272.051
-3411.17
-856.455
-175.857
-166.237
-288.99
-283.78
-302.798
-359.33
-331.514
-446.827
-340.512
-591.516
-302.763
-1004.74
310.665
-3431.19
-856.582
-176.028
-166.376
-289.264
-284.318
-303.352
-360.876
-332.396
-452.617
-341.612
-618.069
-303.355
-1157.28
322.419
-3388.02
-856.782
-176.37
-166.632
-289.706
-285.105
-304.14
-362.772
-333.692
-459.209
-343.511
-645.708
-302.587
-1321.88
325.585
-3299.91
-961.638
-234.69
-189.607
-338.468
-338.927
-355.279
-434.071
-389.544
-566.688
-381.469
-837.558
-308.591
-1639.61
238.017
-5963.38
-961.954
-234.602
-189.638
-338.549
-338.811
-355.381
-433.597
-389.524
-565.379
-379.78
-834.273
-290.291
-1699.38
99.839
-5092.08
-962.427
-234.449
-189.704
-338.715
-338.885
-355.649
-433.411
-390.123
-563.342
-380.899
-826.335
-302.006
-1668.19
258.274
-4857.26
-962.869
-234.346
-189.836
-338.936
-338.981
-356.041
-433.228
-390.767
-561.843
-382.467
-818.65
-308.804
-1600.93
225.647
-4672.12
-963.382
-234.352
-190.022
-339.281
-339.32
-356.671
-433.306
-391.975
-558.925
-384.834
-795.243
-314.099
-1349.88
254.666
-4799.24
-963.87
-234.389
-190.234
-339.675
-339.768
-357.394
-433.724
-393.21
-558.514
-386.904
-798.86
-307.039
-1535.73
139.513
-4372.05
-964.381
-234.541
-190.513
-340.168
-340.453
-358.306
-434.572
-394.687
-557.53
-389.277
-788.958
-310.042
-1509.91
132.353
-4220.73
-964.856
-234.709
-190.793
-340.645
-341.202
-359.227
-435.894
-396.151
-557.965
-392.65
-776.551
-317.381
-1310.05
202.397
-4686.81
-965.33
-234.973
-191.132
-341.15
-342.066
-360.199
-437.945
-397.946
-561.418
-395.014
-780.8
-325.173
-1475.73
140.439
-4275.34
-965.743
-235.238
-191.449
-341.619
-342.982
-361.157
-440.464
-399.449
-566.406
-396.447
-778.491
-290.987
-1507.09
63.0258
-4268.09
-966.148
-235.608
-191.829
-342.18
-344.116
-362.24
-443.531
-400.991
-573.499
-398.307
-778.223
-307.086
-1186.59
260.39
-4756.23
-966.458
-235.92
-192.136
-342.658
-345.188
-363.23
-446.718
-402.328
-582.749
-398.625
-803.911
-270.533
-1372.62
457.726
-4620.07
-966.773
-236.353
-192.525
-343.257
-346.459
-364.375
-450.328
-403.983
-595.932
-398.831
-875.472
-284.976
-1664.6
334.756
-4717.51
-966.945
-236.605
-192.73
-343.603
-347.282
-365.122
-452.964
-405.106
-606.153
-398.761
-922.645
-287.165
-1991.55
246.46
-4306.93
-967.179
-237.04
-193.101
-344.179
-348.488
-366.283
-456.295
-406.975
-617.475
-399.234
-957.038
-266.042
-2022.44
323.207
-4195.2
-1061.24
-304.577
-217.35
-394.096
-400.253
-412.215
-509.534
-456.185
-664.049
-445.444
-937.519
-381.238
-1684.04
138.568
-9844.8
-1061.66
-304.552
-217.406
-394.287
-400.192
-412.498
-509.326
-456.665
-666.271
-443.898
-958.985
-365.022
-1906.14
-311.689
-7198.1
-1062.24
-304.405
-217.489
-394.551
-400.358
-412.936
-509.311
-457.623
-663.91
-445.161
-929.907
-332.218
-1894.79
364.707
-5895.93
-1062.81
-304.352
-217.659
-394.898
-400.57
-413.563
-509.744
-458.995
-668.404
-447.885
-973.983
-346.272
-2017.81
260.767
-5408.23
-1063.45
-304.406
-217.892
-395.369
-401.085
-414.475
-510.431
-460.722
-667.752
-450.694
-959.796
-345.598
-1890.28
345.403
-5680.67
-1064.09
-304.516
-218.168
-395.895
-401.748
-415.486
-511.718
-462.479
-671.544
-452.993
-983.302
-351.056
-2008.2
179.68
-5815.51
-1064.74
-304.751
-218.532
-396.529
-402.721
-416.726
-513.484
-464.404
-671.971
-455.373
-959.323
-361
-1605.57
431.2
-6348.28
-1065.36
-305.025
-218.913
-397.161
-403.831
-417.939
-515.998
-466.247
-676.614
-458.201
-964.418
-362.365
-1641.94
566.474
-6232.06
-1065.98
-305.417
-219.378
-397.867
-405.177
-419.195
-519.32
-468.293
-683.004
-459.401
-957.601
-332.039
-1921.92
317.864
-5626.18
-1066.52
-305.816
-219.823
-398.524
-406.613
-420.395
-523.458
-470.141
-693.553
-460.347
-959.881
-335.47
-1534.84
593.514
-6006.68
-1067.05
-306.333
-220.354
-399.285
-408.339
-421.789
-528.486
-472.223
-708.783
-461.76
-998.601
-291.009
-1862.43
724.088
-6019.02
-1067.46
-306.778
-220.782
-399.905
-409.933
-423.025
-533.697
-474.09
-728.578
-461.944
-1104.51
-302.331
-2314.39
310.214
-5972.33
-1067.86
-307.354
-221.324
-400.676
-411.797
-424.538
-539.354
-476.363
-748.783
-461.987
-1184.07
-306.225
-2510.91
135.641
-5366.52
-1068.09
-307.701
-221.609
-401.104
-412.976
-425.441
-543.269
-477.517
-761.917
-459.217
-1213.18
-290.876
-2407.16
319.281
-4988.61
-1068.38
-308.264
-222.13
-401.835
-414.707
-427.013
-548.324
-480.194
-777.859
-459.989
-1244.14
-244.952
-2301.35
520.583
-5020.53
-1134.27
-414.181
-265.268
-461.269
-499.628
-503.553
-632.547
-554.518
-806.198
-502.484
-1189.41
-314.951
-2876.7
1215.02
-9459.34
-1134.77
-414.323
-265.404
-461.757
-499.732
-504.652
-632.054
-556.668
-802.198
-504.032
-1163.32
-403.742
-2592.52
348.601
-8850.99
-1135.43
-414.279
-265.54
-462.25
-500.112
-505.682
-632.305
-558.701
-798.338
-502.564
-1115.85
-266.236
-2303.59
534.525
-7604.22
-1136.13
-414.398
-265.802
-462.921
-500.639
-507.152
-633.178
-562.119
-800.554
-512.414
-1128.22
-332.665
-2201.49
619.092
-7187.81
-1136.88
-414.622
-266.146
-463.69
-501.61
-508.845
-635.197
-565.769
-804.968
-520.704
-1142.86
-364.223
-2180.41
103.466
-8733.99
-1137.64
-414.94
-266.577
-464.535
-502.858
-510.653
-638.191
-569.593
-812.865
-529.472
-1150.61
-374.262
-1722.39
557.242
-9455.37
-1138.42
-415.379
-267.132
-465.468
-504.567
-512.623
-642.27
-573.219
-821.013
-534.621
-1156.2
-339.819
-1752.83
1152.29
-9271.2
-1139.17
-415.876
-267.742
-466.386
-506.566
-514.485
-647.829
-576.83
-837.457
-546.49
-1209.9
-422.138
-2147.52
590.873
-9000.05
-1139.9
-416.481
-268.476
-467.376
-508.968
-516.327
-654.643
-579.898
-855.804
-548.045
-1244.1
-363.736
-2497.55
254.908
-7497.2
-1140.56
-417.091
-269.197
-468.265
-511.502
-517.906
-662.625
-582.276
-882.12
-554.45
-1328.87
-451.052
-2327.53
686.341
-7947.71
-1141.18
-417.799
-270.032