/*--------------------------------*- C++ -*----------------------------------*\
| =========                 |                                                 |
| \\      /  F ield         | OpenFOAM: The Open Source CFD Toolbox           |
|  \\    /   O peration     | Version:  4.1                                   |
|   \\  /    A nd           | Web:      www.OpenFOAM.org                      |
|    \\/     M anipulation  |                                                 |
\*---------------------------------------------------------------------------*/
FoamFile
{
    version     2.0;
    format      ascii;
    class       surfaceScalarField;
    location    "30";
    object      phi;
}
// * * * * * * * * * * * * * * * * * * * * * * * * * * * * * * * * * * * * * //

dimensions      [0 3 -1 0 0 0 0];

internalField   nonuniform List<scalar> 
19125
(
72.5563
-1.07516
1344.09
78.2907
-2.8332
1502.2
63.3367
-3.15767
1359.53
50.7169
-1.64025
1063.03
43.309
2.43527
929.909
32.8972
4.47882
767.291
25.4392
6.28691
702.371
17.1028
1.23124
567.713
3.63002
-1.66029
318.609
-5.39699
-2.25337
136.72
-21.6504
0.76897
392.977
-44.9678
0.949634
784.094
-71.8406
-1.61241
1420.43
-75.5475
-3.49974
1636.39
-0.483748
1778.13
72.0771
-1.4563
1343.9
77.8007
-3.89132
1501.76
63.0795
-3.77784
1370.58
50.6185
-1.40449
1086.95
43.2452
3.24252
950.46
33.1413
5.3854
776.735
25.4332
7.58719
683.08
16.9431
1.03593
534.379
3.88824
-2.27315
307.25
-5.29635
-1.76258
142.335
-22.3603
1.27888
375.642
-45.4973
-0.975524
773.247
-71.962
-1.80049
1428.91
-75.9707
-4.21872
1622.27
-0.692798
1759.24
71.5647
-1.68576
1344.54
77.3032
-4.75694
1505.52
62.9277
-4.14325
1383.94
50.7858
-1.21628
1104.98
43.3809
3.60566
959.17
33.7041
5.54343
781.497
25.6462
7.42606
651.403
16.4342
2.01933
505.44
4.03458
-1.36942
322.947
-5.8488
0.472915
155.259
-23.7335
0.900663
356.764
-46.1392
-4.86463
767.529
-72.5014
-1.53971
1427.1
-77.4419
-3.2276
1601.42
-1.21562
1718.52
71.1206
-1.7321
1340.71
76.9995
-5.43242
1505.2
63.065
-4.2417
1395.01
51.2198
-1.04755
1121.27
43.6877
3.60627
966.521
33.9549
5.30699
781.307
24.9858
7.5859
633.957
15.0159
4.83547
498.972
3.92652
1.08827
357.806
-5.95507
3.99933
178.457
-23.3758
-0.547369
374.273
-45.9243
-6.13824
809.799
-72.3429
-1.41976
1430.86
-76.5694
-2.64639
1619.23
-1.48622
1732.61
70.8406
-1.51756
1331.54
76.675
-5.457
1504.85
63.1294
-3.94063
1408.92
51.522
-0.962294
1139.61
43.9617
3.05282
974.106
34.1613
4.72509
777.908
24.6757
8.26469
625.668
15.5071
6.5176
492.208
4.01245
0.307585
298.82
-5.52954
5.72183
163.515
-21.6715
-1.85156
446.332
-45.4187
1.39944
905.263
-72.5389
-0.696359
1419.76
-76.0165
-2.77549
1627.7
-1.59417
1740.09
70.9186
-0.982821
1314.44
76.4331
-4.24653
1500.7
63.1484
-2.94019
1422.46
51.6891
-0.804788
1159.06
44.1876
1.93117
983.552
34.7801
3.44588
779.441
26.2251
6.67221
615.127
16.9496
3.2099
417.163
4.20538
-0.840291
235.778
-5.01446
5.32214
124.837
-22.2854
-1.79267
422.342
-45.8023
5.89254
867.48
-72.6494
-0.505908
1427.34
-75.8737
-2.73294
1634.74
-1.54508
1739.76
71.5942
-0.163426
1287.78
76.4474
-1.23662
1489.4
63.1432
-0.885322
1430.95
51.6226
-0.231726
1176.94
44.0508
0.607321
994.734
35.3442
1.3469
789.802
26.3288
3.25404
586.675
16.3635
2.61822
400.118
4.92607
-0.889117
255.858
-3.24697
-1.17625
77.9048
-24.8895
-0.750125
351.758
-46.4779
3.07557
806.613
-72.7449
-0.571275
1439.8
-76.4037
-1.69747
1629.22
-1.4552
1724.48
71.9834
0.700052
1276.53
76.5984
2.38871
1482.35
63.2363
1.5723
1430.58
51.6405
0.582667
1181.18
43.9879
-0.651023
997.867
35.5981
-0.894294
797.091
27.2085
-1.69932
580.607
16.6543
0.431903
369.676
4.26659
0.785827
237.268
-5.30891
-2.0388
96.2597
-25.7506
-0.671648
331.7
-47.2998
-3.83224
759.011
-73.2461
-0.633661
1440.43
-77.7124
0.740536
1611.31
-1.69576
1693.14
71.4051
1.42007
1295.02
76.4106
4.94328
1491.65
63.127
3.43027
1429.38
51.6372
1.0993
1173.89
44.1158
-1.88883
993.669
35.6142
-3.06631
791.948
27.6482
-6.67255
585.636
17.9245
-3.98219
365.029
3.87217
1.29024
206.111
-6.1831
0.672534
127.098
-23.894
-0.270765
374.316
-46.7445
-7.55301
778.355
-72.6378
-0.962549
1446.17
-76.2459
1.79164
1632.43
-1.60275
1727.87
70.8624
1.85817
1320.43
76.4172
5.83655
1501.81
63.1079
4.28824
1420.06
51.6739
1.22732
1155.42
44.279
-2.92888
982.859
35.1931
-4.71771
780.207
26.3999
-8.80443
601.778
17.0809
-6.47418
415.82
3.52169
0.621581
224.361
-5.56452
0.839218
138.701
-20.7824
2.55153
481.874
-46.0304
-1.77054
853.828
-72.723
-0.744385
1429.57
-75.6681
1.63052
1638.02
-1.33988
1744.03
70.8551
1.98541
1336.93
76.6547
5.5911
1505.71
63.0624
4.46936
1406.37
51.494
1.27117
1135.87
44.1073
-3.52768
972.449
34.4141
-5.44826
775.372
24.8768
-8.10546
621.734
15.5314
-4.61218
486.634
4.31039
0.196078
295.967
-4.9776
-0.196623
122.783
-22.2634
1.78138
445.871
-45.8316
6.00566
918.29
-72.7289
0.243504
1424.07
-75.9625
1.60589
1632.05
-1.04948
1740.13
71.1897
1.85404
1345.25
76.9979
4.7671
1505.64
63.0001
4.28336
1392.21
51.1947
1.39228
1117.27
43.8254
-3.59056
963.773
34.0922
-5.69428
777.57
25.0686
-7.49802
632.698
15.4308
-1.83363
501.848
4.2144
2.17823
335.906
-6.18289
3.32367
154.104
-23.5605
0.608331
393.231
-46.393
7.06444
841.657
-72.6239
0.82438
1434.28
-76.5747
2.42296
1624.36
-0.786411
1730.73
71.6704
1.55718
1348.21
77.3092
3.8317
1505.84
62.8572
3.85904
1381.28
50.7493
1.52936
1101.04
43.4694
-3.25584
955.631
33.9083
-5.52879
779.596
25.8365
-7.52763
646.654
17.0375
-0.667189
507.779
4.55736
2.62339
304.076
-6.71201
8.01666
143.972
-24.8947
-0.617305
349.866
-47.105
3.00986
780.847
-72.901
1.29157
1434.44
-77.4411
3.65699
1606.28
-0.820609
1716.62
72.2048
1.12786
1346.93
77.8141
2.7501
1502
63.0118
3.18787
1368.02
50.5701
1.71135
1082.83
43.3232
-2.46233
946.653
33.3933
-4.61184
775.447
25.9727
-6.53558
678.301
17.7563
-1.33836
522.482
4.84002
2.31991
293.569
-6.16388
10.4228
122.108
-24.3101
-1.35953
351.813
-46.7063
-0.0704998
781.015
-72.4799
1.21275
1436.52
-76.0025
3.10689
1626.33
-0.575497
1756.84
72.6917
1346.63
78.2984
1502.55
63.2565
1357.44
50.6385
1059.26
43.3453
926.226
33.0996
766.05
25.7642
697.501
17.9461
566.565
4.54051
308.189
-5.59594
95.1587
-23.0752
377.047
-46.2961
791.389
-72.4662
1428.01
-75.5863
1639.91
1775.47
216.401
-2.94483
1272.47
231.807
-7.90879
1489.92
196.529
-9.70549
1398.34
154.678
-6.05925
1106.68
130.689
6.28827
951.266
100.258
12.9307
792.978
76.6082
19.1716
718.656
51.0958
5.165
591.71
13.0444
-4.88975
358.824
-17.5327
-6.21716
169.016
-65.5299
1.88857
440.19
-135.724
1.59578
854.827
-204.729
-5.84022
1491.74
-221.046
-9.89584
1656.79
-0.516389
1779.87
214.912
-3.91929
1273.25
230.243
-10.7186
1489.23
195.715
-11.6705
1407.07
154.475
-5.62977
1127.76
130.651
8.54514
972.027
100.819
15.3636
804.135
76.4421
22.8003
703.829
50.3567
4.87446
560.755
13.5744
-6.80779
345.951
-17.1858
-5.11067
171.989
-67.5374
2.76859
425.113
-137.379
-3.72709
848.411
-205.31
-6.60715
1497.61
-222.413
-11.919
1641.39
-0.898587
1761.79
213.435
-4.44433
1274.65
228.662
-12.9895
1492.56
195.064
-12.9087
1418.78
154.735
-5.10111
1144.78
131
9.56268
981.887
102.241
15.7252
809.894
77.275
22.006
677.163
49.2648
7.13885
531.187
13.3169
-4.01648
356.103
-18.8447
0.0400411
182.271
-71.088
0.983224
410.792
-139.318
-13.771
845.803
-207.548
-5.23109
1493.96
-227.249
-9.63257
1618.83
-3.31315
1722.31
212.12
-4.43968
1271.72
227.577
-14.7847
1491.54
195.298
-13.5385
1427.92
155.946
-4.57718
1160.09
131.987
9.59827
990.445
103
14.9837
811.035
75.5962
21.9197
661.448
45.3147
14.3511
522.041
12.5714
2.82621
383.707
-18.615
7.64233
202.041
-69.7756
-2.73731
429.154
-138.737
-16.4337
881.423
-206.651
-4.69214
1498.23
-224.423
-8.20916
1635.58
-4.53807
1736.2
211.329
-3.69398
1263.27
226.557
-14.8033
1489.64
195.286
-12.9116
1439.56
156.687
-4.10966
1177.74
132.773
8.07295
999.545
103.576
13.1032
808.987
74.7458
23.1545
653.264
46.3691
18.9117
516.025
13.272
1.06402
333.68
-17.5441
10.9811
190.993
-65.5842
-4.69753
496.332
-137.244
3.04722
957.442
-206.716
-2.94637
1487.49
-222.615
-8.43703
1643.83
-4.91851
1743.57
211.631
-2.17027
1246.59
226.025
-11.4513
1482.96
195.181
-9.87549
1450.26
157.084
-3.23284
1196.28
133.416
4.9999
1010.29
105.167
9.30337
811.49
78.7612
18.7357
645.952
50.2715
10.5309
454.034
14.3937
-2.55952
275.28
-16.3482
9.74184
156.818
-67.3554
-3.49578
472.148
-138.48
14.5685
927.084
-206.984
-2.66137
1495.55
-222.18
-8.0946
1649.59
-4.67297
1742.82
213.72
-0.188663
1219.93
226.612
-3.30252
1468.35
195.08
-3.01587
1455.62
156.878
-0.96893
1212.88
132.972
1.50854
1022.13
106.383
3.49137
822.203
79.4746
8.76202
623.558
49.3824
7.42382
433.318
16.676
-3.1048
289.11
-14.0884
-2.24048
120.653
-73.9372
-2.39558
410.507
-140.468
7.64234
880.07
-207.647
-2.5725
1506.89
-223.919
-5.13449
1642.53
-4.58281
1727.22
214.925
1.72309
1208.62
227.282
6.46508
1460.22
195.335
5.32103
1454.18
156.96
2.02824
1216.56
132.781
-1.71784
1025.27
106.96
-2.60357
829.007
81.7471
-5.18313
619.765
50.4109
0.0811594
408.356
13.8914
1.37082
269.313
-18.5071
-4.13521
130.553
-76.5748
-3.70969
391.081
-142.98
-9.7868
842.845
-209.841
-1.5875
1506.31
-228.123
1.18862
1623.27
-6.45329
1696.54
213.164
3.47607
1227.21
226.342
13.3814
1471.55
195.037
11.3769
1454.63
156.908
4.09916
1209.95
133.132
-4.97254
1020.7
107.049
-8.49539
823.923
82.73
-18.8606
623.633
53.7058
-12.824
406.958
13.6512
2.44376
245.093
-19.5531
2.28791
153.88
-72.1832
-2.73145
425.967
-141.415
-19.4764
857.276
-207.49
-2.27293
1512.93
-223.413
4.14093
1645.4
-6.43383
1729.93
211.461
4.72134
1252.52
225.926
15.86
1484.86
195.079
13.8903
1448.39
157.03
4.86634
1192.7
133.613
-7.78257
1009.09
106.192
-13.1524
812.285
79.3429
-24.9031
634.67
50.7308
-19.49
451.098
12.5034
0.328715
264.704
-17.566
2.44592
168.613
-64.3406
6.14271
519.775
-139.397
-5.31708
914.725
-207.345
-1.99317
1497.24
-221.529
4.00283
1652.34
-5.41572
1744.95
211.367
5.20193
1268.53
226.508
15.255
1491.17
195.106
14.1357
1437.53
156.574
5.20832
1174.06
133.117
-9.41247
997.535
104.269
-15.4525
806.52
75.3299
-23.6195
649.39
46.5117
-14.4646
510.427
14.0955
-0.723469
329.435
-16.605
-0.8725
156.802
-67.2948
5.59832
497.105
-138.769
15.2563
969.19
-207.632
0.610259
1490.33
-222.453
4.12974
1646.74
-4.32154
1740.14
212.3
4.9675
1276.11
227.597
13.0516
1492.54
195.119
13.2251
1425.59
155.835
5.58772
1156.18
132.305
-9.5415
987.432
103.384
-16.2618
807.3
75.7699
-22.4899
659.182
46.2953
-7.16894
524.027
13.2109
5.02571
363.241
-19.7035
6.49384
179.65
-70.7841
2.93511
446.974
-140.419
18.4975
908.049
-207.887
2.61697
1499.74
-224.471
6.36968
1638.7
-3.54954
1729.72
213.716
4.24563
1278.15
228.719
10.5751
1493.31
194.869
11.8116
1416.54
154.589
5.97057
1140.93
131.179
-8.60039
978.099
102.76
-15.8754
807.629
77.7406
-22.9291
672.113
50.6751
-4.26325
531.939
14.4472
7.18668
338.143
-21.5962
17.6817
168.829
-74.5294
-0.777641
406.512
-142.563
8.51122
858.867
-209.169
4.7304
1498.93
-227.338
9.5282
1621.29
-4.26351
1715.39
215.261
3.12124
1276.09
230.332
7.69037
1489.81
195.529
9.718
1404.92
154.298
6.24697
1123.78
130.797
-6.38302
967.936
101.442
-13.3766
802.304
77.8107
-20.0296
699.033
52.4362
-5.8382
549.432
15.6905
6.55951
330.943
-20.4091
24.1694
151.722
-73.0263
-3.13208
406.785
-141.369
0.664621
857.205
-207.278
4.39433
1502.76
-222.676
8.17929
1643.08
-3.13215
1754
216.77
1274.81
231.885
1490.5
196.307
1396.58
154.411
1103.05
130.701
947.28
100.731
791.121
77.4427
713.374
53.2947
589.373
15.73
348.009
-19.5486
133.642
-70.0584
426.979
-140.161
863.031
-207.064
1496.59
-221.331
1657.55
1771.3
365.713
-4.27946
1114.31
387.302
-10.9912
1472.03
346.757
-15.8558
1443.81
269.141
-12.6773
1187.45
220.907
6.97736
996.501
170.458
19.5064
837.374
128.364
31.314
750.695
84.3712
11.9979
632.77
25.1576
-7.13625
421.083
-33.2071
-8.94402
229.227
-114.186
1.97562
520.778
-234.56
-0.265245
977.302
-326.252
-12.1546
1587.94
-374.249
-14.5817
1710.12
0.34327
1725.75
363.143
-5.50246
1116.78
384.301
-14.7316
1471.81
345.102
-19.3625
1449.77
268.746
-12.7641
1204.2
221.118
10.2044
1016.43
171.188
23.0651
850.506
127.903
36.6846
741.743
82.6972
12.1495
605.81
25.3186
-10.216
406.409
-33.0086
-7.97282
229.344
-117.545
2.03318
509.591
-237.493
-7.73349
975.828
-327.99
-14.0186
1589.97
-376.848
-17.7412
1693.41
0.0417104
1708.27
360.804
-5.91894
1119.34
381.361
-17.6996
1474.97
343.502
-21.8707
1459.14
268.524
-12.1735
1219.17
221.463
11.786
1027.37
173.025
23.5651
857.833
129.595
34.9442
722.334
81.7123
14.2532
576.965
23.8894
-5.83591
409.546
-36.3025
-2.01223
236.502
-122.803
-2.24749
501.574
-240.814
-20.5905
976.67
-333.969
-10.1792
1583.27
-386.298
-15.382
1668.8
-5.34273
1669.31
358.62
-5.43993
1117.92
379.077
-20.1147
1473.49
343.359
-23.8313
1465.59
270.218
-11.5209
1232.58
223.251
11.9892
1037.21
174.405
22.4187
861.029
127.523
33.7602
709.514
75.7143
23.2687
564.834
21.9775
3.65956
427.949
-35.0989
5.33669
251.769
-120.274
-7.38258
519.464
-239.845
-22.9305
1003.33
-331.116
-8.8179
1588.14
-380.931
-13.7674
1683.78
-8.2605
1683.45
357.423
-3.93542
1110.71
377.321
-20.0452
1469.67
342.861
-23.5125
1473.7
270.97
-10.374
1248.48
224.435
9.96995
1048.1
175.305
19.1596
861.376
126.334
34.0447
701.951
76.7843
29.3288
559.514
23.5719
1.81539
388.737
-33.1205
7.51425
245.509
-114.301
-7.15825
577.288
-237.41
2.4124
1055.21
-329.998
-6.95166
1578.21
-377.45
-14.0263
1691.54
-9.22445
1690.83
358.001
-1.69441
1094.99
376.903
-15.3939
1459.4
342.373
-18.4969
1479.77
271.292
-7.89994
1264.88
225.375
5.87354
1060.31
177.406
13.088
865.532
131.738
27.2668
698.398
82.593
18.5018
514.006
26.1993
-4.29506
337.784
-31.5448
5.55104
216.526
-117.249
-3.54554
554.239
-239.645
17.2873
1034.6
-330.16
-7.26266
1586.38
-376.577
-13.2529
1695.23
-8.75401
1689.21
361.555
0.31921
1068.62
379.147
-4.38305
1439.75
342.181
-5.74111
1479.83
270.816
-2.4526
1278.8
224.554
1.59062
1072.68
178.568
4.53556
876.742
133.453
11.9436
683.996
82.4492
10.9849
491.839
28.8998
-5.35086
343.715
-31.4643
-4.13024
190.698
-126.631
-3.2708
505.399
-242.891
8.74273
1004.87
-332.269
-6.47951
1595.49
-379.962
-8.90488
1685.88
-8.88585
1672.4
363.668
1.80309
1057.2
380.869
8.77511
1429.86
342.647
10.0833
1476.58
270.988
4.36125
1281.4
224.241
-2.09112
1075.7
179.132
-4.15026
882.802
136.489
-8.55067
682.902
84.5199
-2.33649
473.647
24.4169
0.201121
323.864
-38.0505
-4.88753
193.778
-131.424
-8.05333
489.237
-247.255
-12.9272
980.345
-337.971
-2.00691
1592.55
-387.989
-0.671544
1665.05
-13.8539
1641.75
360.73
3.73567
1075.7
378.418
18.1802
1444.46
342.085
21.1047
1479.94
270.843
9.34433
1276.21
224.731
-6.05372
1070.77
179.357
-12.5623
877.709
137.558
-28.1416
685.023
89.2085
-22.4964
475.468
25.9901
0.518556
307.994
-37.1337
3.22496
208.891
-125.504
-7.64681
513.931
-244.667
-25.3461
988.858
-332.11
-2.40499
1600.77
-379.026
3.55698
1688.08
-14.6107
1674.3
357.741
5.70886
1100.6
376.588
21.6264
1462.56
342.205
24.9866
1478.89
271.172
11.5109
1261.56
225.532
-9.71872
1058.39
178.699
-19.53
866.086
132.775
-37.3261
689.779
83.4976
-31.8677
509.747
24.0132
-3.49043
328.197
-32.9456
3.22862
225.568
-114.527
6.3041
587.405
-241.598
-7.9168
1024.37
-330.857
-2.89758
1586.99
-375.316
3.86647
1696.49
-12.6813
1687.74
357.453
6.86871
1115.64
377.186
20.8507
1472.21
342.578
24.5494
1472.57
270.707
12.3975
1245.04
224.777
-11.8451
1045.59
176.266
-23.3728
858.874
127.239
-36.9919
698.083
77.0257
-25.0872
553.859
24.7921
-4.80243
382.981
-32.9075
-1.57501
219.305
-117.305
8.80636
579
-240.487
19.4369
1065.02
-332.036
0.400416
1578.58
-377.029
4.34291
1691.26
-10.4201
1681.04
358.891
6.92928
1122.03
379.152
17.8413
1475.29
343.107
22.1013
1464.09
269.954
12.8061
1228.92
223.546
-11.8478
1033.84
174.923
-24.6639
857.214
127.637
-36.4922
705.969
76.7793
-15.5485
565.347
22.4626
3.59028
409.166
-37.5644
5.43133
232.673
-122.696
5.8091
535.103
-243.256
24.6792
1023.37
-333.906
4.29937
1586.49
-380.924
7.48221
1682.58
-8.99401
1668.42
361.223
6.13169
1122.59
381.541
14.5734
1476.25
343.229
19.341
1457.61
268.194
13.1781
1215.59
221.532
-10.3648
1023.28
173.636
-24.1069
854.968
130.1
-37.6884
716.846
83.3326
-12.397
575.556
24.6309
8.29789
392.138
-40.9351
18.4049
221.422
-128.757
-0.347326
500.491
-246.929
12.808
988.911
-337.464
9.67744
1584.09
-386.532
11.5452
1666.3
-11.0441
1653.15
363.652
4.63063
1119.32
384.542
10.7217
1472.77
344.841
15.6879
1448.27
268.372
12.8641
1200.56
221.123
-7.19535
1012.02
171.88
-20.3701
847.81
129.566
-33.0465
736.706
85.3569
-13.992
595.237
26.9331
7.91161
389.753
-38.9541
26.5255
209.489
-126.441
-4.50064
498.425
-244.915
2.77702
985.71
-332.096
8.86266
1590.76
-377.554
9.95935
1690.12
-8.2698
1690.28
366.242
1116.33
387.529
1472.86
346.438
1442.59
268.617
1184.13
220.675
992.169
170.889
834.58
129.315
744.712
87.1454
628.729
28.1696
409.134
-37.32
199.763
-122.315
511.501
-242.988
986.458
-331.07
1587.91
-374.945
1705.03
1705.93
503.485
-4.66365
897.714
553.977
-11.1971
1424.83
517.732
-19.6554
1485.61
407.285
-20.5117
1302.59
320.86
2.25849
1080.88
245.816
21.939
906.205
181.976
40.2365
803.428
117.518
21.336
692.666
36.6815
-7.2274
505.401
-52.588
-10.4988
320.496
-176.212
0.593168
645.169
-345.043
-5.09476
1150.27
-461.02
-21.0367
1711.78
-530.376
-16.4555
1784.91
1.4993
1629.01
500.383
-5.57824
901.759
549.293
-14.5666
1426.27
514.634
-24.6424
1489.42
406.049
-22.0693
1314.34
321.066
5.51529
1098.15
246.607
26.2586
920.646
181.278
46.6831
800.626
114.936
22.3944
671.093
35.8624
-11.0972
489.353
-53.4034
-10.411
318.522
-181.017
-1.26753
639.065
-349.445
-13.2259
1152.39
-464.991
-24.7158
1709.2
-534.238
-20.5175
1766.72
1.29347
1611.89
497.725
-5.17189
905.177
544.954
-16.7677
1429.94
511.615
-28.7153
1496.55
404.585
-22.2181
1326.35
320.879
7.45311
1109.13
248.338
27.1375
929.496
183.747
44.272
789.337
114.647
23.1173
645.343
33.0647
-5.90229
485.934
-58.7231
-5.33389
323.213
-187.6
-8.44351
637.626
-354.577
-25.1033
1155.52
-477.915
-16.8238
1698.72
-548.637
-19.889
1738.89
-8.55078
1573.7
494.909
-3.44925
905.667
541.156
-18.3459
1428.82
510.351
-32.5911
1500.27
406.053
-22.2058
1336.86
323.33
7.91359
1119.47
250.494
25.9784
935.024
182.081
41.6425
780.558
107.407
31.2233
631.403
29.9108
4.2757
495.267
-56.4491
-1.20651
334.001
-184.014
-14.2055
652.791
-352.857
-26.166
1173.24
-471.132
-14.2817
1703.87
-540.386
-19.1477
1752.29
-14.1258
1588.06
493.07
-0.61295
900.885
538.499
-17.5819
1423.47
508.866
-33.3501
1504.09
406.123
-20.5613
1349.58
324.538
6.24142
1131.36
251.704
21.7229
938.466
180.855
39.8426
774.6
108.152
36.9407
626.5
32.4895
2.47072
466.204
-52.8398
-1.95297
331.585
-176.683
-10.017
696.943
-349.442
-1.09671
1202.9
-467.448
-13.4671
1695.4
-535.006
-19.6934
1759.65
-16.1789
1595.08
493.503
1.79667
888.09
538.537
-12.8781
1409.66
507.896
-27.01
1504.07
405.849
-15.7209
1362.09
325.379
2.83543
1144.18
253.817
14.1361
944.681
186.553
31.0351
774.47
115.452
25.2476
596.801
37.1123
-6.00668
424.602
-51.4876
-4.18137
307.354
-181.065
-3.52277
677.322
-352.806
13.3997
1191.85
-467.021
-15.4094
1702.54
-533.416
-18.7324
1760.67
-15.5682
1591.96
497.664
1.44196
864.836
543.566
-3.32473
1384.29
508.248
-8.4685
1496.61
404.946
-4.97188
1371.35
323.929
0.350829
1156.18
254.29
4.27259
956.245
189.012
12.3269
767.982
116.577
12.6651
576.857
38.9784
-8.02761
423.335
-54.8809
-8.92745
289.304
-192.319
-4.26442
643.579
-357.469
5.78535
1177.64
-471.922
-13.2318
1707.76
-538.52
-14.2001
1747.94
-16.2344
1573.14
499.977
-0.199878
854.526
546.804
7.50054
1372.2
509.272
14.9481
1490.69
405.268
8.21967
1372.21
323.498
-0.979224
1158.8
254.49
-5.26908
961.352
192.037
-11.4607
769.143
119.749
-6.54435
565.144
33.517
-3.11783
405.186
-64.0195
-6.83567
289.223
-199.493
-13.0439
633.49
-364.145
-13.5958
1164.38
-483.754
-2.56195
1701.49
-550.959
-6.76505
1724.82
-25.9783
1542.16
496.545
0.579807
870.931
542.13
15.7241
1390.64
507.94
30.6029
1498.47
404.941
17.8698
1369.56
324.065
-3.25196
1153.92
254.915
-14.6241
956.215
192.941
-33.719
769.256
124.994
-31.8493
568.719
37.8621
-4.95619
396.965
-60.2723
2.44747
297.743
-192.8
-13.9515
647.366
-360.223
-25.3398
1168.02
-471.559
-2.15425
1711.7
-537.666
-2.11141
1749.54
-28.1049
1572.91
493.372
3.27623
892.522
538.068
19.4089
1414.18
507.657
35.1564
1504.74
405.638
21.9696
1359.48
325.35
-6.19669
1141.62
254.992
-22.7655
944.586
187.881
-45.1006
768.271
116.636
-42.7595
591.902
35.1749
-11.273
415.975
-53.041
2.62778
313.603
-180.287
3.55339
697.145
-356.462
-8.90856
1184.11
-468.063
-4.6796
1701.12
-531.89
-1.28474
1759.49
-25.155
1583.84
493.483
5.77918
904.598
538.452
19.5016
1427.14
508.529
33.3143
1504.33
405.647
23.1019
1346.79
324.622
-7.97791
1128.4
252.591
-27.5858
935.726
181.847
-46.8439
770.571
108.23
-36.025
620.742
33.5233
-12.5517
458.966
-54.0455
-2.74859
312.25
-181.644
11.0335
699.118
-354.909
18.8836
1210.49
-471.019
-1.56751
1691.58
-534.393
-0.476842
1753.83
-21.5083
1574.27
495.39
6.95862
909.017
541.314
17.3337
1431.53
510.066
28.7052
1499.94
405.573
22.7058
1333.81
323.339
-7.73017
1115.83
250.879
-28.931
931.02
181.915
-47.6332
775.722
107.999
-26.7789
630.015
29.7425
-2.93451
477.804
-60.5418
1.54698
318.659
-188.659
8.59839
665.654
-359.025
25.5496
1187.07
-476.116
5.02285
1696.99
-540.293
2.97543
1743.3
-19.1313
1558.2
498.281
6.69419
908.048
545.294
14.7425
1431.83
511.343
24.2988
1495.97
404.018
22.2811
1323.34
320.576
-5.88181
1104.87
248.66
-27.9314
925.884
183.924
-49.2723
783.221
115.843
-24.7572
641.615
32.593
4.05466
468.398
-65.7054
12.9456
308.32
-197.065
0.398538
640.049
-364.739
15.6811
1166.45
-483.987
15.7856
1692.57
-549.186
6.8337
1727.64
-22.8094
1541.14
501.004
5.26568
903.969
549.768
11.1571
1427.59
514.4
19.2072
1488.72
405.43
20.4891
1311.33
320.651
-2.68326
1093.6
246.896
-23.2914
916.925
182.522
-43.113
794.92
117.289
-25.365
661.077
35.5508
4.56291
470.983
-63.0175
20.7597
300.242
-194.237
-5.37964
635.421
-361.678
5.95491
1162.88
-472.194
14.2478
1702.81
-535.808
5.98287
1754.59
-16.9946
1575.4
504.08
899.418
554.414
1425.89
517.405
1485.06
406.452
1299.85
320.094
1076.37
245.719
902.332
182.41
796.412
119.809
686.539
38.5745
491.288
-59.6509
295.769
-189.31
640.756
-359.189
1160
-469.403
1703.56
-531.974
1769.41
1588.59
608.434
-3.99883
689.93
708.968
-9.84575
1326.89
698.638
-19.6436
1501.15
573.614
-26.6924
1433.58
441.41
-7.46862
1213.14
331.06
18.1832
1011.31
239.716
43.8464
883.987
151.888
31.156
774.533
45.823
-5.12172
615.165
-77.6959
-11.6636
446.694
-251.642
-2.68365
821.675
-462.45
-11.9817
1367.34
-607.31
-30.4819
1868.14
-676.713
-15.7171
1858.62
-0.109748
1531.34
606.032
-4.0443
693.892
703.427
-11.4877
1330.52
693.84
-25.0862
1504.44
570.687
-30.245
1441.05
440.774
-5.532
1226.13
331.592
22.6336
1025.38
238.872
50.7256
886.468
148.667
33.3246
759.13
43.5291
-9.29912
598.668
-80.4861
-12.9792
443.853
-258.112
-6.79374
820.801
-468.768
-19.9909
1371.05
-614.407
-36.3586
1860.71
-680.714
-20.5727
1837.88
0.115615
1514.34
603.783
-1.88316
696.983
698.374
-11.0905
1334.95
689.292
-29.8081
1510.35
567.343
-31.9998
1450.05
439.207
-3.97523
1235.71
332.498
24.0878
1034.75
241.666
48.3215
882.573
149.347
32.2837
738.703
39.6462
-4.19148
590.527
-87.68
-9.83103
447.391
-266.03
-15.8704
825.053
-477.189
-28.2201
1374.91
-635.878
-24.5489
1845.6
-698.054
-25.0542
1805.55
-14.677
1479.02
600.975
2.03976
698.864
693.311
-9.59971
1334.99
686.212
-34.7136
1512.27
567.527
-33.6669
1457.21
441.661
-3.73793
1245.1
335.345
23.3656
1042.06
241.077
44.6864
878.461
141.894
37.8041
725.065
35.7693
4.85125
592.349
-84.434
-9.66315
454.037
-261.646
-21.557
835.689
-474.089
-27.8003
1385.26
-624.373
-20.9961
1850.6
-689.128
-26.2492
1818.24
-24.3689
1491.2
599.566
5.53202
696.816
690.17
-6.19385
1329.46
683.519
-36.1356
1512.16
566.219
-32.3554
1465.57
442.139
-4.5305
1256.23
336.637
19.0335
1048.3
240.123
40.634
875.167
142.267
41.5578
720.602
39.79
2.11945
571.414
-78.3426
-13.1777
453.232
-253.505
-13.9919
864.541
-470.035
-6.95046
1398.58
-617.528
-22.2373
1844.13
-682.99
-26.6088
1825.47
-29.0174
1495.83
599.851
6.30861
688.989
690.827
-1.764
1314.25
682.443
-29.3863
1505.7
565.067
-25.1938
1472.3
442.21
-5.3525
1267.86
338.221
11.4356
1056.27
245.222
30.2744
877.828
150.54
29.4021
703.639
46.286
-8.47299
539.449
-77.9415
-15.0823
433.487
-259.362
-5.46049
850.211
-474.049
4.69904
1394.89
-615.958
-26.5446
1848.75
-680.415
-24.9788
1823.49
-28.9501
1489.85
601.887
2.5751
673.903
697.614
0.684918
1286.11
684.538
-9.04632
1489.34
564.315
-7.99551
1474.37
439.882
-2.50086
1277.76
337.354
2.62277
1067.59
247.555
10.3381
877.718
152.834
12.3725
688.607
46.3423
-11.8979
533.252
-85.2998
-15.75
421.614
-271.677
-6.95705
831.452
-480.228
-0.61568
1391.5
-624.479
-23.2217
1848.69
-685.998
-21.9176
1806.4
-29.5427
1468.27
602.901
-2.99265
667.199
701.571
1.2051
1273.01
686.6
16.5184
1480.1
565.152
13.135
1472.53
439.433
2.51954
1279.5
336.949
-5.15837
1071.62
249.842
-13.616
880.204
156.663
-11.4677
682.164
40.2566
-8.37226
518.067
-97.1697
-10.7035
421.602
-281.573
-17.4663
828.402
-490.471
-13.165
1385.83
-644.045
-6.17256
1838.01
-701.561
-20.2317
1780.65
-43.9411
1437.87
601.22
-5.14586
677.832
695.719
4.08446
1293.26
683.738
33.5439
1493.42
564.111
28.2091
1474.11
439.946
5.0204
1275.59
337.664
-13.2177
1066.56
250.592
-35.7315
878.443
161.73
-39.6064
685.72
47.4198
-12.5546
515.457
-90.4044
-0.0282182
424.891
-274.139
-18.8247
832.459
-484.073
-21.6506
1386.44
-624.832
-4.09045
1850.38
-687.981
-16.0331
1808.49
-48.9539
1462.96
599.51
-2.77799
691.704
690.176
8.25957
1319.34
682.068
38.1431
1508.25
564.722
33.9363
1471.1
441.896
4.34077
1265.13
338.912
-20.911
1055.26
246.437
-48.2262
873.24
151.645
-51.507
698.595
44.756
-21.143
531.453
-79.6778
0.767364
437.241
-261.408
-0.239416
860.29
-479.783
-8.72395
1389.56
-617.561
-8.82041
1843.62
-680.751
-12.5243
1819.17
-45.4352
1468.67
599.823
1.77369
698.8
690.383
11.2159
1333.62
683.291
35.4999
1514.07
565.547
34.407
1464.06
441.739
3.33229
1253.21
337.013
-25.6659
1045.21
240.748
-52.1335
870.743
141.761
-46.39
714.612
39.9486
-22.8514
562.486
-81.3311
-4.94656
439.243
-261.258
11.5232
867.282
-478.662
14.891
1404.28
-622.302
-7.35771
1833.75
-682.802
-10.0715
1811.87
-39.3786
1455.37
601.901
5.13629
700.832
693.928
12.4012
1338.31
686.104
29.8525
1513.41
566.851
32.1625
1455.3
441.152
3.32396
1241.54
335.214
-26.5674
1037.86
240.286
-53.9625
872.479
141.486
-39.1731
721.599
34.5657
-13.4545
575.328
-90.6854
-3.31249
442.277
-270.112
10.4723
846.131
-484.835
22.3959
1394.28
-631.987
1.29535
1835.49
-689.41
-7.66606
1798.32
-34.8694
1436.2
604.749
5.91308
699.215
699.029
12.5774
1337.37
689.157
24.7953
1510.9
566.553
30.0808
1448.03
438.307
4.80041
1231.64
332.058
-24.9087
1030.47
240.967
-55.2824
875.631
149.286
-38.6373
732.76
37.2036
-4.90376
571.929
-98.3284
6.08601
434.453
-280.874
2.30764
830.758
-493.421
17.4776
1383.92
-646.1
17.8479
1828.7
-700.87
-7.52201
1782.26
-39.7403
1417.93
606.713
4.95168
695.825
704.094
10.5696
1332.21
693.738
19.2176
1504.66
569.856
26.3248
1438.96
439.717
6.70133
1221.83
330.95
-20.017
1020.8
238.897
-47.9984
879.688
149.679
-37.4895
749.147
40.506
-2.99668
578.248
-94.7117
12.6399
428.904
-277.017
-4.57981
824.613
-487.579
9.43908
1381.48
-626.343
16.3667
1843.05
-685.474
-6.46947
1812.66
-29.2322
1444.88
608.974
691.43
709.57
1328.22
698.409
1501.37
572.505
1431.69
439.876
1208.87
329.874
1006.54
238.829
875.716
152.511
766.091
45.4386
597.529
-89.2479
426.633
-271.867
823.66
-484.717
1377.44
-621.361
1847.02
-681.336
1826.44
1453.78
678.421
-2.66518
555.057
818.2
-8.70451
1189.22
859.233
-16.71
1464.29
754.995
-28.7101
1544.25
589.207
-18.3931
1381.48
433.981
8.14242
1163.34
305.717
40.6113
1002.92
190.674
38.7415
882.802
54.5769
-2.2201
755.371
-104.144
-14.1255
609.701
-327.113
-9.31708
1050
-567.969
-20.8895
1616.99
-740.261
-39.0545
2054.98
-793.632
-15.2028
1914.93
-7.17041
1494.21
676.999
-1.4626
557.372
813.194
-8.4335
1194.05
853.426
-21.0857
1468.59
750.014
-33.7451
1549.49
586.685
-18.8968
1389.96
433.549
11.6627
1174.99
304.644
47.2353
1008.75
187.075
41.9266
873.515
50.3941
-6.45684
739.585
-109.699
-17.2354
607.056
-335.744
-15.5101
1053.04
-576.531
-28.7351
1619.68
-748.547
-47.3713
2041.04
-795.239
-21.4926
1890.86
-8.56386
1478.27
675.662
1.94061
559.115
808.667
-4.99647
1198.5
848.019
-24.3546
1474.27
744.723
-36.9729
1556.57
582.938
-18.8163
1397.42
432.695
13.3079
1183.35
306.95
45.4508
1010.1
188.496
39.5472
859.536
45.6056
-2.13026
729.091
-118.882
-16.0505
610.694
-346.218
-24.4029
1061.28
-590.416
-32.348
1622.72
-776.788
-35.2697
2019.87
-812.382
-34.9639
1854.61
-28.3045
1447.94
674.525
5.73616
560.726
804.044
0.727291
1199.75
843.491
-27.302
1475.77
742.816
-40.126
1561.04
584.259
-19.7966
1404.64
435.659
12.9086
1191.06
307.627
41.6818
1010.26
181.686
42.28
848.274
41.6003
4.60497
725.699
-115.003
-19.1491
613.739
-341.391
-29.3443
1067.02
-585.908
-30.6793
1628.11
-762.925
-32.0202
2024.37
-806.526
-39.2168
1866.1
-42.8716
1452.53
674.637
7.58791
560.258
801.609
7.8254
1195.39
840.216
-26.883
1473.13
739.998
-39.2416
1564.9
583.163
-19.9527
1413.22
436.387
9.3612
1198.62
306.996
36.2025
1010.04
181.815
43.3297
844.733
47.209
-0.0112189
710.636
-106.507
-24.5917
612.39
-333.448
-20.1683
1082.31
-581.727
-15.4415
1631.62
-753.891
-35.4141
2019.69
-801.716
-38.7686
1872.84
-51.4649
1450.96
674.475
6.67394
557.478
802.151
11.9647
1182.43
839.52
-20.4656
1461.92
738.404
-30.5735
1564.75
582.022
-17.1466
1421.44
436.823
3.72919
1207.1
310.791
25.3493
1014.71
190.306
30.5885
836.865
54.6969
-12.1546
687.202
-107.736
-25.7831
597.111
-340.566
-10.7876
1073.66
-586.053
-7.41127
1632.34
-751.483
-41.6735
2020.44
-798.526
-36.072
1867.84
-53.6409
1440.36
673.182
2.33406
552.294
807.32
5.55406
1158.38
843.268
-5.64589
1438.57
739.16
-9.49397
1557.4
579.391
-6.37446
1426.76
434.197
-0.53921
1217.05
311.862
6.63288
1018.77
193.01
10.4331
827.615
52.3546
-16.9398
678.693
-119.223
-23.5393
590.948
-353.953
-11.766
1067.16
-594.551
-9.20056
1633.89
-762.788
-37.4366
2012.69
-802.753
-36.2953
1846.59
-56.3084
1417.01
672.309
-3.17687
550.151
810.154
-6.6343
1147.35
846.001
11.8572
1426.75
741.017
16.165
1551.85
579.379
8.01714