/*--------------------------------*- C++ -*----------------------------------*\
| =========                 |                                                 |
| \\      /  F ield         | OpenFOAM: The Open Source CFD Toolbox           |
|  \\    /   O peration     | Version:  4.1                                   |
|   \\  /    A nd           | Web:      www.OpenFOAM.org                      |
|    \\/     M anipulation  |                                                 |
\*---------------------------------------------------------------------------*/
FoamFile
{
    version     2.0;
    format      ascii;
    class       volVectorField;
    location    "30";
    object      U;
}
// * * * * * * * * * * * * * * * * * * * * * * * * * * * * * * * * * * * * * //

dimensions      [0 1 -1 0 0 0 0];

internalField   nonuniform List<vector> 
6750
(
(1.73051 -0.00384642 15.3677)
(0.44541 -0.010128 16.9277)
(1.03718 -0.0119919 15.1156)
(0.516925 -0.00701295 11.8093)
(0.576832 0.00881698 10.3919)
(0.415928 0.0168152 8.53788)
(0.322711 0.0230156 7.8511)
(0.250144 0.00536871 6.29919)
(0.111938 -0.00574201 3.42914)
(0.0471684 -0.00950012 1.43155)
(-0.270584 0.00226194 4.24877)
(-0.129533 0.0056617 8.5564)
(-1.07586 -0.00596982 15.6838)
(-0.110709 -0.012364 18.3192)
(-2.4524 -0.00188346 19.997)
(1.72361 -0.00770644 15.3625)
(0.441934 -0.0203565 16.9252)
(1.03074 -0.0214536 15.2505)
(0.516137 -0.00978097 12.0893)
(0.575128 0.0174016 10.6205)
(0.416437 0.0308031 8.63644)
(0.32572 0.0438063 7.61494)
(0.249495 0.00694018 5.91573)
(0.108773 -0.0121554 3.30808)
(0.054446 -0.013962 1.50713)
(-0.276628 0.00629207 4.04585)
(-0.137959 0.00313976 8.41385)
(-1.07721 -0.011186 15.7895)
(-0.109974 -0.0253298 18.1668)
(-2.47266 -0.00318569 19.7808)
(1.71564 -0.00884159 15.3666)
(0.43826 -0.0239343 16.9698)
(1.02459 -0.0218536 15.4074)
(0.517205 -0.00678523 12.2951)
(0.577598 0.0193223 10.713)
(0.417511 0.0305437 8.68617)
(0.334956 0.042189 7.23817)
(0.248246 0.00586693 5.59532)
(0.100212 -0.0136743 3.50875)
(0.0601507 -0.0062258 1.664)
(-0.295664 0.00783583 3.81446)
(-0.145295 -0.0140451 8.33536)
(-1.08483 -0.00891069 15.7751)
(-0.109362 -0.0215005 17.9404)
(-2.52554 -0.00522316 19.316)
(1.71078 -0.00995908 15.3203)
(0.434939 -0.0293488 16.9701)
(1.0217 -0.0242854 15.5398)
(0.521666 -0.00654498 12.4813)
(0.582382 0.0209645 10.7901)
(0.420154 0.0312135 8.67893)
(0.336353 0.0409164 7.03539)
(0.234558 0.0173953 5.53469)
(0.0855745 0.000585432 3.93256)
(0.0620599 0.0133947 1.93884)
(-0.293304 0.00162741 4.00432)
(-0.14092 -0.0424617 8.83904)
(-1.08394 -0.00892186 15.8151)
(-0.108808 -0.0151968 18.1446)
(-2.49895 -0.00803196 19.4755)
(1.71152 -0.00945883 15.2147)
(0.431614 -0.0315738 16.9734)
(1.01819 -0.0234463 15.7053)
(0.524891 -0.00543103 12.6895)
(0.585667 0.0194534 10.869)
(0.423598 0.0285954 8.63609)
(0.336746 0.0457475 6.94219)
(0.22838 0.0376659 5.45475)
(0.0980737 0.00812971 3.22884)
(0.058054 0.0288564 1.75408)
(-0.274858 -0.00767746 4.83002)
(-0.128006 -0.0185744 9.99919)
(-1.08772 -0.00617683 15.6894)
(-0.108291 -0.0150046 18.2407)
(-2.48289 -0.00873013 19.5603)
(1.72242 -0.00747355 15.0207)
(0.429072 -0.0294289 16.9369)
(1.01501 -0.0206014 15.868)
(0.526784 -0.00534373 12.9106)
(0.587406 0.0145818 10.9694)
(0.427783 0.0242587 8.64969)
(0.34472 0.045186 6.80837)
(0.253972 0.0299036 4.55336)
(0.103937 -0.0032347 2.50246)
(0.0686914 0.0366366 1.29864)
(-0.283014 -0.0123623 4.56296)
(-0.133418 0.0304948 9.54217)
(-1.08985 -0.00240918 15.7714)
(-0.109877 -0.0159472 18.3245)
(-2.47712 -0.00913183 19.5576)
(1.74829 -0.00346249 14.721)
(0.428783 -0.0173671 16.8225)
(1.01409 -0.0118698 15.9752)
(0.526404 -0.00348328 13.1158)
(0.586554 0.00709247 11.092)
(0.425831 0.0140511 8.76481)
(0.356574 0.0297404 6.4626)
(0.248572 0.0118217 4.38427)
(0.098402 -0.00680899 2.75481)
(0.1142 0.0159857 0.71514)
(-0.323749 -0.00750663 3.73207)
(-0.144942 0.0329539 8.79622)
(-1.0906 -0.00321287 15.9151)
(-0.11182 -0.0147907 18.2686)
(-2.49311 -0.00807467 19.3859)
(1.76096 0.00160178 14.5949)
(0.429516 0.00368901 16.7476)
(1.0157 0.0021139 15.975)
(0.526765 0.00104526 13.1655)
(0.586683 -0.000181957 11.1273)
(0.424545 0.00118806 8.84885)
(0.362567 0.00609446 6.38414)
(0.261574 0.0144711 4.01747)
(0.0931828 -0.00120662 2.55451)
(0.0880439 -0.0215225 0.9686)
(-0.329018 -0.00129555 3.50915)
(-0.157038 0.000230459 8.21486)
(-1.09674 -0.00306593 15.9258)
(-0.113853 -0.00285352 18.0738)
(-2.53458 -0.00885757 19.03)
(1.74159 0.00624568 14.8019)
(0.428624 0.0226678 16.8444)
(1.01387 0.015227 15.9555)
(0.526419 0.00529182 13.0812)
(0.586943 -0.00718874 11.0816)
(0.426896 -0.0112799 8.79039)
(0.361317 -0.0254394 6.44512)
(0.27142 -0.00982943 3.9493)
(0.106978 0.00829942 2.17293)
(0.0568965 -0.00153733 1.34967)
(-0.296886 -0.0073737 4.02205)
(-0.153571 -0.0434192 8.45386)
(-1.08729 -0.00443192 15.9878)
(-0.114893 0.00979313 18.3054)
(-2.48211 -0.00974442 19.4265)
(1.71905 0.00962535 15.0881)
(0.429223 0.0321799 16.9462)
(1.01478 0.0228659 15.8392)
(0.526346 0.00689232 12.8696)
(0.587709 -0.0139908 10.9636)
(0.429086 -0.0230975 8.65767)
(0.352257 -0.0484182 6.64936)
(0.250986 -0.0352371 4.54672)
(0.108893 0.00671714 2.37005)
(0.0412631 0.00857404 1.46223)
(-0.251669 0.00785537 5.28577)
(-0.139137 -0.0356245 9.38352)
(-1.08844 -0.00616879 15.7983)
(-0.115788 0.0100175 18.3622)
(-2.45881 -0.00825268 19.6129)
(1.71006 0.0111337 15.2758)
(0.431803 0.0330622 16.9801)
(1.01777 0.0250613 15.6748)
(0.524088 0.00683322 12.6474)
(0.585979 -0.0187567 10.8518)
(0.426202 -0.0293896 8.607)
(0.339911 -0.0489308 6.89742)
(0.229195 -0.0344619 5.39191)
(0.0995483 -0.00100709 3.20331)
(0.0711149 -0.00198818 1.2677)
(-0.284015 0.0165651 4.81761)
(-0.134207 0.0166087 10.1504)
(-1.08775 -0.00150311 15.7429)
(-0.116852 0.0083992 18.2935)
(-2.46406 -0.00683105 19.5722)
(1.71095 0.0111349 15.3719)
(0.435193 0.0296887 16.9725)
(1.02152 0.0252599 15.5066)
(0.520703 0.00766535 12.4362)
(0.582915 -0.0207635 10.7603)
(0.422294 -0.0320674 8.63669)
(0.337819 -0.0429916 7.02543)
(0.234261 -0.017461 5.57004)
(0.0947982 0.0060942 3.67891)
(0.0614421 0.0043949 1.65803)
(-0.296102 0.00514567 4.22017)
(-0.147347 0.0466917 9.22033)
(-1.08451 0.00361478 15.8602)
(-0.119622 0.00999296 18.2079)
(-2.47735 -0.00483439 19.4692)
(1.71708 0.00956479 15.4086)
(0.438487 0.0237492 16.9714)
(1.02451 0.0224647 15.3759)
(0.515991 0.00763381 12.2505)
(0.578148 -0.0193381 10.6742)
(0.418641 -0.0313455 8.66607)
(0.338667 -0.0411938 7.18585)
(0.248421 -0.00342253 5.62794)
(0.112982 0.0158446 3.28959)
(0.0579184 0.0315193 1.54725)
(-0.310999 0.00107485 3.72327)
(-0.15905 0.0309153 8.48518)
(-1.08703 0.00591862 15.8656)
(-0.1226 0.0177426 18.0023)
(-2.4996 -0.004433 19.3106)
(1.72589 0.00813071 15.3974)
(0.442129 0.0198563 16.9264)
(1.03079 0.021752 15.2203)
(0.514858 0.0103435 12.0426)
(0.575508 -0.017549 10.5789)
(0.417607 -0.0316653 8.62393)
(0.330338 -0.0445601 7.56074)
(0.25614 -0.00614203 5.77929)
(0.121657 0.0150094 3.15813)
(0.061551 0.0595315 1.27815)
(-0.304827 -0.00801775 3.751)
(-0.154755 0.00386773 8.49604)
(-1.08113 0.00838424 15.8834)
(-0.124603 0.0225662 18.2198)
(-2.44532 -0.00443725 19.7705)
(1.73329 0.00400725 15.397)
(0.445505 0.00977334 16.9303)
(1.03714 0.0120522 15.0907)
(0.515388 0.00723355 11.7663)
(0.576828 -0.00894655 10.3517)
(0.416507 -0.0173512 8.52618)
(0.326899 -0.024525 7.79758)
(0.252759 -0.00661025 6.29077)
(0.129306 0.00914678 3.30996)
(0.0562519 0.0499878 0.928483)
(-0.29032 -0.00594724 4.05523)
(-0.146635 -0.00302769 8.63356)
(-1.08129 0.00452275 15.7781)
(-0.126639 0.0109497 18.3671)
(-2.42302 -0.00179308 19.9855)
(5.06007 -0.0107777 14.8914)
(1.39193 -0.0293417 16.8537)
(3.06718 -0.0381592 15.4701)
(1.66597 -0.0265133 12.1086)
(1.7054 0.0228334 10.5325)
(1.27695 0.0506188 8.72878)
(0.972158 0.073257 7.95629)
(0.758278 0.022591 6.47733)
(0.338374 -0.0170218 3.74518)
(0.1294 -0.0276212 1.65198)
(-0.763217 0.00636276 4.59901)
(-0.463664 0.012957 9.08079)
(-3.12431 -0.02196 16.2851)
(-0.241277 -0.0360424 18.4617)
(-7.26898 -0.00287234 20.0622)
(5.04131 -0.0210301 14.8927)
(1.37654 -0.0567491 16.8467)
(3.05029 -0.0663753 15.5843)
(1.66198 -0.0375336 12.3669)
(1.70365 0.0455386 10.7663)
(1.27868 0.0888208 8.84258)
(0.978916 0.133404 7.7582)
(0.753113 0.031493 6.11101)
(0.326977 -0.0362165 3.61091)
(0.149298 -0.0386077 1.70287)
(-0.777316 0.0151249 4.41202)
(-0.492213 0.0017058 8.97928)
(-3.12841 -0.0415962 16.3702)
(-0.246093 -0.0717012 18.2966)
(-7.31768 -0.00201648 19.8537)
(5.0214 -0.0235187 14.9025)
(1.36131 -0.0652338 16.8865)
(3.03352 -0.0672306 15.7278)
(1.66096 -0.0279859 12.5666)
(1.70995 0.0512046 10.8694)
(1.28145 0.0864025 8.89972)
(1.00374 0.125702 7.4219)
(0.752949 0.026407 5.78032)
(0.304229 -0.0411777 3.76334)
(0.157232 -0.0208833 1.83653)
(-0.823979 0.0158997 4.21855)
(-0.519465 -0.0422294 8.92918)
(-3.14439 -0.0318721 16.3432)
(-0.269136 -0.0618111 18.0531)
(-7.44689 -0.0109105 19.4021)
(5.00854 -0.0260539 14.8628)
(1.34769 -0.0802931 16.8793)
(3.02473 -0.0767815 15.8445)
(1.67216 -0.028261 12.7467)
(1.72473 0.05582 10.9575)
(1.29012 0.0889198 8.90262)
(1.00894 0.120189 7.23206)
(0.714662 0.0537032 5.69546)
(0.259185 0.000615895 4.1239)
(0.167886 0.0249623 2.08331)
(-0.816819 -0.00618008 4.42221)
(-0.502779 -0.117266 9.37686)
(-3.14461 -0.0287041 16.3877)
(-0.253439 -0.0469005 18.25)
(-7.38067 -0.0244181 19.5591)
(5.01009 -0.0237822 14.7627)
(1.33676 -0.0858632 16.8687)
(3.01415 -0.0757826 15.9924)
(1.67899 -0.0238066 12.9516)
(1.73399 0.0519213 11.0495)
(1.29988 0.0801139 8.86922)
(1.0104 0.129297 7.13885)
(0.696968 0.110429 5.62336)
(0.291364 0.0239504 3.50087)
(0.162706 0.0562459 1.93213)
(-0.778577 -0.0249767 5.2171)
(-0.461377 -0.0526659 10.3657)
(-3.15463 -0.0219435 16.2643)
(-0.243081 -0.0463257 18.3452)
(-7.33993 -0.0268487 19.6428)
(5.03704 -0.0174989 14.5718)
(1.33328 -0.0800815 16.8115)
(3.00464 -0.0688919 16.1338)
(1.68268 -0.022204 13.1677)
(1.7389 0.0383068 11.1612)
(1.31119 0.0666514 8.88982)
(1.03196 0.127573 7.03506)
(0.764196 0.091204 4.83599)
(0.310662 -0.00793735 2.80933)
(0.189473 0.0713383 1.51858)
(-0.796161 -0.0258051 4.94422)
(-0.481353 0.0786116 9.97192)
(-3.16109 -0.0130139 16.3521)
(-0.246188 -0.0479044 18.4193)
(-7.32407 -0.0282536 19.6374)
(5.10063 -0.00686157 14.2721)
(1.34424 -0.0470194 16.6715)
(3.00161 -0.0406801 16.2179)
(1.68116 -0.0137845 13.365)
(1.7363 0.0179155 11.29)
(1.30455 0.0373745 9.00779)
(1.06098 0.082964 6.74057)
(0.758996 0.0381132 4.62198)
(0.297732 -0.0235554 3.00821)
(0.283941 0.0294115 1.04739)
(-0.888916 -0.014859 4.18715)
(-0.52222 0.0823834 9.34801)
(-3.16151 -0.0169052 16.4886)
(-0.261349 -0.0434503 18.3509)
(-7.36197 -0.0235452 19.465)
(5.13176 0.00452647 14.1457)
(1.35224 0.0102401 16.5882)
(3.00553 0.00733338 16.21)
(1.68285 0.003212 13.411)
(1.73665 -0.000734283 11.3256)
(1.3004 0.00208105 9.08802)
(1.0765 0.0144814 6.68263)
(0.793288 0.0388598 4.30393)
(0.289219 -0.00617891 2.79089)
(0.212842 -0.0468085 1.20625)
(-0.901899 -0.00988329 3.95926)
(-0.565486 0.0013144 8.85833)
(-3.17504 -0.0107941 16.4921)
(-0.289319 -0.0115913 18.1429)
(-7.46085 -0.0308968 19.1164)
(5.08452 0.0150051 14.3538)
(1.34019 0.0616132 16.7003)
(3.00119 0.0515159 16.2021)
(1.68094 0.0191811 13.331)
(1.73726 -0.0187678 11.2765)
(1.30716 -0.0314019 9.03047)
(1.07313 -0.0731701 6.73458)
(0.817013 -0.0370267 4.26733)
(0.332545 0.0177732 2.4716)
(0.150626 -0.000641023 1.51756)
(-0.831815 -0.0358575 4.40495)
(-0.54795 -0.112286 9.05414)
(-3.15506 -0.00881731 16.5591)
(-0.268562 0.0222838 18.3861)
(-7.33162 -0.0391957 19.5)
(5.02908 0.0240315 14.639)
(1.33198 0.0876312 16.8271)
(3.00442 0.0753368 16.1087)
(1.68118 0.0266478 13.1268)
(1.73949 -0.0370582 11.1513)
(1.31423 -0.0641664 8.89903)
(1.05149 -0.137147 6.89363)
(0.758539 -0.108729 4.81241)
(0.32593 0.0109119 2.68482)
(0.119737 0.0266908 1.66568)
(-0.725897 0.0129504 5.5607)
(-0.49977 -0.0978992 9.82318)
(-3.16017 -0.016084 16.3751)
(-0.262129 0.023991 18.4554)
(-7.27286 -0.0331544 19.6768)
(5.00702 0.0287925 14.8228)
(1.33659 0.0901143 16.8813)
(3.01348 0.0802412 15.9657)
(1.67634 0.0278039 12.9095)
(1.73428 -0.0501523 11.0294)
(1.30669 -0.0826467 8.84119)
(1.01964 -0.140039 7.09495)
(0.69938 -0.104854 5.56054)
(0.295897 -0.0112603 3.46169)
(0.191755 -0.00496574 1.50221)
(-0.801929 0.046581 5.21867)
(-0.483291 0.0408026 10.5075)
(-3.1587 -0.00462006 16.3072)
(-0.270484 0.0209709 18.3903)
(-7.28442 -0.0278251 19.63)
(5.00956 0.0296249 14.9133)
(1.34812 0.0814107 16.8866)
(3.02455 0.0791244 15.8147)
(1.6691 0.0313843 12.7019)
(1.72553 -0.05544 10.9255)
(1.29564 -0.0918369 8.86074)
(1.01319 -0.127465 7.21353)
(0.712612 -0.0587193 5.72463)
(0.283721 0.0100558 3.88418)
(0.160794 0.00345986 1.81587)
(-0.830146 0.0211171 4.63192)
(-0.525006 0.123132 9.71256)
(-3.15022 0.00997329 16.4188)
(-0.289078 0.0260783 18.3021)
(-7.31592 -0.0201683 19.5207)
(5.02564 0.025829 14.9432)
(1.36204 0.0648846 16.8919)
(3.03358 0.0684681 15.6994)
(1.65725 0.0303142 12.5224)
(1.71066 -0.0513345 10.8286)
(1.2841 -0.0893731 8.87702)
(1.01337 -0.124388 7.36719)
(0.752603 -0.0212375 5.80013)
(0.336988 0.0414213 3.55694)
(0.142923 0.0662097 1.69845)
(-0.86351 0.0103911 4.15327)
(-0.566785 0.0825289 9.07901)
(-3.15541 0.0206146 16.4169)
(-0.311928 0.0462753 18.1008)
(-7.36925 -0.0218385 19.3617)
(5.04767 0.0224311 14.9261)
(1.37755 0.055439 16.8511)
(3.05065 0.0667044 15.5571)
(1.65817 0.0390471 12.321)
(1.70385 -0.0460699 10.7223)
(1.28128 -0.0917708 8.82611)
(0.990809 -0.136968 7.70472)
(0.769966 -0.0318108 5.97961)
(0.360835 0.0425204 3.45181)
(0.152189 0.13618 1.47591)
(-0.847279 -0.0187984 4.16928)
(-0.551217 0.0145849 9.0719)
(-3.14367 0.0314568 16.4466)
(-0.294138 0.059672 18.3353)
(-7.23491 -0.0241289 19.8066)
(5.0677 0.0113297 14.9191)
(1.39277 0.0283513 16.8586)
(3.06733 0.0380377 15.4477)
(1.6614 0.0270901 12.0665)
(1.70439 -0.0232827 10.4897)
(1.27765 -0.0524276 8.71242)
(0.982723 -0.0782617 7.89995)
(0.765245 -0.0279982 6.45959)
(0.384031 0.0268186 3.62812)
(0.139421 0.124857 1.21855)
(-0.814444 -0.0151872 4.43219)
(-0.525692 -0.00509662 9.1674)
(-3.14492 0.0166287 16.36)
(-0.293639 0.0297034 18.4929)
(-7.17944 -0.0099451 20.0101)
(8.15328 -0.0161777 13.6773)
(2.53626 -0.0426175 16.7201)
(5.09783 -0.0645987 15.9805)
(3.09392 -0.0565403 12.7998)
(2.83594 0.0241266 10.8702)
(2.18482 0.0796982 9.11636)
(1.63681 0.126102 8.21558)
(1.26955 0.053441 6.83999)
(0.564031 -0.0246497 4.3316)
(0.201247 -0.0416255 2.16411)
(-1.2439 0.00841349 5.30282)
(-0.955566 0.0105728 10.167)
(-5.11427 -0.0456465 17.2605)
(-0.314775 -0.0551699 18.8653)
(-12.0844 -0.00165407 19.8936)
(8.12905 -0.0302836 13.6938)
(2.49929 -0.0786956 16.7116)
(5.07074 -0.109149 16.0632)
(3.08194 -0.0811204 13.0161)
(2.83733 0.0524882 11.1036)
(2.18903 0.133767 9.25352)
(1.64508 0.216545 8.07976)
(1.25595 0.0764257 6.50977)
(0.54048 -0.053823 4.17633)
(0.225392 -0.0561286 2.18019)
(-1.26558 0.0146414 5.1505)
(-1.00856 -0.0156925 10.1245)
(-5.12069 -0.0889317 17.3078)
(-0.343416 -0.105315 18.6846)
(-12.1431 0.00738969 19.6947)
(8.10622 -0.0322406 13.7151)
(2.46489 -0.0885591 16.7459)
(5.04359 -0.111593 16.1828)
(3.07017 -0.0654569 13.1991)
(2.84343 0.0628277 11.2222)
(2.19186 0.128834 9.32593)
(1.67993 0.200317 7.81604)
(1.26404 0.0643669 6.17522)
(0.510407 -0.0618747 4.25227)
(0.216938 -0.0358684 2.27745)
(-1.33064 0.0083571 5.0214)
(-1.06155 -0.0691269 10.1161)
(-5.13826 -0.0661021 17.2521)
(-0.448687 -0.0942168 18.4206)
(-12.3044 -0.0123043 19.2556)
(8.09057 -0.0337013 13.689)
(2.43417 -0.109903 16.7299)
(5.02588 -0.133005 16.2719)
(3.08199 -0.0697153 13.3637)
(2.8683 0.069335 11.3266)
(2.20838 0.134259 9.34866)
(1.69161 0.190084 7.65211)
(1.2096 0.0939887 6.05417)
(0.433754 -0.000471897 4.51308)
(0.238757 0.0155791 2.47547)
(-1.31446 -0.0347233 5.23104)
(-1.03061 -0.167391 10.4689)
(-5.14229 -0.0518221 17.3038)
(-0.385524 -0.0785897 18.6002)
(-12.2201 -0.0441765 19.4117)
(8.09367 -0.0274921 13.599)
(2.41542 -0.116519 16.6981)
(5.00733 -0.135622 16.3866)
(3.08558 -0.0607953 13.5563)
(2.88125 0.0653143 11.4398)
(2.2233 0.118768 9.33636)
(1.69524 0.19263 7.56152)
(1.1823 0.171526 5.9914)
(0.47691 0.0354987 4.01055)
(0.241818 0.0409698 2.37847)
(-1.26494 -0.0493836 5.94832)
(-0.961668 -0.0788371 11.1901)
(-5.15715 -0.0448105 17.1859)
(-0.344607 -0.0774637 18.6908)
(-12.167 -0.049393 19.4945)
(8.12716 -0.0165798 13.4137)
(2.41935 -0.108671 16.6047)
(4.99222 -0.128244 16.4857)
(3.0859 -0.0554374 13.757)
(2.88803 0.0463969 11.5695)
(2.23897 0.0960283 9.37188)
(1.72474 0.187564 7.50073)
(1.27365 0.1494 5.38406)
(0.515017 -0.0103151 3.38802)
(0.280922 0.0481065 2.02466)
(-1.28665 -0.0286206 5.67678)
(-1.00146 0.0981404 10.9006)
(-5.16612 -0.035492 17.2791)
(-0.344676 -0.0795291 18.7456)
(-12.1428 -0.054042 19.4822)
(8.20367 -0.00292807 13.1125)
(2.46349 -0.0632747 16.4168)
(4.99021 -0.0778531 16.5225)
(3.08124 -0.033256 13.9333)
(2.88284 0.0197515 11.707)
(2.22623 0.0509588 9.49506)
(1.75982 0.119053 7.29149)
(1.28356 0.0674118 5.13232)
(0.501928 -0.0413436 3.50037)
(0.371562 0.0106642 1.68294)
(-1.4085 -0.0135306 5.04606)
(-1.07512 0.0967873 10.4678)
(-5.16292 -0.0466138 17.3976)
(-0.395759 -0.0700753 18.6555)
(-12.186 -0.0426643 19.3028)
(8.24122 0.0060638 12.9845)
(2.4907 0.0142603 16.318)
(4.99715 0.014226 16.4985)
(3.08475 0.00598409 13.9705)
(2.88356 -0.00153406 11.7425)
(2.21877 0.000167948 9.56822)
(1.77908 0.0147154 7.26443)
(1.33151 0.0505411 4.88896)
(0.50257 -0.0133981 3.27245)
(0.259145 -0.0548745 1.74631)
(-1.43313 -0.0194014 4.83671)
(-1.15737 -0.000557522 10.121)
(-5.1781 -0.0225905 17.3815)
(-0.498626 -0.0274907 18.4311)
(-12.3039 -0.0629825 18.9598)
(8.18567 0.0148524 13.1951)
(2.45073 0.0838197 16.4599)
(4.98918 0.0976115 16.5158)
(3.08054 0.0426804 13.9014)
(2.884 -0.0223284 11.6884)
(2.22902 -0.0467909 9.5111)
(1.77487 -0.111185 7.29927)
(1.35876 -0.0747173 4.89409)
(0.575775 0.0118761 3.04623)
(0.213904 -0.00150005 1.95903)
(-1.34713 -0.0764422 5.17589)
(-1.1193 -0.145313 10.249)
(-5.15609 -0.00425073 17.4631)
(-0.401155 0.0173003 18.6845)
(-12.1403 -0.0881868 19.3282)
(8.11851 0.0274033 13.4802)
(2.41327 0.119822 16.632)
(4.99209 0.138456 16.4687)
(3.08313 0.0623537 13.7174)
(2.88817 -0.045696 11.5522)
(2.24168 -0.094811 9.3806)
(1.75116 -0.204338 7.38839)
(1.27055 -0.180841 5.34166)
(0.539139 -0.00509077 3.27445)
(0.194026 0.0384591 2.14226)
(-1.20475 -0.00224559 6.13203)
(-1.03772 -0.135421 10.7713)
(-5.16866 -0.0216469 17.2937)
(-0.364845 0.0227198 18.7715)
(-12.0622 -0.0762628 19.4899)
(8.09074 0.0365871 13.6573)
(2.41259 0.123038 16.72)
(5.00698 0.141802 16.3676)
(3.08072 0.0665813 13.5155)
(2.88016 -0.0634632 11.4146)
(2.2315 -0.12376 9.30896)
(1.70948 -0.213248 7.51835)
(1.18635 -0.172989 5.92827)
(0.483074 -0.0391044 3.95413)
(0.270514 -0.00607261 2.04022)
(-1.29696 0.0641866 5.96386)
(-1.00706 0.0493814 11.3123)
(-5.16892 -0.00886512 17.2065)
(-0.392478 0.0203533 18.7114)
(-12.0718 -0.0664839 19.4286)
(8.09276 0.0406167 13.7372)
(2.43413 0.111755 16.7452)
(5.02668 0.135062 16.2494)
(3.07673 0.0738228 13.3204)
(2.86772 -0.0694676 11.2908)
(2.21473 -0.140217 9.30657)
(1.69826 -0.204994 7.61978)
(1.20304 -0.111081 6.06983)
(0.467157 -0.00794901 4.29281)
(0.215515 -0.00649986 2.24027)
(-1.33968 0.0402222 5.42263)
(-1.07704 0.163486 10.7321)
(-5.15765 0.0115515 17.3061)
(-0.451957 0.0291928 18.6184)
(-12.1057 -0.0491878 19.3023)
(8.11252 0.0366612 13.7533)
(2.4663 0.0883396 16.7573)
(5.04481 0.112144 16.1609)
(3.06395 0.0684461 13.1567)
(2.84238 -0.0633995 11.1778)
(2.19372 -0.135017 9.29774)
(1.69281 -0.203176 7.75724)
(1.26016 -0.0615359 6.17253)
(0.554539 0.0447061 4.05555)
(0.1807 0.0650483 2.11402)
(-1.38818 0.0236161 4.99064)
(-1.15383 0.113357 10.2599)
(-5.16286 0.0397093 17.2898)
(-0.527917 0.0555899 18.4284)
(-12.1682 -0.0561337 19.1377)
(8.13808 0.033027 13.7243)
(2.50154 0.0770837 16.7205)
(5.07228 0.108321 16.0421)
(3.07564 0.0827789 12.9726)
(2.83548 -0.0537814 11.0557)
(2.19033 -0.139559 9.22895)
(1.66038 -0.225676 8.02556)
(1.27489 -0.083955 6.38669)
(0.588143 0.0512613 3.99907)
(0.200093 0.145375 1.95238)
(-1.36379 -0.0270146 4.98121)
(-1.12362 0.0315497 10.2299)
(-5.15043 0.0658384 17.3468)
(-0.435082 0.0729117 18.6842)
(-11.9964 -0.0641463 19.564)
(8.16392 0.017321 13.702)
(2.53839 0.0413011 16.7281)
(5.09904 0.0636484 15.9631)
(3.0864 0.0569976 12.76)
(2.83201 -0.0251437 10.8232)
(2.18276 -0.0832577 9.09096)
(1.6497 -0.1354 8.15314)
(1.27563 -0.0662577 6.80535)
(0.626535 0.0340711 4.20653)
(0.194896 0.147905 1.80358)
(-1.31876 -0.0232471 5.17277)
(-1.08109 0.000327024 10.2648)
(-5.15431 0.0331205 17.2939)
(-0.414781 0.0375595 18.8511)
(-11.9237 -0.0265694 19.7498)
(10.6561 -0.0181858 11.4346)
(4.09231 -0.0451181 16.4341)
(7.0721 -0.0815551 16.5131)
(4.96622 -0.0917687 13.9245)
(4.09162 0.00204378 11.5543)
(3.17245 0.0914016 9.72765)
(2.3422 0.168953 8.67854)
(1.78006 0.0966445 7.40177)
(0.793187 -0.022567 5.1529)
(0.231627 -0.0488586 3.00517)
(-1.72387 0.00650592 6.4222)
(-1.80748 -0.00566111 11.8344)
(-6.93856 -0.0776276 18.4787)
(-0.912873 -0.0648713 19.6371)
(-16.5536 -0.000430145 18.9827)
(10.6408 -0.0324211 11.4738)
(4.03082 -0.079471 16.4374)
(7.03098 -0.136249 16.5644)
(4.93738 -0.134245 14.0851)
(4.09077 0.0226662 11.7695)
(3.17836 0.150784 9.8863)
(2.35106 0.275587 8.61347)
(1.75929 0.138285 7.12564)
(0.756648 -0.0573512 4.978)
(0.246999 -0.06784 2.99159)
(-1.75741 0.00153944 6.3228)
(-1.88568 -0.0520877 11.8439)
(-6.94939 -0.157047 18.4773)
(-0.988851 -0.117064 19.4421)
(-16.5963 0.0208819 18.7879)
(10.6288 -0.0308007 11.5097)
(3.97657 -0.0853592 16.4734)
(6.99187 -0.143491 16.6553)
(4.90643 -0.117077 14.2386)
(4.08798 0.0393115 11.8969)
(3.17771 0.147347 9.97857)
(2.38826 0.253874 8.44049)
(1.78097 0.117949 6.81118)
(0.727867 -0.0672611 4.97272)
(0.208602 -0.0501774 3.0553)
(-1.83415 -0.0155277 6.2711)
(-1.9646 -0.0959354 11.8709)
(-6.97679 -0.115417 18.3822)
(-1.24492 -0.113784 19.1523)
(-16.7228 -0.0152679 18.3499)
(10.6199 -0.0265795 11.5039)
(3.92576 -0.102771 16.4557)
(6.95989 -0.178377 16.7112)
(4.90791 -0.130879 14.3758)
(4.11822 0.0445251 12.0141)
(3.20323 0.156133 10.0278)
(2.40926 0.241332 8.31613)
(1.72532 0.139491 6.65936)
(0.622466 0.00165685 5.12581)
(0.237914 -0.00999363 3.20108)
(-1.80541 -0.0803009 6.46382)
(-1.92148 -0.189396 12.1177)
(-6.97888 -0.0797035 18.44)
(-1.09288 -0.109271 19.3091)
(-16.6532 -0.0751283 18.5115)
(10.6246 -0.0123249 11.4323)
(3.89615 -0.104067 16.4012)
(6.93146 -0.188813 16.7795)
(4.89938 -0.11999 14.5414)
(4.12827 0.0441071 12.1464)
(3.22107 0.136937 10.0482)
(2.41745 0.229472 8.2369)
(1.69195 0.214797 6.60263)
(0.667213 0.0424355 4.74647)
(0.258692 -0.00526287 3.1576)
(-1.74053 -0.0810467 7.04769)
(-1.83158 -0.0982648 12.5635)
(-6.99396 -0.078201 18.3349)
(-0.995025 -0.107551 19.3932)
(-16.6075 -0.0850424 18.5949)
(10.651 0.00527021 11.2636)
(3.9104 -0.0936336 16.2629)
(6.91493 -0.185773 16.8168)
(4.89031 -0.110681 14.7093)
(4.13141 0.0259675 12.291)
(3.23721 0.106742 10.1059)
(2.44765 0.216883 8.21774)
(1.78975 0.19538 6.18627)
(0.733098 -0.010529 4.22235)
(0.306635 -0.0131221 2.85883)
(-1.76973 -0.0291144 6.80053)
(-1.89637 0.080848 12.3895)
(-7.00162 -0.0754599 18.4249)
(-0.984383 -0.113505 19.4209)
(-16.5768 -0.0964979 18.5697)
(10.7047 0.0133823 10.9713)
(4.00058 -0.0509352 16.0089)
(6.92762 -0.115704 16.7816)
(4.88314 -0.0662816 14.846)
(4.11961 0.00605219 12.4319)
(3.21632 0.0522729 10.235)
(2.47688 0.132222 8.10313)
(1.81998 0.0938173 5.93929)
(0.728117 -0.0594705 4.24374)
(0.357804 -0.0344489 2.61811)
(-1.91149 -0.0123044 6.33245)
(-1.99924 0.0719343 12.1538)
(-6.9984 -0.0988456 18.5112)
(-1.0992 -0.0976493 19.301)
(-16.5976 -0.0755096 18.3703)
(10.7283 0.00223035 10.843)
(4.05258 0.0132903 15.8858)
(6.94354 0.0217843 16.7331)
(4.89009 0.010656 14.8679)
(4.1206 -0.00163182 12.4648)
(3.20559 -0.00415343 10.2985)
(2.49182 0.00627758 8.10591)
(1.8723 0.0454014 5.77381)
(0.748935 -0.0261261 4.02528)
(0.206922 -0.0657419 2.62474)
(-1.95662 -0.0321183 6.17802)
(-2.12089 -0.00957081 11.9492)
(-7.02158 -0.042909 18.462)
(-1.33504 -0.0597535 19.0581)
(-16.6794 -0.116532 18.0236)
(10.6916 -0.0030243 11.0486)
(3.97652 0.0710663 16.0715)
(6.92288 0.144213 16.7906)
(4.88135 0.0814537 14.8197)
(4.12096 -0.00992757 12.4078)
(3.21801 -0.0550369 10.2408)
(2.48956 -0.135441 8.11849)
(1.89408 -0.117191 5.80931)
(0.843279 -0.0117399 3.89396)
(0.208138 -0.0118168 2.75337)
(-1.86585 -0.118755 6.3943)
(-2.06476 -0.142057 12.0125)
(-6.99159 0.00634917 18.5645)
(-1.09756 -0.0183519 19.3219)
(-16.5437 -0.168219 18.3864)
(10.646 0.0103706 11.3233)
(3.90163 0.105795 16.307)
(6.91456 0.198545 16.8139)
(4.88635 0.119756 14.6743)
(4.13048 -0.0265973 12.2652)
(3.23696 -0.109844 10.1097)
(2.47489 -0.243456 8.13618)
(1.79132 -0.243656 6.13286)
(0.761458 -0.0448119 4.12015)
(0.221557 0.0376874 2.94548)
(-1.69983 -0.0339264 7.09129)
(-1.96314 -0.142326 12.2885)
(-7.00888 -0.0289215 18.4237)
(-1.0062 -0.00579777 19.4242)
(-16.4693 -0.148193 18.5266)
(10.6255 0.0265505 11.4846)
(3.894 0.112542 16.437)
(6.93238 0.196099 16.7732)
(4.8924 0.126662 14.5047)
(4.12433 -0.0432141 12.1151)
(3.22636 -0.145303 10.0194)
(2.43331 -0.262258 8.19312)
(1.69571 -0.234111 6.53874)
(0.671769 -0.0855258 4.67339)
(0.273923 -0.00863829 2.9065)
(-1.78154 0.0678399 7.07069)
(-1.91487 0.0442038 12.6623)
(-7.01667 -0.021217 18.3223)
(-1.06883 -0.00919082 19.3678)
(-16.4621 -0.134962 18.4374)
(10.624 0.0384175 11.5481)
(3.92555 0.107249 16.4811)
(6.96227 0.179401 16.6998)
(4.90078 0.134327 14.3368)
(4.1145 -0.0460471 11.9741)
(3.20631 -0.166055 9.98413)
(2.41652 -0.266678 8.26876)
(1.71084 -0.173242 6.65538)
(0.656452 -0.0510205 4.92387)
(0.193272 -0.0216147 3.00768)
(-1.84278 0.0602632 6.62407)
(-2.00831 0.164685 12.3055)
(-7.00962 0.00141931 18.4)
(-1.19914 0.00427492 19.2656)
(-16.4718 -0.104119 18.279)
(10.6359 0.0388374 11.5447)
(3.97863 0.0872744 16.4911)
(6.99533 0.142378 16.6427)
(4.89843 0.119107 14.2007)
(4.08326 -0.0409018 11.8493)
(3.17475 -0.157359 9.94238)
(2.40007 -0.266394 8.37589)
(1.76931 -0.125056 6.78229)
(0.773501 0.017287 4.77844)
(0.142365 0.0397081 2.88119)
(-1.91311 0.0360003 6.27738)
(-2.12085 0.122712 12.0029)
(-7.0208 0.0608394 18.3622)
(-1.37179 0.0302702 19.09)
(-16.5074 -0.117806 18.0997)
(10.6501 0.0371436 11.5005)
(4.03493 0.0794887 16.4504)
(7.03512 0.133464 16.5518)
(4.92945 0.134553 14.047)
(4.085 -0.0253005 11.7183)
(3.17388 -0.159919 9.8504)
(2.36381 -0.292853 8.55451)
(1.77001 -0.1592 7.01114)
(0.80823 0.0290067 4.78144)
(0.173433 0.106288 2.77442)
(-1.88524 -0.0315574 6.24076)
(-2.07862 0.0545623 11.9616)
(-6.99986 0.109811 18.4553)
(-1.14334 0.0440459 19.3707)
(-16.36 -0.132205 18.5089)
(10.6669 0.0201379 11.4555)
(4.09612 0.0445852 16.4448)
(7.07556 0.0794299 16.5028)
(4.95655 0.0912681 13.8895)
(4.0828 -0.0039769 11.5037)
(3.16297 -0.0970169 9.6902)
(2.35135 -0.18299 8.60636)
(1.77655 -0.119118 7.34558)
(0.857627 0.0207692 5.00985)
(0.194486 0.127959 2.70449)
(-1.82897 -0.0286416 6.3433)
(-2.02408 0.0126799 11.9433)
(-7.00505 0.0509662 18.4434)
(-1.08268 0.0239816 19.5386)
(-16.2918 -0.0547561 18.6741)
(12.5517 -0.0160645 8.78568)
(5.70835 -0.0414195 15.6307)
(8.82719 -0.0823567 16.9218)
(7.2046 -0.118897 15.3876)
(5.64596 -0.0415867 12.7681)
(4.31061 0.0746715 10.6645)
(3.12272 0.18946 9.40291)
(2.30706 0.143385 8.18774)
(1.03269 -0.00974475 6.23024)
(0.193819 -0.0515579 4.21672)
(-2.23443 -0.00249671 8.10523)
(-2.98486 -0.0323517 14.0556)
(-8.52129 -0.110985 20.0543)
(-2.06916 -0.0669296 20.536)
(-20.4714 -0.0110119 17.71)
(12.5561 -0.0268408 8.83755)
(5.6399 -0.067835 15.6602)
(8.77219 -0.136857 16.9561)
(7.15296 -0.177525 15.4914)
(5.62985 -0.0420991 12.9418)
(4.31262 0.126849 10.831)
(3.13064 0.297898 9.40525)
(2.28277 0.202999 7.9788)
(0.985354 -0.0464381 6.04407)
(0.186463 -0.0789304 4.18565)
(-2.28567 -0.0257193 8.06675)
(-3.08758 -0.101935 14.0934)
(-8.54824 -0.230003 19.9975)
(-2.20073 -0.10658 20.3217)
(-20.4665 0.0183718 17.52)
(12.5617 -0.0187598 8.87838)
(5.57894 -0.0621762 15.7064)
(8.72178 -0.147035 17.0254)
(7.10006 -0.165274 15.6077)
(5.60645 -0.0208204 13.0612)
(4.30129 0.129608 10.9376)
(3.16103 0.276233 9.324)
(2.31719 0.175521 7.71377)
(0.965608 -0.0571645 5.97257)
(0.115434 -0.0666075 4.22742)
(-2.36919 -0.0503791 8.08545)
(-3.19491 -0.124428 14.1364)
(-8.61662 -0.171271 19.8566)
(-2.61509 -0.126516 19.9852)
(-20.494 -0.0310231 17.0972)
(12.5677 -0.00131843 8.89505)
(5.5144 -0.0621566 15.6989)
(8.67204 -0.18764 17.053)
(7.0797 -0.192972 15.707)
(5.62985 -0.0234453 13.1768)
(4.33325 0.140178 11.0128)
(3.19199 0.265067 9.25091)
(2.27495 0.185526 7.55211)
(0.840682 0.00896111 6.02956)
(0.150118 -0.0456951 4.32439)
(-2.32614 -0.128724 8.23369)
(-3.14453 -0.193324 14.2882)
(-8.59928 -0.112471 19.9144)
(-2.37448 -0.152188 20.1301)
(-20.4781 -0.126461 17.2574)
(12.5827 0.0231313 8.85818)
(5.47928 -0.0459328 15.6335)
(8.63473 -0.203275 17.071)
(7.0541 -0.18673 15.828)
(5.62618 -0.0192038 13.3124)
(4.34787 0.12318 11.0701)
(3.20595 0.239292 9.19642)
(2.24086 0.241436 7.49875)
(0.880724 0.0429702 5.7549)
(0.203079 -0.0637527 4.31304)
(-2.23935 -0.116037 8.64343)
(-3.05248 -0.116526 14.5102)
(-8.60248 -0.121198 19.8289)
(-2.21928 -0.144886 20.2122)
(-20.4612 -0.149791 17.3312)
(12.5986 0.0383536 8.73758)
(5.49865 -0.0233258 15.4604)
(8.62395 -0.202778 17.033)
(7.03763 -0.176653 15.941)
(5.61726 -0.0315806 13.456)
(4.35788 0.0904707 11.152)
(3.23099 0.216612 9.2124)
(2.33035 0.223383 7.24664)
(0.978361 -0.0154741 5.34243)
(0.253748 -0.0816511 4.0654)
(-2.28517 -0.0386635 8.44898)
(-3.13658 0.0362224 14.4355)
(-8.60312 -0.130736 19.8987)
(-2.1904 -0.154467 20.2071)
(-20.4247 -0.176101 17.2849)
(12.6007 0.0310961 8.50657)
(5.60118 0.00163214 15.1428)
(8.66397 -0.12551 16.9004)
(7.04227 -0.107034 16.0127)
(5.59727 -0.0285225 13.5851)
(4.32493 0.0381952 11.2831)
(3.24331 0.124019 9.18109)
(2.37275 0.110144 7.045)
(0.988539 -0.0812656 5.29295)
(0.243945 -0.0880346 3.899)
(-2.44404 -0.0237117 8.15778)
(-3.25479 0.0182299 14.351)
(-8.615 -0.169393 19.9297)
(-2.37432 -0.127025 20.0409)
(-20.389 -0.144461 17.0606)
(12.5961 -0.00283613 8.40318)
(5.65674 0.00471977 14.994)