/*--------------------------------*- C++ -*----------------------------------*\
| =========                 |                                                 |
| \\      /  F ield         | OpenFOAM: The Open Source CFD Toolbox           |
|  \\    /   O peration     | Version:  4.1                                   |
|   \\  /    A nd           | Web:      www.OpenFOAM.org                      |
|    \\/     M anipulation  |                                                 |
\*---------------------------------------------------------------------------*/
FoamFile
{
    version     2.0;
    format      ascii;
    class       volScalarField;
    location    "1188";
    object      p;
}
// * * * * * * * * * * * * * * * * * * * * * * * * * * * * * * * * * * * * * //

dimensions      [0 2 -2 0 0 0 0];

internalField   nonuniform List<scalar> 
204246
(
142.166
-9.28873
47.0639
25.2567
24.5515
30.908
20.2977
32.0425
19.4729
32.5335
19.2159
33.6055
17.9434
34.226
19.4226
31.8086
26.043
20.5722
32.9621
18.1769
34.2983
18.607
32.9664
19.3953
32.836
19.1689
33.6541
17.2792
34.4122
16.7935
34.1004
16.9049
32.6126
19.0056
28.2839
23.9527
17.0283
27.7971
15.4734
25.0274
13.5405
22.2349
10.6164
19.2343
5.46439
15.1964
0.777366
9.56606
-3.77473
1.98606
-8.77202
-5.59633
-10.0981
-20.3099
-11.7384
-24.7312
-14.0135
-26.698
-13.6499
-24.0283
-10.9519
-20.4746
-5.09004
-13.8283
1.34228
-5.46583
6.46821
2.946
11.1159
12.7888
9.3048
19.2339
11.5699
23.8289
13.4318
26.2388
13.7638
28.0209
12.1425
28.9737
11.7707
28.0259
12.5876
24.583
13.3316
21.0109
16.7637
9.78175
18.5474
6.1971
16.8535
2.95752
14.6033
-1.81371
11.6729
-5.21044
7.78603
-8.73096
3.53432
-11.3082
-1.33245
-14.4345
-4.85687
-16.3199
-8.37603
-14.26
-19.566
-9.98919
-22.5044
-8.13935
-24.7744
-6.889
-23.8303
-6.63539
-22.7946
-5.71829
-21.7615
-4.78194
-20.4124
-4.33989
-17.8825
-6.09502
-11.1499
-15.6644
-4.04467
-17.5776
-1.96003
-17.6477
-1.1191
-17.3527
-0.631055
-17.0097
-0.273002
-16.6824
0.0147139
-15.9618
-0.286944
-14.1329
-2.61384
-7.84049
-12.797
-1.26916
-14.9437
0.458503
-15.1071
1.24222
-14.9332
1.74723
-14.5027
2.25057
-13.8535
2.792
-12.7676
3.10567
-10.2321
1.58582
-3.04219
-7.16634
4.84917
-7.72766
8.31173
-5.68556
10.7298
-2.03334
13.3912
2.62534
17.267
8.37719
22.373
15.3605
28.679
24.338
36.6601
35.8933
46.1494
52.6728
54.9117
68.7692
73.3046
86.6134
96.3605
109.732
124.073
138.975
158.915
176.743
205.033
227.687
271.592
300.533
388.268
404.19
611.231
47.219
23.0612
24.7458
28.8864
22.8787
27.9816
23.0541
27.7176
23.237
27.9232
23.3157
28.4408
23.5983
27.8444
25.2755
25.9108
28.6861
23.164
28.7204
23.4902
28.5065
24.1255
28.1886
24.0353
28.3982
23.6712
28.8569
23.1866
28.5774
23.1514
27.9921
23.3901
26.576
24.3404
24.1899
26.6079
21.0449
24.3633
19.9195
23.0203
17.9557
20.7534
15.1756
17.8815
11.3656
13.6737
7.45615
7.88711
3.21325
0.83447
-2.1672
-7.2148
-5.52375
-15.4332
-14.3293
-20.0909
-18.0275
-22.0942
-19.3486
-21.5085
-15.8185
-19.2414
-11.9761
-12.309
-6.7601
-4.06705
-0.885613
3.64666
4.47686
11.014
9.22261
15.9712
13.7606
18.9695
16.2942
21.2109
17.6798
22.8621
17.9502
22.9804
18.1514
22.0979
18.2259
20.5643
18.0683
17.5965
19.3842
13.9567
16.3228
11.5251
13.8977
8.5226
11.3934
4.92205
7.92706
1.39468
4.28867
-2.15312
0.115406
-5.42113
-3.95417
-8.82986
-8.02992
-10.9522
-12.3716
-10.754
-16.8979
-13.0703
-18.3775
-13.2713
-18.934
-13.4971
-18.2686
-12.9998
-17.496
-12.0461
-16.4933
-11.1528
-15.0718
-10.8391
-12.7555
-11.8189
-9.04152
-13.7094
-8.21428
-13.0612
-7.57892
-12.4733
-7.05701
-12.0049
-6.6374
-11.5995
-6.31084
-11.1765
-6.19216
-10.4307
-6.57991
-8.82333
-8.21
-5.63347
-10.6078
-5.3192
-10.3178
-5.01032
-9.97015
-4.61746
-9.59742
-4.25826
-9.16115
-3.86718
-8.56113
-3.5022
-7.53875
-3.46575
-5.38798
-4.37094
-1.54042
-5.71903
-0.0528262
-4.05265
1.75117
-1.73566
4.03022
0.993091
6.93693
4.41438
10.6327
8.92473
15.3672
14.7307
20.7637
22.4738
27.7065
32.2409
35.8778
44.6282
48.317
57.3918
63.9531
73.4738
83.1587
93.6164
106.656
118.238
135.419
148.23
171.442
184.863
220.121
226.76
301.484
266.924
401.603
21.6419
29.9187
27.045
28.3794
25.0495
27.6679
23.9791
27.7567
23.6962
27.9533
23.6677
28.158
23.9365
27.7879
25.0616
26.4563
27.0542
24.5888
27.928
23.9769
28.2905
23.9957
28.2607
23.9611
28.3219
23.7554
28.4747
23.418
28.3666
23.2871
27.9157
23.4743
26.7578
24.1055
24.6136
24.9074
22.1492
24.3335
20.6091
22.5964
18.7998
20.3031
16.4072
17.1518
13.045
12.929
9.03742
7.50688
4.1754
1.14328
-1.48894
-6.18343
-7.78129
-13.3542
-14.3229
-18.9057
-19.2758
-21.905
-20.12
-22.6522
-18.1882
-19.1107
-14.1161
-12.1806
-7.70544
-4.36142
-0.773867
3.42811
5.60704
10.1098
10.4699
15.2203
14.758
18.5034
17.3425
21.0511
18.2967
22.6684
18.4646
23.0713
18.5283
22.4614
18.5054
20.7856
18.4319
18.135
18.1114
14.9479
16.459
12.2495
14.1303
9.29469
11.3456
5.94703
7.90726
2.57033
3.92621
-0.914676
-0.311944
-4.35927
-4.53938
-7.86684
-8.45512
-10.3988
-12.2075
-12.0153
-15.8565
-13.4591
-17.8057
-13.709
-18.6642
-13.5779
-18.4023
-13.0092
-17.6386
-12.0606
-16.5898
-11.1947
-15.1054
-10.8044
-13.02
-11.275
-10.3522
-12.3471
-8.75118
-12.4536
-7.62523
-12.1645
-6.91477
-11.768
-6.43448
-11.3704
-6.10555
-10.9322
-5.98394
-10.2468
-6.30983
-8.97931
-7.49648
-6.92106
-9.22739
-5.81496
-9.7695
-5.05941
-9.75377
-4.55753
-9.48995
-4.15313
-9.08071
-3.75555
-8.47492
-3.39686
-7.47482
-3.30316
-5.63017
-3.8178
-2.74399
-4.47925
-0.561205
-3.65182
1.71278
-1.80253
3.95316
1.10031
6.51671
4.98639
9.99436
9.75798
14.6362
15.7176
20.6642
23.1734
28.166
32.6871
37.7779
44.2958
49.3169
58.3211
64.9325
75.1657
84.8374
96.0926
109.643
122.165
140.75
154.623
180.283
194.957
234.665
242.586
318.746
297.476
386.256
5.43825
21.1214
17.9477
25.0312
21.8249
25.7775
23.3845
25.9006
24.2679
26.1595
24.781
26.3419
25.4531
25.9835
26.5268
25.2671
27.6062
25.0218
27.2137
25.3729
26.925
25.6816
26.8468
25.6302
26.9369
25.4745
27.0053
25.388
26.723
25.4221
26.2233
25.605
25.4002
25.8543
24.3193
25.952
23.5137
24.2983
22.532
22.9061
20.9393
20.9847
18.6609
18.4059
15.6438
14.6237
11.8432
9.57132
6.96197
3.39987
1.05355
-3.84589
-5.43521
-11.3906
-13.5021
-17.6479
-19.7235
-22.1325
-22.6431
-23.4531
-21.7969
-21.0851
-17.959
-15.3228
-11.6076
-7.51056
-4.27671
0.662648
2.73496
8.07313
8.92542
13.1459
14.104
16.8743
17.5213
19.4971
19.3672
21.0141
20.267
21.3192
20.5492
20.8843
20.4842
19.8438
19.953
18.2723
19.2471
16.614
16.8051
14.5255
14.0901
11.8908
11.2071
8.87836
7.71117
5.45688
3.91988
1.73273
-0.164608
-2.15509
-4.23902
-6.03649
-8.31981
-9.24679
-12.099
-11.6271
-14.9236
-14.6418
-16.7586
-15.6821
-17.3355
-15.9616
-17.0846
-15.4286
-16.3047
-14.5043
-15.1486
-13.6172
-13.6787
-13.0494
-11.9306
-12.8117
-10.2988
-12.3236
-9.93284
-11.5614
-9.53541
-10.9261
-9.12316
-10.4169
-8.74708
-9.96966
-8.44803
-9.49635
-8.31434
-8.84004
-8.4725
-7.83454
-9.01363
-6.72981
-9.1473
-6.86079
-8.78787
-6.83212
-8.41536
-6.64808
-8.04359
-6.39631
-7.64157
-6.10685
-7.11608
-5.83518
-6.29293
-5.7578
-4.87266
-5.71696
-3.3666
-5.01045
-2.58307
-3.59985
-1.31274
-1.75414
0.559929
0.458338
2.89579
3.29738
6.00753
6.92189
10.0368
11.5752
14.9599
17.7541
21.2194
25.4737
29.0484
35.2549
39.394
46.3271
52.4451
59.7769
68.4429
76.2679
87.8577
96.1632
111.378
120.158
140.729
147.814
180.864
175.746
233.235
220.1
291.197
7.70102
21.6292
18.8423
23.9716
22.6403
25.2638
23.992
25.7548
24.7107
26.1228
25.0681
26.2178
25.586
26.0044
26.2338
25.6699
26.7544
25.6611
26.6371
25.6813
26.6582
25.6799
26.7486
25.5842
26.8079
25.4953
26.7765
25.4669
26.5564
25.4422
26.1774
25.5617
25.4502
25.5807
24.5451
25.2367
23.9171
24.3976
22.8707
23.0148
21.3819
21.2305
19.3195
18.7377
16.5693
15.2534
12.8955
10.6698
8.11239
4.8165
2.20258
-2.27611
-4.87326
-9.69782
-12.6681
-17.1318
-19.4948
-22.8061
-23.726
-25.073
-23.9237
-23.0462
-20.062
-17.0965
-13.0073
-8.67722
-4.73887
0.0769309
3.07022
7.63573
9.63162
13.3232
14.5856
17.288
17.8864
19.7396
19.8241
21.1364
20.7768
21.5786
21.0649
21.2824
20.9391
20.3459
20.306
18.9055
19.1477
17.3166
17.3621
15.2974
14.863
12.7083
11.9379
9.71824
8.55542
6.28659
4.74129
2.51633
0.635069
-1.46651
-3.57567
-5.38287
-7.74702
-8.95087
-11.4921
-12.0112
-14.3725
-14.6526
-16.2507
-15.9455
-17.1996
-16.1628
-17.2593
-15.6995
-16.4819
-14.7536
-15.2565
-13.7873
-13.75
-13.0664
-12.2338
-12.2353
-10.8441
-11.4585
-10.1739
-10.8638
-9.44174
-10.3552
-8.84594
-9.89503
-8.40528
-9.47973
-8.10515
-9.05083
-7.98348
-8.50667
-8.08877
-7.80513
-8.35933
-7.20116
-8.30339
-7.11248
-8.19885
-6.85369
-8.03937
-6.56404
-7.77741
-6.26509
-7.42169
-5.95652
-6.9139
-5.66965
-6.12793
-5.57759
-5.01366
-5.17706
-3.7459
-4.45319
-2.73666
-3.2181
-1.31829
-1.53505
0.564916
0.751014
3.08292
3.6622
6.35187
7.39385
10.5128
12.2631
15.7317
18.4725
22.3524
26.3678
30.6851
36.1187
41.3445
48.0732
54.9504
62.6904
71.9786
80.6078
93.0618
102.427
118.871
128.518
151.032
158.775
193.131
190.067
239.355
227.995
273.092
4.84934
17.1529
15.1498
20.6683
20.2252
23.2465
22.8193
24.5775
24.2376
25.2759
25.1766
25.5397
25.8984
25.5537
26.5516
25.4963
26.9061
25.8407
26.5972
26.16
26.4262
26.3132
26.4101
26.3002
26.4218
26.2603
26.3672
26.2927
26.1628
26.3289
25.8714
26.3261
25.5121
26.2874
25.0906
25.8543
24.6124
25.0699
23.9048
24.039
22.7157
22.5323
20.9893
20.3365
18.53
17.1915
15.1199
12.845
10.5428
7.12551
4.59518
0.0556811
-2.82209
-8.04443
-11.3514
-16.3079
-19.5305
-23.4069
-25.4651
-27.4455
-27.3479
-26.837
-24.4613
-21.4563
-17.5678
-12.7624
-8.66899
-3.16748
0.215752
5.4347
7.82469
11.9698
13.7211
16.4342
17.744
19.3487
20.132
20.9096
21.3604
21.5172
21.7617
21.3846
21.6558
20.7359
21.0865
19.6545
19.9508
18.2028
18.1199
16.3417
15.8574
13.9471
13.0946
11.0704
9.80698
7.70228
6.02197
3.88465
1.81533
-0.258271
-2.6391
-4.50213
-7.12766
-8.49585
-11.2712
-12.0111
-14.5906
-15.1539
-16.738
-17.0789
-17.5949
-17.5241
-17.5108
-17.0901
-16.6
-16.0371
-15.2129
-14.7896
-13.779
-13.7141
-12.4425
-12.8383
-11.4001
-11.7234
-10.8797
-10.9684
-10.4352
-10.3983
-10.0122
-9.90742
-9.63907
-9.45136
-9.32881
-8.98731
-9.1159
-8.48391
-8.98884
-7.93824
-8.97327
-7.53978
-8.54329
-7.64183
-8.19775
-7.62922
-7.88617
-7.51389
-7.57085
-7.33763
-7.23695
-7.12314
-6.84525
-6.83672
-6.29681
-6.62072
-5.52741
-6.22368
-4.8417
-5.31328
-4.11842
-4.30159
-3.07967
-2.96291
-1.67261
-1.26142
0.243943
0.907426
2.74787
3.7442
5.94417
7.50323
10.0091
12.3713
15.1701
18.5602
21.7953
26.2416
30.3835
35.5031
41.2054
46.7813
54.632
60.5743
71.0525
77.3092
91.1029
97.0673
115.91
119.131
149.559
143.108
184.29
181.781
222.374
8.76596
18.97
16.6725
21.0503
20.9023
23.1844
23.0817
24.5614
24.336
25.236
25.1776
25.5481
25.7958
25.6263
26.3082
25.6541
26.4642
26.0167
26.2653
26.2193
26.2348
26.2716
26.2918
26.2265
26.3204
26.2137
26.2334
26.2322
26.059
26.2222
25.7982
26.1763
25.4648
26.0099
25.1467
25.6689
24.7808
25.0623
24.0939
24.1969
23.0853
22.9043
21.6081
21.0055
19.4933
18.2382
16.475
14.3581
12.2457
9.1153
6.51685
2.35428
-0.91099
-5.78641
-9.79015
-14.9071
-18.94
-23.5355
-26.4325
-29.2692
-29.8855
-29.9123
-27.7695
-24.588
-20.1922
-14.8602
-9.9781
-4.26843
-0.00844493
5.0757
8.21755
12.0487
14.2319
16.7883
18.1956
19.7394
20.5819
21.3436
21.871
22.0573
22.3126
21.9942
22.2061
21.4216
21.6063
20.3969
20.5499
19.095
18.9114
17.2922
16.7605
14.9692
14.084
12.1605
10.891
8.8408
7.16695
5.03942
2.97478
0.848653
-1.53357
-3.51787
-6.14407
-7.79468
-10.4345
-11.7024
-13.9316
-14.9245
-16.4902
-17.0865
-17.7508
-17.8207
-17.9551
-17.4606
-17.1752
-16.4068
-15.7533
-14.9813
-14.1726
-13.6606
-12.6551
-12.4211
-11.3785
-11.3048
-10.6225
-10.3688
-9.97478
-9.69664
-9.48402
-9.1877
-9.10388
-8.79414
-8.82283
-8.43357
-8.65584
-8.07164
-8.56374
-7.70828
-8.41652
-7.49789
-8.05713
-7.58232
-7.74509
-7.50919
-7.51992
-7.34208
-7.2786
-7.1198
-7.00395
-6.85421
-6.68559
-6.6132
-6.13624
-6.29893
-5.45804
-5.81676
-4.71153
-5.15004
-3.91991
-4.09655
-2.84104
-2.70641
-1.32857
-0.930215
0.710248
1.35285
3.36565
4.32478
6.70048
8.24387
10.9516
13.2752
16.3987
19.6362
23.3657
27.559
32.3113
37.3245
43.6717
49.3265
57.7782
63.9721
75.0714
81.5691
96.028
102.129
121.768
123.983
151.927
148.577
179.788
175.946
204.748
7.67401
17.5077
15.0457
19.723
19.4904
22.1584
22.2113
23.8377
23.9157
24.8118
25.0523
25.3031
25.8501
25.5262
26.3879
25.7476
26.5999
26.1918
26.4061
26.4924
26.2926
26.6009
26.3181
26.6033
26.3028
26.607
26.2446
26.6432
26.1184
26.6681
25.9714
26.6313
25.7991
26.5465
25.6286
26.1905
25.3947
25.7403
24.9363
25.0645
24.1742
24.0067
22.9754
22.3683
21.1462
19.9163
18.4136
16.3662
14.4534
11.4058
8.89051
4.7674
1.3961
-3.69292
-7.94171
-13.6376
-18.3093
-23.8247
-27.9227
-31.9101
-33.8753
-34.7251
-33.4281
-30.5859
-26.443
-20.7067
-15.1803
-8.5705
-3.47114
2.52762
6.45993
10.9804
13.6983
16.5258
18.2641
19.7969
20.9676
21.5595
22.345
22.3778
22.8626
22.4001
22.7735
21.8729
22.2355
20.9573
21.1523
19.788
19.612
18.157
17.6665
16.0432
15.1709
13.3988
12.1059
10.1817
8.43262
6.37912
4.16781
2.04506
-0.559979
-2.64883
-5.51931
-7.40326
-10.3179
-11.8518
-14.4741
-15.6022
-17.4637
-18.1307
-18.9909
-19.086
-19.0423
-18.6844
-17.96
-17.3453
-16.3088
-15.7193
-14.5207
-14.2265
-12.9814
-12.964
-11.8706
-11.7244
-11.2813
-10.9497
-10.7732
-10.3555
-10.346
-9.83065
-9.96223
-9.39019
-9.6216
-8.95597
-9.34443
-8.52545
-9.12584
-8.13709
-8.88025
-7.91024
-8.37058
-8.01086
-8.02143
-8.00288
-7.75392
-7.91027
-7.48904
-7.76878
-7.24447
-7.55622
-7.00594
-7.35438
-6.62275
-7.11755
-6.16289
-6.74323
-5.69718
-6.02682
-5.24202
-5.24575
-4.4709
-4.29937
-3.37156
-3.08479
-1.92022
-1.45459
-0.0339285
0.747013
2.41297
3.6577
5.60408
7.43747
9.75526
12.2677
15.1566
18.3193
22.1704
25.8444
31.0731
35.1351
42.2464
46.5867
56.0506
60.5584
73.0361
76.8553
94.5409
95.2425
119.839
117.924
146.373
146.281
173.301
11.4102
19.404
16.8568
20.8484
20.3826
22.5494
22.6355
23.9239
24.0766
24.7876
25.0446
25.2622
25.7338
25.4834
26.2093
25.7049
26.3313
26.1749
26.1618
26.3757
26.2079
26.4802
26.2244
26.5165
26.2111
26.5243
26.1245
26.5347
25.9821
26.5151
25.8281
26.4555
25.668
26.3321
25.613
26.0073
25.4381
25.6747
25.0816
25.1738
24.5082
24.3617
23.5938
23.0715
22.1434
21.0759
19.8846
18.09
16.4562
13.7517
11.3899
7.62927
4.21842
-0.646515
-5.27712
-11.1294
-16.6845
-22.9575
-28.3409
-33.4887
-36.8426
-38.8063
-38.454
-35.877
-31.3949
-24.8816
-18.2168
-10.9682
-4.81658
1.53871
6.12587
10.7247
13.9824
16.8381
18.7858
20.203
21.6168
22.0891
22.9925
23.0432
23.5289
23.1308
23.5127
22.7356
22.9723
21.9624
21.9414
20.8632
20.5581
19.2607
18.6965
17.2321
16.3235
14.6893
13.3843
11.5815
9.83161
7.85082
5.64843
3.51641
0.91823
-1.28463
-4.15731
-6.29469
-9.17508
-11.1368
-13.635
-15.2833
-17.1306
-18.2233
-19.2226
-19.6028
-19.816
-19.4409
-19.0472
-18.1416
-17.2321
-16.2614
-15.135
-14.3979
-13.2185
-12.729
-11.7376
-11.3356
-10.6942
-10.2985
-9.96287
-9.54894
-9.48566
-8.99699
-9.17746
-8.64544
-8.95865
-8.35742
-8.78007
-8.06366
-8.64599
-7.78954
-8.44547
-7.70509
-8.02863
-7.79812
-7.71061
-7.75776
-7.48512
-7.67062
-7.25064
-7.51098
-7.03742
-7.30838
-6.79347
-7.08904
-6.45229
-6.83099
-6.00964
-6.44261
-5.56236
-5.8271
-5.00277
-5.06204
-4.16265
-4.06318
-3.04174
-2.74395
-1.54318
-1.03213
0.427176
1.21672
2.9522
4.18069
6.2243
8.0046
10.4745
12.8689
15.9777
18.9899
23.0691
26.5904
32.1193
35.9952
43.3748
47.5121
57.1483
61.3357
73.9306
77.1442
94.0733
94.3964
116.088
113.732
136.508
135.357
156.781
11.1871
19.3678
16.2695
20.7789
19.8018
22.4037
22.2398
23.7744
23.9133
24.7072
25.056
25.2681
25.8446
25.589
26.3291
25.9123
26.4921
26.3689
26.391
26.6163
26.3698
26.7282
26.3771
26.773
26.3422
26.8093
26.2758
26.8427
26.1718
26.8518
26.0789
26.8116
26.0111
26.7024
26.0213
26.4612
25.9479
26.2116
25.7247
25.8375
25.3274
25.1944
24.6251
24.1284
23.4269
22.4274
21.4701
19.8055
18.3979
15.8884
13.7354
10.1688
6.86267
2.02287
-2.69177
-8.89902
-14.9196
-22.0863
-28.7102
-35.5628
-40.9274
-44.7819
-45.8342
-43.9151
-39.6377
-33.0931
-25.4339
-16.8292
-9.25439
-1.48199
4.56292
9.89429
14.0258
17.091
19.4614
20.6634
22.2693
22.6546
23.5569
23.4568
24.0796
23.5203
23.9429
23.0892
23.3828
22.3612
22.4164
21.3167
21.1738
19.9411
19.4979
18.1507
17.3227
15.8336
14.5584
12.8826
11.1339
9.23065
6.95986
4.84055
2.0908
-0.219222
-3.31969
-5.69391
-8.9144
-11.1456
-14.1745
-16.0116
-18.3258
-19.5454
-20.8331
-21.2081
-21.3372
-20.9274
-20.0574
-19.189
-17.8428
-16.9402
-15.4342
-14.8659
-13.4447
-13.1682
-12.1023
-11.8664
-11.3662
-11.0434
-10.8466
-10.4032
-10.4009
-9.86101
-10.022
-9.41154
-9.693
-8.99423
-9.40318
-8.57744
-9.14544
-8.2227
-8.81712
-8.0866
-8.32277
-8.15746
-7.98793
-8.14179
-7.75299
-8.05821
-7.54047
-7.95794
-7.33982
-7.80364
-7.17333
-7.6391
-6.93414
-7.44991
-6.66139
-7.12816
-6.4285
-6.62933
-6.06092
-6.12346
-5.50199
-5.45656
-4.74884
-4.57204
-3.7229
-3.38824
-2.34481
-1.78686
-0.529067
0.353006
1.88546
3.1675
5.09064
6.80515
9.31232
11.4377
14.838
17.305
21.951
24.6743
30.9782
33.8717
42.2769
45.165
56.4001
58.5444
74.0942
73.8765
93.369
93.788
114.2
114.697
134.735
13.7271
21.6044
18.0957
22.2613
20.8776
23.2052
22.8014
24.1112
24.1461
24.7924
25.0831
25.24
25.7401
25.5087
26.1585
25.8154
26.2989
26.2841
26.2039
26.4851
26.2484
26.6095
26.2622
26.6913
26.228
26.7142
26.1399
26.731
26.0174
26.7226
25.8896
26.6733
25.8284
26.5508
25.8977
26.3038
25.9191
26.134
25.8298
25.925
25.6305
25.5308
25.2159
24.8224
24.4105
23.5988
22.9621
21.589
20.5112
18.3805
16.521
13.3918
10.3345
5.85155
1.13603
-5.04236
-11.6967
-19.6527
-27.918
-36.4566
-44.0396
-50.0218
-53.3997
-53.186
-49.1493
-41.6734
-32.1526
-22.1497
-12.9876
-4.48864
2.73236
8.86497
13.7295
17.3745
20.195
21.1847
23.0858
23.4208
24.2681
24.4313
24.896
24.4775
24.8951
24.1668
24.3288
23.5114
23.4467
22.5085
22.2241
21.1713
20.6074
19.4508
18.572
17.2585
15.974
14.4616
12.7181
10.9622
8.69891
6.61967
3.8982
1.50409
-1.61895
-4.19764
-7.49007
-10.1143
-13.1741
-15.5733
-18.0413
-19.8129
-21.3688
-22.2085
-22.6941
-22.4685
-21.9654
-20.8598
-19.4607
-18.1859
-16.5416
-15.5067
-13.9215
-13.1164
-11.9275
-11.3044
-10.6323
-10.0998
-9.87358
-9.29617
-9.40847
-8.76776
-9.17251
-8.53024
-9.04004
-8.31133
-8.89306
-8.04915
-8.74576
-7.85685
-8.49237
-7.83898
-8.07196
-7.94334
-7.73915
-7.93207
-7.53355
-7.87718
-7.34177
-7.77763
-7.15777
-7.6506
-6.95249
-7.47775
-6.78487
-7.29147
-6.53712
-6.98904
-6.31467
-6.50265
-5.95841
-5.99291
-5.40913
-5.31565
-4.66604
-4.43528
-3.66193
-3.2829
-2.32472
-1.7451
-0.563297
0.298122
1.76274
2.97493
4.84394
6.4228
8.90272
10.8216
14.2079
16.3638
21.0306
23.3639
29.631
32.0643
40.3165
42.5938
53.5724
54.6385
69.1673
68.9758
85.353
85.2869
102.469
102.626
119.616
14.0007
22.1166
18.0928
22.8626
20.8268
23.7238
22.8343
24.498
24.2701
25.1061
25.2779
25.527
25.9697
25.79
26.3684
26.0989
26.5045
26.4983
26.4666
26.753
26.4521
26.859
26.4441
26.9302
26.4011
26.9705
26.3323
26.9843
26.2412
26.9848
26.165
26.9199
26.1381
26.826
26.2027
26.6684
26.2681
26.4929
26.2568
26.345
26.1624
26.0531
25.8839
25.5087
25.2707
24.5333
24.0956
22.8734
22.0412
20.1664
18.606
15.7867
13.0357
8.84841
4.3119
-1.81332
-8.54503
-16.8852
-25.9798
-36.4107
-46.6829
-56.0327
-62.6191
-65.1001
-61.8183
-54.0941
-43.1999
-30.894
-18.9835
-7.95637
1.08153
8.15547
14.3055
18.1986
21.7144
22.0372
24.0309
24.1791
24.9686
24.8326
25.3877
24.7749
25.1373
24.3725
24.508
23.6241
23.7635
22.7991
22.6793
21.6977
21.2894
20.2298
19.4595
18.3097
17.1019
15.7464
14.062
12.4172
10.2111
8.16819
5.40668
2.98887
-0.300321
-3.05824
-6.64132
-9.54672
-13.1659
-15.8442
-18.9
-20.9802
-22.9508
-23.995
-24.4986
-24.3108
-23.218
-22.1463
-20.0935
-18.769
-16.6546
-15.7431
-13.9553
-13.3718
-12.2101
-11.8203
-11.4077
-11.0353
-10.8626
-10.3875
-10.3816
-9.73089
-9.9657
-9.33439
-9.69405
-8.99897
-9.41153
-8.58714
-9.09683
-8.24771
-8.77411
-8.14239
-8.30685
-8.21335
-7.96282
-8.20018
-7.72853
-8.15381
-7.55519
-8.07685
-7.40163
-7.98545
-7.27219
-7.83027
-7.14866
-7.71981
-7.00477
-7.5013
-6.93084
-7.13199
-6.69395
-6.80145
-6.32649
-6.36544
-5.81883
-5.7878
-5.14325
-5.01456
-4.21603
-3.93953
-2.97236
-2.45517
-1.26347
-0.487344
1.07448
2.09296
4.19345
5.4527
8.30159
9.75359
13.705
15.2407
20.6606
22.183
29.4881
30.8441
40.7522
41.2738
53.7463
54.8352
69.0322
70.5493
85.7027
86.8355
102.696
16.7393
24.5861
19.9151
24.6106
21.9788
24.8066
23.4548
25.0777
24.5277
25.3453
25.315
25.5784
25.8786
25.7777
26.1839
26.0031
26.3734
26.3964
26.2945
26.6237
26.3253
26.7518
26.3296
26.8365
26.2951
26.877
26.212
26.8883
26.0917
26.8802
25.9615
26.8219
25.9197
26.7097
26.0257
26.5049
26.2218
26.3911
26.3103
26.3754
26.3811
26.3004
26.3456
26.0634
26.0789
25.5125
25.371
24.4215
23.9235
22.4415
21.2892
19.0016
16.7238
13.1577
9.08265
3.38361
-3.50134
-12.3146
-22.6925
-34.6226
-47.883
-61.1491
-72.4684
-79.0835
-79.4496
-71.5372
-57.7819
-43.2017
-28.3412
-15.0284
-3.42486
5.55698
12.7054
18.7864
22.1292
23.3465
24.7014
25.4356
25.896
26.0015
26.5356
26.0726
26.3735
25.6804
25.7753
24.8881
24.828
24.0012
23.7463
22.9032
22.344
21.5136
20.6207
19.6969
18.4727
17.3086
15.6533
14.1927
12.0201
10.0674
7.31008
4.87877
1.52049
-1.43132
-5.14887
-8.43332
-12.2602
-15.4841
-18.88
-21.58
-24.0465
-25.6834
-26.8136
-26.9591
-26.426
-25.1544
-23.024
-21.0844
-18.6545
-17.0482
-14.8152
-13.4614
-11.8331
-10.8602
-10.2196
-9.58517
-9.6015
-8.86366
-9.22494
-8.37218
-9.05017
-8.31068
-9.13383
-8.24944
-9.01752
-8.06186
-8.83391
-7.87593
-8.56736
-7.90224
-8.11788
-8.03142
-7.7704
-8.05086
-7.56056
-8.02783
-7.3988
-7.97026
-7.24637
-7.91809
-7.10024
-7.7825
-7.02251
-7.68556
-6.90311
-7.4933
-6.87622
-7.09906
-6.74666
-6.78164
-6.43681
-6.3633
-6.01431
-5.83441
-5.41819
-5.15616
-4.60776
-4.25246
-3.52152
-3.01118
-2.02129
-1.32509
0.0282947
0.909705
2.7974
3.82424
6.54652
7.53211
11.3694
12.3805
17.5554
18.5598
25.2577
26.1443
34.8817
35.8075
46.2363
47.3534
59.2233
60.5521
73.6861
74.7752
88.8799
16.985
25.8553
20.3231
25.6604
22.4069
25.7588
23.8499
25.909
24.9212
26.0231
25.7062
26.1041
26.262
26.1779
26.5424
26.3138
26.6561
26.6533
26.5697
26.9126
26.5335
27.0098
26.5159
27.0769
26.4774
27.1078
26.4058
27.1158
26.3043
27.1118
26.2041
27.0597
26.147
26.9587
26.2397
26.7578
26.4643
26.5799
26.5896
26.6067
26.7186
26.6009
26.7797
26.4966
26.6639
26.1618
26.191
25.3833
25.1208
23.8905
23.0334
21.1014
19.2133
16.1191
12.5408
7.44871
1.17133
-7.25997
-17.7936
-31.2012
-46.9644
-64.3279
-81.1623
-94.4091
-100.112
-94.1822
-77.153
-57.1026
-37.7026
-21.0428
-6.66328
4.30825
13.0282
20.0916
24.0664
24.5258
26.4571
25.5355
26.856
26.1785
26.6878
26.1696
26.3958
25.5808
25.7372
24.8929
25.0212
24.205
24.0911
23.4294
22.9684
22.3019
21.5423
20.7557
19.6683
18.6782
17.139
15.8384
13.8116
12.0012
9.33392
6.97853
3.63012
0.622718
-3.30424
-6.76045
-11.0867
-14.7164
-18.7338
-21.9907
-25.0095
-27.1904
-28.5614
-29.1811
-28.121
-26.9184
-23.8182
-21.6506
-18.5153
-17.1665
-14.7784
-13.7313
-12.3044
-11.5643
-11.2163
-10.8948
-10.8285
-10.3789
-10.3723
-9.38516
-9.65213
-9.03107
-9.70108
-9.02481
-9.42966
-8.56922
-9.01364
-8.2045
-8.73644
-8.16149
-8.31818
-8.23359
-7.93527
-8.22273
-7.69663
-8.1943
-7.55949
-8.15104
-7.42078
-8.11417
-7.31416
-8.01082
-7.25986
-7.94794
-7.20507
-7.83285
-7.27508
-7.51206
-7.22616
-7.30873
-7.01933
-7.04571
-6.75585
-6.68783
-6.40398
-6.26506
-5.85429
-5.66876
-5.09038
-4.83416
-4.02196
-3.68748
-2.49174
-2.12367
-0.426046
-0.0817689
2.34762
2.74154
5.94897
6.37546
10.7416
11.1948
17.038
17.4554
25.0072
25.6743
34.8546
36.008
46.5667
48.1366
60.0269
61.2948
74.7735
19.6269
28.5364
22.2198
27.498
23.6205
26.8859
24.5525
26.4921
25.2599
26.2692
25.8107
26.1568
26.2122
26.1572
26.4217
26.2584
26.5643
26.5554
26.4347
26.7922
26.4282
26.9275
26.4116
27.0128
26.3692
27.0614
26.278
27.0825
26.1325
27.0557
26.0108
26.9768
25.9841
26.825
26.0978
26.6028
26.3214
26.4367
26.5458
26.5512
26.7879
26.6909
26.9989
26.7862
27.1158
26.7386
26.9828
26.3769
26.3742
25.4796
24.9854
23.5536
22.1432
19.7397
16.7751
12.5198
6.90339
-0.685751
-11.0193
-24.4691
-42.3436
-63.3031
-86.6242
-108.776
-124.111
-123.949
-105.22
-81.9369
-56.5887
-35.7824
-16.6886
-2.08377
8.08554
20.2187
23.0307
27.384
27.2623
27.3377
27.6963
27.7306
28.1654
27.8199
27.9622
27.156
27.0902
26.0963
26.0808
25.1912
24.9325
24.3831
23.7972
23.2795
22.4643
21.8914
20.7781
20.0049
18.5908
17.4991
15.5727
13.9497
11.3614
9.05918
5.70814
2.57033
-1.54428
-5.36967
-10.013
-14.2066
-18.7346
-22.7346
-26.5621
-29.5298
-31.9074
-33.1838
-33.1055
-32.0255
-28.934
-25.5883
-21.7121
-19.3319
-16.0467
-13.7245
-11.3325
-9.73245
-9.03113
-8.53561
-9.03173
-8.28575
-9.11806
-7.83262
-8.73283
-7.75072
-9.19424
-8.11616
-9.33064
-8.11865
-8.95478
-7.82456
-8.61959
-7.89889
-8.1762
-8.0756
-7.79996
-8.09109
-7.58228
-8.0827
-7.42291
-8.08185
-7.29201
-8.0831
-7.20476
-8.02515
-7.15323
-7.96352
-7.12383
-7.90117
-7.24841
-7.58079
-7.31969
-7.38179
-7.20004
-7.12847
-7.02897
-6.85131
-6.74853
-6.52454
-6.34691
-6.10197
-5.82057
-5.53312
-4.998
-4.64592
-3.77636
-3.41351
-2.0408
-1.75426
0.315403
0.485565
3.43763
3.45952
7.46839
7.51135
12.5342
12.5656
19.1947
19.2217
27.4481
27.5731
37.1526
37.5875
48.599
48.9658
61.7707
19.9606
30.2483
22.837
28.9403
24.4719
28.0842
25.4409
27.4759
26.0695
27.0572
26.4987
26.7654
26.7794
26.5836
26.916
26.5612
26.948
26.8412
26.7003
27.1189
26.5887
27.2249
26.5487
27.2841
26.4913
27.3192
26.4006
27.3279
26.2705
27.3158
26.1215
27.2161
26.0855
27.0449
26.2155
26.7968
26.5431
26.529
26.6955
26.6094
26.9439
26.7684
27.206
26.9477
27.4198
27.0736
27.4472
26.9512
27.0864
26.3754
26.0952
24.9854
23.9256
22.0477
19.6757
16.2382
11.5085
4.96412
-4.3473
-17.0931
-34.6227
-56.9761
-83.8466
-113.818
-141.566
-154.439
-136.247
-104.781
-72.4954
-45.1829
-24.1184
-4.66602
6.11035
17.6998
27.4035
25.8123
30.4103
27.1658
28.3181
27.1284
27.9924
27.2711
27.7292
26.7596
26.9363
26.0272
26.0838
25.4448
25.2143
24.8683
24.3594
24.0516
23.3016
22.8738
21.9194
21.2745
19.9646
19.083
17.3797
15.9383
13.5497
11.4656
8.23967
5.25231
1.12846
-2.66143
-7.64265
-12.1595
-17.288
-21.7934
-26.2164
-29.9836
-32.9686
-35.4415
-35.4135
-35.0868
-30.6886
-26.5083
-20.9923
-19.2104
-16.4982
-14.5693
-12.6754
-11.0435
-10.2356
-10.1185
-10.7424
-10.6761
-10.4483
-8.94927
-8.81932
-8.18459
-9.50556
-9.3224
-9.57826
-8.64006
-8.86501
-8.07211
-8.71013
-8.18788
-8.3868
-8.28536
-7.89649
-8.21193
-7.64452
-8.21992
-7.50967
-8.2277
-7.38905
-8.22425
-7.3082
-8.1896
-7.28393
-8.12154
-7.30946
-8.07359
-7.49632
-7.85171
-7.6243
-7.68672
-7.59194
-7.52987
-7.51828
-7.34159
-7.42972
-7.22521
-7.1672
-6.99482
-6.87511
-6.65175
-6.42421
-6.18095
-5.61504
-5.39423
-4.40799
-4.43323
-2.73328
-2.90814
-0.577355
-0.960998
2.23706
2.03573
5.91762
5.72543
11.0912
11.004
17.9009
18.3669
26.1765
27.082
36.5602
37.1236
49.1218
22.8591
33.0766
24.7328
30.693
25.6301
29.0745
26.1173
27.9477
26.4405
27.2009
26.7087
26.7283
26.8896
26.49
26.9723
26.4543
26.9051
26.7634
26.6189
27.0369
26.5052
27.2086
26.441
27.3122
26.3537
27.3412
26.2731
27.3603
26.1105
27.3145
25.985
27.1934
25.9308
26.9947
26.0373
26.6978
26.3992
26.4135
26.6507
26.5041
26.9247
26.7522
27.2342
27.0297
27.56
27.2876
27.7965
27.4205
27.7478
27.2857
27.2547
26.5473
25.819
24.5243
22.6707
20.1168
16.2517
11.0471
3.11319
-7.83568
-23.7279
-44.4531
-72.2045
-105.268
-140.21
-163.928
-160.589
-134.188
-99.1508
-63.5178
-38.3593
-18.4044
-0.93328
10.4458
25.7861
26.5117
30.7894
30.279
29.2604
28.8116
29.5169
29.267
29.5258
28.5339
28.1583
27.0756
26.9359
26.1744
25.7132
25.5421
24.8679
24.7176
23.9906
23.7214
22.7753
22.369
21.2144
20.5532
19.0211
17.8745
15.6695
13.8036
10.7579
7.83
3.63565
-0.480366
-5.63551
-10.7969
-16.5258
-22.0878
-27.5928
-32.261
-36.357
-39.9369
-41.5726
-42.6738
-39.638
-33.8683
-26.0411
-21.8941
-17.8274
-14.0793
-10.8642
-8.00438
-6.48832
-6.09421
-7.42415
-7.82564
-10.0902
-8.11074
-8.22559
-6.50507
-8.3534
-7.96395
-10.2846
-8.46463
-9.22535
-7.58963
-8.47295
-7.80934
-8.24783
-8.1868
-7.87487
-8.07958
-7.58836
-8.06615
-7.40187
-8.12154
-7.32081
-8.15791
-7.27438
-8.1512
-7.25686
-8.10236
-7.27108
-8.09369
-7.44009
-7.97875
-7.66769
-7.79879
-7.75348
-7.61386
-7.73108
-7.48225
-7.67502
-7.37736
-7.55459
-7.29418
-7.46284
-7.25077
-7.23912
-6.95991
-6.76457
-6.47826
-5.79706
-5.77635
-4.60188
-4.80037
-2.68055
-3.56547
-0.672706
-1.18676
2.07137
1.20338
6.02696
4.82096
11.1473
10.2384
17.5161
16.6485
25.4634
24.4653
36.4562
23.3831
35.1681
25.8448
32.3643
27.0073
30.3759
27.4886
28.9729
27.6261
27.9673
27.6693
27.3065
27.6246
26.925
27.5304
26.7771
27.2593
27.0777
26.8199
27.3913
26.5829
27.5449
26.4969
27.5847
26.4415
27.596
26.3461
27.6086
26.1731
27.5716
26.0158
27.4179
25.9891
27.1751
26.1216
26.8141
26.4907
26.4329
26.7156
26.4612
26.9508
26.6827
27.3006
27.0005
27.7047
27.4277
28.0161
27.7426
28.0808
27.7448
27.802
27.3528
26.8327
25.9397
24.4778
22.5745
19.4544
15.3664
8.9185
0.0393449
-13.0852
-30.8744
-54.6018
-83.2012
-117.9
-147.329
-157.096
-132.6
-105.811
-69.6295
-41.4569
-25.1066
-6.21158
7.79851
22.7401
29.146
27.9032
29.6339
29.517
27.252
27.8042
28.2306
28.7476
28.0834
28.157
26.884
26.797
26.5098
25.9911
25.8782
25.3502
25.3226
24.6552
24.512
23.6807
23.3114
22.2632
21.8005
20.5125
19.5711
17.6344
16.0227
13.2569
10.6418
6.60019
2.82741
-2.53302
-7.78062
-13.9277
-19.6665
-25.5626
-30.911
-35.589
-40.6781
-42.8872
-46.2266
-42.9896
-35.6833
-23.3813
-22.3409
-20.0642
-17.1006
-14.4039
-10.8611
-8.45103
-7.49328
-9.73061
-10.7887
-11.2225
-9.2028
-7.49188
-6.61123
-8.47189
-9.47358
-10.207
-9.15014
-8.79661
-7.93664
-8.46596
-8.30804
-8.45427
-8.36645
-7.87756
-8.17739
-7.54793
-8.2374
-7.41645
-8.26749
-7.32806
-8.25652
-7.30155
-8.24048
-7.30223
-8.17743
-7.32816
-8.12542
-7.54906
-8.05357
-7.82745
-7.91612
-7.96563
-7.78488
-7.94891
-7.74065
-7.99113
-7.7632
-7.94539
-7.69847
-7.90951
-7.7195
-7.93392
-7.80302
-7.73248
-7.46206
-7.11252
-7.3684
-6.33646
-6.64672
-5.02306
-6.26446
-4.15397
-4.51809
-2.60038
-3.53634
0.0755335
-1.61651
3.70409
3.56369
8.22703
8.67759
14.0335
14.1572
23.4727
26.2648
37.6831
27.4972
33.7631
27.8733
30.9863
28.0671
29.1044
28.0646
27.9204
27.9495
27.252
27.7579
26.8572
27.5994
26.6882
27.2555
27.0376