/*--------------------------------*- C++ -*----------------------------------*\
| =========                 |                                                 |
| \\      /  F ield         | OpenFOAM: The Open Source CFD Toolbox           |
|  \\    /   O peration     | Version:  4.1                                   |
|   \\  /    A nd           | Web:      www.OpenFOAM.org                      |
|    \\/     M anipulation  |                                                 |
\*---------------------------------------------------------------------------*/
FoamFile
{
    version     2.0;
    format      ascii;
    class       volScalarField;
    location    "17.5";
    object      p;
}
// * * * * * * * * * * * * * * * * * * * * * * * * * * * * * * * * * * * * * //

dimensions      [0 2 -2 0 0 0 0];

internalField   nonuniform List<scalar> 
204246
(
145.165
1.71537
53.8313
29.8244
24.5663
35.6013
15.7402
36.2643
12.6643
35.7884
11.3435
35.6333
9.9958
34.4101
12.5708
29.2593
22.1446
14.0378
31.2025
9.55847
33.5217
9.0817
32.5037
9.46489
32.5893
8.93936
33.705
6.99731
34.5606
7.0031
33.909
8.4111
31.5421
12.713
25.0914
22.1635
11.8152
29.8935
8.85354
30.4839
8.43748
31.04
7.6471
32.2481
5.69585
33.0046
6.00241
31.9557
8.44577
28.2499
12.7552
23.419
21.6229
10.7266
29.2973
8.12089
30.0103
7.96078
30.7302
7.35083
32.0789
5.49282
32.9255
5.80128
31.9172
8.13161
28.2441
12.1625
23.5842
20.3962
11.6676
26.4156
8.77512
28.4645
7.44919
29.4522
6.36191
30.7966
4.25699
31.5875
4.44118
30.533
6.74184
26.838
10.8334
22.18
19.234
10.2294
25.5187
7.26798
28.0464
5.5701
30.1792
3.02744
31.6706
2.47541
31.7473
2.87495
30.8033
4.64737
27.9055
6.89892
25.7811
9.56049
22.2026
16.0072
9.98415
23.6452
5.31715
26.8347
1.5977
27.7272
0.881681
26.4486
0.0855033
24.9229
-0.838401
22.6395
-1.33441
18.8358
-0.166422
12.1475
5.43877
-3.96593
10.206
-11.3225
8.92361
-16.2869
5.26895
-20.7317
0.821891
-25.2901
-3.81518
-29.5465
-8.48831
-32.2595
-13.7101
-32.2
-20.505
-26.1455
-35.657
-18.4865
-40.0164
-15.4782
-40.5913
-13.0957
-39.5742
-10.8517
-37.4473
-8.80592
-34.5459
-7.26845
-30.7311
-6.8992
-24.9071
-9.20216
-13.4649
-20.1241
-2.10641
-21.7337
3.6218
-20.0799
7.86359
-16.7446
11.7926
-11.8807
15.5228
-5.2265
20.1622
2.95648
26.1272
13.2333
33.1279
26.7048
41.0775
44.9077
50.0551
60.7418
68.9411
78.3828
92.7813
100.717
121.868
129.141
158.53
165.465
206.818
213.994
278.183
278.07
389.422
390.613
606.071
65.679
20.302
30.7859
32.6509
20.9599
32.0657
17.6605
30.3033
16.3603
28.9782
15.9026
27.8081
16.6034
24.997
19.7331
20.1991
25.2975
15.4051
25.9814
14.7383
25.9502
14.9191
25.7148
14.52
26.0524
13.9689
26.5615
13.6674
26.0388
14.3962
24.7698
16.1491
22.1353
19.6295
17.8208
24.3259
13.9421
24.5519
13.7403
24.4027
13.1919
24.7083
12.5691
25.0897
12.311
24.3395
13.2754
22.7456
15.4318
20.1429
18.3982
16.4117
23.1985
12.8426
23.6152
12.906
23.6948
12.6009
24.2337
12.1834
24.8189
12.0619
24.2162
13.0618
22.7171
15.1202
20.1896
17.8109
16.5924
22.1322
13.1945
22.3181
12.3449
22.7297
11.719
23.0925
11.033
23.4855
10.6925
22.7175
11.5418
21.0943
13.53
18.4891
16.2437
14.85
20.6936
11.4165
21.1219
10.4748
21.9592
9.62944
22.8934
8.99764
22.8373
9.17799
22.3392
9.84196
21.2267
11.143
19.6278
12.3049
17.7235
14.5675
14.3084
18.7826
9.82238
19.6125
8.27834
20.1594
7.19569
19.3356
6.8369
18.1808
6.1403
16.6672
5.41202
14.259
5.21197
10.3154
6.04056
4.3553
8.70183
-2.03857
5.71425
-6.04965
2.44106
-10.1875
-1.43019
-14.5958
-5.81234
-19.0031
-10.8725
-22.9735
-16.554
-25.7556
-22.6607
-26.4294
-29.217
-24.4239
-35.4992
-25.2852
-36.958
-24.9531
-36.9198
-23.6163
-35.6524
-21.8701
-33.3978
-20.1647
-30.3729
-18.9593
-26.5086
-18.7986
-21.3067
-20.5652
-13.9903
-22.4246
-10.5671
-20.7842
-7.52878
-18.3789
-4.51444
-15.1855
-1.25498
-11.0399
2.58305
-6.16546
6.84623
0.534186
11.8833
9.32665
17.6796
20.5026
24.9152
33.2895
37.9355
45.3076
55.2062
60.5068
75.9756
79.6137
100.761
103.471
131.588
132.266
170.517
166.29
224.494
203.849
292.421
256.596
382.209
21.6552
41.2056
27.0318
38.1065
24.4487
35.3187
21.3101
33.2913
19.5249
31.649
18.7496
29.9515
19.1371
27.3485
21.2226
23.4996
24.564
19.4086
26.428
17.2638
27.3021
16.4114
27.4648
15.9174
27.5963
15.5216
27.7191
15.345
27.3509
15.8875
26.2678
17.3953
24.0751
20.1075
20.6835
23.3833
17.3145
25.0419
15.6893
25.8208
14.8087
26.2024
14.2801
26.3417
14.1348
25.8525
14.8513
24.5888
16.5729
22.4014
19.2019
19.3647
22.5376
16.2935
24.3238
14.9399
25.2818
14.2923
25.8598
13.9463
26.178
13.9142
25.8268
14.6578
24.6559
16.2974
22.5358
18.7137
19.5718
21.721
16.5026
23.2978
14.7507
24.3289
13.7805
24.8968
13.1517
25.1506
12.9246
24.7197
13.5553
23.4805
15.1609
21.3139
17.6273
18.3199
20.7814
15.2057
22.6029
13.3785
23.9802
12.2743
24.9027
11.6243
25.1985
11.6025
24.957
12.1416
24.1215
13.2159
22.7436
14.6218
20.8568
16.7637
17.9897
19.6694
14.4596
21.5248
12.1518
22.6192
10.7126
22.5645
10.0107
21.7658
9.42577
20.4381
8.93348
18.1955
8.94401
14.6862
9.59968
9.72619
10.451
3.82439
9.28437
-0.961462
6.906
-5.18844
3.11213
-9.32768
-1.53215
-13.4992
-6.63866
-17.4534
-12.0149
-20.3714
-17.7633
-21.6887
-23.6149
-22.0431
-28.819
-21.7621
-31.5704
-20.6265
-32.2851
-18.9813
-31.3074
-17.0827
-29.0167
-15.2145
-25.7994
-13.7541
-21.7196
-13.1612
-16.4301
-13.7641
-10.404
-14.6284
-5.53048
-13.8878
-1.2568
-11.7889
2.53637
-8.51202
6.34213
-4.10218
10.2418
1.89449
14.3539
9.48507
19.7824
18.3817
26.5644
28.7991
36.4447
40.2741
48.7459
53.7021
65.0451
70.1635
85.5528
90.6822
111.2
115.676
144.223
146.533
187.921
184.611
247.963
232.085
319.033
301.061
391.72
4.26552
23.7844
16.0932
27.2799
17.4507
27.3711
17.5127
26.2636
17.4872
24.9148
17.9037
23.3155
19.1381
20.98
21.2482
18.3556
23.3049
16.8965
23.0961
16.7369
22.6857
16.8293
22.4763
16.6462
22.471
16.5137
22.3406
16.7792
21.609
17.6132
20.3616
19.0537
18.5014
21.0038
16.4554
22.5031
15.4229
22.0209
15.3466
21.5815
15.1222
21.3121
14.9682
20.9166
15.2484
19.9363
16.1505
18.5377
17.6191
16.8255
19.3794
15.0115
21.0424
14.2018
20.8189
14.3789
20.6768
14.4181
20.7076
14.5059
20.5807
14.9651
19.8063
15.9452
18.5386
17.3649
16.8884
18.9458
15.0592
20.3741
14.0511
20.0638
13.6608
19.8021
13.3917
19.5689
13.2062
19.1647
13.4248
18.146
14.2208
16.688
15.5359
14.9064
17.1107
13.0056
18.6419
11.9661
18.5381
11.5685
18.5657
11.3381
18.5702
11.383
18.1473
11.748
17.4799
12.3702
16.5268
13.2159
15.3641
14.1323
13.8284
15.5404
11.8273
17.0587
10.2344
16.8329
9.5379
16.3017
9.1818
15.2254
8.91685
13.974
8.44475
12.4141
7.93791
10.0934
7.72576
6.79512
7.75128
2.68577
7.35259
-0.0632685
3.56842
-3.26469
-0.29542
-6.83639
-4.57317
-10.8359
-9.43231
-15.1195
-14.8237
-19.5239
-20.4616
-23.569
-25.9569
-26.2616
-31.1873
-28.4666
-35.2807
-30.5851
-36.9604
-31.1049
-37.1149
-30.394
-35.8019
-29.0084
-33.3286
-27.5275
-30.1592
-26.4259
-26.5512
-25.9068
-22.6959
-25.6776
-19.0396
-24.4399
-17.0406
-22.6033
-15.0994
-20.3569
-13.0668
-17.6659
-10.7177
-14.3368
-7.56459
-10.3899
-3.88456
-5.14059
0.271307
2.00039
6.31137
9.78456
14.4588
19.3303
25.5524
29.8245
39.7187
42.474
57.0159
57.9213
77.754
76.4257
103.004
97.6251
134.347
121.365
174.663
150.587
217.213
197.639
267.763
6.36565
36.4014
18.5393
35.2078
22.3706
33.4326
22.6985
31.4831
22.5115
29.5588
22.4896
27.5382
23.0802
25.2425
24.1361
23.0323
25.0125
21.7014
25.0596
20.7317
25.1509
20.0406
25.2221
19.5533
25.1609
19.3826
24.8782
19.6337
24.2379
20.2891
23.2438
21.3875
21.8558
22.7298
20.4326
23.6781
19.6249
23.8317
18.9649
24.0399
18.4168
24.0274
18.2087
23.6855
18.4639
22.9307
19.1448
21.8682
20.2274
20.5868
21.5238
19.2705
22.6138
18.6168
22.9529
18.1648
23.3815
17.8356
23.6063
17.8252
23.493
18.2312
22.9307
18.9941
22.0055
20.0734
20.7964
21.2929
19.4613
22.2688
18.6672
22.5745
17.9463
22.867
17.4531
22.9551
17.2584
22.7179
17.5037
22.0402
18.1505
21.0159
19.1728
19.7296
20.3993
18.3457
21.4714
17.5137
21.9453
16.7802
22.4477
16.327
22.7109
16.2812
22.6271
16.5332
22.2913
17.0648
21.6766
17.833
20.828
18.8054
19.6099
20.0674
18.1682
21.1767
17.1484
21.4746
16.3268
21.5859
15.8101
21.2402
15.4627
20.5402
15.1765
19.3865
15.0164
17.4561
15.0922
14.7424
15.0711
11.9089
13.4846
9.06254
11.534
5.95475
8.37551
2.50979
4.4008
-1.27725
-0.299975
-5.34193
-5.52739
-9.73817
-10.9261
-14.1524
-16.0318
-18.2176
-20.8686
-21.0483
-24.7895
-22.8933
-27.1912
-22.96
-28.1805
-21.9453
-27.3175
-20.3774
-24.6783
-18.4668
-21.0894
-16.5845
-17.1423
-14.983
-13.5135
-13.0386
-9.62287
-11.3585
-6.28363
-9.52532
-2.82444
-7.14323
0.517202
-3.97869
3.84695
0.011811
7.53092
4.98836
11.7021
11.1582
17.0002
17.9516
24.1469
25.8766
33.0218
35.3987
44.4025
47.0536
58.6683
61.4365
76.425
79.0861
98.953
99.9105
127.665
124.464
163.958
153.342
205.25
190.791
246.353
235.361
280.755
-0.75623
17.7927
8.79544
21.3715
13.7007
22.8663
16.104
22.758
17.3248
21.9608
18.3824
20.7433
19.6144
19.2701
20.8451
18.0376
21.5024
17.6571
21.1691
17.6542
20.7893
17.6932
20.5163
17.6798
20.2568
17.8033
19.8438
18.2244
19.1359
18.9306
18.2007
19.8497
17.1375
20.7062
16.3149
20.9499
16.1376
20.3634
16.1405
19.8132
16.0841
19.2306
16.1503
18.4989
16.5121
17.5309
17.1606
16.47
18.0009
15.4794
18.8107
14.7564
19.2308
14.7627
18.9289
15.0225
18.7251
15.2619
18.5055
15.6178
18.1084
16.2119
17.3999
16.9967
16.4917
17.8603
15.5324
18.581
14.7124
18.8439
14.4356
18.384
14.2789
17.8902
14.1859
17.3268
14.2187
16.5912
14.5236
15.5807
15.0795
14.4299
15.7994
13.2971
16.4769
12.3874
16.8101
12.1014
16.5107
12.0147
16.2273
12.0714
15.8542
12.3283
15.2989
12.7172
14.6315
13.2107
13.8417
13.7672
12.9635
14.3488
11.9278
14.9721
10.904
15.2401
10.348
14.661
10.0686
13.8469
9.9201
12.7578
9.72126
11.5075
9.39364
9.99917
9.02144
7.95714
8.62171
5.56104
7.8272
3.31078
6.06213
0.905331
3.26213
-1.92098
-0.231892
-5.1914
-4.43464
-9.09156
-9.27803
-13.5783
-14.6162
-18.4796
-20.4131
-23.4263
-26.3348
-27.9235
-31.768
-32.1023
-35.552
-35.2739
-38.2684
-36.105
-39.0197
-35.628
-37.7732
-34.4016
-35.118
-32.6801
-31.9318
-31.0301
-28.7763
-29.469
-26.0101
-28.3725
-23.8964
-26.6715
-22.2924
-25.0074
-20.8678
-23.263
-19.2372
-21.3632
-17.2446
-19.0344
-14.9021
-15.8784
-12.0954
-11.769
-8.06571
-6.80408
-2.7721
-0.630357
4.21198
6.83133
13.357
15.7106
24.9788
26.151
39.5735
38.4198
57.5977
52.8922
79.4706
69.7078
105.323
90.932
133.6
119.976
164.272
157.75
198.904
7.0757
32.7613
15.4885
31.8717
20.3671
30.8627
22.4904
29.6318
23.45
28.0573
24.011
26.3617
24.5688
24.7118
25.0094
23.4708
25.0197
22.9371
24.5746
22.4934
24.3049
22.0614
24.1293
21.7511
23.8701
21.7263
23.4453
22.0345
22.8441
22.5733
22.1487
23.2405
21.4472
23.8103
20.9781
23.8964
20.9585
23.5873
20.8339
23.3954
20.6333
23.0771
20.63
22.52
20.9083
21.7624
21.3749
20.9644
21.9385
20.2659
22.4376
19.841
22.6379
19.881
22.5175
19.9148
22.5692
19.9308
22.5287
20.1503
22.2656
20.6363
21.7685
21.2682
21.1613
21.9327
20.5666
22.4882
20.0926
22.6724
20.0346
22.5181
19.8899
22.405
19.7767
22.1805
19.8367
21.7467
20.1637
21.0898
20.6554
20.3391
21.2277
19.6212
21.7112
19.0766
21.9301
18.9735
21.869
18.8558
21.895
18.8451
21.8259
19.0647
21.6052
19.4378
21.2856
19.9346
20.8615
20.5188
20.3629
21.1556
19.7537
21.8136
19.2174
22.1234
19.1096
21.9438
19.0433
21.7099
19.0279
21.2929
19.0218
20.6719
18.9861
19.7396
19.1012
18.2016
18.9667
16.5883
18.083
14.886
16.5896
12.8935
14.576
10.4286
11.6889
7.42418
8.05491
3.77965
3.63325
-0.518954
-1.46073
-5.26829
-7.11143
-10.2766
-12.9228
-15.2343
-18.3183
-19.6879
-22.7745
-23.1242
-25.7252
-24.7328
-26.9369
-24.616
-26.247
-23.0798
-23.6041
-20.4236
-19.9842
-17.3431
-16.1514
-14.5765
-12.449
-12.1601
-9.16791
-9.88629
-6.25884
-7.42317
-3.28764
-4.87511
-0.213888
-2.05749
2.89288
1.34365
6.16545
5.4732
10.0504
10.0836
14.8496
15.4636
20.862
21.8607
28.4429
29.6167
38.0279
39.0361
50.2927
50.4637
65.6682
64.3567
84.8388
80.9223
108.299
100.691
134.493
124.959
161.788
153.602
189.098
182.848
211.721
-1.58328
15.8401
5.98389
17.804
11.1675
19.3885
14.4255
19.943
16.5407
19.7756
18.0436
19.1763
19.2306
18.4474
20.0324
17.9739
20.2435
18.006
19.9012
18.1189
19.5553
18.1828
19.2276
18.2556
18.843
18.4649
18.354
18.8606
17.7571
19.3677
17.1461
19.8658
16.6211
20.1528
16.4025
19.9233
16.5189
19.293
16.6225
18.6714
16.6496
17.9458
16.7642
17.1076
17.0367
16.2206
17.4073
15.4441
17.7722
14.9299
17.9886
14.7121
17.9654
14.9856
17.6338
15.3427
17.3993
15.6991
17.1045
16.1512
16.6714
16.7185
16.0962
17.295
15.4909
17.7667
14.9662
17.9981
14.6714
17.7796
14.6514
17.2179
14.6344
16.6093
14.6273
15.9006
14.7037
15.0718
14.927
14.149
15.2239
13.2534
15.5153
12.5384
15.6415
12.1096
15.476
12.1052
15.0286
12.2068
14.6008
12.3972
14.1012
12.7078
13.5162
13.0624
12.9015
13.4279
12.2575
13.7637
11.6165
14.0263
10.9667
14.1599
10.5066
13.8786
10.3423
13.1501
10.2811
12.2774
10.2316
11.2349
10.1029
10.084
9.84138
8.77185
9.56024
7.19111
8.8966
5.65839
7.87745
3.9645
6.23017
1.89361
3.8832
-0.494037
0.80742
-3.45225
-3.0027
-7.11015
-7.58488
-11.5477
-13.0039
-16.6499
-19.1461
-22.2219
-25.6748
-27.8952
-31.9771
-33.2254
-37.2098
-37.602
-40.7226
-39.9507
-42.0109
-40.151
-40.9301
-38.7924
-38.3006
-36.4233
-34.8806
-33.9189
-31.4813
-31.8903
-28.7497
-30.3797
-26.896
-28.9141
-25.6406
-27.6047
-24.4931
-26.3082
-23.2681
-24.9541
-21.906
-23.2233
-20.2527
-20.8969
-17.9468
-17.8952
-14.7114
-14.0686
-10.3148
-9.24589
-4.48219
-3.28396
3.24988
3.81227
13.1674
12.1426
25.6744
22.0719
40.8829
34.2307
58.6233
49.7268
78.9484
69.2361
101.563
93.7911
126.52
123.057
151.932
9.78302
30.5579
15.0648
29.4989
19.1587
28.7261
21.776
27.8117
23.321
26.6973
24.241
25.5121
24.8239
24.454
25.0484
23.7748
24.8202
23.5914
24.269
23.4162
23.8575
23.2021
23.5129
23.0601
23.1138
23.1118
22.6532
23.3713
22.1735
23.7423
21.7742
24.1046
21.5217
24.2615
21.55
24.0776
21.834
23.6019
22.0044
23.2068
22.026
22.7155
22.1359
22.0374
22.334
21.315
22.5568
20.7208
22.7227
20.4021
22.7405
20.3175
22.5993
20.5943
22.2929
20.8803
22.1454
21.1296
21.9655
21.4888
21.6751
21.9769
21.3002
22.4787
20.9582
22.874
20.7558
23.0516
20.7478
22.9722
20.9788
22.6225
21.1403
22.3012
21.2635
21.9111
21.447
21.4092
21.7436
20.8182
22.0593
20.2688
22.3332
19.8877
22.3887
19.7045
22.1983
19.9179
21.8649
20.1221
21.6465
20.3716
21.4177
20.7395
21.1494
21.1712
20.8815
21.6314
20.6179
22.0823
20.3946
22.4752
20.2026
22.7482
20.1896
22.7654
20.4819
22.4307
20.8079
22.1019
21.0936
21.7209
21.3463
21.2157
21.5099
20.4941
21.4876
19.6209
21.125
18.5968
20.3578
17.4238
19.1482
15.9255
17.3645
14.0135
14.8578
11.4453
11.6251
8.07785
7.53601
3.92904
2.49013
-1.00638
-3.40975
-6.62716
-9.85478
-12.6372
-16.2767
-18.4892
-21.9917
-23.3223
-26.3062
-26.5406
-28.4039
-27.536
-28.1444
-26.1963
-25.5157
-22.8645
-21.206
-18.6674
-16.3982
-14.9118
-12.1185
-12.0421
-8.92179
-9.48898
-6.18997
-6.98214
-3.47641
-4.39443
-0.750382
-1.64406
1.88755
1.29405
4.67163
4.47934
7.90631
7.9395
11.7468
11.9746
16.5259
16.7497
22.6139
22.5327
30.4512
29.5507
40.6257
38.1198
53.1553
48.9595
68.2221
62.3136
85.8127
78.3388
105.218
97.3738
125.112
118.789
144.381
140.864
161.694
-1.19131
15.7363
5.03666
16.3032
9.86523
17.3178
13.3337
18.0172
15.7667
18.2704
17.4697
18.1806
18.6485
17.9766
19.3139
17.9393
19.4319
18.2006
19.1106
18.4347
18.7625
18.5604
18.3831
18.6839
17.9406
18.8856
17.4664
19.1786
16.9952
19.5006
16.6368
19.7197
16.4633
19.7494
16.5113
19.3849
16.806
18.7125
17.0225
18.0656
17.0821
17.3336
17.1398
16.5157
17.2304
15.713
17.3278
15.0737
17.3814
14.7972
17.3326
14.7244
17.1704
15.1097
16.8151
15.5548
16.564
15.9882
16.2681
16.4709
15.8804
16.981
15.4405
17.396
15.0648
17.6118
14.8192
17.5755
14.7331
17.2069
14.8729
16.5463
14.9571
15.8569
14.989
15.0808
15.042
14.249
15.1592
13.4301
15.2371
12.7405
15.2334
12.2345
15.0914
12.0079
14.6529
12.1586
14.0754
12.3746
13.562
12.6373
13.0235
12.9622
12.4543
13.274
11.9079
13.535
11.3931
13.7026
10.9461
13.7334
10.5766
13.5813
10.3639
13.105
10.4101
12.2853
10.487
11.4206
10.5088
10.4779
10.4358
9.48267
10.2689
8.46618
9.89384
7.42754
9.31687
6.2911
8.41809
4.96531
7.09842
3.36088
5.15594
1.48913
2.60421
-0.992688
-0.670545
-4.21831
-4.84679
-8.32144
-10.0464
-13.3946
-16.287
-19.4002
-23.3685
-26.0845
-30.7759
-32.8709
-37.6802
-38.9319
-42.893
-43.0328
-45.6002
-44.4863
-45.2688
-43.3052
-42.4248
-40.2773
-38.1572
-36.5631
-33.7694
-33.4989
-30.4059
-31.5348
-28.4618
-30.2786
-27.3906
-29.3612
-26.6269
-28.4497
-25.9405
-27.422
-25.0986
-26.2242
-23.952
-24.6317
-22.1973
-22.4418
-19.6517
-19.5709
-16.0545
-15.8997
-11.2305
-11.298
-4.80015
-5.95166
3.41579
0.780616
13.4498
9.2295
25.671
19.8489
40.1125
33.4165
56.6893
50.4891
75.3238
71.0868
95.6512
94.0353
116.121
11.3516
29.2089
15.5461
27.7854
18.7801
26.8964
21.1284
26.1537
22.738
25.3852
23.7913
24.645
24.4347
24.0406
24.6529
23.7358
24.428
23.7912
23.9128
23.8014
23.4971
23.7679
23.0513
23.7721
22.5518
23.8519
22.1015
24.0312
21.7271
24.2504
21.5754
24.4118
21.5732
24.4719
21.8439
24.1683
22.3381
23.6319
22.7104
23.1788
22.8475
22.6307
22.9263
21.954
22.9765
21.2797
22.9637
20.7743
22.8482
20.5106
22.738
20.436
22.4424
20.8527
22.0525
21.2923
21.8071
21.6996
21.5659
22.1568
21.2909
22.6421
21.0317
23.0565
20.885
23.2945
20.9082
23.3583
21.1218
23.129
21.5537
22.6963
21.9036
22.2755
22.1591
21.8004
22.3757
21.2622
22.5964
20.7348
22.7766
20.3532
22.78
20.1036
22.5817
20.0593
22.2006
20.4094
21.7324
20.7764
21.3841
21.1721
21.0771
21.6296
20.7983
22.0952
20.5851
22.5254
20.4486
22.8792
20.4339
23.1161
20.4897
23.2045
20.7522
23.0698
21.2745
22.689
21.8134
22.341
22.3003
21.9804
22.6539
21.6345
22.8285
21.2024
22.7894
20.6683
22.5048
20.0377
21.9516
19.2187
20.997
18.1687
19.5104
16.7454
17.4366
14.6624
14.6736
11.7672
10.9723
7.93557
6.16589
3.00959
0.178252
-3.05081
-6.83034
-10.0505
-14.3996
-17.4193
-21.7594
-24.1319
-27.886
-29.1714
-31.6607
-31.6549
-32.4193
-31.1258
-29.9359
-27.3587
-24.4963
-21.5489
-17.961
-16.1146
-12.5791
-12.4176
-9.17327
-9.68468
-6.60898
-7.24083
-4.13723
-4.64128
-1.71325
-2.1113
0.538707
0.298028
2.75428
2.60037
5.12585
5.01813
7.91287
7.71141
11.4097
10.8852
15.9663
14.7527
22.1495
19.6143
29.8204
25.9361
39.2183
33.9719
50.5035
44.1203
63.5294
56.6282
77.8477
71.4967
92.766
88.1658
107.692
105.561
121.93
-0.43878
16.1173
5.28251
15.969
9.67846
16.473
12.9487
17.0305
15.3363
17.4193
17.0271
17.6048
18.1838
17.7236
18.8204
17.9554
18.9667
18.3756
18.7149
18.7087
18.4245
18.8646
18.0303
19.0032
17.5094
19.1712
16.9976
19.4148
16.608
19.5881
16.4486
19.648
16.4392
19.6103
16.6838
19.1891
17.1229
18.5145
17.4754
17.8452
17.6254
17.1381
17.6423
16.3635
17.5882
15.5965
17.4686
15.0345
17.3055
14.6679
17.0024
14.7743
16.7571
15.2376
16.3873
15.7669
16.134
16.27
15.8532
16.7776
15.5179
17.249
15.1833
17.5679
14.9468
17.6375
14.8927
17.475
14.9706
17.0155
15.2145
16.3036
15.3884
15.5771
15.4576
14.8003
15.448
14.0038
15.4528
13.2362
15.431
12.6212
15.2853
12.2156
14.8844
12.1297
14.2913
12.3615
13.5936
12.6601
13.0177
12.9797
12.4647
13.3216
11.9245
13.6079
11.448
13.7958
11.0482
13.8415
10.7624
13.7123
10.602
13.4235
10.543
12.8551
10.7005
12.0005
10.8886
11.1513
11.0012
10.293
10.9968
9.51364
10.8478
8.83155
10.5577
8.10479
10.1103
7.30555
9.44463
6.3989
8.43478
5.31244
6.90279
4.01265
4.92417
2.10856
2.31555
-0.485747
-1.19956
-4.01423
-5.85052
-8.73271
-11.828
-14.8295
-19.1817
-22.2671
-27.6327
-30.6122
-36.4553
-38.9777
-44.1477
-45.6103
-49.1708
-49.1174
-50.3767
-48.7503
-47.6624
-45.1836
-42.2107
-39.6659
-35.8301
-34.3509
-30.869
-31.3101
-28.4404
-30.3416
-27.9008
-29.9723
-27.7526
-29.44
-27.404
-28.6783
-26.9391
-27.8462
-26.1702
-26.8208
-24.8995
-25.3187
-22.923
-23.2798
-20.0097
-20.6497
-16.0707
-17.3078
-10.9902
-13.1592
-4.57723
-7.80253
3.31371
-0.883122
12.8676
8.03979
24.2247
19.4784
37.4836
33.7468
52.7181
50.6263
69.5373
68.9796
86.8194
13.1686
28.0787
16.2846
26.3364
18.7264
25.3197
20.6115
24.6582
22.0163
24.134
23.0471
23.6986
23.7269
23.4055
24.0101
23.361
23.8628
23.6229
23.4449
23.8483
23.0624
23.9416
22.6436
23.9895
22.1176
24.0846
21.5816
24.2565
21.2814
24.3031
21.2775
24.387
21.3782
24.4438
21.8467
24.1037
22.5154
23.5271
23.0986
22.9513
23.3855
22.4499
23.4181
21.8337
23.328
21.2287
23.054
20.704
22.7809
20.3369
22.5455
20.2545
22.1388
20.725
21.6967
21.2639
21.3922
21.8152
21.1176
22.3761
20.8549
22.8716
20.6888
23.226
20.6728
23.3947
20.8476
23.3776
21.2216
23.1033
21.7885
22.6388
22.2756
22.1568
22.6347
21.621
22.8195
21.0708
22.9567
20.5747
22.9922
20.2663
22.8271
20.0459
22.4777
20.0963
21.9547
20.4935
21.3824
20.9338
20.9398
21.4167
20.5825
21.9351
20.3044
22.4241
20.1346
22.8317
20.0864
23.1159
20.1892
23.2476
20.4175
23.2386
20.8419
23.0178
21.5018
22.5997
22.1661
22.2268
22.7636
21.8782
23.1379
21.6483
23.3173
21.4252
23.3233
21.1417
23.1716
20.7591
22.7912
20.2707
22.0557
19.6778
20.8429
18.7054
19.2667
17.1394
17.0618
14.8484
13.966
11.5857
9.69864
7.03668
3.98612
0.922957
-3.29652
-6.80299
-11.9493
-15.7741
-21.2712
-24.9008
-29.9306
-32.6087
-36.257
-37.5454
-39.0285
-38.692
-37.4379
-35.0306
-30.8762
-27.1897
-21.6894
-18.6823
-13.8999
-12.8938
-9.67984
-9.94035
-7.29598
-7.90549
-5.1424
-5.44645
-3.07917
-3.09004
-1.28786
-1.19403
0.315329
0.332486
1.90906
1.60522
3.67055
2.98603
5.94272
4.71297
9.03142
6.95691
13.396
9.81413
18.6699
13.8872
25.174
19.4007
33.0703
26.6813
42.3784
36.0087
52.8662
47.3975
64.1496
60.493
76.2062
74.7425
88.4719
1.79358
16.9036
6.65158
16.414
10.4322
16.5243
13.2431
16.8268
15.3434
17.1203
16.8846
17.3856
17.9919
17.6497
18.6132
18.0692
18.7864
18.6134
18.5647
19.0929
18.2724
19.3597
17.9156
19.4867
17.4368
19.5663
16.9018
19.6742
16.5337
19.7302
16.3912
19.7128
16.5137
19.6828
16.9266
19.2547
17.5432
18.5905
18.0681
17.9081
18.4056
17.2386
18.3834
16.5884
18.1961
15.9101
17.8669
15.2277
17.5374
14.7162
16.9565
14.8898
16.6684
15.4377
16.2849
16.0692
16.0143
16.6503
15.7363
17.2079
15.4477
17.6558
15.2095
17.8863
15.1029
17.8958
15.1466
17.6519
15.3495
17.1559
15.7181
16.4223
16.0216
15.6746
16.1772
14.8775
16.1373
14.1389
16.0333
13.4376
15.9034
12.8803
15.624
12.5406
15.0619
12.5197
14.3349
12.7923
13.5285
13.1554
12.8844
13.5347
12.3227
13.907
11.8159
14.1944
11.4065
14.3453
11.1083
14.3258
10.9498
14.1177
10.9159
13.7239
11.0116
13.1009
11.2919
12.2294
11.6042
11.3983
11.8273
10.6155
11.9063
10.0142
11.7851
9.5755
11.5663
9.1232
11.2725
8.64462
10.8243
8.19897
10.0263
7.68316
8.90068
6.85151
7.56108
5.56912
5.69046
3.71157
3.01156
0.975449
-0.778325
-3.03228
-6.06431
-8.73809
-13.1925
-16.4411
-22.2698
-26.0614
-32.904
-36.8732
-43.6247
-47.0124
-52.1623
-53.8159
-56.2126
-55.819
-54.8229
-52.3822
-48.3663
-44.3351
-38.412
-34.9393
-29.9775
-29.4263
-26.5787
-28.8999
-27.0456
-29.5885
-28.2204
-29.3723
-28.0013
-28.5431
-27.6295
-27.8545
-27.1688
-27.2861
-26.192
-26.4769
-24.6417
-25.3271
-22.3931
-23.7213
-19.3073
-21.518
-15.375
-18.4227
-10.6408
-14.2487
-4.86781
-8.83357
2.15313
-1.76095
10.5833
7.35846
20.6553
18.6438
32.6598
31.8881
46.3683
46.5176
61.3986
14.6851
27.0896
16.8999
25.002
18.736
23.9329
20.1802
23.3346
21.2796
22.9612
22.1925
22.6484
22.8841
22.5792
23.2031
22.7028
23.1586
23.1667
22.811
23.6358
22.4087
23.9109
22.0864
23.9685
21.6604
24.011
21.1324
24.0609
20.8032
24.0168
20.7463
24.1256
20.8534
24.2265
21.5288
23.8435
22.3825
23.2305
23.1732
22.6143
23.5243
22.1523
23.5961
21.6579
23.3999
21.078
23.0309
20.4481
22.5961
19.9167
22.2116
19.727
21.6407
20.2407
21.1555
20.9167
20.7674
21.6818
20.443
22.3271
20.216
22.8262
20.1339
23.1255
20.2276
23.257
20.5165
23.1664
21.0054
22.8607
21.7067
22.3596
22.3506
21.8215
22.8313
21.21
22.9624
20.6723
22.966
20.1712
22.8903
19.814
22.6145
19.6665
22.1178
19.7903
21.4542
20.1924
20.7387
20.6796
20.1979
21.2276
19.7965
21.7965
19.5173
22.3134
19.378
22.7038
19.3899
22.9269
19.5781
22.9749
19.9232
22.8741
20.4506
22.5733
21.2068
22.078
21.9676
21.6477
22.6158
21.2913
23.0461
21.0748
23.2303
20.9784
23.2631
20.8738
23.1619
20.7141
22.9073
20.5866
22.2659
20.4109
21.3474
19.7924
20.2648
18.7621
18.6677
17.1583
16.3339
14.6976
12.9276
10.9511
7.98313
5.39395
1.04343
-2.41206
-8.157
-12.5882
-19.3738
-24.3958
-31.2408
-35.9084
-41.5795
-44.7833
-47.8038
-48.9267
-48.4642
-47.0516
-42.2954
-37.6395
-29.2794
-23.5815
-15.7906
-12.8728
-9.15244
-9.71181
-7.66431
-8.74613
-6.44483
-6.87672
-5.15473
-4.5717
-3.87624
-2.9968
-2.82217
-2.02628
-1.8866
-1.67354
-0.998456
-1.45123
0.375287
-1.01086
2.45303
-0.30587
5.3429
1.07646
8.63342
3.32578
12.6751
6.63165
17.5905
11.1823
23.6018
17.3194
30.6238
25.1301
38.6238
34.9584
48.2409
46.8522
59.0239
4.46747
18.3721
8.94475
17.3484
11.9185
17.1732
14.0617
17.2294
15.7423
17.2545
17.1155
17.4546
18.0892
17.7897
18.7036
18.2444
18.8281
18.9545
18.5665
19.6195
18.2705
20.0588
17.9887
20.1483
17.5849
20.213
17.0442
20.1691
16.6127
20.1099
16.3829
19.9581
16.6061
19.8982
17.2507
19.4868
18.0883
18.8471
18.7998
18.2596
19.2834
17.6342
19.2688
17.1857
19.0428
16.5213
18.595
15.7124
18.056
14.9834
17.2341
15.0937
16.8753
15.6939
16.4217
16.5467
16.0507
17.2305
15.8067
17.8394
15.5691
18.2599
15.4424
18.4295
15.4162
18.3831
15.5446
18.0896
15.867
17.5485
16.4088
16.791
16.9131
16.051
17.2253
15.2727
17.1418
14.6239
16.9239
13.9468
16.6786
13.4491
16.2506
13.1969
15.5862
13.214
14.7382
13.5111
13.7993
13.921
13.0649
14.3596
12.4932
14.7768
12.0251
15.0925
11.6912
15.2282
11.5023
15.1608
11.4691
14.8877
11.5673
14.4303
11.8046
13.7607
12.2311
12.8769
12.6853
12.0695
13.0296
11.3767
13.1956
10.8558
13.1635
10.5386
12.9807
10.3174
12.7684
10.1487
12.4791
10.1058
11.85
10.0377
10.9997
9.63408
10.1933
8.93903
8.98717
7.78855
7.1579
5.91911
4.39305
2.89539
0.175566
-1.91577
-6.13393
-9.19425
-15.1254
-19.4352
-27.0469
-32.3604
-40.7933
-46.1613
-53.5504
-57.4863
-61.9743
-64.1886
-64.4874
-63.3677
-59.3129
-54.1497
-45.3173
-37.951
-29.1995
-25.6422
-21.5771
-24.8007
-23.4869
-28.8418
-28.2643
-28.364
-27.8184
-26.8356
-27.0196
-26.1067
-27.064
-25.7739
-26.4229
-25.4913
-25.3343
-25.2353
-23.9488
-24.6424
-21.8137
-23.6896
-18.7863
-21.9082
-15.4472
-19.2802
-11.6998
-15.6393
-7.11126
-10.7015
-1.48459
-3.96106
5.55892
4.72786
13.8683
14.5059
23.8972
25.4403
37.8295
15.8502
25.3855
17.527
23.6124
18.6954
22.7513
19.7484
22.1916
20.5546
21.8651
21.297
21.499
22.0357
21.5958
22.3218
21.8808
22.3595
22.5333
22.0172
23.1908
21.6847
23.5334
21.4769
23.7747
21.0424
23.82
20.607
23.727
20.2011
23.6481
20.0003
23.7634
20.0409
23.799
20.932
23.3131
21.9621
22.6853
22.951
22.0364
23.4043
21.7261
23.4809
21.3548
23.3577
20.8367
22.9825
20.1407
22.3556
19.3728
21.7353
18.8723
21.0106
19.4957
20.3119
20.5416
19.73
21.3742
19.515
22.0497
19.38
22.5637
19.3604
22.8564
19.5268
22.9189
19.8978
22.7382
20.4952
22.3574
21.3572
21.778
22.1786
21.2109
22.8117
20.588
22.8773
20.0705
22.7315
19.4667
22.538
19.081
22.1515
19.0492
21.5589
19.1922
20.7236
19.5987
19.7951
20.1168
19.1145
20.7143
18.6782
21.3223
18.3896
21.876
18.2765
22.2418
18.3378
22.394
18.5949
22.3486
19.0215
22.1458
19.6329
21.7326
20.4813
21.0988
21.3437
20.5687
22.0401
20.1721
22.4953
19.9427
22.7015
19.8615
22.7191
19.8772
22.6311
19.8929
22.4304
20.0405
21.9303
20.2726
21.0997
20.0513
20.418
19.528
19.4379
18.6113
17.9335
17.0674
15.6119
14.4824
11.9455
10.1638
6.15649
3.22801
-2.61404
-7.12495
-14.962
-21.0895
-29.9312
-36.9914
-45.4099
-51.1376
-56.1754
-60.1093
-61.3459
-61.9534
-58.5036
-54.0665
-43.2563
-33.565
-20.1321
-12.8334
-6.24843
-6.88811
-6.27855
-7.90966
-8.46297
-9.81936
-8.67176
-6.86304
-6.73392
-4.89661
-6.11541
-4.60689
-6.2755
-5.10047
-5.94686
-5.67063
-5.55784
-6.11986
-4.27653
-6.44581
-2.24604
-6.15565
-0.337035
-5.55244
1.96275
-3.91737
4.48265
-1.58781
7.82542
1.96599
12.2822
6.66856
17.4134
12.239
23.4619
20.372
31.7375
8.4422
19.4372
11.8397
18.2459
13.7848
17.7764
15.4892
17.6938
16.7466
17.591
17.8417
17.6806
18.489
18.0756
18.9792
18.491
19.0329
19.4265
18.6672
20.2436
18.3824
20.7737
18.1737
21.0142
17.8917
20.9847
17.4652
20.8409
16.9283
20.6947
16.5144
20.421
16.7789
20.1189
17.7407
19.8258
18.7429
19.1306
19.6803
18.6446
20.1938
18.2859
20.3097
17.9002
20.0897
17.3573
19.5689
16.5334
18.855
15.6222
17.786
15.4496
17.3235
16.1476
16.5583
17.3663
16.1194
18.0366
15.9822
18.697
15.8061
19.0553
15.7906
19.1857
15.8558
19.0876
16.0739
18.7347
16.507
18.0946
17.2993
17.2685
18.0679
16.5807
18.5632
15.9711
18.4803
15.4294
18.1362
14.7521
17.7806
14.2303
17.1994
14.0828
16.4724
14.199
15.4724
14.5755
14.3061
15.016
13.4329
15.4741
12.8706
15.9511
12.4252
16.3274
12.1979
16.4494
12.1552
16.3295
12.2681
15.9935
12.5156
15.4801
12.918
14.7527
13.5493
13.8011
14.1829
13.0099
14.6454
12.4004
14.8868
11.9851
14.9279
11.7728
14.7935
11.7067
14.5888
11.7559
14.339
11.9687
13.8718
12.3289
13.1264
12.3236
12.6765
12.0852
12.066
11.5564
11.0255
10.5358
9.32214
8.65011
6.45043
5.20559
1.57691
-0.830507
-6.42951
-10.6819
-18.7197
-25.0518
-34.964
-42.3454
-52.2327
-58.2855
-64.5895
-69.8831
-72.5521
-74.7005
-73.505
-70.6668
-60.2833
-48.1494
-32.9579
-21.1753
-13.2967
-14.4578
-20.0303
-26.4195
-27.5704
-27.3941
-26.9684
-24.6471
-24.7366
-23.4759
-24.803
-23.3309
-24.4972
-23.184
-23.8359
-23.6124
-23.624
-23.9185
-22.3493
-23.7069
-20.3281
-23.0018
-18.0594
-21.6012
-15.9374
-19.8616
-13.531
-17.4186
-10.9585
-13.619
-7.034
-7.24518
-2.23761
-1.49556
2.65309
5.63518
13.7823
17.4449
23.7237
18.0042
22.5862
18.4651
21.6378
19.1783
21.0312
19.8908
20.6835
20.5286
20.5922
21.0476
20.7446
21.3648
21.1569
21.397
21.8649
21.0166
22.6712
20.8043
23.0828
20.6431
23.3289
20.409
23.4283
20.0485
23.4164
19.6041
23.3123
19.2476
23.3209
19.3199
23.1018
20.0856
22.5032
21.3191
21.7691
22.473
21.2288
23.085
21.0269
23.1625
20.8311
23.1372
20.5303
22.8746
19.8567
22.0995
18.9476
21.119
18.0698
20.1109
18.8579
18.9676
20.1618
18.5498
20.9113
18.4207
21.6096
18.41
22.0984
18.4232
22.4167
18.6214
22.4065
19.0668
22.0934
19.7931
21.5476
20.8467
20.8171
21.78
20.306
22.4452
19.8945
22.5108
19.4519
22.205
18.6934
21.8547
18.3167
21.4619
18.2392
20.8207
18.427
19.7971
18.9042
18.585
19.4099
17.7253
19.9892
17.2645
20.6146
16.9386
21.1961
16.8843
21.493
16.9986
21.5563
17.3189
21.3914
17.81
21.0717
18.4932
20.501
19.4826
19.6623
20.4471
19.0289
21.1511
18.6183
21.5839
18.3809