/*--------------------------------*- C++ -*----------------------------------*\
| =========                 |                                                 |
| \\      /  F ield         | OpenFOAM: The Open Source CFD Toolbox           |
|  \\    /   O peration     | Version:  4.1                                   |
|   \\  /    A nd           | Web:      www.OpenFOAM.org                      |
|    \\/     M anipulation  |                                                 |
\*---------------------------------------------------------------------------*/
FoamFile
{
    version     2.0;
    format      ascii;
    class       volScalarField;
    location    "868";
    object      p;
}
// * * * * * * * * * * * * * * * * * * * * * * * * * * * * * * * * * * * * * //

dimensions      [0 2 -2 0 0 0 0];

internalField   nonuniform List<scalar> 
204246
(
182.687
21.545
87.4348
65.8226
67.5726
75.8701
66.7768
78.9405
67.6064
80.7206
68.2107
82.5094
67.3448
83.4276
68.9724
81.0742
75.4817
70.0193
82.1544
67.5141
83.2826
67.7372
81.7575
68.2936
81.4261
67.8655
82.072
65.8471
82.7408
65.3292
82.4983
65.5507
81.3402
67.9107
77.3594
73.8667
66.9669
79.4276
65.5657
78.9791
65.8574
79.0045
65.507
79.8695
63.6841
80.7039
63.5287
80.4156
64.7175
78.1971
67.0159
75.6481
72.8195
65.671
78.3612
64.451
77.9906
64.8641
78.0955
64.5862
79.0089
62.784
79.8478
62.6041
79.5163
63.718
77.2129
65.8787
74.6135
71.1645
65.3222
75.0764
63.8036
75.8172
63.1097
75.8869
62.2746
76.4575
59.9811
76.7764
59.3439
75.6032
60.2359
72.2955
61.0921
69.0236
64.9269
58.2822
67.2614
55.151
65.9926
52.485
63.7822
48.2444
60.5419
44.6965
56.0972
40.4102
50.6827
36.3005
43.9689
31.3844
37.8954
26.7155
31.6958
25.6238
17.7479
25.8015
12.579
25.6726
8.80378
26.1071
9.38481
26.6246
11.3189
28.3112
14.6557
30.6399
18.5067
33.0988
22.9222
33.9144
30.6437
26.3433
38.6541
25.2471
41.1824
25.6035
42.2393
26.0573
42.8245
26.4411
43.2299
26.7973
43.5639
27.5743
43.3294
29.4994
41.0841
35.8966
31.0195
42.5977
28.9813
44.4464
28.9267
45.3401
29.2016
45.9399
29.7198
46.5201
30.44
47.1195
31.5811
47.4757
34.1601
45.9846
41.3723
37.2604
49.2806
36.7101
52.7529
38.7593
55.1758
42.4145
57.8429
47.0753
61.7174
52.8295
66.8238
59.8138
73.1301
68.7921
81.1137
80.3476
90.6058
97.1273
99.3703
113.224
117.764
131.069
140.819
154.189
168.531
183.432
203.371
221.2
249.488
272.146
316.046
344.991
432.723
448.646
655.686
78.3295
56.7588
62.0876
68.1813
64.216
71.2129
69.0282
73.8364
70.7296
75.6062
71.7828
77.0016
72.5619
76.8122
74.3988
75.0572
77.7407
72.3914
77.7338
72.6259
77.3891
73.0853
76.9031
72.7977
76.9218
72.245
77.2018
71.6135
76.8057
71.4986
76.2195
71.7927
74.9788
73.0827
72.8515
75.7647
70.2
75.0901
70.5562
74.5375
70.3489
74.6167
69.929
75.0074
69.4953
74.7058
69.7012
74.1022
70.5047
72.992
71.571
71.2203
74.4012
68.904
73.8996
69.4303
73.4874
69.3453
73.6744
69.0093
74.1346
68.6171
73.8571
68.815
73.2348
69.5507
72.0829
70.4445
70.348
72.8413
68.1642
72.0807
67.8946
71.8663
67.5431
71.7329
66.8769
71.8085
66.0946
71.042
65.8345
69.8004
65.7917
68.3269
65.8213
65.6015
67.4253
62.2
65.0048
60.3229
63.0026
57.8312
60.8899
54.5908
57.6473
51.1719
53.6348
47.2656
48.479
42.9076
42.7157
37.7431
36.3849
32.9657
29.2538
30.5741
22.3251
23.5801
17.6387
20.8991
15.0519
19.262
14.8648
19.6496
16.0633
21.7194
18.5539
24.3939
21.954
26.7666
26.1132
27.7343
31.5542
27.6619
34.0455
29.4855
35.2959
30.6302
36.1647
31.3281
36.7565
31.8156
37.1568
32.2832
37.3222
33.0824
36.9947
34.7718
35.4559
38.0562
33.1674
38.4995
33.5713
38.9346
34.03
39.4415
34.5053
39.8989
35.0314
40.3697
35.7048
40.7943
36.7826
40.8754
38.9764
40.0092
42.8489
38.6868
44.3598
40.3677
46.177
42.6953
48.4657
45.429
51.3763
48.8574
55.0776
53.371
59.8146
59.179
65.2138
66.9233
72.1594
76.6927
80.3337
89.0809
92.7751
101.846
108.412
117.93
127.617
138.073
151.113
162.695
179.875
192.688
215.896
229.322
264.575
271.218
345.939
311.379
446.059
52.2795
65.1481
64.3966
68.075
67.705
71.8398
69.6321
74.2396
71.6254
75.9957
72.6443
77.217
73.4268
77.2777
74.8356
76.0586
76.6998
74.2631
77.4276
73.5202
77.6082
73.3112
77.3523
73.0248
77.1677
72.5692
77.0908
72.0189
76.8167
71.7534
76.3099
71.934
75.2526
72.8065
73.3522
74.2308
71.4498
74.5528
70.7685
74.5588
70.3905
74.5763
70.047
74.6822
69.716
74.5654
69.7657
74.1488
70.2757
73.27
71.2235
71.8037
72.8209
70.1031
73.3382
69.6004
73.4963
69.3606
73.6307
69.1129
73.8138
68.8315
73.7299
68.8807
73.2996
69.3291
72.3788
70.1196
70.8827
71.4142
69.1334
71.6651
68.2282
71.7391
67.6535
71.651
67.0207
71.4949
66.3311
70.9656
65.9411
69.9655
65.8218
68.2537
65.8712
65.8718
65.9847
63.0638
64.873
60.824
63.138
58.4327
60.7206
55.626
57.3314
52.456
53.0804
48.6956
48.0364
44.2713
42.3987
38.944
36.3327
33.7444
29.7514
28.5331
23.5241
23.6351
18.5715
20.2166
15.4633
18.981
14.5341
19.4714
15.2989
21.0199
18.3149
23.4765
22.4361
26.0089
26.8656
27.6632
30.9898
29.4535
33.5816
30.3523
35.3699
31.1201
36.4007
31.6559
37.0076
32.0613
37.3662
32.5078
37.5111
33.2323
37.237
34.575
36.1358
36.7426
34.5116
37.975
34.084
38.8594
34.2182
39.4837
34.5969
39.9967
35.1098
40.4859
35.8017
40.915
36.8679
41.0589
38.7629
40.5829
41.6741
39.9526
43.8772
40.7928
46.1602
42.649
48.4051
45.5562
50.9693
49.439
54.4459
54.2131
59.0895
60.1703
65.1183
67.6244
72.6225
77.1374
82.2367
88.7478
93.7756
102.776
109.391
119.623
129.296
140.551
154.1
166.623
185.205
199.081
224.737
239.417
279.12
287.043
363.202
341.932
430.712
39.2524
54.8719
56.553
63.4153
63.501
68.8076
68.3006
71.782
71.1762
73.8241
72.8922
74.8016
74.1812
74.8209
75.3756
74.4084
76.4708
74.1956
76.1858
74.4375
75.805
74.5977
75.5672
74.3662
75.4674
74.0181
75.3448
73.7472
74.9038
73.6401
74.3115
73.7902
73.5079
74.2541
72.555
74.6351
72.0465
73.8426
72.0876
73.3647
71.8954
73.2025
71.6602
73.1248
71.5652
72.7778
71.6941
72.3167
72.0503
71.7321
72.5514
70.9792
73.1837
70.703
72.571
70.9173
72.2667
70.8657
72.2383
70.734
72.2544
70.7015
71.9583
70.8422
71.5068
71.1459
70.9082
71.5232
70.1124
71.9649
69.6943
71.2645
69.4946
70.802
69.212
70.4947
68.8067
70.1704
68.4409
69.464
68.19
68.5656
67.9714
67.4356
67.5805
66.0256
67.1846
64.6817
65.1904
63.0833
63.1302
61.0487
60.8425
58.5394
57.8142
55.4352
54.0664
51.5885
49.535
46.9291
44.3105
41.6139
38.1482
36.0501
31.5744
30.4883
25.2391
24.058
20.2487
18.7018
16.7536
16.193
15.4023
16.2811
15.8792
17.7772
18.5008
20.4361
22.2382
23.5932
26.0795
26.3018
29.5562
28.9477
31.9934
31.0449
33.2199
32.229
34.1137
32.9423
34.7061
33.4526
35.0414
33.95
35.1839
34.6329
35.0622
35.7046
34.6048
36.8996
34.5829
36.9006
35.0615
37.0679
35.5449
37.3702
36.0225
37.7248
36.5198
38.0993
37.1272
38.4314
38.0073
38.5515
39.4726
38.6525
41.0002
39.3836
41.8192
40.8094
43.1025
42.6702
44.9841
44.8932
47.3323
47.7333
50.4495
51.3652
54.4819
56.0213
59.4102
62.2
65.6739
69.9223
73.5043
79.7069
83.8505
90.7815
96.9023
104.234
112.9
120.726
132.314
140.621
155.833
164.617
185.18
192.275
225.319
220.203
277.69
264.555
335.652
44.4043
56.8665
58.7722
63.7395
65.7652
69.4499
69.4826
73.1087
71.9469
74.9603
73.8267
75.8077
75.2026
75.8659
76.0976
75.6887
76.5363
75.6607
76.3412
75.4293
76.1876
75.1652
76.0306
74.8025
75.8105
74.4214
75.5057
74.1246
75.0529
73.8883
74.5165
73.867
73.74
73.9991
72.9433
73.8981
72.6362
73.4559
72.3613
73.2407
72.0146
73.0982
71.7633
72.9422
71.6747
72.6737
71.7114
72.3254
71.8882
71.8881
72.1669
71.3604
72.3936
71.2496
72.1323
71.1405
72.1125
70.951
72.1227
70.8197
72.0736
70.8071
71.8684
70.8701
71.5326
71.0123
71.0617
71.207
70.46
71.2553
70.1827
70.8972
69.788
70.6348
69.3695
70.3738
68.9353
70.0058
68.5591
69.4192
68.2301
68.6101
67.9898
67.4837
67.5006
66.2291
66.5965
64.9798
65.4074
63.523
63.506
61.5828
61.2337
59.2059
58.3578
56.2246
54.7889
52.4885
50.4683
47.9476
45.306
42.6747
39.2739
36.8236
32.7019
30.6306
26.4084
24.4566
20.7491
19.1232
16.7252
15.8701
14.7358
15.2474
15.0912
16.602
17.6865
19.5853
21.6627
23.3729
25.9623
26.9038
29.607
29.9742
32.1843
32.0715
33.5739
33.0625
34.5397
33.5631
35.098
33.9294
35.3613
34.3345
35.4692
34.8935
35.3879
35.6428
35.2012
36.366
35.3558
36.5942
35.5664
37.0032
35.8638
37.4299
36.2593
37.8503
36.7401
38.264
37.356
38.6377
38.2204
38.7786
39.3816
39.2272
40.6968
39.9747
41.7087
41.2371
43.1311
42.9289
45.017
45.2118
47.5383
48.115
50.8065
51.8475
54.9721
56.7097
60.1905
62.9177
66.8091
70.8166
75.1427
80.5712
85.8022
92.5279
99.4078
107.149
116.435
125.068
137.518
146.887
163.327
172.98
195.482
203.237
237.586
234.525
283.813
272.451
317.549
39.6805
53.8674
54.3428
61.101
62.2141
67.6255
67.5123
71.0795
70.8276
73.1662
72.9749
74.263
74.376
74.6925
75.2799
74.8631
75.6413
75.1046
75.5667
75.2432
75.3495
75.3027
75.144
75.1223
74.9756
74.8851
74.7112
74.6901
74.3098
74.512
73.8729
74.3623
73.3922
74.3335
72.9128
74.044
72.7879
73.3793
72.7849
72.9482
72.5885
72.6808
72.4222
72.4355
72.369
72.1215
72.4015
71.8082
72.4852
71.5218
72.5674
71.2695
72.5038
71.4274
72.0297
71.5561
71.8102
71.5246
71.7001
71.4855
71.5764
71.5184
71.3439
71.5874
71.0665
71.6335
70.7871
71.6469
70.4806
71.5051
70.4005
70.9786
70.3246
70.4923
70.0582
70.1505
69.7748
69.7494
69.5045
69.218
69.1648
68.5997
68.8014
67.874
68.2949
66.9674
67.4964
65.9142
66.1495
64.6828
64.5044
63.0045
62.452
60.8458
59.8517
58.0556
56.5712
54.5128
52.4376
50.1301
47.3684
44.8941
41.3173
38.8725
34.5515
32.192
27.5568
25.1777
21.1983
18.895
16.1496
14.6618
13.3943
13.1305
13.3148
14.227
15.687
17.29
19.7211
21.4102
24.3202
25.5156
28.3052
29.1251
31.0132
31.6594
32.712
32.95
33.6124
33.5626
34.0916
34.0415
34.2461
34.4621
34.3751
34.9299
34.4995
35.5187
34.5796
35.9861
35.1319
36.0532
35.6058
36.2218
36.0249
36.4579
36.4536
36.7422
36.8899
37.0517
37.3787
37.405
37.9862
37.6757
38.8182
38.1081
39.5379
39.0615
40.2768
40.0989
41.3328
41.4566
42.7534
43.1694
44.6809
45.3401
47.1887
48.1854
50.393
51.9473
54.4602
56.8165
59.6219
63.0083
66.2493
70.694
74.8384
79.9583
85.6607
91.2401
99.0878
105.034
115.51
121.767
135.555
141.534
160.357
163.592
194.012
187.564
228.744
226.237
266.828
46.8041
56.0893
57.2293
63.2048
64.3024
68.9669
69.0994
72.6825
72.2219
74.8002
74.3293
75.8883
75.6921
76.253
76.4229
76.3052
76.5869
76.3708
76.3033
76.3243
75.9316
76.0197
75.6919
75.6154
75.4211
75.2713
75.0481
74.9825
74.588
74.701
74.1096
74.4638
73.5698
74.1799
73.0965
73.7717
73.0212
73.2403
72.9148
72.8462
72.6783
72.5881
72.4784
72.3454
72.3788
72.0868
72.3472
71.8238
72.3453
71.5931
72.3217
71.4246
72.1424
71.6074
71.7836
71.6526
71.6721
71.568
71.6052
71.5093
71.4973
71.5089
71.3385
71.5388
71.121
71.5224
70.8717
71.4487
70.6083
71.2357
70.5829
70.8203
70.4276
70.4218
70.1397
70.0766
69.8189
69.6966
69.5193
69.2222
69.1829
68.6133
68.7604
67.8877
68.2135
67.0799
67.4384
66.236
66.3458
65.0954
64.8887
63.5665
63.0311
61.5898
60.6659
59.0287
57.636
55.754
53.7712
51.6067
48.9349
46.4986
43.0525
40.3924
36.3163
33.4426
29.1857
26.0979
22.1856
19.3499
16.2987
14.3198
12.6284
11.9649
11.9121
12.598
14.045
15.8688
18.5059
20.7433
23.8942
25.7804
28.6294
29.9005
31.9555
32.5751
33.7886
33.9185
34.5074
34.4659
34.6559
34.6908
34.6846
34.9141
34.7979
35.2207
34.8596
35.6301
35.0387
35.9606
35.4308
36.0781
35.8801
36.308
36.3056
36.6152
36.6998
36.968
37.1286
37.3364
37.598
37.6872
38.215
38.0657
38.9604
38.6068
39.7364
39.3043
40.5412
40.3679
41.622
41.7603
43.1327
43.5327
45.1764
45.8033
47.828
48.7709
51.1616
52.69
55.412
57.7202
60.8538
64.0832
67.8209
72.0124
76.768
81.7813
88.1267
93.7865
102.233
108.434
119.526
126.032
140.475
146.599
166.219
168.442
196.382
193.036
224.245
220.405
249.206
43.7563
56.2039
54.8934
62.7309
62.2639
67.9813
67.4662
71.2241
70.9032
73.2636
73.141
74.3697
74.473
75.0008
75.198
75.3817
75.4103
75.6207
75.4164
75.7098
75.3136
75.6936
75.1593
75.5821
74.938
75.3635
74.6499
75.1338
74.282
74.8639
73.915
74.591
73.543
74.3342
73.1725
73.8534
73.1194
73.3031
73.0732
72.8889
72.8762
72.5461
72.734
72.2654
72.6317
72.0195
72.563
71.7696
72.5263
71.5622
72.4643
71.4813
72.2072
71.7085
71.8112
71.828
71.6363
71.8211
71.5181
71.8145
71.3941
71.8125
71.2565
71.8098
71.0837
71.7971
70.9004
71.7123
70.7341
71.4069
70.7931
70.9636
70.7098
70.5875
70.4954
70.2106
70.2643
69.822
70.0003
69.4125
69.6767
68.9671
69.3229
68.3999
68.8574
67.7272
68.1142
66.9864
67.0877
66.0291
65.8092
64.7008
64.1607
62.9406
62.0188
60.6135
59.2172
57.5603
55.581
53.6123
50.9343
48.6212
45.1568
42.4591
38.2771
35.1601
30.5391
27.1224
22.6212
19.2721
15.5357
12.9587
10.6599
9.50686
9.13196
9.64342
11.1282
12.8991
15.8049
18.203
21.7267
23.9978
27.1827
28.9052
31.0927
32.1411
33.2468
33.7434
34.0686
34.353
34.1433
34.5054
34.0691
34.5577
34.1225
34.8176
34.2676
35.2167
34.5716
35.5277
35.15
35.6402
35.6618
35.8182
36.0644
36.0428
36.4578
36.288
36.8278
36.5706
37.2106
36.8629
37.6519
37.1668
38.1703
37.5974
38.6798
38.3551
39.1585
39.1574
39.9496
40.1178
41.0639
41.3397
42.5225
42.9795
44.4115
45.189
46.8636
48.1026
50.0563
51.8834
54.2045
56.7146
59.6066
62.7711
66.6221
70.3003
75.5245
79.596
86.699
91.0484
100.506
105.023
117.482
121.323
138.993
139.697
164.289
162.378
190.825
190.737
217.754
48.3144
59.5066
57.8071
65.2882
64.4843
70.2088
69.537
73.2539
72.775
75.3161
74.9179
76.4865
76.2864
76.8595
76.8714
76.9466
76.9214
76.9021
76.6161
76.7583
76.2039
76.4943
75.784
76.1401
75.4394
75.7695
75.055
75.4225
74.6071
75.0619
74.1288
74.7023
73.6484
74.3125
73.2812
73.7613
73.2003
73.229
73.1028
72.8599
72.8874
72.5258
72.7133
72.2452
72.5891
71.9941
72.5013
71.767
72.4236
71.5813
72.2837
71.537
72.0167
71.7359
71.6741
71.818
71.554
71.7998
71.4669
71.7741
71.3776
71.7721
71.2522
71.7744
71.0796
71.7367
70.9237
71.5853
70.8177
71.2771
70.8532
70.8871
70.7258
70.5695
70.5047
70.2113
70.2579
69.8298
69.9876
69.411
69.6763
68.9232
69.2964
68.4271
68.8325
67.8969
68.1647
67.3028
67.3001
66.4583
66.2218
65.3109
64.8069
63.7915
62.9491
61.7637
60.4849
59.0517
57.2172
55.4467
52.9377
50.7277
47.4469
44.6695
40.661
37.2462
32.7482
28.7702
24.2048
20.1635
16.1069
12.7506
9.98873
8.0957
7.24586
7.16967
8.34762
10.1599
13.2903
16.3522
20.439
23.5564
27.2558
29.5128
32.0453
33.2342
34.5297
34.9053
35.2644
35.3498
35.0766
35.2323
34.7532
35.0757
34.6975
35.2298
34.6635
35.4229
34.8613
35.5957
35.3167
35.73
35.7689
35.9845
36.2271
36.2613
36.651
36.559
37.0661
36.8719
37.4822
37.2092
37.9257
37.5593
38.424
38.0096
38.9091
38.6492
39.4842
39.4182
40.3185
40.4113
41.4294
41.721
42.9274
43.4179
44.8957
45.6614
47.4149
48.6259
50.6849
52.4514
54.928
57.3145
60.4292
63.4425
67.5226
71.0506
76.5738
80.4603
87.8324
91.9791
101.599
105.809
118.375
121.616
138.525
138.861
160.541
158.193
180.963
179.822
201.239
48.1376
58.3183
56.1081
66.0647
63.3554
69.6808
68.249
72.2267
71.4263
73.8983
73.582
74.826
74.7587
75.5536
75.364
75.9218
75.5719
76.0794
75.5864
76.1198
75.5062
76.0822
75.3427
75.9283
75.131
75.6829
74.8594
75.4137
74.5238
75.1218
74.1353
74.8031
73.7245
74.4314
73.3643
73.8562
73.2847
73.3179
73.2049
72.9251
73.0042
72.5919
72.8243
72.2932
72.7049
72.0403
72.5981
71.8149
72.5213
71.6348
72.3728
71.6088
72.0883
71.8044
71.7492
71.903
71.6132
71.9148
71.5004
71.9238
71.4004
71.9344
71.2911
71.9417
71.1554
71.9162
71.0408
71.7595
70.9616
71.4409
71.0303
71.0513
70.9402
70.7433
70.7543
70.4134
70.5458
70.0694
70.3186
69.7086
70.0604
69.3111
69.7386
68.8754
69.3109
68.4229
68.6917
67.9083
67.9174
67.1824
66.9654
66.1949
65.7141
64.864
64.0514
63.0532
61.8197
60.5852
58.8233
57.2402
54.8301
52.7649
49.5945
46.892
42.9326
39.4349
34.7371
30.4917
25.3298
20.7198
15.757
11.5913
7.80897
5.18378
3.71303
3.47145
4.72283
6.57862
9.93326
13.251
17.7722
21.4477
25.7712
28.717
31.7103
33.3244
34.6982
35.2433
35.4545
35.4824
35.0003
34.9896
34.3408
34.5345
34.0023
34.6932
34.1515
34.9709
34.5048
35.2462
35.041
35.4206
35.562
35.6066
36.0015
35.8025
36.347
36.0451
36.6823
36.2956
37.0004
36.5578
37.3266
36.8422
37.6696
37.2314
37.9677
37.7648
38.3626
38.298
38.9348
38.9724
39.6972
39.8557
40.7342
41.0401
42.112
42.6539
43.9245
44.7999
46.3388
47.617
49.5389
51.2532
53.7583
55.8916
59.286
61.7634
66.3977
69.1389
75.4225
78.3414
86.723
89.6349
100.848
103.008
118.547
118.333
137.813
138.236
158.655
159.147
179.195
50.0578
62.9348
58.9243
69.2914
65.9699
72.6678
70.6047
74.8576
73.6051
76.5266
75.7194
77.5035
77.1653
77.6304
77.5266
77.713
77.3004
77.5154
76.8675
77.2109
76.3843
76.8886
75.9492
76.5095
75.6064
76.1116
75.2154
75.7252
74.7741
75.3197
74.3175
74.9156
73.84
74.4646
73.4585
73.8513
73.3165
73.2774
73.2269
72.8772
73.0071
72.5427
72.8131
72.2553
72.6629
72.004
72.5537
71.7683
72.452
71.6026
72.2638
71.5927
71.9753
71.7696
71.651
71.8557
71.5326
71.8668
71.4505
71.869
71.3677
71.896
71.2557
71.9249
71.1279
71.886
71.0491
71.7157
70.9966
71.3935
71.0576
71.007
70.9725
70.719
70.7714
70.3954
70.5485
70.0531
70.3121
69.6879
70.0579
69.2914
69.7435
68.9272
69.3359
68.6039
68.7889
68.2246
68.1561
67.6316
67.3923
66.836
66.3847
65.7693
65.0351
64.2924
63.1848
62.2142
60.6269
59.301
57.1138
55.2534
52.3118
49.6675
45.8554
42.2185
37.5281
32.8932
27.5815
22.2737
16.815
11.6838
7.14818
3.38778
0.96944
-0.337467
0.0116838
1.42676
4.83269
8.77515
14.2516
19.1701
24.5996
28.4822
32.1571
34.3406
35.9943
36.6548
36.9325
36.812
36.2542
36.0241
35.2247
35.2992
34.6014
35.0654
34.4121
35.1619
34.5329
35.2584
35.0705
35.3734
35.6038
35.6745
36.0934
35.9719
36.5303
36.2489
36.9326
36.5304
37.2958
36.8245
37.6059
37.1209
37.933
37.5002
38.1933
38.0001
38.5594
38.5156
39.0951
39.173
39.8164
40.0295
40.8165
41.1612
42.1523
42.7013
43.9055
44.7467
46.2241
47.4223
49.2941
50.8649
53.3458
55.2702
58.6511
60.8238
65.4749
67.8384
74.0824
76.5408
84.7759
87.0676
98.0251
99.1093
113.616
113.437
129.841
129.716
146.95
147.074
164.071
48.1893
62.8094
57.8223
69.6154
65.4291
72.0338
69.46
74.0601
72.1778
74.9948
74.1333
75.6047
75.2619
76.2865
75.8588
76.5937
76.0718
76.6596
75.9515
76.6259
75.7516
76.5011
75.5738
76.2426
75.4238
75.9884
75.1561
75.7088
74.8091
75.3921
74.3919
75.0374
73.9443
74.5909
73.5645
73.9706
73.4007
73.3666
73.3184
72.945
73.1166
72.6107
72.9118
72.3118
72.7695
72.0561
72.6554
71.8282
72.5342
71.6765
72.3362
71.6668
72.0455
71.8309
71.7208
71.9319
71.5862
71.9538
71.4884
71.9813
71.4112
72.0202
71.3169
72.0578
71.2229
72.0226
71.1645
71.8612
71.1331
71.5442
71.2148
71.1567
71.1581
70.8778
70.9908
70.5759
70.7981
70.2644
70.5984
69.9436
70.3762
69.6068
70.0842
69.2906
69.6683
69.0198
69.1732
68.6779
68.6051
68.1512
67.9349
67.4727
67.0497
66.5586
65.8718
65.2836
64.2608
63.4672
62.0135
60.8727
58.8743
57.2034
54.5062
52.0459
48.4672
44.9329
40.3301
35.5812
29.9347
24.1796
17.8975
11.7757
5.90063
0.903248
-2.70957
-4.75975
-4.48636
-2.90173
0.650428
5.0056
11.0186
16.6197
23.1425
28.1227
32.7487
35.4253
37.3206
37.8943
37.9538
37.6646
36.6284
36.0321
34.7737
34.6344
33.7474
34.5234
33.9716
34.8082
34.3393
35.0354
34.8751
35.1604
35.4539
35.4751
35.9183
35.6539
36.2446
35.8603
36.5574
36.0771
36.8716
36.3106
37.1255
36.5731
37.3419
36.9118
37.4847
37.3058
37.7649
37.6632
38.142
38.0918
38.6323
38.6566
39.3038
39.4361
40.2397
40.5221
41.4822
42.0011
43.1932
43.9689
45.5214
46.5406
48.6315
49.9084
52.7387
54.2083
58.1478
59.7057
65.1059
66.6511
73.9463
75.321
85.1789
85.7599
98.2087
99.2753
113.499
114.98
130.159
131.286
147.155
48.3119
66.3655
59.7424
72.2402
67.5943
75.8431
71.4817
77.5068
74.2229
78.3623
76.4908
78.7293
78.0351
78.6129
78.2348
78.4583
77.7964
78.1647
77.1637
77.6841
76.5759
77.204
76.1312
76.7436
75.8038
76.366
75.4498
75.9853
75.0232
75.5931
74.5523
75.1681
74.066
74.6636
73.6509
73.9961
73.4405
73.3398
73.3281
72.8947
73.1095
72.5521
72.8957
72.2666
72.729
72.0133
72.6076
71.7848
72.4834
71.6253
72.2682
71.6178
71.972
71.7701
71.6419
71.8729
71.5034
71.898
71.4275
71.9265
71.3564
71.9945
71.2315
72.0591
71.1883
72.03
71.1588
71.8681
71.1528
71.5457
71.236
71.1359
71.2027
70.8629
71.0203
70.5604
70.81
70.2444
70.6011
69.9202
70.3987
69.5866
70.1498
69.3112
69.7607
69.1431
69.3096
68.9562
68.8581
68.5658
68.3385
68.074
67.6695
67.4043
66.7808
66.4417
65.5376
65.014
63.7446
62.8943
61.1543
59.7714
57.371
55.1353
51.8217
48.3897
43.8874
38.9681
33.0875
26.6041
19.522
12.2653
5.2397
-1.2702
-6.38369
-10.0964
-11.4724
-11.3016
-8.42765
-3.99305
3.11202
10.5325
18.9103
25.994
32.1032
36.4134
38.9154
40.0001
39.9652
39.784
38.5945
37.8763
36.1642
35.6887
34.3541
34.7057
33.9291
34.8898
34.0442
34.9197
34.6535
35.0431
35.3144
35.4865
35.9754
35.7605
36.3993
36.0115
36.8075
36.2482
37.1459
36.4952
37.3741
36.7287
37.6004
37.0528
37.6853
37.4455
37.8233
37.7805
38.1078
38.1566
38.481
38.6298
39.0487
39.2786
39.8666
40.193
40.9598
41.4453
42.4455
43.1324
44.4832
45.356
47.2305
48.2738
50.9892
51.9907
55.7987
56.8657
61.9948
63.0231
69.7099
70.6693
79.2814
80.3288
90.6351
91.87
103.679
104.999
118.162
119.216
133.299
45.8282
65.4796
56.8002
72.4729
66.8566
74.9379
70.7302
75.8138
72.7299
76.3001
74.6653
76.5696
75.6917
77.181
76.5912
77.4515
76.7498
77.3308
76.5256
77.0982
76.2009
76.8789
75.9155
76.5838
75.69
76.2849
75.469
76.0157
75.1117
75.7056
74.6775
75.3233
74.2066
74.8149
73.7911
74.1239
73.5654
73.436
73.4392
72.9625
73.2156
72.6211
72.9873
72.3276
72.825
72.0634
72.7139
71.8313
72.5788
71.6928
72.3556
71.6773
72.0486
71.8259
71.692
71.94
71.5409
71.9766
71.4506
72.0223
71.3788
72.1065
71.2832
72.1737
71.2374
72.1559
71.2423
72.0021
71.2705
71.6876
71.3797
71.2626
71.3626
71.0004
71.2131
70.7111
71.0322
70.4091
70.8663
70.0964
70.7052
69.7859
70.4589
69.5495
70.0673
69.3898
69.5901
69.2579
69.1595
68.9269
68.7005
68.517
68.1246
67.9677
67.3878
67.1867
66.3805
66.0192
64.9098
64.2392
62.7401
61.5925
59.5491
57.6179
54.7047
51.5489
47.3729
42.5924
36.7926
30.2299
22.8239
14.7046
6.35282
-1.88931
-8.90413
-14.3472
-16.6508
-16.523
-13.4896
-8.69331
-1.09348
6.81066
16.7337
25.269
33.1575
38.1917
41.5079
42.2035
42.0194
41.4025
39.4658
38.0767
35.5868
34.7958
33.2129
34.0349
33.3998
34.7645
34.2221
34.8276
34.6215
34.6747
35.2466
35.258
35.9444
35.5224
36.1659
35.6691
36.4428
35.9006
36.7943
36.1152
36.998
36.3119
37.1681
36.6199
37.1951
37.0048
37.2876
37.2364
37.4945
37.4785
37.7085
37.7662
38.0545
38.1865
38.6053
38.805
39.3634
39.631
40.4475
40.7736
41.9521
42.3246
43.9949
44.3705
46.7813
47.1942
50.3813
50.8409
55.2032
55.6362
61.491
61.9779
69.4203
70.1612
79.298
80.4419
91.0462
92.5725
104.486
105.798
119.271
43.9195
63.5236
59.4148
72.1971
68.1643
78.337
73.3455
78.7674
75.835
78.982
77.968
79.6792
79.0279
79.5585
78.8534
79.3036
78.1654
78.6578
77.4698
78.0198
76.8193
77.5033
76.3147
77.0128
75.973
76.5786
75.6667
76.2345
75.2738
75.8721
74.8204
75.4458
74.3334
74.9034
73.8804
74.1774
73.5909
73.4141
73.4336
72.8967
73.1918
72.5476
72.9533
72.262
72.8006
71.9936
72.6923
71.763
72.561
71.6266
72.3249
71.613
72.0014
71.7596
71.6181
71.8842
71.4442
71.9248
71.3573
71.9842
71.2891
72.0883
71.2099
72.1814
71.1908
72.1806
71.2224
72.033
71.2825
71.7245
71.4084
71.2931
71.3898
71.0005
71.2556
70.6992
71.0751
70.364
70.9257
70.0163
70.7716
69.7251
70.5368
69.5447
70.1818
69.4699
69.7426
69.4595
69.3545
69.261
69.0132
69.0074
68.6121
68.6481
68.1077
68.1167
67.4075
67.2833
66.3523
65.9538
64.7112
63.8459
62.1322
60.5248
58.0571
55.2942
51.5983
47.1179
41.4847
34.5988
26.3752
16.9837
6.76356
-3.66055
-13.1705
-21.1285
-26.0883
-28.1643
-27.2485
-23.8261
-15.5455
-5.91505
7.02058
19.749
30.5356
39.2609
43.8598
45.7413
44.6763
44.7199
42.9599
41.6654
38.0539
36.4577
33.692
33.417
32.718
34.3511
33.3893
34.7109
34.1764
34.7178
34.8208
35.3159
35.8887
35.7321
36.3282
35.8652
36.7205
36.0482
37.0506
36.2866
37.2303
36.448
37.3761
36.6831
37.3678
37.0633
37.3043
37.288
37.42
37.4464
37.5076
37.6041
37.7206
37.8648
38.1101
38.3327
38.6535
38.9657
39.4763
39.8281
40.694
41.0444
42.3918
42.6559
44.7752
44.9571
47.8195
47.9476
51.9312
51.932
56.9999
57.1278
63.5589
63.7764
71.8415
72.0786
81.6164
82.0116
93.097
93.3982
106.186
41.1385
63.7206
53.3712
68.9544
67.4889
76.4057
71.6015
76.3651
74.0128
76.1165
75.8573
76.8911
76.5161
77.9583
77.5076
78.3895
77.6695
78.1917
77.134
77.666
76.492
77.2859
76.1895
76.937
75.9185
76.6041
75.6762
76.3579
75.3452
76.0642
74.9385
75.6534
74.5035
75.0912
74.0763
74.3346
73.7804
73.5252
73.5774
72.9614
73.3063
72.5998
73.0587
72.3107
72.9171
72.0254
72.8283
71.7943
72.6918
71.6737
72.4373
71.668
72.08
71.8256
71.6463
71.9688
71.4367
72.0124
71.3403
72.0677
71.2661
72.1885
71.2084
72.2855
71.211
72.2919
71.2755
72.1472
71.3678
71.8449
71.5321
71.399
71.5465
71.0977
71.4377
70.7959
71.3062
70.4557
71.1909
70.1169
71.0327
69.8569
70.7725
69.7028
70.4111
69.6159
69.9612
69.6255
69.5293
69.4805
69.2138
69.2792
68.8824
69.0072
68.4964
68.6078
67.9823
67.9833
67.2027
66.954
65.9661
65.3323
63.994
62.6976
60.6604
58.2598
55.042
51.0238
45.9308
39.5327
31.5856
21.8818
10.8427
-1.28221
-13.04
-23.9525
-30.9514
-34.4002
-33.7325
-30.8053
-22.7301
-12.903
0.544401
15.3345
29.6805
40.3558
47.9194
49.5347
48.2802
46.7882
43.8956
41.9813
37.5785
35.3303
32.3241
32.5033
31.8398
34.7003
34.4807
34.5628
34.2899
33.6614
34.7611
34.7695
36.2289
35.4308
36.1628
35.2101
36.3885
35.7452
36.7925
35.9677
36.9008
36.0787
37.075
36.3694
37.0577
36.7492
36.976
36.9669
37.0602
37.0946
37.0106
37.0907
37.0653
37.1937
37.2786
37.4778
37.562
37.8217
38.052
38.3025
38.874
39.0378
40.0129
40.0069
41.7385
41.5128
43.8153
43.4976
46.7591
46.3913
50.3688
50.3172
55.3821
55.5872
62.2201
62.9151
70.5512
71.6441
80.9292
81.7282
93.58
39.8112
61.9783
52.9617
66.598
67.9465
77.3099
74.4371
78.8381
77.5473
79.0986
79.076
79.9402
79.5785
80.049
79.1258
79.6779
78.6534
79.2733
77.9909
78.5387
77.0317
77.7134
76.5134
77.2233
76.1727
76.813
75.821
76.5185
75.4505
76.2208
75.0443
75.8019
74.6024
75.2421
74.1591
74.432
73.8382
73.5366
73.5829
72.9086
73.272
72.5217
73.0462
72.2217
72.9358
71.9289
72.8581
71.6982
72.7203
71.5944
72.4544
71.6003
72.0649
71.775
71.5813
71.9274
71.3317
71.9892
71.2205
72.0659
71.141
72.2143
71.0983
72.3244
71.1307
72.3454
71.2324
72.2131
71.3688
71.9071
71.5796
71.4294
71.6245
71.0923
71.5363
70.7646
71.3978
70.3962
71.2521
70.0533
71.0849
69.8079
70.8553
69.6837
70.5391
69.6574
70.1269
69.7741
69.6721
69.7481
69.4136
69.6445
69.2085
69.5002
68.9881
69.2731
68.706
68.8814
68.2471
68.2037
67.437
67.0398
66.0403
65.1109
63.6299
61.7708
59.2519
55.8121
51.3698
45.3484
37.7083
27.8129
15.6421
1.70049
-13.2597
-27.9918
-39.1584
-44.9147
-47.7675
-48.453
-41.6041
-31.929
-16.3543
3.09267
21.4545
39.0034
49.9099
55.0976
51.2343
51.4193
49.9685
48.7808
42.3457
37.9819
32.1282
30.1585
29.0397
32.4662
33.1071
35.3294
34.2269
34.3683
33.5854
34.6907
35.805
36.1094
36.6341
35.7544
36.4717
35.8103
37.0015
36.2283
37.1721
36.2578
37.2287
36.4138
37.1871
36.7621
37.0266
37.0054
37.0209
37.0766
36.9088
36.9789
36.7906
36.904
36.8711
37.1132
36.9951
37.3113
37.2286
37.5242
37.774
38.0134
38.5922
38.5324
39.9967
39.7076
41.4841
40.9305
43.9569
43.1396
46.5203
45.8675
50.2602
49.4512
55.5098
54.6833
62.0387
61.0467
69.9553
68.8908
80.9545
35.9665
58.2885
50.3305
62.4708
64.3174
73.3228
71.8154
76.4285
73.4451
76.417
75.7971
76.9345
77.0464
78.4472
77.9658
79.0056
78.3339
78.8665
77.6415
78.2876
76.8033
77.5717
76.4502
77.16
76.141
76.927
75.8126
76.7083
75.5
76.4303
75.1581
76.0546
74.7576
75.4593
74.3861
74.5883
74.0878
73.638
73.7582
72.9494
73.3922
72.5443
73.1755
72.2093
73.1042
71.9011
73.0484
71.6944
72.8798
71.6304
72.5722
71.6684
72.1293
71.8685
71.5732
72.0283
71.2896
72.0745
71.1527
72.1611
71.0584
72.3213
71.028
72.435
71.0899
72.446
71.2368
72.3016
71.4284
71.984
71.6978
71.487
71.7888
71.1222
71.7271
70.7977
71.6302
70.4307
71.5013
70.0989
71.3194
69.8759
71.0637
69.7536
70.7128
69.7308
70.2648
69.8582
69.7628
69.8463
69.4961
69.7718
69.3303
69.6729
69.1883
69.5285
69.0283
69.2873
68.7819
68.8214
68.2866
68.0253
67.3291
66.5948
65.4889
63.9963
62.0446
59.2858
55.673
50.6518
43.8268
34.7698
22.7156
8.01274
-8.497
-26.8381
-39.8881
-46.2275
-47.5481
-50.444
-46.5766
-40.4195
-28.9031
-9.162
13.7059
33.5135
52.4794
61.9807
56.7496
50.4537
47.5864
48.2242
42.9593
37.8545
31.6577
29.8562
26.7678
32.791
35.0213
34.9029
34.4689
32.8024
33.1826
33.6259
36.4261
35.8727
36.3746
34.7497
36.2252
35.6177
36.8791
35.898
36.7978
35.9657
37.0458
36.315
37.0274
36.5222
36.8715
36.8791
36.9137
37.0269
36.7094
36.7803
36.485
36.6144
36.4431
36.7174
36.4962
36.7569
36.5352
36.7408
36.8227
36.9331
37.26
37.0813
38.3256
37.7413
39.0904
38.173
40.6552
39.6998
41.8868
41.1234
44.2667
42.9762
48.1529
47.9362
52.7209
53.1935
58.5859
58.6217
67.9578
29.901
51.7967
47.8264
60.4171
62.7243
73.4001
72.9753
78.5792
76.8411
79.3667
78.4631
79.658
78.875
79.5178
78.72
79.4941
78.838
79.7469
78.4361
78.9825
77.3873
78.0446
76.5846
77.4747
76.2499
77.1653
75.862
76.8898
75.5185
76.586
75.1954
76.2326
74.8223
75.6915
74.4524
74.8164
74.1503
73.7042
73.8061
72.8965
73.4031
72.4296
73.2307
72.0744
73.1662
71.7639
73.1194
71.5779
72.9497
71.5379
72.6329
71.607
72.152
71.8646
71.5195
72.0323
71.1781
72.1005
71.0131
72.1982
70.9111
72.3774
70.8876
72.4978
70.978
72.5232
71.1719
72.387
71.422
72.0605
71.773
71.5139
71.9228
71.081
71.8938
70.7142
71.7245
70.3668
71.5485
70.0508
71.3675
69.8238
71.1672
69.7186
70.8468
69.7593
70.3848
69.9852
69.8453
70.0474
69.5948
70.0082
69.499
69.9619
69.4471
69.8942
69.4153
69.7613
69.3292
69.4811
69.0858
68.9602
68.5214
68.0405
67.3468
66.2535
64.8869
62.709
59.9303
55.792
50.2792
42.3249
31.7593
17.0756
0.63783
-19.9242
-38.1452
-47.9308
-52.2579
-56.0288
-54.3126
-49.8381
-40.9384
-22.6828
-2.18007
22.2277
43.6544
58.0996
61.1065
57.5344
55.7593
56.6834
49.6063
42.1761
32.1525
25.9638
20.6367
25.7922
33.0874
37.8941
36.8524
34.8627
30.9695
31.8664
35.0907
37.5664
38.2943
35.6492
35.4041
35.4072
36.936
36.6229
37.1768
36.0448
36.8668
36.3845
37.1435
36.6345
36.9209
36.6763
36.9666
37.0064
36.805
36.7459
36.3578
36.3943
36.114
36.5372
36.1681
36.5219
36.0463
36.1612
36.0518
36.2751
36.2647
35.9185
36.9839
36.6325
37.6275
36.0582
38.7008
37.7093
39.3435
38.011
40.7982
38.1432
42.0388
41.2531
46.0793
43.7608
49.571
44.1668
55.9071
20.4087
43.2898
42.4521
54.511
58.4846
68.3659
68.6919
73.2753
72.8259
74.6279
76.1651
77.1015
77.2071
78.487
77.8761
78.7978