/*--------------------------------*- C++ -*----------------------------------*\
| =========                 |                                                 |
| \\      /  F ield         | OpenFOAM: The Open Source CFD Toolbox           |
|  \\    /   O peration     | Version:  4.1                                   |
|   \\  /    A nd           | Web:      www.OpenFOAM.org                      |
|    \\/     M anipulation  |                                                 |
\*---------------------------------------------------------------------------*/
FoamFile
{
    version     2.0;
    format      ascii;
    class       volScalarField;
    location    "6";
    object      p;
}
// * * * * * * * * * * * * * * * * * * * * * * * * * * * * * * * * * * * * * //

dimensions      [0 2 -2 0 0 0 0];

internalField   nonuniform List<scalar> 
6750
(
-696.014
-384.391
-746.737
-712.553
-646.954
-578.462
-488.717
-407.121
-343.348
-274.614
-249.294
-233.565
-275.927
-201.288
-338.531
-694.35
-387.537
-747.326
-712.784
-647.016
-578.454
-488.682
-407.182
-343.969
-276.116
-249.477
-233.345
-275.87
-194.468
-341.586
-693.549
-389.29
-747.391
-712.676
-646.783
-578.218
-488.557
-407.409
-344.661
-278.221
-250.501
-235.57
-274.201
-194.491
-342.324
-692.301
-391.91
-747.746
-712.783
-646.805
-578.224
-488.641
-407.728
-345.55
-280.387
-251.75
-239.151
-272.775
-193.057
-341.959
-691.349
-393.829
-747.802
-712.699
-646.568
-577.975
-488.534
-407.953
-346.29
-282.455
-253.242
-242.803
-270.862
-192.942
-341.194
-690.28
-395.77
-747.922
-712.706
-646.506
-577.927
-488.608
-408.231
-347.03
-284.621
-255.2
-246.323
-268.713
-193.191
-340.31
-689.372
-397.166
-747.895
-712.576
-646.294
-577.764
-488.473
-408.281
-347.356
-285.968
-257.06
-247.729
-264.663
-193.756
-340.02
-688.971
-397.702
-747.908
-712.573
-646.31
-577.834
-488.531
-408.347
-347.568
-286.524
-259.214
-247.553
-263.191
-194.101
-340.143
-689.362
-397.107
-747.889
-712.572
-646.295
-577.772
-488.497
-408.329
-347.445
-286.095
-257.467
-247.72
-264.438
-193.848
-339.894
-690.254
-395.678
-747.908
-712.699
-646.502
-577.942
-488.651
-408.323
-347.182
-284.84
-255.552
-246.589
-268.785
-193.385
-340.194
-691.312
-393.707
-747.78
-712.688
-646.559
-577.992
-488.591
-408.083
-346.503
-282.772
-253.741
-243.26
-270.873
-193.175
-341.074
-692.253
-391.767
-747.715
-712.769
-646.791
-578.245
-488.716
-407.895
-345.816
-280.783
-252.345
-239.815
-272.865
-193.337
-341.862
-693.493
-389.131
-747.353
-712.658
-646.76
-578.235
-488.637
-407.599
-344.964
-278.681
-251.182
-236.396
-274.315
-194.818
-342.257
-694.289
-387.368
-747.283
-712.764
-646.99
-578.474
-488.773
-407.397
-344.307
-276.626
-250.22
-234.284
-276.012
-194.816
-341.538
-695.95
-384.213
-746.686
-712.526
-646.914
-578.47
-488.802
-407.343
-343.705
-275.177
-250.088
-234.565
-276.044
-201.719
-338.578
-909.901
-268.931
-525.751
-597.086
-524.859
-465.3
-399.434
-344.771
-311.721
-291.528
-295.605
-264.379
-295.167
-224.481
-457.128
-908.909
-269.109
-527.995
-598.558
-526.18
-466.299
-400.223
-345.237
-312.369
-290.601
-294.126
-262.987
-295.529
-218.094
-454.214
-908.492
-269.368
-528.963
-598.841
-526.41
-466.479
-400.437
-345.431
-312.668
-290.931
-295.121
-264.267
-293.631
-216.808
-458.049
-907.689
-269.768
-530.565
-599.839
-527.362
-467.283
-401.107
-345.889
-313.283
-291.508
-296.61
-265.823
-293.419
-215.474
-457.711
-907.071
-270.191
-531.662
-600.297
-527.716
-467.559
-401.376
-346.15
-313.766
-291.784
-298.185
-267.238
-293.278
-215.901
-456.749
-906.284
-270.686
-532.859
-600.921
-528.312
-468.051
-401.808
-346.555
-314.264
-292.376
-299.402
-268.6
-293.54
-216.461
-456.527
-905.443
-271.269
-533.623
-601.142
-528.548
-468.27
-401.983
-346.868
-314.645
-292.467
-300.733
-269.432
-293.719
-216.634
-457.898
-904.953
-271.596
-533.894
-601.235
-528.702
-468.436
-402.067
-346.973
-314.733
-292.87
-302.429
-270.848
-294.368
-217.038
-459.33
-905.362
-271.289
-533.568
-601.102
-528.512
-468.243
-401.967
-346.884
-314.699
-292.625
-300.981
-269.66
-293.924
-216.828
-457.784
-906.164
-270.693
-532.769
-600.851
-528.248
-468.002
-401.777
-346.575
-314.352
-292.677
-299.899
-268.923
-293.721
-216.779
-456.348
-906.92
-270.175
-531.539
-600.194
-527.618
-467.48
-401.323
-346.176
-313.891
-292.222
-298.865
-267.776
-293.427
-216.334
-456.486
-907.516
-269.73
-530.417
-599.711
-527.236
-467.181
-401.039
-345.92
-313.44
-292.054
-297.432
-266.514
-293.585
-215.994
-457.423
-908.301
-269.308
-528.789
-598.683
-526.25
-466.343
-400.341
-345.451
-312.838
-291.541
-296.039
-265.084
-293.772
-217.387
-457.777
-908.707
-269.034
-527.804
-598.384
-526.002
-466.146
-400.117
-345.258
-312.556
-291.277
-295.129
-263.887
-295.688
-218.696
-453.966
-909.689
-268.841
-525.537
-596.883
-524.645
-465.109
-399.29
-344.765
-311.891
-292.235
-296.645
-265.297
-295.317
-224.976
-457.134
-905.354
-270.165
-250.032
-390.304
-350.686
-311.702
-283.833
-267.685
-276.679
-329.934
-364.335
-328.095
-294.323
-157.747
-751.464
-905.244
-269.124
-250.601
-391.178
-351.674
-312.76
-284.969
-268.707
-277.529
-327.303
-361.429
-326.059
-301.455
-169.261
-730.213
-905.185
-268.702
-251.081
-391.587
-352.067
-313.184
-285.491
-268.871
-277.135
-324.122
-359.198
-325.199
-302.699
-169.284
-727.061
-905.078
-267.991
-251.558
-392.242
-352.83
-314.016
-286.309
-269.281
-276.945
-322.147
-357.561
-324.032
-306.181
-169.588
-721.46
-904.99
-267.561
-252.044
-392.758
-353.341
-314.559
-286.85
-269.522
-276.453
-319.552
-356.289
-321.792
-308.101
-171.267
-718.092
-904.885
-267.109
-252.507
-393.282
-353.891
-315.164
-287.473
-269.984
-276.119
-317.225
-355.314
-319.692
-309.192
-170.616
-716.259
-904.78
-266.862
-252.925
-393.71
-354.296
-315.568
-287.902
-270.556
-275.908
-315.051
-354.615
-317.034
-309.661
-168.422
-716.383
-904.645
-266.838
-253.054
-393.84
-354.422
-315.683
-287.941
-270.634
-275.662
-314.835
-354.179
-315.313
-309.914
-166.253
-718.552
-904.63
-266.978
-252.881
-393.66
-354.254
-315.53
-287.868
-270.541
-275.931
-315.222
-354.568
-316.995
-309.552
-168.373
-716.036
-904.711
-267.208
-252.433
-393.194
-353.813
-315.084
-287.395
-269.922
-276.125
-317.515
-355.279
-319.772
-308.962
-170.466
-715.734
-904.782
-267.631
-251.95
-392.632
-353.217
-314.432
-286.723
-269.432
-276.46
-319.952
-356.268
-322.009
-307.787
-171.012
-717.465
-904.848
-268.03
-251.445
-392.082
-352.666
-313.843
-286.135
-269.155
-276.949
-322.639
-357.574
-324.337
-305.828
-169.24
-720.793
-904.934
-268.708
-250.947
-391.391
-351.856
-312.958
-285.262
-268.699
-277.119
-324.647
-359.279
-325.541
-302.257
-168.801
-726.435
-904.979
-269.105
-250.456
-390.959
-351.433
-312.501
-284.706
-268.502
-277.509
-327.874
-361.545
-326.416
-300.981
-168.765
-729.556
-905.077
-270.115
-249.866
-390.053
-350.397
-311.394
-283.52
-267.426
-276.617
-330.496
-364.447
-328.379
-293.854
-157.066
-750.633
-897.847
-313.734
-191.938
-320.253
-280.263
-237.907
-217.837
-208.158
-235.106
-316.07
-375.86
-339.132
-296.581
-8.03009
-994.05
-897.65
-313.5
-191.898
-320.504
-280.836
-238.691
-218.898
-209.683
-236.918
-317.456
-375.731
-339.7
-298.323
-19.7151
-989.578
-897.538
-313.47
-192.007
-320.747
-281.244
-239.196
-219.67
-210.195
-237.268
-316.447
-372.312
-337.362
-296.883
-21.1838
-989.503
-897.34
-313.348
-192.037
-321.008
-281.777
-239.893
-220.513
-210.805
-237.502
-315.825
-368.763
-336.252
-301.346
-23.7263
-984.775
-897.179
-313.333
-192.138
-321.279
-282.244
-240.48
-221.262
-211.386
-237.319
-314.544
-364.888
-333.843
-303.138
-27.2942
-982.298
-896.986
-313.301
-192.166
-321.482
-282.655
-241.034
-222.048
-212.228
-237.283
-313.863
-361.872
-332.349
-304.675
-28.5019
-978.598
-896.8
-313.352
-192.2
-321.646
-282.978
-241.461
-222.734
-213.217
-237.103
-313.507
-359.998
-330.804
-305.618
-29.3062
-975.964
-896.613
-313.419
-192.191
-321.672
-283.063
-241.563
-222.856
-213.403
-236.761
-313.38
-359.193
-329.076
-305.721
-28.7483
-974.879
-896.639
-313.418
-192.178
-321.609
-282.953
-241.429
-222.704
-213.183
-236.997
-313.486
-359.949
-330.732
-305.493
-30.0135
-974.071
-896.808
-313.33
-192.115
-321.405
-282.589
-240.951
-221.957
-212.098
-237.11
-313.834
-361.79
-332.249
-304.453
-29.2301
-975.832
-896.964
-313.321
-192.065
-321.16
-282.129
-240.34
-221.106
-211.194
-237.128
-314.475
-364.758
-333.718
-302.861
-27.8586
-978.805
-897.095
-313.303
-191.944
-320.848
-281.611
-239.691
-220.286
-210.533
-237.314
-315.748
-368.62
-336.115
-301.026
-24.1611
-980.951
-897.264
-313.39
-191.891
-320.544
-281.021
-238.928
-219.368
-209.849
-237.084
-316.36
-372.165
-337.195
-296.478
-21.4044
-985.353
-897.356
-313.398
-191.769
-320.271
-280.574
-238.377
-218.545
-209.284
-236.755
-317.399
-375.564
-339.551
-297.855
-19.8675
-985.269
-897.536
-313.601
-191.786
-319.98
-279.952
-237.54
-217.435
-207.698
-234.91
-316.013
-375.538
-338.978
-295.939
-8.23184
-989.494
-905.519
-314.306
-165.581
-275.666
-235.278
-193.932
-173.259
-159.459
-182.548
-249.873
-312.157
-343.028
-268.865
-36.6359
-1165.05
-905.474
-314.189
-165.589
-275.918
-235.762
-194.589
-174.176
-160.505
-183.766
-251.883
-316.453
-345.159
-273.089
-28.2238
-1163.89
-905.474
-314.152
-165.669
-276.168
-236.156
-195.103
-175.019
-160.877
-184.184
-250.955
-315.9
-344.18
-274.47
-26.3145
-1163.85
-905.45
-314.065
-165.72
-276.448
-236.658
-195.744
-175.872
-161.29
-184.634
-250.719
-316.023
-344.806
-276.596
-23.984
-1161.91
-905.461
-314.022
-165.799
-276.721
-237.122
-196.322
-176.771
-161.713
-184.796
-249.781
-314.935
-343.694
-277.262
-24.5925
-1161.07
-905.453
-313.952
-165.841
-276.935
-237.531
-196.862
-177.782
-162.22
-185.115
-249.212
-314.804
-343.204
-277.591
-25.2526
-1158.77
-905.466
-313.911
-165.873
-277.091
-237.844
-197.277
-178.743
-162.695
-185.192
-248.637
-314.848
-342.35
-277.507
-27.0657
-1157.81
-905.456
-313.868
-165.866
-277.125
-237.922
-197.381
-179.015
-162.744
-185.076
-248.365
-314.28
-341.312
-276.708
-28.643
-1156.04
-905.447
-313.866
-165.846
-277.062
-237.801
-197.245
-178.732
-162.672
-185.121
-248.557
-314.715
-342.357
-277.238
-29.672
-1154.53
-905.412
-313.863
-165.786
-276.867
-237.437
-196.776
-177.704
-162.091
-184.999
-249.12
-314.591
-343.17
-276.92
-28.6435
-1153.92
-905.383
-313.89
-165.72
-276.609
-236.973
-196.173
-176.623
-161.524
-184.649
-249.663
-314.638
-343.665
-276.445
-28.0139
-1154.94
-905.325
-313.903
-165.623
-276.293
-236.456
-195.528
-175.638
-161.038
-184.462
-250.618
-315.662
-344.707
-275.605
-27.3397
-1155.34
-905.292
-313.965
-165.551
-275.966
-235.899
-194.817
-174.696
-160.575
-183.993
-250.877
-315.482
-344.04
-273.333
-29.425
-1156.7
-905.228
-314.002
-165.463
-275.684
-235.466
-194.253
-173.789
-160.173
-183.597
-251.832
-316.026
-344.984
-271.873
-31.227
-1156.53
-905.206
-314.108
-165.438
-275.393
-234.937
-193.542
-172.824
-159.08
-182.36
-249.801
-311.685
-342.768
-267.48
-39.4591
-1157.4
-939.652
-309.288
-156.198
-262.51
-218.68
-177.538
-153.815
-138.149
-152.061
-198.677
-251.182
-337.077
-272.216
-130.704
-1399.67
-939.678
-309.267
-156.26
-262.762
-219.117
-178.094
-154.431
-138.379
-152.136
-199.364
-252.848
-337.725
-271.026
-124.023
-1397.01
-939.715
-309.279
-156.345
-262.999
-219.492
-178.6
-155.073
-138.486
-151.866
-198.762
-252.363
-337.226
-270.957
-123.059
-1395.72
-939.732
-309.276
-156.437
-263.282
-219.976
-179.201
-155.741
-138.605
-151.754
-198.709
-252.587
-337.286
-270.181
-119.922
-1392.38
-939.764
-309.294
-156.538
-263.546
-220.441
-179.785
-156.576
-138.786
-151.574
-198.127
-252.061
-336.792
-269.887
-119.506
-1390.97
-939.765
-309.28
-156.618
-263.759
-220.867
-180.363
-157.624
-138.945
-151.505
-197.68
-251.928
-336.845
-269.678
-118.832
-1387.31
-939.78
-309.272
-156.676
-263.91
-221.197
-180.827
-158.725
-138.99
-151.344
-197.068
-251.649
-336.642
-269.274
-119.207
-1386.52
-939.761
-309.23
-156.681
-263.944
-221.281
-180.954
-159.116
-138.934
-151.31
-196.75
-251.369
-336.546
-269.156
-120.533
-1383.78
-939.753
-309.192
-156.646
-263.88
-221.139
-180.788
-158.711
-138.908
-151.323
-197.041
-251.623
-336.792
-269.398
-122.697
-1381.9
-939.715
-309.125
-156.559
-263.687
-220.746
-180.263
-157.53
-138.789
-151.44
-197.659
-251.912
-336.89
-268.804
-123.507
-1380.84
-939.676
-309.071
-156.455
-263.424
-220.257
-179.614
-156.411
-138.581
-151.495
-198.097
-252.063
-337.016
-268.834
-124.515
-1382.21
-939.608
-309.007
-156.332
-263.113
-219.733
-178.957
-155.487
-138.347
-151.67
-198.696
-252.546
-337.347
-268.665
-124.887
-1383.29
-939.54
-308.975
-156.215
-262.781
-219.188
-178.277
-154.729
-138.18
-151.781
-198.767
-252.324
-337.292
-269.239
-127.659
-1385.67
-939.451
-308.957
-156.118
-262.509
-218.769
-177.714
-154.027
-138.042
-152.057
-199.389
-252.784
-337.714
-269.172
-128.474
-1386.71
-939.376
-308.953
-156.033
-262.215
-218.278
-177.1
-153.363
-137.757
-151.941
-198.685
-251.064
-336.966
-270.155
-134.679
-1388.83
-977.588
-304.423
-152.715
-259.566
-211.526
-174.647
-153.891
-139.952
-150.357
-197.111
-255.924
-364.974
-332.91
-163.362
-1674.42
-977.638
-304.46
-152.784
-259.796
-211.937
-175.134
-154.346
-139.948
-149.522
-196.14
-255.761
-365.061
-331.174
-161.775
-1670.1
-977.69
-304.497
-152.849
-260
-212.267
-175.567
-154.848
-140.024
-148.997
-195.311
-255.203
-364.793
-329.904
-163.035
-1668.48
-977.726
-304.541
-152.934
-260.256
-212.711
-176.092
-155.352
-140.015
-148.454
-194.492
-254.902
-365.02
-328.741
-162.659
-1661.59
-977.765
-304.596
-153.018
-260.488
-213.137
-176.604
-156.08
-140.145
-148.047
-193.56
-254.247
-364.191
-326.727
-164.285
-1660.83
-977.775
-304.616
-153.085
-260.68
-213.538
-177.14
-157.058
-140.28
-147.678
-192.595
-254.082
-364.877
-326.754
-163.71
-1653.6
-977.797
-304.628
-153.131
-260.812
-213.852
-177.578
-158.123
-140.283
-147.295
-191.517
-253.433
-363.648
-324.335
-164.318
-1656.5
-977.773
-304.587
-153.137
-260.839
-213.93
-177.701
-158.528
-140.25
-147.304
-191.124
-253.37
-364.599
-326.564
-165.426
-1648.46
-977.759
-304.531
-153.106
-260.778
-213.787
-177.539
-158.112
-140.23
-147.282
-191.541
-253.476
-364.084
-325.59
-169.096
-1648.14
-977.705
-304.43
-153.031
-260.6
-213.406
-177.041
-156.97
-140.169
-147.631
-192.653
-254.159
-365.008
-325.299
-169.078
-1645.3
-977.643
-304.333
-152.938
-260.356
-212.94
-176.437
-155.928
-140.003
-148.014
-193.671
-254.47
-364.961
-325.351
-170.453
-1647.45
-977.551
-304.223
-152.831
-260.075
-212.455
-175.853
-155.112
-139.828
-148.424
-194.635
-255.036
-365.431
-326.239
-169.074
-1648.38
-977.449
-304.136
-152.718
-259.767
-211.948
-175.252
-154.514
-139.817
-148.989
-195.511
-255.411
-365.418
-327.263
-168.917
-1653.11
-977.329
-304.09
-152.642
-259.527
-211.574
-174.765
-153.948
-139.722
-149.542
-196.366
-255.915
-365.544
-328.263
-167.625
-1654.48
-977.215
-304.02
-152.546
-259.251
-211.103
-174.217
-153.434
-139.669
-150.345
-197.324
-256.045
-365.403
-329.724
-168.415
-1657.7
-1032.92
-306.664
-158.773
-272.967
-222.591
-191.308
-175.958
-166.484
-183.486
-232.838
-299.138
-393.385
-403.783
-140.868
-2073.14
-1032.97
-306.731
-158.849
-273.191
-222.991
-191.765
-176.412
-166.375
-182.515
-231.554
-299.394
-395.94
-408.874
-144.371
-2048.76
-1033.02
-306.783
-158.907
-273.373
-223.289
-192.131
-176.953
-166.315
-182.006
-230.808
-299.045
-396.012
-406.81
-151.274
-2040.6
-1033.06
-306.847
-158.994
-273.614
-223.706
-192.604
-177.466
-166.158
-181.345
-229.846
-299.193
-398.02
-406.798
-153.23
-2022.09
-1033.1
-306.915
-159.072
-273.824
-224.094
-193.043
-178.163
-166.248
-180.943
-228.823
-298.503
-396.929
-403.006
-157.81
-2020.58
-1033.11
-306.943
-159.135
-273.997
-224.457
-193.514
-179.114
-166.445
-180.705
-227.768
-298.687
-398.716
-405.693
-159.766
-2003.18
-1033.13
-306.958
-159.176
-274.114
-224.738
-193.884
-180.1
-166.556
-180.329
-226.405
-297.887
-397.078
-402.078
-162.472
-2008.42
-1033.1
-306.91
-159.183
-274.135
-224.8
-193.983
-180.461
-166.612
-180.337
-225.93
-298.145
-398.426
-407.161
-166.002
-1993.48
-1033.08
-306.847
-159.153
-274.075
-224.665
-193.84
-180.092
-166.508
-180.338
-226.458
-297.978
-397.827
-406.213
-171.258
-1989.78
-1033.02
-306.73
-159.082
-273.907
-224.312
-193.406
-179.026
-166.324
-180.658
-227.807
-298.515
-398.699
-402.507
-166.632
-1993.95
-1032.95
-306.615
-158.991
-273.677
-223.877
-192.867
-178.008
-166.095
-180.899
-228.954
-298.502
-398.195
-400.834
-164.897
-2002.96
-1032.85
-306.486
-158.891
-273.416
-223.43
-192.355
-177.219
-165.934
-181.264
-229.97
-298.897
-398.589
-402.112
-161.119
-2005.91
-1032.73
-306.374
-158.775
-273.119
-222.945
-191.803
-176.612
-166.044
-181.924
-230.996
-298.831
-397.062
-401.975
-158.623
-2020
-1032.6
-306.314
-158.706
-272.899
-222.603
-191.384
-176.011
-166.064
-182.431
-231.756
-299.051
-396.763
-403.567
-152.302
-2027.49
-1032.47
-306.21
-158.599
-272.622
-222.133
-190.853
-175.481
-166.095
-183.331
-232.997
-298.739
-394.191
-398.393
-147.987
-2049.03
-1102.93
-314.65
-169.953
-296.316
-245.537
-221.327
-215.411
-210.583
-238.192
-284.457
-367.213
-422.697
-520.788
-116.702
-2544.03
-1102.98
-314.728
-170.032
-296.543
-245.951
-221.82
-215.979
-210.698
-237.782
-283.177
-368.057
-425.319
-525.35
-119.531
-2507.99
-1103.03
-314.785
-170.084
-296.709
-246.23
-222.135
-216.576
-210.595
-237.439
-282.279
-367.518
-425.889
-518.237
-129.465
-2501.92
-1103.06
-314.853
-170.167
-296.939
-246.639
-222.605
-217.21
-210.5
-237.119
-281.371
-368.309
-429.496
-520.155
-132.164
-2470.4
-1103.1
-314.921
-170.236
-297.131
-246.993
-222.996
-217.87
-210.602
-236.903
-280.03
-367.012
-426.505
-507.817
-135.739
-2486.57
-1103.1
-314.941
-170.292
-297.288
-247.323
-223.435
-218.78
-211.079
-237.078
-279.235
-368.564
-430.075
-519.661
-131.716
-2451.58
-1103.13
-314.945
-170.326
-297.391
-247.565
-223.759
-219.586
-211.53
-236.532
-277.435
-366.807
-424.987
-502.416
-133.117
-2487.68
-1103.09
-314.877
-170.33
-297.405
-247.608
-223.85
-219.858
-211.837
-236.552
-277.338
-368.867
-429.685
-534.143
-148.714
-2416.6
-1103.07
-314.802
-170.3
-297.342
-247.478
-223.704
-219.565
-211.501
-236.586
-277.657
-367.376
-426.785
-509.903
-148.284
-2450.35
-1102.99
-314.666
-170.231
-297.179
-247.154
-223.309
-218.676
-210.941
-237.039
-279.374
-368.057
-430.932
-511.661
-140.14
-2447.09
-1102.9
-314.539
-170.142
-296.954
-246.743
-222.799
-217.696
-210.442
-236.878
-280.422
-366.935
-429.346
-504.476
-143.808
-2461.28
-1102.78
-314.396
-170.046
-296.706
-246.324
-222.333
-216.937
-210.255
-236.999
-281.71
-367.577
-431.226
-511.942
-142.553
-2450.86
-1102.65
-314.269
-169.927
-296.409
-245.839
-221.779
-216.202
-210.308
-237.293
-282.777
-366.939
-428.739
-511.295
-140.261
-2471.02
-1102.5
-314.204
-169.862
-296.201
-245.515
-221.413
-215.543
-210.376
-237.594
-283.697
-367.26
-427.933
-517.328
-132.296
-2476.61
-1102.35
-314.079
-169.744
-295.909
-245.015
-220.827
-214.874
-210.163
-237.889
-284.946
-366.412
-425.453
-514.125
-128.43
-2506.12
-1187.05
-331.471
-186.458
-329.256
-279.853
-262.692
-269.129
-266.683
-311.681
-342.686
-458.692
-446.183
-653.653
-37.6288
-3286.03
-1187.1
-331.552
-186.537
-329.491
-280.29
-263.276
-269.903
-267.273
-312.13
-341.874
-462.646
-452.543
-699.443
-48.3803
-3160.83
-1187.14
-331.612
-186.585
-329.647
-280.551
-263.567
-270.476
-267.258
-311.818
-340.683
-460.639
-452.669
-664.554
-66.3053
-3163.63
-1187.16
-331.678
-186.664
-329.874
-280.96
-264.079
-271.262
-267.438
-312.09
-340.037
-462.66
-458.637
-666.641
-62.5043
-3107.72
-1187.19
-331.744
-186.727
-330.054
-281.281
-264.447
-271.841
-267.599
-311.999
-338.439
-461.632
-452.09
-658.272
-74.8587
-3130.97
-1187.19
-331.752
-186.777
-330.198
-281.58
-264.887
-272.692
-268.485
-312.845
-338.544
-466.08
-456.64
-702.029
-75.109
-3052.68
-1187.21
-331.747
-186.806
-330.29
-281.778
-265.182
-273.235
-269.273
-312.253
-336.586
-461.149
-452.28
-657.288
-91.0537
-3099.47
-1187.17
-331.664
-186.809
-330.296
-281.804
-265.276
-273.45
-269.845
-312.76
-337.078
-466.043
-455.575
-690.193
-104.362
-3010.76
-1187.14
-331.582
-186.784
-330.23
-281.675
-265.111
-273.182
-269.281
-312.304
-336.961
-462.2
-454.51
-670.496
-111.069
-3044.52
-1187.05
-331.438
-186.721
-330.066
-281.379
-264.732
-272.527
-268.349
-312.614
-338.661
-464.214
-458.831
-680.348
-86.1304
-3057.85
-1186.95
-331.31
-186.638
-329.844
-280.983
-264.208
-271.584
-267.428
-311.765
-338.991
-461.197
-456.327
-655.873
-86.4996
-3091.36
-1186.82
-331.165
-186.547
-329.6
-280.586
-263.754
-270.877
-267.136
-311.595
-340.404
-460.771
-461.455
-655.58
-76.8473
-3078.12
-1186.67
-331.037
-186.429
-329.297
-280.086
-263.142
-269.961
-266.887
-311.201
-341.237
-458.655
-457.279
-652.963
-77.0656
-3123.41
-1186.5
-330.974
-186.368
-329.094
-279.772
-262.793
-269.307
-266.844
-311.377
-342.421
-460.121
-457.119
-684.228
-63.1761
-3117.18
-1186.34
-330.841
-186.242
-328.779
-279.225
-262.085
-268.38
-266.108
-310.724
-343.169
-456.128
-451.145
-643.001
-50.7812
-3226.77
-1282.74
-358.597
-207.815
-371.497
-325.69
-314.898
-336.676
-332.549
-402.873
-400.959
-575.017
-448.167
-834.358
62.695
-4329.64
-1282.77
-358.663
-207.884
-371.73
-326.146
-315.601
-337.772
-333.843
-405.098
-401.746
-586.195
-442.593
-1056.5
-66.7321
-3816.81
-1282.8
-358.714
-207.924
-371.879
-326.398
-315.912
-338.354
-334.138
-404.957
-401.074
-582.306
-458.501
-874.265
-5.42103
-4070
-1282.8
-358.756
-207.989
-372.096
-326.809
-316.507
-339.398
-334.949
-406.628
-401.592
-588.717
-461.433
-900.716
30.3233
-4030.4
-1282.83
-358.793
-208.041
-372.264
-327.105
-316.886
-339.962
-335.321
-406.907
-400.589
-590.203
-459.436
-885.514
-10.3284
-4096.73
-1282.81
-358.767
-208.077
-372.391
-327.378
-317.352
-340.885
-336.596
-409.177
-402.195
-602.27
-460.455
-1087.98
-122.96
-3643.17
-1282.81
-358.735
-208.096
-372.472
-327.534
-317.625
-341.223
-337.392
-408.586
-400.479
-589.977
-468.499
-861.898
-53.8104
-3971.92
-1282.75
-358.62
-208.086
-372.462
-327.543
-317.724
-341.499
-338.108
-410.427
-401.915
-603.698
-478.627
-975.64
-84.9316
-3754.11
-1282.69
-358.517
-208.055
-372.385
-327.402
-317.537
-341.148
-337.426
-408.738
-401.232
-591.714
-475.441
-872.45
-77.8047
-3896.61
-1282.57
-358.353
-207.987
-372.212
-327.122
-317.168
-340.67
-336.512
-408.751
-402.858
-596.932
-475.586
-958.404
-88.7361
-3797.99
-1282.45
-358.213
-207.902
-371.983
-326.725
-316.602
-339.64
-335.236
-406.583
-401.768
-589.292
-470.51
-878.988
-16.2669
-4029.22
-1282.28
-358.059
-207.808
-371.733
-326.335
-316.124
-338.918
-334.721
-405.879
-402.443
-585.126
-469.275
-868.503
4.5053
-4005.89
-1282.1
-357.926
-207.685
-371.414
-325.803
-315.404
-337.709
-333.828
-404.053
-402.256
-579.131
-468.718
-856.795
-29.6205
-4009.05
-1281.91
-357.864
-207.622
-371.206
-325.488
-315.026
-337.027
-333.471
-403.97
-402.899
-581.742
-453.287
-1005.69
-95.4975
-3773.48
-1281.73
-357.721
-207.486
-370.864
-324.882
-314.155
-335.709
-331.962
-401.417
-401.946
-571.291
-458.143
-829.384
32.6577
-4227.62
-1386.38
-397.226
-232.635
-420.965
-380.458
-374.674
-415.403
-407.523
-517.454
-475.117
-773.498
-491.86
-1285.79
-163.482
-4849.19
-1386.41
-397.282
-232.698
-421.18
-380.901
-375.4
-416.697
-408.997
-520.913
-475.66
-782.944
-501.461
-1266.76
-118.547
-4814.52
-1386.43
-397.323
-232.733
-421.313
-381.118
-375.675
-417.134
-409.189
-520.12
-473.301
-769.628
-499.832
-1136.32
3.48797
-5249.91
-1386.43
-397.349
-232.79
-421.506
-381.499
-376.268
-418.305
-410.281
-523.118
-473.381
-788.335
-501.674
-1323.31
-29.8288
-5027.79
-1386.45
-397.373
-232.838
-421.654
-381.742
-376.587
-418.661
-410.418
-522.403
-470.758
-785.746
-488.189
-1335.24
-119.501
-4851.72
-1386.41
-397.336
-232.869
-421.753
-381.968
-377.006
-419.559
-411.644
-525.126
-471.947
-797.095
-488.245
-1385.72
-126.377
-4709.68
-1386.4
-397.31
-232.889
-421.82
-382.07
-377.203
-419.571
-411.954
-522.712
-468.591
-762.981
-479.539
-1075.14
-23.7149
-5272.21
-1386.32
-397.2
-232.875
-421.791
-382.059
-377.278
-419.96
-412.676
-526.457
-471.639
-797.98
-486.004
-1399.4
-163.073
-4696.06
-1386.24
-397.112
-232.852
-421.712
-381.905
-377.084
-419.451
-412.008
-523.097
-470.188
-769.163
-491.551
-1083.4
2.56891
-5198.98
-1386.1
-396.962
-232.791
-421.537
-381.65
-376.766
-419.231
-411.563
-524.476
-473.137
-788.527
-504.304
-1235.96
-63.5324
-4953.32
-1385.96
-396.841
-232.717
-421.316
-381.267
-376.217
-418.177
-410.337
-521.966
-472.482
-785.618
-497.552
-1342.73
-136.196
-4785.52
-1385.78
-396.704
-232.633
-421.072
-380.903
-375.777
-417.597
-410.022
-521.95
-474.739
-783.194
-509.131
-1307.64
-54.4235
-4946.21
-1385.58
-396.592
-232.519
-420.758
-380.366
-375.015
-416.18
-408.779
-518.622
-475.081
-764.947
-509.937
-1127.45
-12.4864
-5182.22
-1385.38
-396.544
-232.46
-420.553
-380.064
-374.651
-415.588
-408.488
-518.979
-477.405
-775.579
-514.775
-1227.48
-119.377
-4800.71
-1385.19
-396.411
-232.325
-420.202
-379.424
-373.689
-413.953
-406.662
-514.871
-476.547
-765.649
-504.56
-1249.65
-181.167
-4814.53
-1491.34
-450.801
-263.725
-479.936
-450.12
-448.047
-511.906
-493.019
-647.082
-539.967
-930.456
-497.528
-1250.08
219.256
-6898.02
-1491.33
-450.789
-263.741
-480.086
-450.484
-448.703
-513.355
-494.627
-652.577
-541.403
-943.37
-486.661
-1217.13
419.914
-6863.73
-1491.33
-450.769
-263.752
-480.185
-450.633
-448.95
-513.648
-494.931
-651.942
-539.113
-940.218
-473.51
-1278.17
117.334
-7284.73
-1491.3
-450.711
-263.762
-480.314
-450.926
-449.496
-514.968
-496.532
-657.949
-542.092
-990.895
-487.515
-1773.21
-124.838
-6492.33
-1491.27
-450.66
-263.772
-480.42
-451.07
-449.758
-515.048
-496.702
-656.06
-540.113
-981.098
-485.558
-1711.91
-144.174
-6327.11
-1491.19
-450.549
-263.753
-480.462
-451.199
-450.099
-515.939
-498.043
-659.978
-543.658
-994.131
-516.607
-1589.53
-68.1831
-6711.74
-1491.11
-450.463
-263.739
-480.493
-451.213
-450.218
-515.584
-497.975
-655.511
-539.301
-947.411
-486.614
-1288.72
135.218
-7056.5
-1490.96
-450.303
-263.689
-480.417
-451.159
-450.238
-516.113
-498.659
-661.283
-543.567
-1000.34
-491.22
-1749.5
-359.085
-6257.92
-1490.82
-450.175
-263.644
-480.321
-450.982
-450.046
-515.406
-498.036
-656.096
-541.33
-957.267
-497.044
-1296.1
183.318
-7026.61
-1490.61
-449.996
-263.565
-480.128
-450.751
-449.761
-515.476
-497.941
-659.203
-544.602
-986.313
-518.571
-1483.22
-26.4949
-6927.19
-1490.4
-449.855
-263.484
-479.909
-450.392
-449.236
-514.368
-496.637
-655.619
-542.408
-980.32
-496.657
-1691.61
-137.142
-6331.82
-1490.15
-449.703
-263.395
-479.661
-450.074
-448.818
-514.009
-496.314
-656.704
-544.447
-986.407
-501.236
-1738.89
-125.578
-6422.64
-1489.9
-449.581
-263.278
-479.354
-449.558
-448.046
-512.369
-494.581
-650.539
-542.49
-940.722
-494.157
-1287.77
99.6112
-7200.96
-1489.65
-449.533
-263.221
-479.151
-449.288
-447.681
-511.879
-494.182
-650.676
-544.498
-940.01
-503.738
-1216.31
386.02
-6837.17
-1489.43
-449.388
-263.076
-478.802
-448.644
-446.697
-509.951
-492.13
-644.248
-542.94
-924.196
-518.542
-1237.76
206.521
-6850.83
-1593.78
-519.487
-298.802
-544.953
-526.044
-524.413
-612.288
-584.631
-788.537
-637.097
-1157.68
-612.154
-1603.22
619.989
-11038.2
-1593.77
-519.474
-298.792
-545.015
-526.234
-524.772
-613.533
-585.247
-795.936
-635.024
-1197.38
-584.712
-1858.83
482.318
-10342.7
-1593.76
-519.461
-298.783
-545.064
-526.228
-524.841
-613.149
-584.721
-792.404
-629.229
-1187.39
-575.615
-1793.03
-6.66016
-10426.9
-1593.73
-519.419
-298.769
-545.111
-526.324
-525.118
-613.936
-585.511
-796.28
-626.864
-1209.46
-543.37
-2167.43
-348.825
-8714.54
-1593.69
-519.39
-298.759
-545.158
-526.269
-525.171
-613.083
-584.744
-789.574
-620.377
-1179.42
-522.491
-2154.73
-377.086
-8795.25
-1593.61
-519.311
-298.725
-545.133
-526.228
-525.304
-613.487
-585.497
-791.609
-621.378
-1177.39
-525.507
-1893.23
-247.543
-9884.77
-1593.53
-519.264
-298.708
-545.123
-526.11
-525.276
-612.446
-584.616
-783.86
-613.681
-1126.5
-474.878
-1562.34
235.994
-9807.32
-1593.39
-519.156
-298.661
-545.013
-526.003
-525.229
-613.025
-585.316
-791.031
-619.102
-1189.6
-478.833
-2172.28
-777.234
-8683.47
-1593.25
-519.088
-298.635
-544.918
-525.826
-525.071
-612.177
-584.859
-784.541
-616.898
-1137.22
-478.852
-1564.88
289.057
-9813.72
-1593.06
-518.973
-298.581
-544.734
-525.674
-524.894
-612.848
-585.584
-790.906
-622.95
-1172.93
-511.398
-1820.31
-196.111
-10037.5
-1592.87
-518.896
-298.537
-544.552
-525.425
-524.527
-612.12
-584.968
-789.209
-624.235
-1184.58
-525.077
-2188.92
-328.92
-8868.27
-1592.66
-518.802
-298.481
-544.334
-525.254
-524.278
-612.603
-585.561
-794.857
-630.921
-1207.64
-548.891
-2143.66
-254.445
-8642.8
-1592.45
-518.739
-298.408
-544.083
-524.873
-523.704
-611.338
-584.548
-790.322
-634.218
-1192.03
-589.878
-1890.68
1.47696
-10102.3
-1592.23
-518.724
-298.371
-543.904
-524.715
-523.468
-611.428
-584.879
-792.996
-639.56
-1195.91
-599.777
-1914.95
368.819
-10207.3
-1592.05
-518.629
-298.263
-543.603
-524.156
-522.641
-609.438
-583.417
-783.41
-640.03
-1145.1
-626.679
-1590.69
561.189
-10961.9
-1661.76
-622.56
-350.386
-613.65
-634.723
-631.248
-758.879
-707.323
-990.564
-728.847
-1523.46
-553.435
-3178.68
657.017
-11195.8
-1661.68
-622.386
-350.198
-613.528
-634.46
-631.074
-758.986
-706.935
-995.764
-731.495
-1548.59
-570.338
-3301.13
550.561
-10060.1
-1661.6
-622.229
-350.083
-613.489
-634.085
-630.899
-757.331
-706.168
-988.014
-729.893
-1518.95
-582.736
-3200.67
508.864
-9785.09
-1661.46
-621.995
-349.887
-613.356
-633.653
-630.681
-756.442
-705.76
-985.403
-725.325
-1493.02
-569.147
-2988.86
421.075
-10642.2
-1661.3
-621.788
-349.739
-613.284
-633.124
-630.426
-753.893
-704.391
-973.597
-719.934
-1470.02
-613.61
-3420.25
-388.631
-12083.1
-1661.08
-621.523
-349.55
-613.108
-632.629
-630.149
-752.726
-703.805
-969.297
-714.92
-1423.45
-556.82
-2451.16
295.392
-14013.2
-1660.84
-621.297
-349.419
-612.994
-632.195
-629.891
-750.651
-702.426
-960.304
-708.447
-1408.8
-480.883
-2417.54
1167.89
-13358.4
-1660.54
-621.029
-349.273
-612.789
-631.889
-629.648
-750.558
-702.385
-963.732
-706.336
-1446.44
-443.836
-2991.01
-222.607
-11825.5
-1660.24
-620.815
-349.195
-612.653
-631.698
-629.512
-749.832
-702.484
-958.735