/*--------------------------------*- C++ -*----------------------------------*\
| =========                 |                                                 |
| \\      /  F ield         | OpenFOAM: The Open Source CFD Toolbox           |
|  \\    /   O peration     | Version:  4.1                                   |
|   \\  /    A nd           | Web:      www.OpenFOAM.org                      |
|    \\/     M anipulation  |                                                 |
\*---------------------------------------------------------------------------*/
FoamFile
{
    version     2.0;
    format      ascii;
    class       surfaceScalarField;
    location    "6";
    object      phi;
}
// * * * * * * * * * * * * * * * * * * * * * * * * * * * * * * * * * * * * * //

dimensions      [0 3 -1 0 0 0 0];

internalField   nonuniform List<scalar> 
19125
(
734.151
-13.2373
1070.22
830.8
24.3704
1198.46
819.358
27.1441
308.854
737.497
33.2122
-294.468
669.693
41.7501
-769.583
613.405
45.921
-1144.33
550.895
40.2066
-1395.31
472.355
37.7401
-1539.82
382.628
38.855
-1644.69
270.165
5.95313
-1392.26
116.752
21.7675
-488.656
40.5498
15.7081
746.72
23.8696
-9.51045
1023.45
-40.0654
-191.276
658.727
24.9031
2174.83
725.319
-12.8765
1092.96
824.372
25.9033
1206.32
814.404
27.8922
310.037
736.883
32.9572
-293.947
674.464
41.3449
-768.716
622.708
46.2501
-1143.31
562.838
39.7726
-1393.8
483.011
45.4952
-1535.62
391.296
53.4443
-1638.48
282.644
11.3364
-1410.98
123.778
44.9941
-546.593
31.9797
55.5164
773.295
1.70106
-27.8579
1141.84
-64.4915
-120.412
725.949
15.2263
2122.67
723.738
-12.6741
1100.75
822.241
26.4404
1207.37
811.709
27.071
309.782
733.67
31.2055
-294.48
671.62
38.7597
-768.62
621.885
43.1806
-1141.79
562.37
37.7986
-1391.17
490.365
45.4595
-1530.81
411.639
56.7921
-1630.99
304.425
15.8776
-1422.44
138.9
72.1321
-585.029
31.4506
99.7858
693.887
-9.7109
-40.6442
1109.37
-81.4564
-65.4468
819.501
-0.13046
2080.88
720.547
-11.9588
1113.62
819.203
24.1004
1209.98
808.103
23.6344
309.603
729.391
27.5435
-294.555
667.618
34.1836
-767.928
619.167
37.4606
-1140.24
561.237
33.0685
-1388.85
494.603
39.606
-1527.38
421.222
56.1841
-1628.62
312.136
20.6516
-1430.1
150.582
86.9641
-595.651
31.28
136.87
580.44
-18.0878
-48.5583
1051.36
-81.0637
-38.8299
860.652
-6.55177
2089.6
718.657
-11.2567
1121.98
816.573
20.9191
1211.79
804.224
19.4712
309.984
725.395
22.1451
-294.561
665.26
26.1346
-767.291
618.882
28.2417
-1138.13
563.503
24.9144
-1385.35
500.108
29.9927
-1522.82
429.702
53.0614
-1625.51
318.8
26.2766
-1438.38
163.588
89.1036
-605.537
34.7565
159.934
461.313
-20.9912
-53.9789
1002.17
-77.0358
-16.7594
855.882
-7.44356
2093.16
715.082
-8.95462
1132.65
812.992
15.4217
1215.25
799.779
13.7436
310.491
721.465
14.7161
-294.66
663.945
14.6743
-766.689
620.378
15.8406
-1135.83
567.373
14.2992
-1381.68
508.041
15.8635
-1517.62
447.445
40.4481
-1619.48
342.01
26.9391
-1450.98
184.549
90.2797
-640.011
39.3023
175.928
356.513
-22.1456
-58.8326
965.874
-73.693
-7.14794
860.302
-3.52447
2104.32
710.684
-3.5052
1142.83
810.282
5.66179
1219
798.069
4.98362
310.409
720.954
5.0753
-295.657
663.484
3.92887
-767.832
619.73
4.03848
-1138.46
565.764
3.62964
-1384.98
502.345
3.22447
-1519.84
451.572
14.9338
-1619.73
360.578
12.4962
-1466.11
232.22
52.6016
-673.227
93.6163
95.0791
194.651
-20.7697
-27.1869
891.704
-78.1585
-2.2632
903.07
-0.47441
2091.8
708.786
3.51459
1147.04
809.496
-6.31852
1220.54
798.504
-5.59311
310.311
722.685
-5.97158
-296.093
664.42
-5.24004
-768.703
618.776
-5.61657
-1141.59
562.038
-5.37053
-1390.24
491.466
-4.56954
-1526.52
443.202
-16.3081
-1627.3
360.881
-13.0079
-1473.44
275.539
-45.0913
-676.515
141.802
-79.2113
59.3736
-18.2829
25.3186
794.623
-83.6418
4.0481
939.66
-0.273416
2066.8
710.88
8.90037
1142.28
810.413
-15.8961
1218.86
798.186
-14.2437
310.369
720.976
-15.4682
-295.728
663.392
-15.8634
-767.958
619.482
-17.2604
-1138.64
565.312
-15.8241
-1385.25
501.857
-17.1738
-1520.23
451.807
-42.426
-1620.06
361.425
-28.0362
-1466.25
236.622
-86.8678
-674.069
98.8611
-167.878
185.138
-19.7782
60.4499
890.081
-77.4938
9.08909
900.981
3.27253
2092.81
715.248
11.182
1132.03
813.154
-21.2727
1215.12
799.991
-19.8818
310.419
721.642
-22.7564
-294.809
664.015
-27.1711
-766.931
620.318
-29.5102
-1136.17
567.177
-26.2873
-1382.12
507.887
-31.2956
-1518.25
447.648
-55.2329
-1620.3
342.147
-27.4547
-1451.05
183.71
-85.8072
-638.542
38.7791
-154.137
355.189
-21.9833
55.0995
964.52
-73.4654
18.2981
858.798
7.40145
2105.08
718.809
11.8889
1121.29
816.766
-24.3587
1211.64
804.522
-23.9658
309.886
725.721
-28.0286
-294.78
665.515
-35.064
-767.641
619.051
-38.5883
-1138.62
563.6
-34.3248
-1385.98
500.308
-40.9092
-1523.7
430.182
-58.4395
-1626.72
319.094
-21.9079
-1438.57
163.025
-84.1808
-603.758
34.0363
-132.876
459.809
-20.898
49.2279
1000.49
-76.8877
40.1492
854.527
6.63163
2094.07
720.691
12.618
1112.89
819.423
-26.627
1209.8
808.469
-27.3341
309.479
729.842
-31.5842
-294.833
668.045
-39.4959
-768.363
619.55
-44.1712
-1140.85
561.601
-38.9505
-1389.65
495.096
-46.7267
-1528.55
421.833
-58.974
-1630.24
312.367
-17.1361
-1430.35
150.084
-70.0956
-593.274
30.3505
-96.9965
579.725
-18.1293
41.0182
1049.81
-81.0116
66.5363
859.526
0.244511
2090.64
723.878
12.8391
1099.98
822.487
-26.032
1207.17
812.137
-28.0917
309.626
734.234
-33.2467
-294.824
672.207
-41.9543
-769.15
622.472
-47.1146
-1142.53
562.989
-40.8366
-1392.15
491.081
-46.65
-1532.26
412.254
-55.3495
-1633.04
304.563
-12.6151
-1422.73
138.456
-43.9308
-582.125
30.4026
-53.7241
693.563
-9.72756
27.9745
1108.17
-81.3557
121.313
818.22
-15.0177
2082.06
725.456
13.2178
1092.17
824.631
-24.4472
1206.09
814.873
-27.2829
309.86
737.531
-33.432
-294.327
675.176
-42.2506
-769.299
623.455
-46.6682
-1144.13
563.634
-41.1661
-1394.88
483.917
-38.7514
-1537.28
392.077
-40.4281
-1640.8
282.869
-7.27391
-1411.18
123.401
-21.8788
-543.214
30.838
-14.7612
773.313
1.71623
9.34909
1140.8
-64.2337
191.887
724.081
-24.491
2123.91
734.3
1069.42
831.092
1198.21
819.878
308.633
738.194
-294.92
670.418
-770.257
614.121
-1145.26
551.605
-1396.51
473.185
-1541.65
383.443
-1647.15
270.479
-1392.52
116.314
-485.546
39.1398
746.797
23.5954
1021.64
-40.569
660.221
2174.66
1792.2
-16.3352
304.091
2180.97
-0.334984
808.618
2185.05
26.8774
295.291
2067.27
41.5627
-186.924
1869.78
47.4254
-581.925
1623.33
46.0283
-906.545
1344.33
40.0925
-1123.27
1067.28
48.6649
-1272.94
820.783
27.7386
-1405.86
575.058
-2.09439
-1131.01
283.174
-0.0897987
-171.601
119.417
1.88769
892.691
200.002
-4.47196
961.275
-200.888
-297.588
1100.71
9.0417
2384.12
1789.95
-16.6482
316.273
2173.07
1.72228
821.14
2177.63
28.6101
303.754
2062.82
43.5088
-181.085
1870.34
49.058
-577.867
1628.52
47.9282
-903.391
1353.47
41.3318
-1119.99
1078.88
54.8907
-1267.25
839.009
29.2596
-1400.13
603.901
-22.1443
-1155.83
298.958
0.871539
-242.612
78.3883
85.1362
910.616
204.327
-54.6005
1066.03
-127.6
-226.571
986.861
34.4565
2391.18
1790.5
-17.1395
320.746
2172.46
2.88128
824.255
2175.81
29.2612
305.78
2060.84
43.0847
-179.081
1869.08
47.7851
-575.587
1629.09
46.668
-900.533
1355.36
40.2129
-1116.33
1088.68
52.9467
-1262.18
854.855
26.6802
-1394.59
610.013
-31.1389
-1168.61
301.72
7.13961
-283.005
67.9453
166.278
846.521
140.006
-66.2237
1048.93
-184.558
-136.408
1053.9
15.1653
2342.25
1790.51
-16.9728
328.298
2170.82
2.29866
830.25
2173.62
26.5363
309.529
2058.97
39.3139
-176.129
1868.2
43.5268
-572.899
1629.65
42.6629
-897.683
1357.46
36.5898
-1113.04
1092.2
49.1633
-1258.33
854.168
29.4053
-1393.31
597.462
-33.2052
-1171.33
297.331
-1.03336
-287.347
65.4416
218.012
760.594
99.4052
-53.636
1004.81
-204.477
-80.4806
1108.61
-3.74375
2330.74
1790.87
-17.093
333.406
2169.82
1.06584
834.082
2171.53
22.5426
312.266
2057.11
32.6702
-173.494
1867.58
35.6742
-569.912
1630.76
35.4359
-894.085
1361
29.7234
-1108.72
1097.35
43.1879
-1253.2
856.501
35.5024
-1390.76
589.755
-29.1661
-1175.67
294.635
-12.9414
-298.509
62.9966
237.212
673.752
93.3264
-42.6223
960.827
-188.989
-39.49
1097.21
-0.730867
2329.11
1789.84
-15.2698
339.805
2166
0.220347
839.942
2166.63
16.059
316.346
2052.75
22.2647
-170.382
1865.4
23.4504
-567.111
1631.76
24.0787
-890.834
1364.93
19.7043
-1104.83
1107.41
30.1909
-1247.1
875.668
33.2314
-1385.47
602.896
-18.3893
-1188.99
298.832
-11.0043
-337.885
57.8966
233.398
601.263
76.512
-29.7548
934.392
-190.65
-23.345
1111.32
13.0122
2326.2
1786.16
-6.79618
345.836
2159.46
-0.0541769
845.981
2159.68
5.66951
320.572
2046.1
7.49647
-167.308
1859.55
7.39274
-565.216
1627.29
7.69778
-889.83
1359.97
5.75488
-1103.71
1104.96
9.23579
-1243.87
887.82
12.5233
-1381.88
615.228
-5.7081
-1206.19
303.925
0.0208227
-372.949
68.9268
129.878
533.17
48.4676
-4.71098
887.12
-219.919
-6.04668
1154.16
10.0749
2302.13
1783.71
6.22419
348.347
2156.23
-0.548601
848.52
2156.92
-6.87295
322.172
2043.83
-9.17797
-166.335
1857.08
-9.45316
-565.106
1623.96
-10.0262
-890.74
1353.19
-8.49255
-1105.23
1093.84
-12.0573
-1245.88
879.666
-16.2303
-1384.37
609.386
2.4327
-1211.3
294.269
-0.965211
-360.412
73.587
-107.555
517.489
22.5941
10.5643
830.342
-248.034
13.1231
1191.12
-11.7006
2271.36
1786.14
14.8554
345.427
2159.56
-0.849501
845.747
2159.81
-17.0849
320.336
2046.11
-23.6786
-167.528
1859.31
-25.1895
-565.423
1626.79
-26.1128
-890.039
1359.12
-22.11
-1103.95
1104.16
-33.1342
-1244.19
887.915
-37.7442
-1382.31
615.61
14.8399
-1206.35
301.708
11.2541
-372.386
67.8875
-220.62
532.024
49.076
33.6641
885.794
-220.218
29.4872
1153.91
-13.9439
2301.79
1789.77
16.778
339.384
2166
-1.64308
839.686
2166.67
-23.42
316.085
2052.72
-33.8711
-170.661
1865.18
-37.1826
-567.398
1631.31
-37.2628
-891.152
1364.21
-31.9429
-1105.19
1106.68
-46.1458
-1247.71
875.043
-40.0632
-1386.35
601.603
25.8636
-1188.63
295.554
13.6312
-334.869
55.7808
-227.635
601.978
76.0075
45.3531
932.605
-191.987
44.3921
1111.89
0.159961
2325.01
1790.76
16.735
332.949
2169.77
-2.78395
833.776
2171.54
-27.2669
311.968
2057.05
-40.3226
-173.844
1867.37
-44.8336
-570.306
1630.34
-44.3058
-894.548
1360.34
-38.654
-1109.27
1096.68
-52.0546
-1254.13
855.626
-33.7504
-1391.98
587.835
30.2452
-1175.16
290.959
1.58686
-294.837
60.2646
-211.027
673.896
92.491
55.4472
958.175
-190.498
84.086
1097.82
3.67658
2327.73
1790.37
16.9621
327.824
2170.75
-3.26869
829.909
2173.62
-29.8575
309.204
2058.92
-43.9175
-176.538
1868
-48.8961
-573.388
1629.25
-48.1119
-898.291
1356.82
-42.0779
-1113.8
1091.51
-55.6543
-1259.64
853.015
-30.6447
-1394.86
594.998
28.4843
-1170.58
293.246
-6.94188
-282.992
62.2619
-161.406
761.088
98.2
67.3709
1001.95
-206.185
138.766
1109.23
-14.7846
2329.31
1790.33
16.5276
320.252
2172.37
-2.00913
823.871
2175.8
-29.0726
305.413
2060.8
-44.1695
-179.563
1868.91
-49.9731
-576.186
1628.72
-49.155
-901.292
1354.74
-42.9694
-1117.28
1087.89
-57.2356
-1263.82
853.275
-32.6152
-1396.46
607.033
19.6329
-1167.64
297.388
-1.09016
-278.329
64.3731
-82.0898
847.263
138.675
55.2575
1045.98
-186.197
227.284
1054.57
-33.1869
2340.7
1789.76
16.2592
315.764
2172.98
0.148474
820.717
2177.61
-27.2093
303.361
2062.79
-42.0552
-181.616
1870.2
-48.1389
-578.541
1628.19
-47.0089
-904.258
1352.86
-41.4272
-1121.1
1077.98
-50.4708
-1269.17
837.126
-30.3189
-1402.23
600.494
-0.353888
-1154.56
294.349
-0.969175
-237.187
74.6512
-0.514299
911.438
203.105
4.36521
1063.24
-128.941
296.274
987.139
-6.64621
2389.58
1792
303.58
2180.88
808.16
2185.04
294.853
2067.22
-187.522
1869.58
-582.684
1622.87
-907.505
1343.52
-1124.48
1066.2
-1274.98
818.744
-1408.02
571.394
-1129.86
278.294
-166.696
115.519
892.555
196.553
959.218
-204.856
1102.98
2380.23
1644.17
-1.1421
-37.2073
2147.95
-12.2905
308.599
2300.74
-4.25414
141.581
2256.53
4.31357
-145.97
2062.06
11.6603
-391.922
1749.6
19.2235
-599.824
1379.22
25.211
-760.141
1024.34
49.0134
-931.171
691.689
21.9365
-1076.66
351.046
64.5791
-770.607
94.0617
34.9158
138.32
-24.4811
46.5218
999.06
-294.735
152.783
1195.42
-954.108
-133.228
1738.72
-169.876
2035.3
1649.61
-1.41865
-35.7022
2154.19
-11.587
315.861
2307.81
-3.38988
149.272
2264.44
5.44453
-138.849
2070.84
12.9689
-385.57
1760.07
20.9749
-594.369
1392.89
27.5624
-755.164
1044.67
55.1633
-925.185
734.977
11.2488
-1079.75
422.943
26.0571
-805.269
137.773
-1.9364
79.4098
-23.2633
121.941
996.232
-97.8991
108.842
1184.61
-710.671
-149.134
1615.54
-99.662
2172.48
1651.71
-1.87802
-35.0395
2157.36
-11.1579
318.18
2311
-2.42465
151.174
2267.76
6.44627
-136.837
2074.57
13.6803
-383.114
1764.98
21.5418
-591.509
1400.06
27.3555
-751.202
1059.3
53.0017
-919.264
750.758
1.76999
-1076.56
431.185
-0.422993
-822.552
137.226
-19.1663
28.1837
-33.2677
196.933
942.024
-122.251
86.0435
1160.71
-720.979
-117.05
1620.55
-62.2291
2157.85
1654.89
-2.07424
-33.8856
2161.98
-10.3479
322.344
2316.33
-2.26959
155.026
2273.8
6.12451
-133.272
2081.32
12.8664
-379.604
1772.69
20.5211
-588.04
1408.85
25.3758
-747.216
1066.23
52.3782
-915.089
745.964
3.85952
-1075.13
412.638
-17.6586
-820.765
126.548
-30.1784
9.7539
-27.4484
227.944
883.579
-157.663
82.2485
1138.82
-745.312
-78.6621
1657.87
-54.9258
2152.02
1657.15
-2.32814
-33.0282
2165.44
-9.65861
325.097
2320.08
-2.1329
157.498
2277.89
5.47894
-130.658
2085.98
11.3846
-376.519
1778.68
18.3297
-584.595
1416.87
21.1588
-742.691
1074.31
51.5945
-909.857
745.709
14.1724
-1072.47
400.442
-29.6035
-818.459
114.901
-35.9643
-7.1824
-29.0679
216.724
828.941
-154.891
60.4891
1108.41
-725.97
-60.9396
1650.56
-28.2358
2153.05
1659.95
-2.46092
-31.995
2168.94
-7.51748
328.813
2323.69
-1.72817
161.188
2281.81
3.96153
-126.98
2090.49
8.37123
-372.772
1784.99
13.8486
-580.861
1425.54
13.9403
-738.156
1092.51
40.3254
-902.799
771.192
19.0296
-1069.01
411.888
-29.0006
-830.285
112.897
-39.6801
-35.179
-31.8478
171.171
791.561
-176.006
39.5131
1099.53
-736.253
-52.7038
1663.33
3.10543
2139.87
1662.19
-1.82215
-30.935
2171.21
-2.95313
332.402
2325.85
-0.854016
165.065
2284.11
1.1161
-122.725
2092.74
2.6309
-368.107
1788.23
4.62411
-576.094
1427.89
3.52165
-732.963
1106.36
13.386
-895.397
803.463
6.81813
-1066.78
434.845
-12.4314
-854.145
110.126
-25.5465
-62.3634
-33.7901
75.91
772.347
-209.539
19.6119
1082.77
-766.174
-23.9129
1682
11.3076
2113.3
1662.56
0.222751
-30.4193
2171.7
2.50079
333.923
2326.38
0.0414118
166.603
2284.77
-2.46507
-121.141
2093.16
-4.44352
-366.428
1788.38
-6.94035
-574.396
1424.49
-6.48981
-731.332
1103.19
-17.1888
-893.997
805.651
-12.7658
-1067.25
435.804
6.57641
-860.463
81.7141
17.8639
-49.7328
-51.0023
-60.2191
786.335
-249.485
-15.3967
1063.83
-807.017
27.3965
1697.34
-14.1146
2078.3
1661.61
1.77309
-30.9605
2170.81
6.81168
332.242
2325.48
0.863206
164.844
2283.72
-5.21808
-123.013
2092.26
-10.0494
-368.356
1787.63
-16.0823
-576.27
1427.05
-16.8321
-733.032
1105.91
-44.8223
-895.423
803.788
-25.8775
-1067.07
435.102
23.2992
-854.386
107.171
34.5151
-61.1051
-35.3935
-159.136
773.506
-211.518
-36.5011
1083.02
-768.696
55.5498
1682.94
-4.58668
2108.83
1659.58
1.93214
-32.0152
2168.56
8.93197
328.595
2323.3
1.27233
160.932
2281.38
-6.65446
-127.306
2089.96
-12.9721
-373.055
1784.32
-20.4966
-581.094
1424.66
-24.0597
-738.297
1091.57
-56.3137
-903.13
769.551
-20.7937
-1069.41
409.271
24.523
-829.577
108.139
32.8406
-32.0619
-34.2097
-207.614
792.805
-179.557
-58.282
1099.73
-740.502
63.1077
1665.28
27.6683
2133.5
1656.81
1.78327
-33.0655
2165.02
9.67054
324.821
2319.6
1.47265
157.187
2277.35
-7.19206
-131.052
2085.31
-14.3394
-376.901
1777.82
-22.5842
-584.972
1415.75
-28.2227
-743.028
1072.91
-57.042
-910.559
743.079
-9.97369
-1072.97
396.296
13.3375
-817.187
108.996
28.8018
-3.49809
-32.198
-221.985
829.461
-159.57
-80.8892
1108.15
-731.473
80.1872
1652.65
55.0995
2145.31
1654.52
1.65492
-33.9502
2161.52
10.5645
322.026
2315.79
1.72215
154.681
2273.16
-7.3844
-133.718
2080.52
-15.002
-380.081
1771.64
-23.4199
-588.576
1407.41
-29.9753
-747.809
1064.3
-57.3194
-916.246
742.385
-7.20767
-1075.71
407.236
-3.35163
-818.737
119.867
19.112
14.0712
-31.2375
-193.81
884.019
-163.12
-85.3702
1138.31
-751.385
117.799
1659.89
62.9412
2143.74
1651.31
1.26504
-35.1379
2156.83
11.1053
317.818
2310.38
2.80963
150.78
2267.01
-6.22199
-137.357
2073.63
-14.0964
-383.707
1763.72
-22.5905
-592.216
1398.34
-29.8244
-752.049
1056.8
-58.788
-920.817
746.145
-15.8046
-1077.2
424.337
-29.4476
-819.735
130.334
1.59254
33.1963
-37.4287
-121.33
942.547
-128.662
-108.079
1159.93
-728.067
149.153
1622.63
100.642
2148.68
1649.2
1.04077
-35.8399
2153.62
11.9389
315.459
2307.13
3.81635
148.849
2263.62
-4.90713
-139.417
2069.79
-12.5474
-386.256
1758.65
-20.48
-595.229
1390.91
-26.9295
-756.252
1041.64
-51.6232
-927.062
729.457
-25.4744
-1080.38
415.052
-67.7927
-801.811
130.28
-35.6749
84.857
-28.1428
-48.1199
996.652
-104.876
-151.971
1183.86
-717.982
132.055
1617.34
171.059
2163.04
1643.74
-37.3817
2147.35
308.156
2300.01
141.114
2255.62
-146.597
2060.87
-392.712
1747.99
-600.767
1377.01
-761.269
1021.11
-933.026
685.897
-1077.14
342.743
-767.394
86.1929
143.162
-31.7719
998.513
-303.958
1195.53
-961.235
1738.71
2023.9
1400.78
-1.45221
20.894
1589.95
-5.52449
120.989
1669.82
-6.72341
62.6098
1619.28
-4.36983
-96.0658
1473.31
1.42924
-248.804
1241.57
9.86289
-373.276
950.503
22.7583
-478.948
624.84
50.9713
-622.3
205.23
37.3201
-660.993
-325.94
197.953
-252.636
-741.97
232.923
540.005
-1037.48
169.511
1262.37
-1465.52
88.0937
1593.96
-1611.5
-98.1035
1870.43
-155.112
1238.95
1401.3
-1.49162
20.8529
1594.28
-5.41483
122.773
1677.55
-6.17285
65.4529
1630.44
-3.36179
-92.7431
1487.88
3.33101
-244.913
1259.44
12.9188
-368.988
972.546
29.1959
-474.703
661.553
57.6469
-620.868
286.468
15.0496
-682.393
-179.842
157.565
-298.573
-582.985
217.257
498.219
-862.326
205.788
1239.3
-1251.28
90.2075
1571.45
-1528.84
-114.049
1909.04
-123.571
1380.23
1401.99
-1.9717
20.9514
1596.62
-5.37467
123.522
1681.01
-5.7004
66.3085
1635
-2.46718
-91.7179
1494.14
4.44999
-243.372
1267.91
14.3239
-366.688
986.865
29.7033
-470.665
684.483
56.6053
-615.84
314.913
-3.17076
-688.774
-131.697
106.712
-325.09
-532.648
192.717
453.675
-821.861
234.57
1202.46
-1215.41
90.624
1553.84
-1513.18
-107.369
1911.64
-96.2648
1393.09
1402.44
-2.03712
21.0552
1599.58
-4.88169
124.716
1686.06
-5.19934
68.0403
1642.22
-2.22339
-89.6742
1503.79
4.11224
-240.835
1279.98
13.7395
-363.644
1001.09
28.0563
-466.679
695.171
60.2038
-612.771
315.698
-7.93133
-690.9
-133.199
66.5664
-331.724
-523.24
158.089
434.422
-809.726
227.331
1177.31
-1214.89
81.267
1553.35
-1510.51
-87.0641
1933.18
-83.6216
1405.12
1403.02
-2.28823
21.2379
1602.05
-4.34386
125.533
1689.94
-4.69929
69.1087
1647.67
-2.23272
-88.3699
1511.14
3.05329
-238.935
1289.9
11.56
-361.181
1014.06
23.8427
-462.636
708.095
65.112
-608.796
322.101
-3.18694
-691.221
-130.879
35.2281
-334.141
-514.584
109.71
424.902
-793.597
176.643
1158.64
-1198.32
51.0013
1543.4
-1497.94
-70.9444
1934.07
-61.4626
1412
1403.55
-2.35765
21.4062
1604.83
-3.19459
126.383
1694.52
-3.63549
70.4397
1654.11
-2.07411
-86.7336
1519.68
1.44452
-236.737
1301.32
7.6411
-358.576
1030.22
15.0512
-458.263
740.604
54.9473
-603.022
362.694
1.29774
-695.582
-92.7242
7.81108
-347.45
-486.323
51.8222
416.307
-778.842
106.865
1153.86
-1199.67
27.4391
1543.92
-1491.34
-51.6435
1935.7
-32.8775
1405.33
1403.91
-1.85525
21.639
1607.52
-1.40849
127.004
1699.03
-1.65433
71.5783
1660.68
-1.29822
-85.1535
1528.57
-0.207717
-234.341
1313.77
1.84186
-355.493
1045.92
3.31376
-453.378
783.057
19.2209
-596.809
424.733
-1.94795
-705.206
-38.0653
-5.84891
-377.687
-458.23
9.06597
400.557
-766.049
34.4911
1152.54
-1205.69
10.5022
1539.35
-1490.92
-20.8326
1936.42
-11.8123
1395
1403.38
0.149169
21.9059
1608.17
0.561778
127.166
1700.54
0.649797
71.9324
1663.02
-0.280547
-84.6384
1531.71
-1.81266
-233.518
1318.09
-4.58288
-354.343
1048.5
-6.77193
-451.662
793.846
-25.07
-595.051
441.007
-7.49445
-708.861
-34.6974
-3.30731
-387.301
-472.145
-10.2595
407.039
-781.32
-29.8068
1159.81
-1229.71
-10.6145
1533.35
-1500.66
17.8756
1929.58
-3.77212
1372.07
1403.25
1.70092
21.9197
1607.06
2.13249
126.865
1698.69
2.46602
71.4003
1660.28
0.422419
-85.3117
1528.21
-3.61934
-234.475
1313.46
-10.6524
-355.456
1045.68
-18.9857
-453.038
783.461
-62.348
-595.926
425.035
-10.7571
-705.38
-39.9487
-15.3277
-377.382
-460.171
-53.3089
402.167
-767.545
-102.802
1153.87
-1207.08
-27.7311
1539.67
-1489.93
48.4791
1935.19
24.1821
1387.14
1403.19
1.86502
21.6961
1604.44
3.29371
126.185
1694.14
3.49864
70.196
1653.64
0.575393
-86.9517
1519.23
-5.31393
-236.953
1300.83
-14.7225
-358.628
1029.73
-28.1816
-457.996
739.542
-72.8852
-602.409
359.661
-5.18333
-695.105
-97.9369
-41.6984
-345.609
-490.44
-111.588
418.719
-782.18
-173.227
1154.97
-1203.18
-51.2551
1544.26
-1492.43
68.0435
1934.96
56.5037
1395.44
1402.68
1.67407
21.5271
1601.6
3.90708
125.281
1689.44
4.06126
68.7868
1647
0.64856
-88.6844
1510.41
-6.33017
-239.288
1289.02
-16.8906
-361.414
1012.93
-32.5274
-462.598
705.84
-67.7946
-608.557
317.512
0.6348
-690.46
-137.988
-71.9551
-331.43
-520.656
-160.205
427.788
-798.792
-225.226
1159.6
-1203.77
-81.5541
1543.44
-1500.3
84.9038
1932.32
80.8197
1400.09
1402.05
1.65817
21.3109
1599.06
4.50317
124.428
1685.45
4.67391
67.6789
1641.39
1.03805
-90.0522
1502.78
-6.50514
-241.297
1278.62
-17.2477
-364.063
999.137
-33.8853
-466.969
691.522
-63.4469
-612.98
309.247
-3.06017
-689.743
-142.133
-111.242
-328.073
-530.8
-195.084
437.615
-816.136
-233.701
1177.83
-1221.36
-91.0083
1552.99
-1513.4
105.699
1931.14
94.3924
1392.81
1401.55
1.25863
21.1482
1595.99
4.69184
123.198
1680.24
5.30379
65.9024
1633.95
2.14057
-92.1762
1492.8
-5.09721
-243.966
1266.07
-15.4151
-367.32
984.177
-32.7209
-471.316
679.563
-63.1662
-616.483
306.716
-20.2881
-687.129
-142.401
-161.302
-320.56
-541.424
-220.215
457.351
-829.406
-205.897
1202.73
-1222.97
-90.4467
1552.93
-1516.47
113.128
1908.7
122.228
1379.69
1400.84
1.30285
20.9643
1593.58
4.98629
122.433
1676.65
6.04752
65.0306
1629.22
3.40964
-93.2549
1486.27
-2.77673
-245.621
1257.16
-11.7096
-369.83
969.142
-25.2323
-475.719
655.559
-54.7786
-621.866
276.867
-41.6268
-680.345
-191.543
-201.049
-293.654
-592.644
-235.865
501.608
-870.767
-170.315
1239.19
-1259.18
-88.3329
1570.16
-1532.13
97.8645
1905.56
154.038
1366.65
1400.32
20.9122
1589.17
120.616
1668.79
62.1567
1617.88
-96.6559
1471.46
-249.62
1239.06
-374.184
946.981
-479.931
618.889
-622.989
195.536
-658.761
-337.283
-248.311
-752.074
542.357
-1047.19
1261.46
-1473.17
1591.59
-1613.49
1864.67
1224.61
1371.55
-0.259696
103.432
1356.42
-1.69231
136.667
1315.06
-2.00768
104.035
1192.45
1.20812
24.8421
1013.61
8.21235
-74.4375
776.066
17.0911
-143.087
478.363
35.7101
-196.448
91.6396
41.6977
-251.716
-482.345
61.1296
-91.2386
-1134.1
199.139
368.546
-1603.05
206.287
967.887
-1864.73
94.127
1495.06
-1950.83
-33.1596
1664.56
-1612.9
-141.943
1554.92
-47.9684
781.864
1371.04
-0.065545
103.656
1356.31
-1.48344
137.295
1316.39
-1.52764
104.891
1196.55
2.49243
25.8161
1021.86
11.1357
-73.153
789.86
21.6711
-141.565
499.289
47.2545
-195.677
132.698
45.5696
-258.15
-408.255
34.0199
-114.332
-1037.12
185.302
344.13
-1497.02
211.847
952.553
-1775.57
112.93
1499.05
-1911.69
-24.6221
1699.02
-1647.77
-128.777
1631.97
-44.6218
831.676
1371.17
-0.105371
103.8
1357.1
-1.54073
137.649
1317.98
-1.33178
105.232
1199.47
3.10978
26.1727
1027.35
12.3914
-72.5031
799.225
23.3928
-140.286
519.086
49.1159
-192.389
160.092
47.1277
-258.405
-379.814
10.5606
-125.41
-999.024
149.683
329.738
-1457.41
188.137
935.772
-1743.73
114.11
1487.59
-1896.79
-17.8592
1700.15
-1650.1
-110.337
1646.51
-43.5453
840.231
1370.92
0.0196419
103.978
1357.26
-1.31712
138.154
1319.23
-1.13407
105.872
1202.73
3.0207
26.9187
1033.76
11.9482
-71.4277
809.613
22.6217
-138.726
532.516
49.5118
-189.979
170.767
54.2861
-258.182
-371.387
-6.62434
-131.562
-985.941
109.863
322.649
-1446.19
153.023
929.781
-1735.82
95.4818
1485.57
-1894.63
-15.8765
1710.17
-1650.01
-87.5589
1665.79
-42.6239
847.431
1371.01
-0.0491668
104.123
1357.95
-1.25854
138.538
1320.78
-1.15048
106.3
1205.8
2.24561
27.3788
1039.47
9.96026
-70.6208
819.292
19.1655
-137.542
546.578
46.971
-187.383
186.059
63.0769
-257.069
-357.974
-17.2021
-136.611
-968.489
66.0886
320.147
-1428.75
108.532
929.654
-1720.04
60.7125
1484.7
-1885.26
-17.9919
1710.73
-1647.94
-63.1082
1672.3
-40.2992
852.933
1370.89
-0.0392424
104.27
1358.2
-1.03241
138.849
1321.92
-1.10947
106.686
1208.51
1.12313
27.7972
1045.15
6.47693
-69.8965
829.297
13.0076
-136.567
567.62
34.8564
-184.472
229.226
56.4362
-257.988
-314.167
-19.188
-150.205
-934.663
24.3742
314.759
-1402.93
59.5391
933.564
-1705.43
27.6167
1489.46
-1877.42
-14.2405
1712.15
-1638.73
-37.8945
1671.79
-29.6497
850.622
1370.96
-0.197433
104.427
1358.72
-0.848708
139.063
1323.22
-0.964256
106.931
1211.41
-0.302163
28.0813
1051.45
1.33193
-69.2329
841.094
3.37729
-135.509
593.22
10.8599
-181.508
296.093
19.8971
-263.144
-240.116
-11.9112
-176.275
-887.39
-0.118796
294.078
-1370.63
14.1935
929.145
-1687.13
5.72359
1490.93
-1870.54
-5.28451
1713.8
-1634.38
-13.0798
1675.45
-23.3796
852.999
1370.85
-0.262995
104.533
1358.58
-0.504543
139.092
1323.3
-0.673754
106.927
1212.04
-1.75947
28.0749
1053.24
-4.23537
-69.15
844.838
-7.34277
-135.225
599.995
-15.2394
-180.721
320.157
-29.6812
-265.637
-213.575
1.46542
-188.508
-877.889
-6.73224
283.625
-1367.04
-17.6448
928.03
-1686.61
-6.94585
1492.05
-1871.39
2.17024
1710.67
-1627.22
6.8253
1665.51
-12.7095
841.699
1370.9
-0.402566
104.522
1358.57
-0.292802
138.981
1323.03
-0.520724
106.789
1211.27
-3.29353
27.978
1051.43
-9.56318
-69.305
841.317
-17.3312
-135.354
594.331
-40.4784
-180.814
297.503
-67.8834
-260.898
-239.187
9.76545
-176.993
-887.958
-29.4605
294.116
-1370.18
-63.0162
929.761
-1685.22
-29.9688
1491.94
-1866.62
9.20111
1714.04
-1627.44
30.7755
1672.07
8.92871
844.077
1370.77
-0.454198
104.398
1358.03
-0.0701633
138.7
1321.68
-0.435622
106.465
1208.28
-4.4537
27.6064
1044.99
-13.1264
-70.1024
829.279
-23.6808
-136.566
568.127
-53.4391
-183.884
227.977
-74.1422
-256.001
-317.13
9.4024
-149.636
-937.97
-70.086
315.855
-1404.69
-111.737
934.164
-1705.9
-63.1327
1489.34
-1876.11
12.6275
1711.04
-1634.75
55.4697
1668.91
28.4502
841.637
1370.8
-0.610047
104.261
1357.66
0.0494529
138.31
1320.35
-0.323002
105.981
1205.29
-5.13015
27.0586
1038.9
-15.0176
-71.0075
818.649
-27.083
-137.766
545.941
-56.291
-187.039
183.171
-64.5084
-255.424
-362.588
0.0253377
-135.326
-973.294
-112.828
322.018
-1432.16
-155.88
930.793
-1722.4
-97.7295
1484.44
-1885.79
11.3358
1708.12
-1645.95
81.1958
1666.74
35.8555
840.812
1370.63
-0.56431
104.126
1356.85
0.385139
137.877
1318.66
0.0440829
105.5
1201.97
-5.02909
26.5367
1032.79
-15.2156
-71.9107
808.27
-27.5089
-139.12
530.486
-55.5005
-189.973
165.741
-55.9761
-256.766
-378.414
-16.041
-129.52
-992.51
-151.768
324.964
-1450.91
-190.536
930.668
-1739.22
-116.011
1484.43
-1895.88
14.2114
1706.78
-1649.06
105.181
1660.33
38.3864
835.695
1370.81
-0.669121
103.935
1356.56
0.517823
137.319
1317.24
0.466278
104.798
1198.44
-4.11698
25.7126
1025.92
-13.5346
-73.1198
797.166
-25.1689
-140.909
515.683
-52.5027
-192.83
153.012
-52.5446
-257.243
-388.998
-38.5916
-122.568
-1007.04
-186.851
332.561
-1463.31
-213.692
936.776
-1748.03
-114.488
1485.93
-1898.33
21.913
1695.53
-1648.85
124.998
1639.4
41.0467
827.227
1370.54
-0.371785
103.773
1355.62
0.949589
136.929
1315.48
1.20673
104.431
1195.26
-2.45113
25.3027
1019.99
-9.99144
-73.8937
787.046
-19.6345
-142.42
494.583
-39.1892
-196.568
124.051
-46.6486
-257.229
-418.741
-65.0931
-111.051
-1045.86
-200.285
346.895
-1503.51
-207.617
953.188
-1780.24
-95.3644
1496.8
-1913.23
31.2677
1693.81
-1646.63
139.502
1624.45
45.1636
818.667
1370.86
103.547
1355.51
136.251
1313.95
103.52
1190.89
24.2421
1011.46
-75.3017
773.014
-144.009
473.815
-197.259
83.5438
-250.43
-492.372
-88.0022
-1142.42
370.815
-1609.43
967.814
-1869.07
1491.67
-1951.34
1657.66
-1610.85
1545.83
768.732
1404.82
0.290355
139.527
1346.93
0.0332029
194.469
1256.52
0.441501
193.896
1092.83
3.64474
186.386
864.358
10.8529
149.008
573.389
20.9186
139.232
199.175
43.0634
160.102
-266.946
10.6534
210.036
-843.672
11.3019
492.934
-1392.63
84.5408
904.806
-1752.94
59.2651
1310.86
-1839.42
-33.4715
1575.67
-1727.98
-110.975
1560.75
-1444.58
-114.49
1293.21
-10.5293
819.857
1404.93
0.366067
139.606
1347.14
0.268521
194.856
1257.1
1.00492
194.372
1094.77
5.07491
186.718
868.957
14.224
149.285
582.092
26.8913
139.326
212.432
58.0353
159.01
-250.936
11.6657
204.205
-828.104
-9.66591
483.803
-1377.17
77.138
900.598
-1747
61.7544
1319.89
-1860.12
-25.8364
1604.54
-1774.92
-100.752
1603.6
-1481.42
-101.588
1325.56
-12.1699
805.671
1405.18
0.241833
139.646
1347.84
0.19178
195.065
1258.27
1.23628
194.576
1097.02
5.6904
186.808
873.584
15.708
149.448
591.631
28.8902
139.668
234.207
61.8284
161.242
-228.056
15.0815
200.441
-816.3
-24.1793
477.346
-1364.7
57.328
897.95
-1736.59
50.3942
1319.02
-1860.54
-22.0757
1607.78
-1787.88
-85.8719
1612.61
-1493.44
-87.6503
1338.13
-20.2623
801.353
1405.17
0.240969
139.699
1348.01
0.145485
195.363
1258.99
1.2234
194.916
1099.13
5.42337
187.041
878.273
15.4164
149.721
600.104
28.2646
140.068
243.692
65.8235
162.437
-222.487
23.2749
199.802
-812.685
-38.3793
472.835
-1361.31
33.811
894.789
-1738.44
36.2337
1321.07
-1867.97
-22.8377
1615.86
-1796.81
-71.4385
1624.59
-1496.22
-70.2461
1347.79
-20.4119
792.712
1405.37
0.110626
139.714
1348.64
-0.161321
195.577
1260.2
0.821365
195.144
1101.65
4.19683
187.157
883.428
13.1131
149.9
609.612
24.3345
140.203
257.521
67.0069
163.524
-209.721
33.8889
199.557
-803.626
-49.1704
468.084
-1351.69
8.71711
893.307
-1730.6
22.6528
1322.14
-1864.69
-21.4646
1617.42
-1799.62
-52.7907
1627.01
-1501.72
-52.1508
1356.31
-27.861
794.005
1405.36
0.118094
139.745
1348.65
-0.361643
195.762
1260.65
0.200003
195.313
1103.09
2.37429
187.178
887.692
8.74971
149.863
618.821
16.6322
140.005
283.062
53.8652
164.427
-171.097
35.7764
194.281
-780.431
-44.3759
454.332
-1340.33
-7.80327
891.176
-1721.98
10.9152
1326.95
-1859.31
-17.5366
1622.86
-1794.63
-33.88
1628.56
-1495.35
-31.777
1352.15
-21.8898
785.243
1405.58
-0.0656734
139.77
1349.1
-0.716015
195.894
1261.48
-0.692236
195.445
1104.82