/*--------------------------------*- C++ -*----------------------------------*\
| =========                 |                                                 |
| \\      /  F ield         | OpenFOAM: The Open Source CFD Toolbox           |
|  \\    /   O peration     | Version:  4.1                                   |
|   \\  /    A nd           | Web:      www.OpenFOAM.org                      |
|    \\/     M anipulation  |                                                 |
\*---------------------------------------------------------------------------*/
FoamFile
{
    version     2.0;
    format      ascii;
    class       volVectorField;
    location    "6";
    object      U;
}
// * * * * * * * * * * * * * * * * * * * * * * * * * * * * * * * * * * * * * //

dimensions      [0 1 -1 0 0 0 0];

internalField   nonuniform List<vector> 
6750
(
(16.7034 -0.0563114 14.9644)
(4.62089 0.0995645 14.4472)
(10.958 0.121333 2.41837)
(9.08968 0.157966 -4.84817)
(7.6857 0.207581 -9.89495)
(7.32585 0.230091 -13.8588)
(6.58599 0.208529 -16.6571)
(5.84378 0.17236 -18.3209)
(4.71442 0.142484 -19.4502)
(4.07531 0.00606873 -16.7868)
(1.91574 0.0904709 -6.76436)
(0.882334 0.0227956 7.8027)
(-0.586045 -0.0144204 11.3075)
(2.47893 -1.02558 6.57174)
(-5.57714 0.116076 23.1608)
(16.528 -0.082187 15.2665)
(4.51992 0.157094 14.4744)
(10.901 0.173648 2.37214)
(9.05566 0.20888 -4.86861)
(7.70978 0.258778 -9.89092)
(7.4081 0.284726 -13.8525)
(6.71518 0.243177 -16.6512)
(5.98455 0.252607 -18.2817)
(4.81264 0.29108 -19.3987)
(4.16018 0.0537356 -16.9818)
(2.12514 0.165365 -7.32498)
(0.816483 0.175826 8.23421)
(-0.687208 -0.10082 12.3548)
(1.98518 -1.0118 8.31269)
(-5.60363 0.147935 22.6021)
(16.4772 -0.067922 15.3657)
(4.50278 0.143001 14.4657)
(10.8766 0.147608 2.3449)
(9.02039 0.168588 -4.89627)
(7.67312 0.211176 -9.90934)
(7.38035 0.238992 -13.8501)
(6.72482 0.206172 -16.6343)
(5.96368 0.258666 -18.2269)
(5.00162 0.310921 -19.2951)
(4.41364 0.0697434 -17.1114)
(2.38319 0.330643 -7.81943)
(0.887851 0.440635 7.22127)
(-0.761837 -0.201817 11.9303)
(1.73745 -0.408973 9.11322)
(-5.7053 0.026891 22.2246)
(16.3879 -0.0716047 15.5309)
(4.47073 0.14837 14.4599)
(10.8462 0.151309 2.30515)
(8.97438 0.177564 -4.92386)
(7.62291 0.220167 -9.9193)
(7.34031 0.242996 -13.847)
(6.70434 0.216217 -16.6204)
(5.95924 0.251359 -18.1934)
(5.1025 0.325801 -19.2534)
(4.51654 0.10761 -17.2223)
(2.48133 0.48068 -8.04651)
(1.0368 0.670095 5.7418)
(-0.919585 -0.259859 11.2469)
(1.70428 -0.307016 9.35542)
(-5.65061 -0.0262308 22.4334)
(16.3325 -0.0645352 15.6365)
(4.45037 0.12551 14.4595)
(10.8114 0.11788 2.28548)
(8.92494 0.135761 -4.94602)
(7.58449 0.168194 -9.93344)
(7.32554 0.181751 -13.8399)
(6.71353 0.158209 -16.591)
(6.00128 0.195026 -18.1489)
(5.18622 0.307115 -19.2143)
(4.61292 0.125904 -17.3334)
(2.55773 0.499723 -8.23869)
(1.24558 0.866734 4.1546)
(-1.05037 -0.284748 10.6587)
(1.7692 -0.137156 9.3323)
(-5.62454 -0.0466854 22.5003)
(16.2552 -0.0609408 15.7728)
(4.40962 0.107599 14.469)
(10.7717 0.0990697 2.26046)
(8.87024 0.110559 -4.96631)
(7.55222 0.122815 -9.93696)
(7.32763 0.133509 -13.8188)
(6.7455 0.11935 -16.5507)
(6.05692 0.140428 -18.0958)
(5.31077 0.287179 -19.1433)
(4.8764 0.162988 -17.4753)
(2.82853 0.494466 -8.68333)
(1.44929 0.899207 2.73489)
(-1.14525 -0.333592 10.2033)
(1.82095 -0.051679 9.2945)
(-5.58643 -0.0349432 22.6584)
(16.1732 -0.0384007 15.9052)
(4.36398 0.0646775 14.4801)
(10.7498 0.0572667 2.23097)
(8.86327 0.0582798 -4.99173)
(7.54948 0.0456973 -9.94303)
(7.31906 0.0473565 -13.8446)
(6.74063 0.044191 -16.5993)
(6.02565 0.0395573 -18.1504)
(5.21549 0.169609 -19.1814)
(5.05934 0.140031 -17.6575)
(3.05329 0.52196 -9.18258)
(2.50003 1.06426 0.0779784)
(-1.1537 -0.294909 9.20705)
(1.80126 -0.0327798 9.652)
(-5.61978 -0.00516862 22.5524)
(16.1369 0.000113929 15.9609)
(4.3473 -0.00204165 14.4845)
(10.7453 -0.0018783 2.22043)
(8.88235 -0.00272264 -4.99897)
(7.56999 -0.00385756 -9.94453)
(7.31936 -0.00466943 -13.8772)
(6.71947 -0.00526292 -16.6711)
(5.96365 -0.00392456 -18.2521)
(5.03292 -0.00293586 -19.304)
(5.05754 -0.000404045 -17.7677)
(3.03411 0.0244887 -9.41682)
(3.48883 0.0746553 -2.45305)
(-1.06654 -0.00880676 7.85971)
(1.76888 0.00449258 9.98742)
(-5.6899 -0.00257595 22.2807)
(16.1762 0.0382637 15.8989)
(4.36628 -0.0678812 14.4801)
(10.7512 -0.0603839 2.23191)
(8.86391 -0.0629353 -4.99161)
(7.5492 -0.0527769 -9.94405)
(7.31732 -0.0558023 -13.8464)
(6.7367 -0.0532872 -16.6021)
(6.0194 -0.0468817 -18.1548)
(5.21072 -0.179357 -19.1839)
(5.07022 -0.145009 -17.6587)
(3.05715 -0.490719 -9.19867)
(2.60464 -1.02563 -0.101309)
(-1.14664 0.294326 9.18185)
(1.81492 0.0438459 9.62712)
(-5.61686 0.00231736 22.5632)
(16.2581 0.0604958 15.7657)
(4.41178 -0.109821 14.4691)
(10.7737 -0.101563 2.26137)
(8.87259 -0.114348 -4.9666)
(7.55378 -0.129083 -9.93895)
(7.32767 -0.141042 -13.8223)
(6.74403 -0.127425 -16.5555)
(6.0539 -0.147869 -18.1024)
(5.31039 -0.299539 -19.1508)
(4.88154 -0.170112 -17.4774)
(2.82564 -0.479868 -8.67697)
(1.43724 -0.857359 2.7015)
(-1.14793 0.34665 10.1906)
(1.82604 0.0618947 9.27437)
(-5.58455 0.0344906 22.668)
(16.3354 0.0641279 15.6286)
(4.45254 -0.127234 14.4596)
(10.8139 -0.119987 2.28647)
(8.9288 -0.138853 -4.9467)
(7.58798 -0.173574 -9.93629)
(7.32777 -0.188462 -13.8447)
(6.71504 -0.165545 -16.5976)
(6.00183 -0.202225 -18.1578)
(5.1903 -0.319239 -19.2257)
(4.61977 -0.132328 -17.338)
(2.5563 -0.481117 -8.23172)
(1.23558 -0.84164 4.11788)
(-1.05521 0.287823 10.6444)
(1.77321 0.144832 9.31605)
(-5.62248 0.0467772 22.5116)
(16.3907 0.0712327 15.5224)
(4.47295 -0.149581 14.4598)
(10.8491 -0.152946 2.30607)
(8.97944 -0.179952 -4.92494)
(7.6281 -0.224731 -9.9228)
(7.34469 -0.249046 -13.8528)
(6.70851 -0.223109 -16.6286)
(5.96308 -0.258919 -18.2049)
(5.10993 -0.339129 -19.2697)
(4.52287 -0.115368 -17.2289)
(2.47959 -0.467596 -8.03359)
(1.02599 -0.65124 5.71631)
(-0.925937 0.263094 11.2364)
(1.70641 0.314127 9.34217)
(-5.64868 0.0269752 22.4462)
(16.48 0.0676604 15.3568)
(4.50509 -0.143879 14.4655)
(10.8797 -0.148903 2.34571)
(9.02653 -0.170423 -4.89783)
(7.67986 -0.214815 -9.91365)
(7.38678 -0.243985 -13.8571)
(6.73155 -0.21213 -16.6442)
(5.97066 -0.265281 -18.2412)
(5.01098 -0.322099 -19.3165)
(4.41802 -0.0762348 -17.1198)
(2.38158 -0.321209 -7.80136)
(0.876875 -0.428119 7.20008)
(-0.769179 0.203161 11.9256)
(1.74074 0.413911 9.09905)
(-5.70353 -0.0264145 22.239)
(16.5307 0.0820255 15.2572)
(4.52231 -0.15768 14.474)
(10.9044 -0.174639 2.37292)
(9.06259 -0.210393 -4.87044)
(7.71775 -0.262136 -9.89569)
(7.41612 -0.289623 -13.8602)
(6.72395 -0.249357 -16.662)
(5.99348 -0.259125 -18.298)
(4.82442 -0.301442 -19.4228)
(4.16585 -0.0615629 -16.9903)
(2.12442 -0.162856 -7.30386)
(0.805443 -0.168292 8.2165)
(-0.695823 0.100443 12.3531)
(1.9911 1.0178 8.29237)
(-5.60197 -0.145808 22.6164)
(16.7062 0.0562571 14.9549)
(4.62347 -0.0998173 14.4465)
(10.9618 -0.121823 2.41879)
(9.09727 -0.158803 -4.85063)
(7.69403 -0.209651 -9.90053)
(7.33369 -0.233405 -13.8674)
(6.59409 -0.212991 -16.6689)
(5.85127 -0.177168 -18.3388)
(4.72591 -0.149867 -19.4756)
(4.08182 -0.0135775 -16.7957)
(1.91602 -0.0950466 -6.74509)
(0.868323 -0.0198887 7.7867)
(-0.596483 0.0134421 11.3003)
(2.47566 1.02508 6.57685)
(-5.58048 -0.114073 23.1629)
(28.134 -0.0703617 7.98959)
(21.9747 -0.00717619 12.9994)
(24.5886 0.109803 5.40614)
(24.6653 0.184438 -1.33624)
(22.2831 0.218094 -7.00808)
(19.7425 0.214932 -11.5689)
(16.8255 0.190244 -14.5061)
(13.4499 0.218907 -16.1656)
(10.5437 0.116358 -17.47)
(7.97347 0.069213 -14.5334)
(4.59818 0.116462 -4.42837)
(2.46991 -0.107639 9.08419)
(-0.770755 0.0821101 11.5499)
(7.35097 -1.50657 7.69916)
(-16.3201 0.00196256 26.0494)
(28.1176 -0.103455 8.2097)
(21.8755 0.00319895 13.1591)
(24.5014 0.173567 5.48065)
(24.5923 0.267956 -1.30352)
(22.2604 0.303068 -6.99223)
(19.778 0.293918 -11.5522)
(16.9068 0.253871 -14.4789)
(13.5761 0.324537 -16.1104)
(10.672 0.190136 -17.3815)
(8.26195 -0.0778538 -14.7486)
(4.97679 -0.0521867 -5.1394)
(2.41918 0.181184 9.25678)
(-1.63807 -0.157767 13.2125)
(8.46986 -1.71901 7.55321)
(-15.9937 0.14309 25.4126)
(28.109 -0.0898037 8.28821)
(21.8702 0.0164663 13.1957)
(24.4909 0.158376 5.4987)
(24.5665 0.232207 -1.28982)
(22.2397 0.25791 -6.9732)
(19.7702 0.252137 -11.5213)
(16.9268 0.216044 -14.4371)
(13.5989 0.295667 -16.0566)
(10.869 0.142534 -17.3165)
(8.42236 -0.177712 -14.8757)
(4.96382 0.0289486 -5.51249)
(2.45886 0.746492 8.46779)
(-1.88238 -0.414673 12.9215)
(7.28944 -0.883548 8.88148)
(-16.1688 0.18613 24.8158)
(28.0918 -0.0993911 8.41841)
(21.8479 0.015551 13.2669)
(24.4734 0.164535 5.52994)
(24.5405 0.245188 -1.27039)
(22.2228 0.27279 -6.95239)
(19.7674 0.26714 -11.4926)
(16.942 0.231968 -14.4009)
(13.6322 0.297461 -16.0136)
(10.9134 0.155048 -17.3057)
(8.36609 -0.176052 -14.934)
(4.72897 0.046491 -5.53477)
(2.60142 1.11911 7.38661)
(-2.11472 -0.348165 12.3037)
(6.6945 -0.630897 9.56508)
(-16.0793 0.00379202 24.7912)
(28.0817 -0.0936956 8.50485)
(21.8391 0.0105831 13.3129)
(24.4578 0.13709 5.55539)
(24.5141 0.200979 -1.24969)
(22.208 0.221004 -6.92526)
(19.7689 0.216295 -11.4534)
(16.966 0.18229 -14.3525)
(13.6889 0.257314 -15.9556)
(10.971 0.176473 -17.2767)
(8.36728 -0.193538 -15.0063)
(4.54023 -0.0636284 -5.57661)
(2.75564 1.33409 6.28093)
(-2.36352 -0.251831 11.7752)
(6.91494 -0.292596 9.46121)
(-16.0438 -0.0386256 24.8024)
(28.069 -0.0978485 8.61329)
(21.7981 0.00155427 13.3851)
(24.4088 0.11349 5.58971)
(24.4561 0.163159 -1.23309)
(22.1684 0.177111 -6.90905)
(19.7588 0.179836 -11.423)
(16.9982 0.149894 -14.3102)
(13.7451 0.227237 -15.8908)
(11.14 0.2221 -17.2121)
(8.63004 -0.140159 -15.1463)
(4.58171 -0.0750869 -5.90089)
(2.8248 1.32773 5.32908)
(-2.59915 -0.235127 11.3892)
(6.83136 -0.158134 9.57828)
(-16.0175 0.0355454 24.8878)
(28.047 -0.0713646 8.71416)
(21.7238 -0.000570949 13.4606)
(24.3332 0.0667107 5.61911)
(24.3784 0.0887725 -1.23011)
(22.0987 0.0880172 -6.92877)
(19.6966 0.092056 -11.4568)
(16.9606 0.0724886 -14.3364)
(13.6709 0.111774 -15.8862)
(11.1579 0.150728 -17.1808)
(8.89059 -0.0617021 -15.3033)
(4.59331 -0.0442613 -6.14458)
(3.01388 1.31309 4.18514)
(-2.68141 -0.0943848 10.658)
(6.30532 -0.097961 10.1843)
(-16.126 0.102829 24.7009)
(28.0311 -0.00165713 8.755)
(21.6855 -0.00171544 13.4919)
(24.2993 -0.00355747 5.62878)
(24.3516 -0.0050615 -1.23302)
(22.076 -0.00622857 -6.94768)
(19.6642 -0.00698076 -11.4956)
(16.9191 -0.00825404 -14.3838)
(13.5603 -0.00783701 -15.9353)
(11.0196 -0.00894249 -17.2287)
(8.84828 -0.00864042 -15.3597)
(4.48523 -0.00472063 -5.99086)
(3.03489 0.0802291 3.68556)
(-2.78682 0.0181791 9.76931)
(5.86266 0.0201463 10.6705)
(-16.3021 -0.00548046 24.4071)
(28.0458 0.0685187 8.70775)
(21.7257 -0.00294693 13.4573)
(24.3348 -0.0730203 5.61721)
(24.3793 -0.0975113 -1.23192)
(22.0976 -0.0986969 -6.93071)
(19.6924 -0.104277 -11.4591)
(16.9535 -0.0867792 -14.3396)
(13.6586 -0.127916 -15.8905)
(11.1524 -0.17467 -17.1858)
(8.89818 0.0419776 -15.3055)
(4.59307 0.0422984 -6.14888)
(2.98223 -1.2248 4.14691)
(-2.68763 0.12071 10.6412)
(6.31214 0.136393 10.1617)
(-16.1257 -0.10994 24.7119)
(28.0675 0.095821 8.60636)
(21.799 -0.00500614 13.3818)
(24.4093 -0.118807 5.58734)
(24.4563 -0.170391 -1.23606)
(22.1672 -0.186071 -6.91254)
(19.7551 -0.190553 -11.4271)
(16.9918 -0.16272 -14.3152)
(13.7352 -0.244153 -15.8983)
(11.1339 -0.248822 -17.2231)
(8.62194 0.120007 -15.1462)
(4.5567 0.0792461 -5.88144)
(2.78648 -1.26889 5.32972)
(-2.61285 0.255685 11.368)
(6.81925 0.189357 9.56237)
(-16.0202 -0.0392619 24.8947)
(28.0798 0.0921763 8.49727)
(21.8393 -0.0135788 13.3092)
(24.4577 -0.141621 5.55255)
(24.514 -0.207206 -1.25364)
(22.2067 -0.228949 -6.93017)
(19.7654 -0.226072 -11.4594)
(16.9602 -0.194378 -14.3598)
(13.6798 -0.273698 -15.9665)
(10.9653 -0.201116 -17.2923)
(8.35271 0.176368 -15.0067)
(4.50709 0.0675227 -5.55229)
(2.71356 -1.28755 6.28092)
(-2.38271 0.262583 11.7475)
(6.90016 0.316162 9.44229)
(-16.0475 0.0363748 24.8113)
(28.0895 0.0982173 8.41054)
(21.8476 -0.0180162 13.2628)
(24.4731 -0.168263 5.52673)
(24.5404 -0.250362 -1.27511)
(22.2216 -0.279619 -6.95847)
(19.7642 -0.275934 -11.5003)
(16.9365 -0.243206 -14.4105)
(13.6231 -0.313695 -16.0283)
(10.9075 -0.179377 -17.326)
(8.34523 0.159759 -14.9341)
(4.68951 -0.0443661 -5.50411)
(2.55479 -1.08657 7.39404)
(-2.13681 0.356689 12.2754)
(6.67553 0.647781 9.54672)
(-16.0843 -0.00241552 24.8017)
(28.1064 0.0889861 8.28006)
(21.8695 -0.0183323 13.1911)
(24.4905 -0.161301 5.49504)
(24.5664 -0.236318 -1.29536)
(22.2387 -0.263464 -6.9805)
(19.7673 -0.259452 -11.5307)
(16.9215 -0.225641 -14.4489)
(13.5901 -0.309764 -16.0748)
(10.8606 -0.162726 -17.3413)
(8.39419 0.164402 -14.875)
(4.92012 -0.0280813 -5.47507)
(2.40907 -0.7245 8.47958)
(-1.90739 0.420056 12.8956)
(7.27148 0.893079 8.85902)
(-16.1757 -0.183409 24.8281)
(28.1148 0.102891 8.20139)
(21.8747 -0.00458885 13.1542)
(24.5009 -0.175931 5.47671)
(24.5923 -0.271405 -1.30956)
(22.2598 -0.307975 -7.00029)
(19.7757 -0.3006 -11.5627)
(16.902 -0.262916 -14.4922)
(13.5673 -0.337037 -16.1315)
(10.6616 -0.207932 -17.4097)
(8.22878 0.0625844 -14.746)
(4.92804 0.048278 -5.09536)
(2.36797 -0.169176 9.27271)
(-1.66435 0.158891 13.1872)
(8.45859 1.71654 7.52271)
(-16.0025 -0.130366 25.4261)
(28.1309 0.0701189 7.98119)
(21.9737 0.00653982 12.994)
(24.5881 -0.111009 5.40163)
(24.6651 -0.186317 -1.3431)
(22.2819 -0.22095 -7.0172)
(19.7389 -0.218994 -11.5806)
(16.8188 -0.195913 -14.5207)
(13.438 -0.226455 -16.1885)
(10.5318 -0.12734 -17.4997)
(7.93766 -0.0815462 -14.5316)
(4.54669 -0.1249 -4.38874)
(2.4146 0.111355 9.09917)
(-0.796626 -0.0839795 11.5119)
(7.29026 1.49665 7.72128)
(-16.3402 0.00978276 26.0412)
(25.8013 -0.00393379 -0.468775)
(22.7508 -0.0536275 5.04347)
(24.3578 -0.0260386 1.97818)
(26.4777 0.0107782 -2.23475)
(24.7904 0.0454092 -5.69091)
(21.6322 0.0811701 -8.5324)
(17.7361 0.107105 -10.5753)
(13.3351 0.207693 -12.3923)
(9.77896 0.10935 -14.1784)
(5.57147 0.452579 -11.2053)
(1.53917 0.421232 -0.329893)
(1.48631 0.167465 10.4721)
(-2.52767 0.71933 10.1976)
(-1.43837 -0.800613 17.2455)
(-26.6913 -0.833139 27.0403)
(25.8267 -0.00761063 -0.424098)
(22.8103 -0.0756083 5.16679)
(24.4376 -0.0253771 2.10366)
(26.5631 0.0303835 -2.1274)
(24.8833 0.0777008 -5.60965)
(21.7373 0.126521 -8.47525)
(17.8661 0.167071 -10.5278)
(13.5135 0.332842 -12.3195)
(10.047 0.124355 -14.1359)
(6.30171 0.29309 -11.5278)
(2.28833 0.067122 -1.26184)
(1.90367 0.401557 10.7385)
(-3.0607 0.877144 10.7892)
(3.89224 -0.844899 14.6563)
(-26.7468 -0.908023 27.9388)
(25.8329 -0.0091604 -0.405313)
(22.8384 -0.0595936 5.2012)
(24.4766 -0.0123316 2.13423)
(26.5993 0.0347191 -2.0961)
(24.9206 0.0730064 -5.5769)
(21.7835 0.114596 -8.44173)
(17.9287 0.147751 -10.4872)
(13.6124 0.294046 -12.258)
(10.2707 0.0113189 -14.0705)
(6.4557 0.0151172 -11.6577)
(2.25523 -0.088597 -1.77385)
(1.97759 0.952618 10.1035)
(-3.39641 0.431944 10.6481)
(3.66277 -0.745523 14.8325)
(-26.7891 -0.305099 27.4801)
(25.8434 -0.0114424 -0.372065)
(22.8789 -0.0628257 5.26681)
(24.5367 -0.0148779 2.19379)
(26.6635 0.0356598 -2.04542)
(24.9918 0.077696 -5.53439)
(21.8639 0.124183 -8.40485)
(18.0209 0.156835 -10.4486)
(13.7184 0.299791 -12.2131)
(10.3174 0.00530401 -14.0472)
(6.31396 -0.0340828 -11.6418)
(1.94816 -0.136154 -1.82422)
(2.09511 1.2553 9.25937)
(-3.46809 0.497504 10.247)
(2.935 -0.561515 15.3918)
(-26.545 -0.375904 27.2712)
(25.8498 -0.0121925 -0.348171)
(22.9099 -0.0551817 5.30904)
(24.581 -0.0108648 2.23395)
(26.7077 0.0340057 -2.0054)
(25.0404 0.0684393 -5.49338)
(21.9207 0.108357 -8.36299)
(18.0987 0.130448 -10.3999)
(13.8212 0.29175 -12.1548)
(10.3933 0.0410083 -14.0133)
(6.25246 -0.156201 -11.6451)
(1.71357 -0.207319 -1.98845)
(2.1132 1.32419 8.41216)
(-3.61593 0.43547 9.77108)
(3.2388 -0.3483 15.2511)
(-26.4704 -0.246133 27.2341)
(25.8612 -0.0139022 -0.318778)
(22.9431 -0.0522116 5.37065)
(24.6231 -0.013242 2.29595)
(26.7494 0.0270466 -1.94853)
(25.0866 0.0586513 -5.44375)
(21.9751 0.096489 -8.31868)
(18.1853 0.106044 -10.3535)
(13.928 0.288099 -12.0806)
(10.6924 0.118173 -13.9532)
(6.54591 -0.177488 -11.7774)
(1.72403 -0.19615 -2.46639)
(2.0364 1.10366 7.72861)
(-3.69058 0.246937 9.57018)
(2.86605 -0.330973 15.4832)
(-26.3475 -0.0703911 27.0881)
(25.874 -0.0140299 -0.28946)
(22.9665 -0.0322562 5.43377)
(24.6485 -0.00750045 2.36432)
(26.7743 0.0163762 -1.88012)
(25.1144 0.0348077 -5.37954)
(21.9981 0.0587987 -8.26091)
(18.2353 0.049646 -10.3011)
(13.9285 0.162205 -12.0114)
(11.0012 0.0949662 -13.9002)
(6.98178 -0.133875 -11.9846)
(1.81694 -0.24851 -2.9401)
(1.91763 0.843542 7.32452)
(-3.74074 0.201948 9.26892)
(2.19172 -0.249411 15.8707)
(-26.3558 0.104305 26.7367)
(25.8761 -0.00525101 -0.276042)
(22.9716 -0.00130921 5.46133)
(24.6546 -0.00218455 2.39208)
(26.7813 -0.0038849 -1.85421)
(25.1232 -0.00530313 -5.35719)
(21.9994 -0.00668691 -8.24186)
(18.2386 -0.00861921 -10.2873)
(13.8483 -0.009769 -12.0067)
(11.0123 -0.0149045 -13.9072)
(7.01816 -0.0166727 -12.0397)
(1.71332 -0.0238548 -2.82347)
(1.52043 0.0532242 7.47626)
(-3.82099 0.0140665 8.90837)
(1.38064 0.0101967 16.2436)
(-26.4589 -0.00937261 26.3285)
(25.8691 0.00756631 -0.291804)
(22.9628 0.0290375 5.43141)
(24.6442 0.00279815 2.36103)
(26.77 -0.0237163 -1.88366)
(25.1096 -0.0445851 -5.38255)
(21.9921 -0.0715194 -8.26351)
(18.228 -0.0658703 -10.3035)
(13.9168 -0.185645 -12.0145)
(11.003 -0.132343 -13.905)
(6.9858 0.100863 -11.9871)
(1.80652 0.211154 -2.92819)
(1.87919 -0.770511 7.33208)
(-3.74285 -0.182786 9.26216)
(2.14225 0.267867 15.8921)
(-26.353 -0.116549 26.7158)
(25.8575 0.0115393 -0.321025)
(22.9401 0.0481353 5.36786)
(24.6186 0.00819796 2.2925)
(26.7447 -0.033932 -1.95224)
(25.0814 -0.0678246 -5.44703)
(21.9687 -0.108923 -8.32189)
(18.1767 -0.122353 -10.3566)
(13.9168 -0.31501 -12.0869)
(10.6829 -0.157525 -13.9624)
(6.5155 0.146572 -11.7712)
(1.68121 0.173251 -2.422)
(1.98863 -1.04431 7.7411)
(-3.69286 -0.231597 9.55688)
(2.77565 0.344876 15.5197)
(-26.3419 0.0655633 27.0509)
(25.846 0.0102638 -0.350629)
(22.9066 0.0511593 5.30559)
(24.5759 0.00617093 2.23002)
(26.702 -0.040315 -2.00976)
(25.0338 -0.0770647 -5.49763)
(21.9124 -0.12027 -8.36765)
(18.0879 -0.146758 -10.405)
(13.8069 -0.318104 -12.1648)
(10.3768 -0.0763348 -14.0254)
(6.20544 0.129722 -11.6354)
(1.65438 0.195591 -1.93365)
(2.05285 -1.28206 8.41361)
(-3.61829 -0.426012 9.74578)
(3.12049 0.358846 15.2945)
(-26.4637 0.244603 27.1891)
(25.8394 0.0100217 -0.374678)
(22.8749 0.0592123 5.26295)
(24.5309 0.0105836 2.18955)
(26.6569 -0.0414035 -2.05033)
(24.9839 -0.0857084 -5.53962)
(21.8539 -0.135541 -8.41107)
(18.0074 -0.172613 -10.4561)
(13.6996 -0.325925 -12.2279)
(10.2936 -0.0388746 -14.0619)
(6.25184 0.0113815 -11.6275)
(1.87754 0.133342 -1.75983)
(2.02646 -1.23061 9.26229)
(-3.47466 -0.492748 10.2175)
(2.80342 0.567664 15.4366)
(-26.5378 0.379487 27.2227)
(25.8286 0.00811299 -0.408127)
(22.8337 0.0565956 5.19684)
(24.4701 0.0087827 2.12945)
(26.5915 -0.0394454 -2.10187)
(24.9113 -0.0797422 -5.58337)
(21.7716 -0.124232 -8.44966)
(17.9124 -0.161307 -10.497)
(13.59 -0.316373 -12.2767)
(10.2377 -0.0387617 -14.0877)
(6.37941 -0.0340065 -11.639)
(2.17633 0.087778 -1.70199)
(1.90127 -0.941718 10.1092)
(-3.40241 -0.428093 10.6146)
(3.5085 0.748975 14.8846)
(-26.7821 0.308788 27.4261)
(25.8223 0.00688638 -0.427088)
(22.8052 0.0731149 5.162)
(24.4307 0.0222937 2.09853)
(26.5548 -0.0345304 -2.13377)
(24.873 -0.0838296 -5.6171)
(21.7241 -0.135256 -8.48459)
(17.8477 -0.179162 -10.5397)
(13.4875 -0.351494 -12.3416)
(10.0057 -0.148549 -14.1549)
(6.2129 -0.313197 -11.5044)
(2.20056 -0.0697461 -1.17823)
(1.82047 -0.406632 10.7433)
(-3.07498 -0.872413 10.7589)
(3.73375 0.839941 14.7085)
(-26.741 0.915036 27.8829)
(25.7967 0.00361031 -0.471825)
(22.7451 0.052361 5.03824)
(24.3503 0.0243628 1.97246)
(26.4684 -0.0130821 -2.24185)
(24.7785 -0.0489325 -5.69914)
(21.617 -0.0862325 -8.54249)
(17.715 -0.114016 -10.5878)
(13.3063 -0.218012 -12.4152)
(9.73572 -0.124499 -14.1967)
(5.47843 -0.46814 -11.1826)
(1.44919 -0.42695 -0.251426)
(1.39443 -0.17835 10.4585)
(-2.58953 -0.715777 10.1953)
(-1.59591 0.794175 17.2877)
(-26.6867 0.84073 26.9568)
(26.0143 -0.00504716 -0.287634)
(18.1704 -0.024167 1.62051)
(16.7664 -0.0330806 0.733277)
(19.2154 -0.0262633 -1.33063)
(17.8465 -0.00389364 -3.30008)
(15.3901 0.0319777 -5.05907)
(12.501 0.0806418 -6.58277)
(8.98984 0.204816 -8.57345)
(5.18258 0.205861 -10.0978)
(-0.956374 1.055 -6.24266)
(-6.72192 1.22766 3.74967)
(-9.49584 0.7755 12.2994)
(-14.4185 0.337532 16.6197)
(-15.5151 -0.58691 22.4689)
(-29.885 -0.77237 18.6912)
(25.997 -0.0087207 -0.2935)
(18.192 -0.0345172 1.65406)
(16.8438 -0.0410712 0.782947)
(19.3195 -0.0248367 -1.27528)
(17.9921 0.0146214 -3.23771)
(15.5728 0.0711617 -4.99324)
(12.7213 0.16474 -6.51836)
(9.26399 0.347088 -8.51624)
(5.72614 0.181361 -10.2187)
(0.306104 1.12512 -6.80647)
(-4.85872 1.3518 3.24585)
(-7.57864 1.11086 11.935)
(-12.4283 0.631157 15.861)
(-12.5719 -0.604649 22.3712)
(-30.8079 -0.932234 20.7807)
(25.9903 -0.00961505 -0.29498)
(18.2086 -0.0286321 1.66787)
(16.88 -0.0301225 0.796834)
(19.3633 -0.0128408 -1.25958)
(18.0495 0.0248437 -3.21484)
(15.6563 0.0774403 -4.96231)
(12.8254 0.166326 -6.47051)
(9.483 0.310392 -8.44765)
(6.01577 0.00181733 -10.2188)
(0.651869 0.686154 -7.11731)
(-4.1692 1.14047 2.57638)
(-7.07248 1.23087 11.3491)
(-12.0322 0.431712 15.5085)
(-12.1419 -0.630316 22.292)
(-30.9544 -0.497351 20.8812)
(25.9784 -0.0114634 -0.29793)
(18.2254 -0.030263 1.69007)
(16.9307 -0.0328761 0.825384)
(19.4306 -0.0149874 -1.2281)
(18.1433 0.023779 -3.17756)
(15.7797 0.0814107 -4.92065)
(12.9724 0.16636 -6.4193)
(9.65629 0.325127 -8.40106)
(6.08066 -0.0406059 -10.2142)
(0.586252 0.500328 -7.13457)
(-4.10727 1.0267 2.22922)
(-6.91777 1.39188 10.8738)
(-11.9511 0.542112 15.4238)
(-12.2057 -0.57693 22.5466)
(-30.8081 -0.55444 20.9502)
(25.9701 -0.0120798 -0.299031)
(18.2423 -0.0255736 1.70537)
(16.9708 -0.0267016 0.842781)
(19.4815 -0.0106697 -1.20764)
(18.2141 0.0224702 -3.14879)
(15.8749 0.0736085 -4.88504)
(13.0995 0.150101 -6.36677)
(9.81942 0.354484 -8.34524)
(6.20916 -0.0431267 -10.1919)
(0.586699 0.268695 -7.12293)
(-4.04603 0.774335 2.00309)
(-6.76434 1.18097 10.4914)
(-11.7736 0.385343 15.2281)
(-11.9774 -0.415927 22.5224)
(-30.7804 -0.401607 21.005)
(25.9592 -0.0133206 -0.300855)
(18.2594 -0.02246 1.7225)
(17.0167 -0.0255986 0.8659)
(19.5415 -0.0142343 -1.18017)
(18.2973 0.0115967 -3.11357)
(15.9839 0.0556935 -4.84494)
(13.2461 0.116956 -6.31084)
(10.0319 0.37708 -8.26429)
(6.72878 0.00448405 -10.1752)
(0.96786 0.125012 -7.29875)
(-3.60373 0.469295 1.76696)
(-6.50986 0.7993 10.3297)
(-11.7226 0.186238 15.2279)
(-12.0355 -0.373622 22.5594)
(-30.6252 -0.279435 20.8602)
(25.9474 -0.0132625 -0.301779)
(18.2764 -0.0139753 1.73606)
(17.0616 -0.015673 0.887276)
(19.601 -0.00987651 -1.1513)
(18.3846 0.00353297 -3.07265)
(16.0971 0.0287987 -4.79583)
(13.4126 0.0487877 -6.24668)
(10.2129 0.233705 -8.17141)
(7.50463 0.00991689 -10.1765)
(1.58609 -0.0375037 -7.65364)
(-3.09362 0.117159 1.51584)
(-6.26757 0.401498 10.2978)
(-11.7053 0.120309 15.149)
(-12.1628 -0.210552 22.5641)
(-30.562 -0.0878992 20.6259)
(25.9379 -0.00561043 -0.300867)
(18.2785 -0.00253093 1.7409)
(17.0758 -0.00265175 0.894937)
(19.6213 -0.00437259 -1.14105)
(18.4171 -0.00558257 -3.05751)
(16.136 -0.00747644 -4.77722)
(13.4715 -0.00941092 -6.22437)
(10.2108 -0.0142481 -8.14655)
(7.75172 -0.0253127 -10.1789)
(1.70159 -0.0278641 -7.73825)
(-3.17121 -0.00230796 1.68604)
(-6.44989 0.0151435 10.4572)
(-11.8868 0.000162148 15.0818)
(-12.5139 -0.00979776 22.5162)
(-30.5053 -0.0511526 20.2609)
(25.9422 0.00663649 -0.299462)
(18.2716 0.00868658 1.73478)
(17.0567 0.00959159 0.885229)
(19.5966 0.000811562 -1.15407)
(18.3803 -0.0152335 -3.07534)
(16.0932 -0.04486 -4.79726)
(13.4096 -0.0691535 -6.24592)
(10.2099 -0.27152 -8.16887)
(7.51723 -0.06517 -10.1769)
(1.58049 -0.00984604 -7.6526)
(-3.12445 -0.12599 1.54162)
(-6.28658 -0.378737 10.3189)
(-11.7168 -0.121757 15.1595)
(-12.1904 0.19408 22.5622)
(-30.5269 0.0193508 20.5488)
(25.9558 0.01105 -0.298579)
(18.2561 0.0165649 1.72042)
(17.0118 0.0186382 0.863239)
(19.5364 0.00470665 -1.18361)
(18.2921 -0.0243493 -3.11684)
(15.9788 -0.0734563 -4.84708)
(13.2401 -0.140688 -6.31086)
(10.0265 -0.421859 -8.26524)
(6.71195 -0.0556136 -10.1738)
(0.915437 -0.163113 -7.28133)
(-3.6612 -0.478219 1.80542)
(-6.55322 -0.776734 10.3484)
(-11.7499 -0.18806 15.2422)
(-12.1003 0.356444 22.5645)
(-30.585 0.24653 20.7581)
(25.9666 0.00983183 -0.296915)
(18.2385 0.0197744 1.70269)
(16.9649 0.0200806 0.839395)
(19.4747 0.00156312 -1.21198)
(18.2064 -0.0351124 -3.15333)
(15.8662 -0.0914407 -4.88899)
(13.0882 -0.175255 -6.36926)
(9.80501 -0.397663 -8.35061)
(6.17554 -0.000289751 -10.1901)
(0.51448 -0.302515 -7.09535)
(-4.12493 -0.785721 2.04575)
(-6.83149 -1.1651 10.5055)
(-11.8186 -0.386563 15.2433)
(-12.0705 0.401341 22.5231)
(-30.7305 0.379868 20.8816)
(25.9746 0.00956659 -0.296294)
(18.2208 0.0250204 1.68687)
(16.9237 0.0266547 0.821561)
(19.4223 0.00632846 -1.23309)
(18.1331 -0.0361398 -3.18326)
(15.7671 -0.0990484 -4.92657)
(12.9543 -0.191509 -6.42515)
(9.63062 -0.36719 -8.41176)
(6.02631 0.00150628 -10.2121)
(0.492697 -0.52761 -7.09441)
(-4.20472 -1.03965 2.27753)
(-7.00075 -1.3843 10.8842)
(-12.0076 -0.544432 15.4368)
(-12.3109 0.5667 22.5441)
(-30.7528 0.542999 20.8189)
(25.9863 0.00805091 -0.293981)
(18.2029 0.0241644 1.66417)
(16.8716 0.0248913 0.792502)
(19.3531 0.00554763 -1.26539)
(18.0365 -0.0354473 -3.2219)
(15.6394 -0.0925445 -4.97036)
(12.801 -0.188058 -6.47977)
(9.44755 -0.345198 -8.46308)
(5.94086 -0.032748 -10.2158)
(0.540789 -0.709188 -7.06447)
(-4.28439 -1.15508 2.62993)
(-7.16972 -1.2283 11.358)
(-12.1001 -0.433523 15.5189)
(-12.2609 0.622721 22.2831)
(-30.8922 0.488347 20.7365)
(25.9929 0.00761394 -0.293371)
(18.1856 0.0307004 1.65)
(16.8343 0.0363617 0.778356)
(19.3079 0.0182015 -1.28159)
(17.9767 -0.0240833 -3.24585)
(15.5521 -0.0843316 -5.00331)
(12.6907 -0.182831 -6.53103)
(9.21909 -0.374617 -8.5356)
(5.63509 -0.210126 -10.2137)
(0.179924 -1.14523 -6.74464)
(-4.98165 -1.371 3.29614)
(-7.68734 -1.11517 11.9413)
(-12.5044 -0.632685 15.8693)
(-12.6908 0.601841 22.3562)
(-30.7443 0.925143 20.6324)
(26.0102 0.00460323 -0.288464)
(18.1634 0.0222271 1.61596)
(16.7557 0.0304416 0.728325)
(19.202 0.0224738 -1.33747)
(17.8283 -0.00138913 -3.30962)
(15.3667 -0.0391823 -5.07017)
(12.4676 -0.0900549 -6.59563)
(8.94509 -0.219603 -8.59122)
(5.09182 -0.224641 -10.09)
(-1.08535 -1.06936 -6.18632)
(-6.838 -1.23874 3.78715)
(-9.61712 -0.780137 12.2998)
(-14.5094 -0.337373 16.6211)
(-15.6125 0.58627 22.4225)
(-29.8169 0.768781 18.5252)
(26.7717 -0.00114557 0.809252)
(16.9135 -0.00752483 1.24158)
(12.8488 -0.0108577 0.634619)
(14.7666 -0.000243134 -0.766017)
(12.822 0.0261628 -2.23899)
(10.1058 0.0623164 -3.28815)
(7.27826 0.127676 -4.10594)
(3.74791 0.162342 -5.23344)
(-1.62909 0.342197 -4.52549)
(-9.64631 0.966742 0.920429)
(-15.9292 0.952516 8.76927)
(-20.2611 0.374947 16.0952)
(-21.7798 -0.257909 19.3651)
(-19.2844 -0.703327 19.3979)
(-29.1101 -0.222454 9.51461)
(26.7706 -0.00094986 0.812756)
(16.9036 -0.00972527 1.25001)
(12.8554 -0.0111638 0.647079)
(14.793 0.0112242 -0.749122)
(12.8863 0.0600842 -2.21482)
(10.2276 0.120517 -3.25797)
(7.46552 0.260004 -4.07671)
(4.02587 0.274519 -5.26282)
(-0.942886 0.304842 -4.87275)
(-8.69822 1.22209 0.52965)
(-14.7209 1.3157 8.46261)
(-19.0594 0.662884 15.9385)
(-21.0092 -0.141843 19.5879)
(-19.1506 -0.83903 20.4252)
(-29.6764 -0.304843 10.6093)
(26.7696 -0.000412554 0.815353)
(16.9064 -0.00812993 1.2545)
(12.8696 -0.00698813 0.651461)
(14.8167 0.0170635 -0.742766)
(12.9265 0.0671515 -2.20324)
(10.3109 0.126129 -3.23768)
(7.58645 0.272291 -4.03708)
(4.35148 0.249359 -5.22377)
(-0.652637 0.0922429 -5.01834)
(-8.33411 0.902192 0.275521)
(-14.2423 1.10142 8.1568)
(-18.6371 0.628366 15.6845)
(-20.7318 -0.121231 19.5228)
(-19.0607 -0.635076 20.5774)
(-29.8047 -0.213327 10.8019)
(26.7691 -0.00025721 0.818826)
(16.9015 -0.00836397 1.26108)
(12.8771 -0.00750045 0.660531)
(14.8393 0.0174896 -0.72999)
(12.9755 0.0706012 -2.18421)
(10.4063 0.134624 -3.21149)
(7.72039 0.280158 -4.00101)
(4.52282 0.279324 -5.20446)
(-0.592468 0.017289 -5.08021)
(-8.18822 0.766101 0.169871)
(-14.1016 1.00334 8.03981)
(-18.5226 0.640989 15.583)
(-20.6804 -0.0882928 19.6046)
(-19.0429 -0.594541 20.8296)
(-29.7928 -0.260249 10.9885)
(26.7688 -1.44584e-06 0.822237)
(16.9034 -0.00707675 1.26602)
(12.8903 -0.00591405 0.666221)
(14.8633 0.0158937 -0.722153)
(13.0199 0.0635073 -2.1705)
(10.4919 0.119922 -3.19182)
(7.84655 0.277203 -3.96493)
(4.71327 0.331981 -5.17484)
(-0.450294 -0.0846882 -5.12194)
(-8.00556 0.482749 0.130603)
(-13.9 0.732766 8.0282)
(-18.3289 0.44395 15.539)
(-20.5254 -0.0858421 19.5813)
(-18.968 -0.401283 20.8853)
(-29.8175 -0.23254 11.0824)
(26.7687 -0.000220321 0.825773)
(16.9002 -0.00658044 1.26982)
(12.8975 -0.00680934 0.671753)
(14.8827 0.00932527 -0.714)
(13.0603 0.0480061 -2.15643)
(10.5809 0.0944997 -3.17306)
(7.97426 0.248733 -3.92438)
(5.05742 0.37516 -5.13018)
(0.171189 -0.118034 -5.24886)
(-7.61854 0.256286 0.0322626)
(-13.5412 0.48328 8.07303)
(-18.0995 0.234854 15.5898)
(-20.4265 -0.116818 19.5997)
(-18.8714 -0.304947 20.8877)
(-29.75 -0.205552 11.0649)
(26.7688 -0.000642178 0.829715)
(16.9005 -0.00527128 1.27208)
(12.9079 -0.00596955 0.674937)
(14.9033 0.00259585 -0.708223)
(13.1043 0.0233282 -2.1433)
(10.6815 0.0496029 -3.15218)
(8.13 0.134927 -3.87927)
(5.47761 0.25369 -5.08437)
(1.25554 -0.0981416 -5.47437)
(-7.02026 0.0218322 -0.278877)
(-13.0971 0.180596 8.00864)
(-17.8045 0.0767093 15.5932)
(-20.3097 -0.0444472 19.5831)
(-18.822 -0.126907 20.898)
(-29.7414 -0.139094 11.0553)
(26.7693 -0.00137383 0.832831)
(16.8976 -0.00388357 1.27223)
(12.9074 -0.0046678 0.674832)
(14.9061 -0.00574813 -0.707412)
(13.1156 -0.00802831 -2.13994)
(10.7117 -0.0108842 -3.14486)
(8.18089 -0.0112611 -3.86293)
(5.58177 -0.0251232 -5.06931)
(1.69507 -0.0294992 -5.5571)
(-6.86563 -0.0211196 -0.413051)
(-13.0399 -0.00901943 8.00077)
(-17.7776 -0.00161314 15.5955)
(-20.3235 -0.00682483 19.5217)
(-18.8223 -0.021532 20.788)
(-29.6595 -0.118185 10.9015)