/*--------------------------------*- C++ -*----------------------------------*\
| =========                 |                                                 |
| \\      /  F ield         | OpenFOAM: The Open Source CFD Toolbox           |
|  \\    /   O peration     | Version:  4.1                                   |
|   \\  /    A nd           | Web:      www.OpenFOAM.org                      |
|    \\/     M anipulation  |                                                 |
\*---------------------------------------------------------------------------*/
FoamFile
{
    version     2.0;
    format      ascii;
    class       volScalarField;
    location    "988";
    object      p;
}
// * * * * * * * * * * * * * * * * * * * * * * * * * * * * * * * * * * * * * //

dimensions      [0 2 -2 0 0 0 0];

internalField   nonuniform List<scalar> 
204246
(
135.933
-10.4336
42.179
21.5568
19.4192
25.6861
14.5429
25.9022
13.0273
25.7292
12.2037
26.2632
10.475
26.4527
11.56
23.7215
17.8816
12.2345
24.5054
9.67056
25.6471
9.95941
24.1997
10.6592
24.0207
10.421
24.8719
8.61527
25.7736
8.33483
25.7727
8.78507
24.8841
11.3303
21.0397
17.6363
10.8179
23.3849
9.5585
23.0787
9.9722
23.2097
9.70521
24.1417
7.92257
25.0023
7.77094
24.6959
8.93433
22.4094
11.1955
19.7774
16.8835
9.65475
22.3229
8.29617
21.8133
8.55944
21.7637
8.11627
22.5058
6.13171
23.134
5.78931
22.471
6.8634
19.7114
8.49939
16.873
13.1475
6.9092
16.3317
4.56474
16.0531
2.73939
14.6601
0.623262
12.9711
-2.75012
9.99903
-5.39717
5.6516
-8.21883
-0.375837
-11.6397
-7.03033
-12.0525
-20.063
-16.7044
-26.7104
-20.2424
-33.369
-23.2333
-40.3664
-24.3628
-42.6657
-25.0009
-42.1311
-24.9534
-37.9835
-24.7068
-33.3407
-21.1882
-28.1748
-18.1253
-20.9149
-23.4368
-12.5316
-23.8402
-9.14444
-25.2655
-7.99147
-25.0137
-8.91852
-25.5833
-9.76776
-26.5182
-10.7199
-27.0546
-11.963
-26.1047
-14.9532
-20.4263
-25.524
-14.0743
-27.9424
-12.4137
-28.3047
-11.7923
-28.1556
-11.4009
-27.8678
-11.0698
-27.5399
-10.7698
-26.784
-11.0371
-24.8972
-13.3171
-18.545
-23.4437
-11.8971
-25.533
-10.1015
-25.6392
-9.25867
-25.4133
-8.70471
-24.9387
-8.16288
-24.2546
-7.59292
-23.1421
-7.25839
-20.5855
-8.7644
-13.3832
-17.5006
-5.48143
-18.0534
-2.0119
-16.0036
0.408861
-12.3449
3.07878
-7.68318
6.95746
-1.92814
12.0665
5.0576
18.3747
14.0373
26.3588
25.5938
35.8512
42.374
44.6157
58.4706
63.0099
76.3159
86.0659
99.4354
113.778
128.679
148.62
166.447
194.738
217.392
261.297
290.238
377.972
393.894
600.935
43.7373
21.3101
20.9413
25.1158
18.4446
22.9651
17.6231
21.855
17.0307
21.3619
16.4987
21.295
16.2833
20.2291
17.5381
17.9299
20.5934
14.9214
20.3227
15.0262
19.8933
15.4826
19.4281
15.2744
19.5514
14.8607
19.995
14.4092
19.7964
14.5037
19.4264
15.0213
18.4027
16.5789
16.4096
19.4549
13.988
18.9806
14.5095
18.5857
14.435
18.7852
14.1112
19.2581
13.7339
18.9965
13.9608
18.3896
14.749
17.237
15.7513
15.4149
18.5253
12.9584
17.9119
13.3563
17.3673
13.1295
17.4076
12.642
17.7053
12.0884
17.2316
12.1122
16.3755
12.5413
15.1585
13.0911
13.0587
15.1851
10.2736
13.7587
9.27797
12.6362
7.97664
11.1931
6.07128
9.45002
3.47673
6.76239
0.862158
3.0185
-2.06889
-1.88071
-5.60147
-8.41873
-7.76214
-15.2748
-15.5857
-22.0025
-21.521
-27.7724
-26.109
-32.9438
-30.2797
-35.7023
-32.1762
-36.1377
-31.8927
-34.4501
-29.75
-31.3924
-26.7873
-26.5081
-24.436
-20.2394
-23.2697
-16.424
-20.5862
-14.5416
-19.5344
-14.2487
-19.1185
-14.6151
-19.7454
-15.3276
-20.646
-16.376
-21.1561
-17.8769
-20.5408
-20.2708
-17.9896
-23.2651
-18.0355
-23.2383
-17.8872
-22.9947
-17.6139
-22.694
-17.3056
-22.3574
-17.0207
-21.95
-16.9104
-21.1912
-17.2886
-19.5554
-18.8968
-16.3269
-21.2611
-15.9626
-20.9295
-15.5997
-20.5338
-15.1534
-20.1117
-14.7451
-19.6293
-14.3121
-18.9899
-13.9141
-17.9371
-13.8524
-15.7621
-14.7357
-11.8995
-16.0676
-10.3967
-14.3892
-8.58177
-12.0628
-6.29343
-9.32968
-3.38209
-5.90021
0.320132
-1.3854
5.05739
4.42457
10.4576
12.1697
17.4042
21.9391
25.5789
34.3276
38.0204
47.0926
53.6576
63.176
72.8636
83.3196
96.3606
107.942
125.124
137.934
161.146
174.567
209.825
216.464
291.188
256.628
391.308
19.2432
27.8616
23.5399
24.7265
20.7176
22.8479
18.6245
21.9729
17.5052
21.4693
16.8705
21.085
16.6425
20.2414
17.3594
18.5282
19.0005
16.3772
19.6029
15.5393
19.7531
15.3806
19.5667
15.2243
19.5336
14.96
19.6657
14.6401
19.6322
14.6297
19.3744
15.051
18.5895
16.1809
16.964
17.843
15.2157
18.3994
14.7041
18.5823
14.4704
18.7323
14.2341
18.9277
13.9707
18.8565
14.0472
18.4424
14.5442
17.5284
15.4423
15.9835
16.9597
14.1797
17.3636
13.5443
17.3845
13.1568
17.3647
12.7529
17.3806
12.3097
17.1083
12.1845
16.461
12.4158
15.2323
12.9032
13.3892
13.7665
11.1972
13.3946
9.63414
12.6295
8.13723
11.3472
6.35344
9.50361
4.25956
6.53632
1.9326
2.65166
-0.976366
-2.08601
-4.56067
-8.05345
-9.24572
-13.9741
-15.1701
-20.2873
-21.7259
-26.4489
-27.2347
-32.0004
-30.9785
-35.4139
-32.8953
-36.6326
-32.6687
-35.1627
-30.9645
-31.3358
-27.8636
-25.9376
-24.5487
-20.7954
-21.4067
-16.9531
-19.0951
-14.6325
-18.5313
-13.7463
-18.5321
-13.9975
-19.2228
-14.8212
-20.2599
-16.0611
-20.8748
-17.6558
-20.6226
-19.7749
-19.2712
-21.9286
-18.6021
-22.7261
-18.0252
-22.8374
-17.6136
-22.6465
-17.2686
-22.3273
-16.9808
-21.8877
-16.8455
-21.1522
-17.127
-19.8092
-18.2502
-17.6661
-19.9097
-16.4727
-20.3808
-15.6385
-20.2993
-15.0707
-19.977
-14.6128
-19.519
-14.1732
-18.8746
-13.7834
-17.846
-13.6677
-15.9804
-14.1663
-13.0835
-14.8111
-10.8905
-13.976
-8.60963
-12.1205
-6.36505
-9.20945
-3.79692
-5.32324
-0.315942
-0.546854
4.33054
5.41337
10.3614
12.8697
17.8668
22.384
27.4815
33.995
39.0212
48.0221
54.6374
64.8686
74.5426
85.7966
99.3476
111.869
130.454
144.327
169.987
184.662
224.37
232.291
308.451
287.18
375.961
3.33814
19.0913
14.9009
21.4001
17.4995
21.1677
18.0687
20.3786
18.1922
19.8205
18.114
19.3665
18.2571
18.4925
18.8988
17.3878
19.5834
16.8253
18.8886
16.9193
18.3608
17.0274
18.1001
16.8338
18.0661
16.5931
18.0755
16.4847
17.8128
16.5805
17.4349
16.9406
16.8033
17.6599
16.0358
18.2842
15.7645
17.6638
15.9905
17.3589
15.9503
17.3348
15.8297
17.3577
15.8111
17.0703
15.9785
16.6278
16.3305
16.0236
16.794
15.2135
17.3611
14.835
16.6469
14.9244
16.2158
14.7378
16.0444
14.4656
15.9069
14.2871
15.4474
14.2711
14.8309
14.3798
14.1188
14.4551
13.0505
14.6319
12.3639
13.3225
11.5366
12.1905
10.4121
10.9289
8.88955
9.23399
7.01896
6.78753
4.62583
3.58055
1.64021
-0.567666
-2.05441
-5.70069
-6.66134
-11.6015
-13.145
-17.7802
-19.9501
-24.1023
-26.5864
-29.7775
-32.3795
-33.9478
-35.4304
-35.8863
-35.65
-35.4278
-33.8982
-32.4434
-30.6911
-27.6045
-26.6032
-22.5453
-22.6439
-19.0222
-18.8153
-16.5807
-17.1722
-15.7697
-16.8902
-15.915
-17.535
-16.6782
-18.429
-17.9967
-19.091
-19.5462
-19.2863
-20.9099
-19.0753
-21.7775
-19.6468
-21.6998
-19.7628
-21.4212
-19.6008
-21.0771
-19.3363
-20.6978
-19.0924
-20.2459
-18.9928
-19.5889
-19.1673
-18.578
-19.7078
-17.4549
-19.8307
-17.5436
-19.4379
-17.4609
-19.0179
-17.2208
-18.5924
-16.9142
-18.1373
-16.5763
-17.5647
-16.2672
-16.7079
-16.1626
-15.2589
-16.0901
-13.7401
-15.3669
-12.9348
-13.9428
-11.6518
-12.0872
-9.77249
-9.86446
-7.42592
-7.02265
-4.30818
-3.39022
-0.274489
1.26643
4.65404
7.44645
10.9179
15.1692
18.7492
24.9537
29.0961
36.0276
42.1484
49.4793
58.147
65.9716
77.5619
85.8671
101.082
109.863
130.432
137.519
170.568
165.451
222.939
209.804
280.901
5.45386
20.1968
15.7719
20.6918
18.5657
20.6961
18.9364
20.3592
18.688
19.8657
18.4516
19.343
18.4565
18.5996
18.685
17.8323
18.8006
17.5323
18.4041
17.3093
18.1743
17.103
18.0672
16.8551
17.9922
16.6657
17.8951
16.6058
17.6879
16.6487
17.3981
16.8696
16.9279
17.2419
16.4227
17.4713
16.3326
17.2156
16.2332
17.2039
16.0529
17.2218
15.9314
17.1792
15.9339
16.9789
16.0202
16.6563
16.1988
16.2012
16.4483
15.6108
16.605
15.406
16.247
15.1726
16.083
14.8378
15.9331
14.557
15.7206
14.3916
15.3436
14.2788
14.8381
14.2416
14.1546
14.241
13.25
13.9281
12.6591
13.2272
11.8155
12.2261
10.7062
11.0495
9.32438
9.41623
7.57646
7.09857
5.34948
3.99568
2.40478
0.162182
-1.38436
-4.60094
-6.16854
-10.0159
-12.1525
-16.4055
-18.9022
-23.1108
-25.7812
-29.3441
-31.8498
-34.2793
-35.9201
-36.9045
-37.0857
-36.5535
-35.4828
-33.3894
-31.5942
-28.3073
-26.5968
-22.7275
-21.6512
-18.3916
-17.7742
-15.6254
-15.9082
-14.6601
-15.7229
-14.8663
-16.433
-15.9863
-17.6252
-17.5696
-18.5514
-19.218
-19.2219
-20.3782
-19.7254
-21.0426
-20.0115
-21.2394
-19.9087
-21.1927
-19.6452
-20.9545
-19.3287
-20.5988
-19.0546
-20.1337
-18.9021
-19.5045
-18.9449
-18.6972
-19.1381
-17.9767
-19.0075
-17.7879
-18.828
-17.4423
-18.5979
-17.085
-18.2726
-16.7319
-17.8631
-16.3798
-17.3106
-16.0569
-16.4925
-15.9449
-15.3611
-15.5248
-14.0737
-14.7937
-13.0649
-13.5411
-11.6427
-11.8491
-9.75318
-9.56037
-7.2286
-6.65099
-3.95671
-2.91407
0.211211
1.95336
5.4325
8.16407
12.0532
16.0635
20.3879
25.8183
31.0487
37.774
44.6544
52.3936
61.6827
70.3125
82.7655
92.1318
108.575
118.224
140.735
148.481
182.836
179.772
229.06
217.699
262.797
3.1199
14.972
12.1578
17.3009
16.2163
18.7178
17.7819
19.1329
18.4521
18.979
18.6662
18.6348
18.8233
18.2013
18.9424
17.6957
18.903
17.654
18.2929
17.7287
17.8745
17.667
17.6476
17.4888
17.5075
17.3367
17.3537
17.2965
17.1015
17.3485
16.8151
17.5056
16.5009
17.6756
16.286
17.6017
16.4749
17.1217
16.6241
16.8948
16.6036
16.7857
16.5734
16.664
16.6182
16.4324
16.7088
16.1669
16.7944
15.8784
16.8638
15.5798
16.7439
15.6423
16.1837
15.6478
15.8414
15.4877
15.5817
15.3132
15.3066
15.2134
14.9401
15.134
14.5469
14.9885
14.1657
14.8539
13.6887
14.4391
13.2816
13.7179
12.7101
12.8041
11.8857
11.6638
10.6997
10.2484
9.159
8.27855
7.10498
5.62761
4.34035
2.12242
0.752777
-2.38914
-3.9749
-7.88385
-9.99761
-14.263
-17.0279
-21.3044
-24.5452
-28.366
-31.6301
-34.4473
-36.9158
-38.296
-39.3167
-38.9544
-38.3629
-36.2875
-34.5904
-31.0636
-29.1524
-25.0492
-23.4794
-19.9811
-18.7791
-16.6414
-16.0306
-15.1606
-15.2579
-15.1528
-15.7946
-16.22
-16.9517
-17.9535
-18.3094
-19.5569
-19.369
-20.8183
-20.072
-21.399
-20.698
-21.2894
-20.7021
-21.022
-20.4713
-20.6594
-20.1796
-20.2297
-19.9306
-19.7679
-19.7861
-19.2551
-19.7001
-18.7281
-19.701
-18.3277
-19.2839
-18.3816
-18.9048
-18.3036
-18.536
-18.1258
-18.1563
-17.884
-17.7585
-17.6118
-17.3069
-17.2824
-16.7222
-17.0352
-15.9155
-16.6152
-15.2081
-15.6791
-14.4739
-14.6528
-13.42
-13.3036
-12.0045
-11.5887
-10.0782
-9.41637
-7.56935
-6.57065
-4.36509
-2.8077
-0.296599
2.06288
4.8661
8.25486
11.4944
15.9406
20.0849
25.2041
30.9074
36.4848
44.3351
50.2791
60.757
67.0126
80.8058
86.7738
105.611
108.837
139.262
132.813
173.993
171.485
212.077
6.52352
17.3966
13.6766
17.8649
16.9387
18.7798
18.2624
19.1258
18.7566
19.0615
18.831
18.7347
18.8727
18.3286
18.8176
17.8886
18.5822
17.9301
18.0748
17.906
17.7511
17.7419
17.5728
17.5196
17.4383
17.3699
17.2661
17.3243
17.0409
17.3245
16.8119
17.3831
16.5686
17.418
16.4516
17.2335
16.6713
16.8702
16.7397
16.7639
16.663
16.7005
16.6121
16.5928
16.6283
16.4246
16.6709
16.222
16.6871
15.9886
16.6439
15.7666
16.4424
15.8261
16.0358
15.7647
15.739
15.5388
15.4964
15.3336
15.2277
15.182
14.9142
15.046
14.5608
14.8741
14.1464
14.6031
13.737
14.2233
13.3909
13.6472
12.8672
12.869
12.1163
11.8845
11.069
10.5594
9.67079
8.7849
7.77864
6.41576
5.27085
3.23339
1.90816
-0.857488
-2.58415
-5.96298
-8.38429
-12.2714
-15.3733
-19.5711
-23.1639
-27.2692
-30.8938
-34.3684
-37.2381
-39.364
-40.7308
-40.884
-40.4467
-38.3909
-36.3458
-32.4912
-29.7339
-25.2983
-22.8018
-19.1032
-17.4089
-15.027
-14.4137
-13.381
-13.5958
-13.687
-14.2965
-15.1741
-15.8614
-17.1371
-17.6566
-18.9817
-19.0858
-20.3813
-20.2196
-20.9634
-20.7536
-21.1161
-20.7414
-20.9511
-20.5027
-20.6139
-20.161
-20.1851
-19.8534
-19.6877
-19.6231
-19.165
-19.4422
-18.6291
-19.2316
-18.2896
-18.7822
-18.2645
-18.3997
-18.0981
-18.0933
-17.8688
-17.7858
-17.5975
-17.4494
-17.294
-17.0721
-17.0046
-16.4994
-16.664
-15.7965
-16.1587
-15.0407
-15.4807
-14.2416
-14.4228
-13.1567
-13.0286
-11.6407
-11.2487
-9.59251
-8.96806
-6.93807
-5.99098
-3.6009
-2.06697
0.653207
2.96722
6.09834
9.33059
13.0664
17.2591
22.0155
27.0274
33.3744
39.0307
47.4811
53.6777
64.7737
71.2748
85.7277
91.8373
111.47
113.689
141.631
138.284
169.493
165.652
194.453
5.50192
15.4956
11.9619
16.3732
15.4716
17.5784
17.3288
18.3097
18.2905
18.5129
18.7102
18.4508
18.8116
18.2045
18.8619
17.9383
18.6039
18.0042
18.1254
18.0524
17.7859
17.9356
17.5234
17.782
17.321
17.6634
17.1262
17.606
16.9243
17.575
16.7241
17.5841
16.5115
17.5737
16.4771
17.3
16.745
16.9025
16.89
16.7106
16.8939
16.5952
16.895
16.4664
16.9104
16.3254
16.9118
16.1638
16.9195
15.9783
16.8601
15.8549
16.5635
15.9832
16.1153
15.9785
15.8079
15.8536
15.5089
15.6971
15.2311
15.5648
14.9399
15.4306
14.6657
15.2724
14.4229
15.0761
14.0902
14.6854
13.9021
14.1298
13.5279
13.4921
12.9237
12.6731
12.0731
11.5676
10.8876
10.0353
9.24461
7.90326
6.96323
5.01138
3.80345
1.16857
-0.514904
-3.81857
-6.17903
-10.0893
-13.2424
-17.6138
-21.505
-26.0251
-30.2564
-34.3749
-38.1567
-41.0456
-43.3878
-44.0981
-44.2736
-42.4203
-40.5793
-36.5846
-33.5234
-28.646
-25.4869
-21.18
-18.7724
-15.9228
-14.6514
-13.381
-13.1881
-13.111
-13.6873
-14.4413
-15.3378
-16.7011
-17.4729
-19.1032
-19.3764
-20.9292
-20.84
-21.6873
-21.4979
-21.6554
-21.386
-21.3115
-20.9886
-20.8214
-20.5511
-20.3126
-20.2218
-19.8204
-20.008
-19.3886
-19.8754
-19.0027
-19.6972
-18.7984
-19.195
-18.8212
-18.8247
-18.7179
-18.467
-18.5532
-18.1279
-18.3263
-17.7994
-18.0661
-17.4703
-17.8129
-17.0482
-17.5369
-16.5545
-17.1288
-16.0665
-16.3897
-15.596
-15.5994
-14.8095
-14.6437
-13.6977
-13.4216
-12.2379
-11.7808
-10.3493
-9.56945
-7.89685
-6.65357
-4.70191
-2.87026
-0.55064
1.96167
4.85273
8.01747
11.8703
15.5464
20.7732
24.8402
31.948
36.2925
45.7539
50.2649
62.7367
66.5604
84.243
84.9454
109.541
107.628
136.076
135.987
163.004
9.01607
17.5787
13.7262
17.6655
16.4136
18.1446
17.8428
18.5439
18.5714
18.6276
18.8248
18.5533
18.8532
18.284
18.7696
18.0328
18.4685
18.079
18.0317
18.0666
17.752
17.9249
17.5041
17.7655
17.2977
17.6396
17.1036
17.5705
16.8969
17.5248
16.7
17.4962
16.5212
17.3883
16.5467
17.112
16.7868
16.7739
16.8882
16.6424
16.8846
16.5561
16.8687
16.4592
16.8718
16.3326
16.8861
16.173
16.8608
16.033
16.7251
15.9607
16.4289
16.0523
16.0504
15.9953
15.7782
15.834
15.4939
15.6668
15.2026
15.5207
14.896
15.368
14.5984
15.1621
14.335
14.9025
14.1247
14.5019
13.9601
14.0567
13.6124
13.549
13.1078
12.8602
12.3963
11.9139
11.4038
10.6112
10.0141
8.81363
8.05038
6.33665
5.26602
2.97033
1.35048
-1.56658
-3.97557
-7.55604
-10.8875
-15.14
-19.3888
-24.111
-28.8826
-33.5719
-38.0749
-41.7716
-44.9115
-46.4529
-47.2389
-45.8748
-43.8968
-39.5686
-35.5326
-29.7812
-25.5265
-20.5202
-17.4013
-14.1735
-12.7432
-11.3751
-11.2456
-11.3228
-11.9427
-13.0406
-13.947
-15.6125
-16.454
-18.2827
-18.7839
-20.3901
-20.5503
-21.4976
-21.4011
-21.782
-21.3977
-21.5536
-21.0313
-21.05
-20.5996
-20.4336
-20.1993
-19.7958
-19.8493
-19.2063
-19.5669
-18.7367
-19.27
-18.5126
-18.7803
-18.4761
-18.4017
-18.3585
-18.0801
-18.2026
-17.7853
-18.0068
-17.484
-17.7671
-17.1787
-17.488
-16.799
-17.1859
-16.3454
-16.7704
-15.8854
-16.1519
-15.3136
-15.3889
-14.4727
-14.389
-13.3512
-13.0664
-11.847
-11.3537
-9.87501
-9.10015
-7.34984
-6.13116
-4.07522
-2.30179
0.173713
2.56243
5.67621
8.68829
12.7715
16.2957
21.8219
25.7031
33.0792
37.2209
46.8482
51.0451
63.6299
66.8509
83.7755
84.101
105.791
103.442
126.211
125.068
146.485
8.46768
17.0248
12.8583
17.2044
15.573
17.7422
17.2295
18.2102
18.1993
18.4014
18.6415
18.4302
18.8076
18.3005
18.7858
18.135
18.5089
18.1634
18.1085
18.1694
17.836
18.0345
17.5778
17.9044
17.335
17.7806
17.1229
17.7027
16.9191
17.6467
16.7234
17.6048
16.5655
17.4685
16.6046
17.1744
16.8373
16.8314
16.9619
16.6837
16.9872
16.5745
16.9988
16.4692
17.0106
16.3545
17.02
16.2239
17.0014
16.1171
16.8616
16.0653
16.5499
16.1767
16.1622
16.1638
15.8997
16.0231
15.6215
15.8756
15.3417
15.7455
15.0665
15.6261
14.7971
15.4829
14.5961
15.2444
14.4573
14.8755
14.4016
14.4822
14.1369
14.0703
13.7552
13.5154
13.2019
12.736
12.3876
11.6274
11.1924
10.0568
9.44825
7.85644
6.91675
4.79376
3.29764
0.551656
-1.72788
-5.20606
-8.45914
-12.7377
-17.0537
-22.0795
-27.3213
-32.7352
-38.2449
-43.1285
-47.5959
-50.3554
-52.1228
-51.1867
-49.4593
-45.1528
-40.7977
-34.5974
-29.2969
-23.2693
-18.8973
-14.7552
-12.3231
-10.5379
-9.99937
-9.92041
-10.5521
-11.6447
-12.8532
-14.7534
-16.0798
-18.2481
-19.1719
-21.1028
-21.4388
-22.5731
-22.3929
-22.6235
-22.1639
-22.0033
-21.4566
-21.2596
-20.8534
-20.5446
-20.4359
-19.954
-20.1796
-19.5308
-20.0027
-19.2291
-19.7506
-19.0835
-19.2504
-19.066
-18.8812
-18.9432
-18.5309
-18.7404
-18.2223
-18.5459
-17.9114
-18.334
-17.6474
-18.107
-17.3551
-17.854
-17.0522
-17.4972
-16.7865
-16.9891
-16.4015
-16.4728
-15.8348
-15.8008
-15.0747
-14.91
-14.0361
-13.7194
-12.655
-12.1073
-10.8396
-9.95849
-8.42228
-7.13867
-5.216
-3.4996
-0.993986
1.13632
4.53628
7.01125
11.6489
14.3835
20.6754
23.5824
31.9761
34.8713
46.1039
48.2467
63.8025
63.5788
83.0657
83.4916
103.904
104.405
124.444
11.2933
19.1745
14.703
18.6273
16.6824
18.6306
17.8484
18.7
18.497
18.6791
18.7459
18.555
18.8267
18.3571
18.7104
18.1815
18.4449
18.1658
18.0426
18.1599
17.7738
18.0277
17.5202
17.8807
17.3052
17.7567
17.096
17.6674
16.8777
17.6055
16.6806
17.5376
16.5364
17.3658
16.594
17.0718
16.8174
16.7465
16.9339
16.6187
16.9598
16.5316
16.9718
16.4406
16.993
16.3311
17.0145
16.2105
16.982
16.1337
16.8211
16.1119
16.5072
16.2064
16.1175
16.1802
15.8656
16.0259
15.589
15.8628
15.2989
15.7107
14.9993
15.5783
14.7068
15.4005
14.5132
15.1479
14.3952
14.7654
14.3811
14.4168
14.1866
14.1008
13.9125
13.6765
13.5083
13.078
12.9019
12.2275
11.9883
11.013
10.6059
9.25976
8.51752
6.71998
5.40907
3.04707
0.909278
-2.2005
-5.429
-9.50788
-14.0437
-19.2075
-25.0047
-31.0061
-37.4348
-43.3222
-49.0967
-53.1718
-56.3152
-56.7201
-55.7293
-51.3206
-46.1433
-38.3314
-31.4774
-24.0228
-18.5817
-13.5341
-10.8744
-8.57511
-8.07112
-7.91412
-8.55346
-9.77584
-11.0037
-13.1117
-14.484
-16.9955
-18.1471
-20.3954
-21.0875
-22.5262
-22.5223
-23.1244
-22.5655
-22.6118
-21.8597
-21.7034
-21.268
-20.7577
-20.6442
-19.8798
-20.0479
-19.1979
-19.6245
-18.8278
-19.331
-18.648
-18.8319
-18.6518
-18.4454
-18.568
-18.1624
-18.4466
-17.8808
-18.2954
-17.615
-18.1045
-17.3699
-17.883
-17.1287
-17.6341
-16.8582
-17.2938
-16.6172
-16.8227
-16.2553
-16.3153
-15.7134
-15.6435
-14.976
-14.7641
-13.9664
-13.6075
-12.623
-12.0604
-10.863
-10.0103
-8.53663
-7.32971
-5.45844
-3.88496
-1.40304
0.515969
3.90203
6.06928
10.7281
13.0782
19.3353
21.7816
30.0245
32.303
43.2761
44.3399
58.8687
58.6671
75.0721
74.978
92.1788
92.3308
109.315
11.146
19.1445
14.4738
18.5884
16.3604
18.6753
17.5489
18.7991
18.3156
18.7752
18.7002
18.6276
18.8467
18.4724
18.791
18.2729
18.5239
18.2587
18.136
18.2695
17.8598
18.1462
17.6054
18.0046
17.3628
17.8722
17.1499
17.7816
16.9277
17.7079
16.7326
17.6215
16.6007
17.4267
16.6528
17.1285
16.8588
16.8052
16.9815
16.6626
17.0255
16.5611
17.0618
16.4729
17.0957
16.3757
17.1203
16.28
17.0903
16.2234
16.9309
16.2184
16.6227
16.3292
16.2252
16.3365
15.9808
16.197
15.7117
16.0461
15.4361
15.9138
15.1596
15.7969
14.9039
15.6544
14.7301
15.4245
14.6703
15.0831
14.71
14.7418
14.5874
14.4838
14.3975
14.1536
14.1058
13.6781
13.6303
12.9783
12.868
11.9609
11.6848
10.4722
9.86662
8.26486
7.11148
4.98796
3.05119
0.188072
-2.81098
-6.67952
-11.0637
-16.1968
-22.1231
-28.5318
-35.8406
-43.0941
-50.5235
-56.6914
-61.7483
-63.7256
-63.1643
-59.1809
-53.43
-45.3827
-36.9557
-27.9298
-20.0784
-13.4263
-8.84762
-6.38057
-5.28094
-5.33515
-6.04078
-7.61643
-9.1083
-11.7467
-13.6854
-16.6641
-18.44
-21.0077
-22.1029
-23.7778
-23.866
-24.21
-23.5147
-23.1054
-22.1428
-21.7372
-21.2669
-20.797
-20.7495
-20.1544
-20.3493
-19.6628
-20.0711
-19.3918
-19.8531
-19.3026
-19.3599
-19.2333
-18.9526
-19.0726
-18.5934
-18.8735
-18.2861
-18.6958
-17.9836
-18.5222
-17.7583
-18.3203
-17.5495
-18.1201
-17.37
-17.8399
-17.2716
-17.4669
-17.0164
-17.1337
-16.6476
-16.7043
-16.1449
-16.1304
-15.4645
-15.34
-14.5302
-14.2474
-13.2856
-12.7604
-11.5732
-10.791
-9.23173
-8.20905
-6.11663
-4.85091
-2.00763
-0.540022
3.39704
4.95468
10.3552
11.898
19.1955
20.5524
30.4556
30.9771
43.4655
44.524
58.7399
60.2412
75.4092
76.5476
92.4134
13.8387
21.2432
16.3018
20.0883
17.534
19.6452
18.2413
19.3625
18.6746
19.0756
18.8721
18.7808
18.8864
18.4913
18.8165
18.2473
18.501
18.2301
18.086
18.2382
17.7955
18.135
17.5439
17.9881
17.3189
17.8486
17.1073
17.7574
16.8815
17.6786
16.6842
17.5761
16.5568
17.3672
16.6102
17.0706
16.8097
16.7455
16.946
16.5921
16.9994
16.5001
17.0408
16.4169
17.0868
16.3402
17.1169
16.2643
17.1022
16.2247
16.9341
16.246
16.623
16.3581
16.2057
16.3583
15.9612
16.2174
15.6861
16.0484
15.3929
15.8954
15.0886
15.7708
14.7999
15.6083
14.6306
15.3414
14.595
15.0183
14.6588
14.67
14.6198
14.4872
14.5147
14.2693
14.3584
13.9663
14.0806
13.5153
13.5779
12.8278
12.7426
11.7693
11.3823
10.1033
9.19958
7.47308
5.80488
3.37812
0.59164
-2.91207
-7.23466
-12.265
-18.5163
-25.4221
-33.5821
-42.022
-51.3588
-59.4475
-66.991
-71.2673
-73.3835
-70.4779
-64.8345
-54.6182
-44.2925
-32.3353
-22.8286
-13.795
-8.6833
-4.19015
-3.5232
-2.77165
-3.6808
-4.92495
-6.56385
-9.10384
-11.2204
-14.6668
-16.8473
-20.1615
-21.8269
-24.0878
-24.6248
-25.4873
-24.7079
-24.5272
-23.1434
-22.6237
-22.1133
-21.1207
-21.1281
-19.9646
-20.1943
-19.0384
-19.5544
-18.7159
-19.3813
-18.6907
-18.9557
-18.771
-18.5143
-18.7518
-18.2398
-18.6694
-17.9715
-18.5453
-17.7218
-18.3922
-17.5242
-18.2084
-17.3686
-18.0335
-17.203
-17.7645
-17.14
-17.4003
-17.0118
-17.0868
-16.7273
-16.6907
-16.3251
-16.1747
-15.731
-15.4929
-14.911
-14.565
-13.8173
-13.3148
-12.3152
-11.6255
-10.2726
-9.39467
-7.50366
-6.48107
-3.76988
-2.7567
1.05669
2.10072
7.26265
8.26538
14.9697
15.8661
24.572
25.5314
35.9324
37.0591
48.9611
50.2148
63.4074
64.4601
78.5602
13.761
21.6482
16.3548
20.4268
17.6618
19.9496
18.4036
19.6351
18.858
19.3101
19.0567
18.9799
19.0851
18.645
19.0074
18.361
18.6422
18.3547
18.1893
18.3665
17.8843
18.2657
17.6242
18.1092
17.3847
17.9875
17.1537
17.8909
16.9224
17.7978
16.7259
17.6705
16.6018
17.4417
16.6473
17.1279
16.8462
16.7785
16.9977
16.6039
17.0702
16.5066
17.1354
16.4198
17.2019
16.339
17.2309
16.2985
17.2087
16.29
17.0387
16.3348
16.7363
16.4725
16.3138
16.492
16.0616
16.3727
15.7936
16.2205
15.5067
16.0978
15.2051
15.9947
14.9364
15.8186
14.8095
15.5605
14.8012
15.2525
14.9158
14.8962
14.9013
14.7414
14.8556
14.5824
14.7743
14.364
14.5904
14.037
14.2162
13.5209
13.5531
12.7044
12.4544
11.3818
10.6588
9.22398
7.80398
5.76839
3.33751
0.271099
-3.69253
-8.37227
-14.4396
-21.3211
-29.949
-39.1998
-49.8826
-60.6051
-71.1445
-78.9743
-83.3111
-81.9224
-75.7426
-65.6729
-52.5746
-39.1236
-25.3776
-13.7616
-4.76065
-0.829119
1.31649
0.691374
-0.0352966
-2.42493
-3.94991
-7.51043
-9.959
-13.8468
-16.5563
-20.2368
-22.5622
-25.2383
-26.2054
-26.8491
-26.0943
-25.1158
-23.3172
-22.2179
-21.8375
-21.0797
-21.2313
-20.5156
-20.6636
-19.7495
-20.0654
-19.3284
-19.9897
-19.5323
-19.5216
-19.3863
-18.9897
-19.1486
-18.5889
-18.9932
-18.3073
-18.8279
-18.0101
-18.6574
-17.8234
-18.4986
-17.6483
-18.3686
-17.5414
-18.1381
-17.5799
-17.7943
-17.5156
-17.5988
-17.3333
-17.3583
-17.0972
-17.0378
-16.7271
-16.5999
-16.1624
-15.9716
-15.4122
-15.1276
-14.331
-13.9913
-12.7935
-12.4268
-10.7446
-10.374
-7.97688
-7.5546
-4.35923
-3.91485
0.447235
0.904895
6.73698
7.19425
14.6897
15.3892
24.5502
25.7004
36.272
37.8549
49.7169
51.0375
64.5094
16.2156
23.6228
18.1494
21.7919
18.8773
20.8206
19.1512
20.1478
19.2679
19.5962
19.2703
19.0757
19.2134
18.6424
19.061
18.3322
18.6512
18.324
18.1573
18.3229
17.8227
18.2547
17.5494
18.118
17.3195
17.9918
17.0955
17.8896
16.8675
17.7916
16.6709
17.6578
16.5455
17.4252
16.5856
17.0975
16.7896
16.7284
16.954
16.5385
17.0358
16.4437
17.1102
16.3591
17.2044
16.2835
17.2591
16.2496
17.2383
16.2797
17.0759
16.3497
16.7698
16.5081
16.3264
16.5337
16.0613
16.4155
15.7766
16.2642
15.4541
16.1321
15.1185
15.9927
14.8459
15.7899
14.7042
15.5112
14.7009
15.2001
14.839
14.8611
14.9151
14.7081
14.9138
14.633
14.9378
14.5456
14.9117
14.4249
14.7287
14.1773
14.3495
13.7053
13.6244
12.844
12.3402
11.3003
10.1593
8.59738
6.51824
4.04088
0.523601
-3.56469
-9.30739
-15.9747
-24.8988
-35.0969
-47.7433
-60.778
-75.2651
-87.4858
-96.6859
-99.0191
-95.6989
-83.7002
-69.5383
-51.5485
-37.0857
-18.702
-8.04814
2.05963
2.59419
4.40635
2.82632
1.39116
-0.536592
-3.12831
-6.0751
-10.8033
-14.2025
-19.0409
-22.2391
-26.1516
-27.7567
-29.571
-28.6335
-28.3005
-25.2196
-23.9199
-22.9719
-21.3499
-21.4204
-19.9891
-20.3214
-18.7248
-19.2567
-18.1918
-19.3498
-18.6174
-19.2225
-18.9564
-18.6407
-18.9139
-18.3022
-18.8336
-18.0531
-18.723
-17.8082
-18.5749
-17.6405
-18.4447
-17.506
-18.3276
-17.4259
-18.143
-17.4678
-17.807
-17.5496
-17.6277
-17.4581
-17.4515
-17.327
-17.2273
-17.0616
-16.9039
-16.6471
-16.4212
-16.1226
-15.8138
-15.2974
-14.9257
-14.071
-13.7208
-12.3282
-12.062
-10.006
-9.79669
-6.9101
-6.81782
-2.81087
-2.78369
2.233
2.32088
8.87526
8.95701
17.1436
17.2703
26.8952
27.2375
38.3638
38.6279
51.4347
16.0161
24.238
18.3485
22.3204
19.2849
21.2989
19.6492
20.5543
19.7912
19.8939
19.761
19.32
19.5994
18.8552
19.3288
18.4757
18.8552
18.4768
18.2993
18.4689
17.9183
18.3992
17.6215
18.2697
17.364
18.1544
17.1238
18.0499
16.8885
17.9347
16.691
17.771
16.5716
17.5111
16.6105
17.1492
16.825
16.74
17.0126
16.5216
17.1158
16.4091
17.1964
16.3303
17.3011
16.2655
17.3669
16.2567
17.3377
16.3118
17.1754
16.4136
16.8701
16.607
16.4211
16.6595
16.1286
16.5735
15.8409
16.4509
15.5232
16.3334
15.1996
16.1853
14.9537
15.9667
14.8442
15.6873
14.8495
15.368
15.0185
15.0152
15.0762
14.8579
15.1448
14.7916
15.201
14.751
15.2579
14.7068
15.169
14.6165
14.8826
14.3398
14.355
13.7494
13.3823
12.6102
11.698
10.5278
8.79872
6.81832
3.79
0.339025
-4.79554
-10.7902
-19.3165
-29.3376
-42.7274
-57.7976
-75.1486
-92.1018
-106.549
-114.293
-113.274
-102.918
-84.0707
-63.8654
-41.5015
-22.9911
-3.06594
5.4616
10.6396
7.85754
7.25397
4.01634
1.18165
-2.31598
-4.76767
-9.31539
-12.8868
-17.8343
-21.9451
-26.3269
-29.165
-31.2083
-31.089
-29.4415
-26.1408
-22.4588
-22.2543
-21.3203
-21.8354
-21.2424
-21.3598
-20.0001
-19.815
-18.735
-19.8178
-19.7988
-19.8376
-19.6651
-18.9734
-19.1832
-18.5281
-19.1242
-18.3354
-18.9852
-17.988
-18.7719
-17.8152
-18.6755
-17.6962
-18.551
-17.6324
-18.4018
-17.739
-18.0545
-17.8522
-17.9059
-17.8507
-17.7998
-17.8584
-17.7386
-17.7504
-17.596
-17.4766
-17.2964
-17.2033
-16.9365
-16.7426
-16.4747
-15.9049
-15.6967
-14.6902
-14.7342
-13.0609
-13.2188
-10.927
-11.2386
-8.02331
-8.28143
-4.39006
-4.49235
0.699737
0.773337
7.54999
8.09976
15.8717
16.8212
26.2393
26.8897
38.8378
18.5143
25.8782
20.0234
23.3953
20.3883
21.9037
20.3597
20.8136
20.2733
20.0151
20.069
19.3956
19.7673
18.8864
19.4359
18.4586
18.8944
18.4448
18.2799
18.4526
17.8635
18.3964
17.5455
18.2939
17.288
18.1907
17.0494
18.0922
16.8179
17.9715
16.625
17.8084
16.4986
17.5416
16.5389
17.147
16.7747
16.6894
16.9826
16.4464
17.095
16.3205
17.1988
16.2352
17.3258
16.1787
17.4107
16.1861
17.4007
16.2746
17.2482
16.4202
16.9314
16.6636
16.4468
16.7488
16.1237
16.6779
15.8126
16.5438
15.465
16.391
15.1247
16.2148
14.8537
15.9922
14.7181
15.6858
14.7332
15.3373
14.9366
14.9676
15.0752
14.8131
15.1608
14.8048
15.2707
14.8008
15.4171
14.8957
15.4783
14.9878
15.4028
15.0044
15.1343
14.7787
14.5625
14.1471
13.4615
12.7531
11.3901
10.0389
7.56414
4.90485
0.511999
-4.58578
-12.2623
-21.621
-34.6998
-50.6568
-70.9231
-92.1945
-113.582
-127.875
-133.765
-125.781
-108.089
-85.7926
-67.1164
-41.1139
-19.4011
7.07063
10.5352
14.1046
10.175
8.83411
7.04842
3.63267
0.561424
-5.32287
-9.89074
-16.0317
-21.1104
-27.3985
-31.2549
-35.2997
-35.6471
-35.8588
-30.2865
-26.3067
-23.0012
-20.0302
-21.3096
-19.764
-20.9026
-19.0061
-19.0347
-16.8853
-18.5477
-18.1424
-19.7249
-19.7268
-19.0091
-19.0357
-18.2278
-18.8999
-18.1022
-18.9045
-17.9008
-18.6858
-17.7095
-18.5646
-17.6198
-18.4632
-17.5611
-18.3788
-17.6531
-18.1293
-17.8256
-17.9431
-17.914
-17.8951
-18.0073
-17.9006
-18.0299
-17.8434
-17.861
-17.5944
-17.7686
-17.5059
-17.5448
-17.2189
-17.0609
-16.7882
-16.0389
-16.1145
-14.8765
-15.0732
-13.1267
-13.8785
-10.8681
-11.4848
-8.3063
-8.93772
-4.3864
-5.38512
0.833059
-0.109586
7.29989
6.29895
15.2203
14.1302
26.1875
18.3532
26.6024
20.41
23.9874
21.0746
22.4353
21.1585
21.2652
21.0188
20.3799
20.6597
19.7119
20.2051
19.1356
19.7431
18.6748
19.1017
18.6412
18.4067
18.6419
17.9201
18.5995
17.5628
18.5075
17.2769
18.4057
17.0239
18.3046
16.7865
18.1625
16.6075
17.9493
16.5098
17.6334
16.5664
17.1762
16.836
16.6563
17.0723
16.3814
17.2003
16.2385
17.3172
16.1429
17.4523
16.0928
17.536
16.1315
17.4998
16.2658
17.3222
16.4647
16.9905
16.768
16.4857
16.9055
16.1371
16.8569
15.8317
16.7315
15.504
16.5835
15.1762
16.3897
14.9373
16.1447
14.8161
15.8219
14.8394
15.4322
15.0726
15.0377
15.2044
14.858
15.3257
14.8188
15.4941
14.8739
15.6284
15.0192
15.7267
15.2141
15.6972
15.3588
15.5223
15.3123
15.1417
14.9436
14.3954
13.9943
12.8895
11.9671
9.95586
7.94884
4.3063
0.155293
-6.49792
-14.599
-26.6635
-41.3866
-61.2852
-83.963
-108.048
-127.933
-140.339
-139.463
-121.986
-95.532
-73.1919
-48.0633
-22.911
4.46127
13.1485
14.6977
14.7824
8.11164
5.71951
2.81585
1.52035
-2.77347
-7.58172
-13.2596
-18.9877
-25.8913
-31.4495
-36.3905
-38.8553
-38.5379
-33.2725
-23.6481
-22.1806
-20.9078
-21.7738
-22.122
-23.2205
-20.6545
-19.8209
-17.3469
-18.4383
-19.7216
-20.2769
-20.2336
-19.1334
-19.1075
-18.437
-19.2325
-18.433
-19.0653
-17.9731
-18.8123
-17.8168
-18.7575
-17.7372
-18.6158
-17.6626
-18.4729
-17.7889
-18.2358
-17.9389
-18.0022
-18.1132
-17.952
-18.2657
-18.1315
-18.3879
-18.1813
-18.3068
-18.0187
-18.229
-17.9874
-18.2386
-18.0872
-18.048
-17.7646
-17.3625
-17.6381
-16.591
-16.9993
-15.4929
-16.5892
-14.2886
-14.8377
-12.9945
-13.6237
-10.3742
-11.8543
-6.53712
-6.82995
-2.02805
-1.59475
3.77034
3.86124
13.1846
20.9761
27.6944
21.878
24.56
21.9727
22.5362
21.8362
21.2916
21.4181
20.5048
20.8483
19.8356
20.3758
19.1843
19.9016
18.6846
19.2006
18.6212
18.4211
18.6568
17.8625