/*--------------------------------*- C++ -*----------------------------------*\
| =========                 |                                                 |
| \\      /  F ield         | OpenFOAM: The Open Source CFD Toolbox           |
|  \\    /   O peration     | Version:  4.1                                   |
|   \\  /    A nd           | Web:      www.OpenFOAM.org                      |
|    \\/     M anipulation  |                                                 |
\*---------------------------------------------------------------------------*/
FoamFile
{
    version     2.0;
    format      ascii;
    class       volScalarField;
    location    "4";
    object      epsilon;
}
// * * * * * * * * * * * * * * * * * * * * * * * * * * * * * * * * * * * * * //

dimensions      [0 2 -3 0 0 0 0];

internalField   nonuniform List<scalar> 
204246
(
0.778128
0.907867
0.907421
0.908831
0.910058
0.910821
0.912251
0.913352
0.914077
0.91411
0.913527
0.912742
0.911282
0.910368
0.909049
0.908217
0.907664
0.904652
0.906994
0.907554
0.908531
0.90974
0.910547
0.911953
0.913107
0.91489
0.91608
0.916089
0.916704
0.916021
0.915663
0.914512
0.913822
0.912568
0.910972
0.910067
0.905983
0.907689
0.90809
0.908528
0.90943
0.910318
0.911945
0.913265
0.914933
0.916431
0.916305
0.916202
0.915154
0.914057
0.912905
0.910871
0.909541
0.905214
0.906911
0.907342
0.907782
0.908666
0.909555
0.911084
0.912364
0.914088
0.9157
0.915716
0.915716
0.914737
0.913776
0.912677
0.911769
0.911342
0.909
0.910894
0.911683
0.912485
0.913363
0.91438
0.915639
0.916841
0.918209
0.920203
0.922239
0.92411
0.926298
0.927922
0.93007
0.932221
0.935971
0.935898
0.944302
0.947706
0.955334
0.961822
0.971327
0.981285
0.995413
1.01043
1.03369
1.06228
1.10717
1.17163
1.27714
1.44574
1.71047
2.08333
2.37714
2.45069
2.46121
2.42747
2.32548
2.25849
2.21754
2.1576
2.06137
1.9996
1.94826
1.88707
1.80672
1.75214
1.70355
1.64765
1.58896
1.53973
1.50288
1.4449
1.40831
1.36421
1.33557
1.29804
1.2652
1.24701
1.23836
1.23536
1.23792
1.24092
1.2495
1.26377
1.28334
1.31393
1.34852
1.39955
1.44929
1.5305
1.60699
1.71131
1.82136
1.95081
2.09439
2.24816
2.42148
2.5961
2.78966
2.97732
3.17918
3.37308
3.5756
3.77225
3.9719
4.15989
4.38166
4.55722
4.78528
4.96329
5.2016
5.38171
5.62761
5.80389
6.05092
6.21412
6.45622
6.60415
6.84072
6.96909
7.19655
7.29694
7.51003
7.57681
7.75449
7.86357
7.99341
8.12322
8.24371
8.4035
8.5169
8.7056
8.82134
9.0464
9.18108
9.44947
9.61672
9.90573
10.0674
10.2368
10.2598
0.024249
0.104824
0.10125
0.10054
0.103726
0.10201
0.105331
0.104333
0.106908
0.105254
0.106906
0.10478
0.106191
0.102159
0.103891
0.100716
0.10331
0.101344
0.101081
0.104141
0.102196
0.10566
0.103865
0.10743
0.106473
0.109317
0.10772
0.109466
0.106525
0.10858
0.104812
0.106628
0.10216
0.103692
0.0996121
0.101374
0.0999337
0.0992058
0.102179
0.100236
0.103505
0.102681
0.106786
0.106145
0.109012
0.106608
0.10879
0.10532
0.107156
0.102654
0.103781
0.100218
0.101555
0.100016
0.0993017
0.102292
0.100355
0.103566
0.102708
0.106682
0.106012
0.108925
0.106558
0.10878
0.105324
0.10717
0.102861
0.104224
0.102169
0.104272
0.103108
0.102521
0.10524
0.104084
0.10719
0.10614
0.109612
0.108644
0.111984
0.110286
0.113772
0.111646
0.115091
0.112946
0.116811
0.115883
0.12154
0.121478
0.123468
0.131511
0.132714
0.146903
0.151102
0.174065
0.182802
0.221993
0.241398
0.30791
0.366169
0.515781
0.717361
1.10473
1.5847
1.80725
1.82234
1.62767
1.16345
0.720238
0.562066
0.485574
0.454744
0.392318
0.367965
0.33629
0.333377
0.309591
0.308143
0.290178
0.28999
0.275842
0.276435
0.265776
0.267162
0.259154
0.25609
0.257709
0.253023
0.256149
0.253552
0.259089
0.257942
0.267623
0.268534
0.286766
0.292071
0.320637
0.331155
0.371551
0.388554
0.441586
0.469298
0.530105
0.581718
0.649888
0.727223
0.805622
0.90805
0.994388
1.11565
1.204
1.336
1.41987
1.55487
1.63282
1.76862
1.8416
1.9817
2.05555
2.17503
2.2747
2.37488
2.49409
2.58275
2.71698
2.80091
2.94492
3.01988
3.16815
3.23788
3.37977
3.44771
3.5823
3.65183
3.77206
3.84682
3.94279
4.00818
4.0503
4.13954
4.15986
4.24512
4.25946
4.3343
4.34187
4.40874
4.41105
4.48651
4.49542
4.67334
4.81138
5.29589
5.57369
5.712
0.00544615
0.00810147
0.00752931
0.00717824
0.00757365
0.0074228
0.00775567
0.00760754
0.00777355
0.00754758
0.00765094
0.00736125
0.00742733
0.00700838
0.00719713
0.00692722
0.00719791
0.00703557
0.00704543
0.00738402
0.00726873
0.0077065
0.00759802
0.00802724
0.007937
0.00814946
0.00793091
0.00806755
0.00770952
0.00787009
0.00742895
0.00756893
0.0070623
0.00717697
0.00678688
0.00696309
0.0068343
0.00680617
0.00713972
0.00702785
0.00745616
0.00744344
0.0079401
0.00788222
0.00810687
0.00781347
0.00796744
0.00752302
0.00765782
0.00714102
0.00721787
0.00685445
0.00698748
0.00686189
0.00683834
0.00718092
0.00707234
0.00751528
0.00749179
0.00796032
0.00787618
0.00807478
0.00777414
0.00792843
0.00748329
0.0076171
0.00717554
0.00733662
0.00716723
0.00739556
0.00731286
0.00731736
0.00767478
0.0076037
0.00799164
0.00790547
0.00824293
0.00812985
0.00844793
0.00827737
0.00865698
0.00845516
0.00887719
0.0086884
0.00919879
0.00914764
0.00994609
0.0100442
0.0108529
0.0123871
0.0134201
0.016691
0.0190966
0.0253712
0.0313229
0.0447913
0.0612257
0.0958236
0.149932
0.259364
0.44965
0.794509
1.21963
1.35023
1.3019
0.965412
0.457827
0.245356
0.176121
0.147454
0.134654
0.118406
0.104702
0.095687
0.0935901
0.090016
0.0893379
0.0866908
0.0865305
0.0847564
0.0850012
0.0843391
0.0851939
0.0848979
0.0851213
0.0866997
0.0867369
0.0896987
0.0905242
0.0957343
0.0978129
0.105669
0.109516
0.120821
0.127418
0.143425
0.154017
0.176153
0.192065
0.221845
0.244705
0.281088
0.316537
0.359666
0.408565
0.459505
0.521911
0.57985
0.653177
0.715008
0.795185
0.8569
0.939351
0.997741
1.08047
1.13557
1.21976
1.2715
1.34599
1.40583
1.46605
1.53021
1.5769
1.64412
1.68022
1.73939
1.75921
1.79375
1.79812
1.80763
1.79893
1.79795
1.76042
1.73862
1.66989
1.64615
1.58541
1.56001
1.54653
1.51487
1.51326
1.4802
1.48028
1.44912
1.45088
1.42895
1.43599
1.42681
1.45029
1.44655
1.45828
1.34744
1.30191
0.00273182
0.00303488
0.00299798
0.00297634
0.00298837
0.00297955
0.00299702
0.00299099
0.00299914
0.00298908
0.00299263
0.00298029
0.00298225
0.00296567
0.00297387
0.00296302
0.00297406
0.00296791
0.00296877
0.00298216
0.00297905
0.00299832
0.00299509
0.00301617
0.00301159
0.00302138
0.00301031
0.00301644
0.00299856
0.00300584
0.00298546
0.00299143
0.002969
0.00297327
0.0029555
0.00296159
0.00295585
0.00295406
0.00296688
0.00296403
0.00298243
0.00298511
0.00301207
0.00301024
0.00302083
0.00300602
0.00301261
0.00299113
0.00299691
0.00297352
0.00297642
0.00295956
0.00296382
0.00295778
0.00295624
0.00296965
0.002967
0.00298693
0.00299045
0.00301651
0.00301354
0.00302297
0.00300758
0.00301414
0.00299226
0.00299785
0.00297615
0.0029816
0.0029734
0.0029828
0.0029793
0.00297967
0.00299641
0.00299487
0.00301678
0.00301401
0.00303449
0.00302982
0.00304813
0.00303954
0.0030602
0.00304982
0.00307455
0.00306512
0.00310025
0.00310112
0.0031728
0.00319825
0.00330266
0.00348251
0.00369162
0.00418694
0.00482085
0.00621188
0.00838638
0.0130617
0.0215557
0.0396468
0.0750124
0.14759
0.285262
0.534441
0.887679
1.02268
1.01032
0.794807
0.385481
0.14653
0.0772955
0.0534474
0.0439828
0.0385488
0.0351921
0.0303087
0.0283848
0.0268744
0.0265979
0.0263205
0.0264765
0.0263763
0.0266261
0.0265524
0.0268895
0.0268504
0.0271133
0.0276579
0.027813
0.0288819
0.0292181
0.0308622
0.0315731
0.0341184
0.0356652
0.0397074
0.0427398
0.0490248
0.0544103
0.0639915
0.0729902
0.0872104
0.101422
0.121373
0.142955
0.169654
0.199664
0.233795
0.272231
0.312918
0.35798
0.40214
0.450172
0.493069
0.539593
0.576755
0.618925
0.648513
0.686049
0.708145
0.736776
0.759552
0.777064
0.796937
0.802647
0.814547
0.814882
0.818789
0.813985
0.814235
0.797433
0.788467
0.757701
0.743037
0.702795
0.68475
0.639283
0.62153
0.583206
0.566915
0.547708
0.53481
0.524197
0.507598
0.502345
0.485381
0.480873
0.469891
0.469094
0.468428
0.484212
0.499412
0.526762
0.536183
0.542732
0.0029309
0.00291475
0.00290914
0.00290553
0.00290442
0.00290349
0.00290349
0.00290298
0.00290306
0.00290282
0.00290292
0.00290268
0.00290269
0.00290242
0.00290254
0.00290232
0.00290248
0.00290226
0.00290219
0.00290244
0.00290224
0.00290212
0.00290209
0.00290251
0.00290242
0.00290271
0.00290258
0.00290296
0.00290279
0.00290304
0.00290277
0.00290306
0.00290284
0.0029029
0.00290269
0.00290285
0.0029028
0.00290258
0.00290251
0.00290244
0.00290253
0.00290244
0.00290286
0.00290277
0.00290296
0.0029026
0.00290278
0.00290233
0.00290238
0.00290186
0.00290194
0.00290173
0.00290166
0.00290157
0.00290153
0.0029016
0.00290134
0.00290134
0.00290153
0.00290186
0.00290172
0.00290208
0.00290177
0.00290196
0.00290156
0.00290172
0.00290141
0.00290145
0.0029012
0.00290139
0.00290197
0.00290302
0.0029038
0.00290392
0.00290457
0.00290472
0.00290531
0.00290527
0.00290607
0.00290595
0.00290674
0.00290647
0.0029071
0.00290677
0.00290767
0.00290786
0.00291102
0.00291468
0.00292445
0.00294484
0.00298238
0.00306709
0.00323304
0.00360836
0.0044029
0.00623188
0.0102532
0.0194321
0.0394973
0.0832549
0.172817
0.34636
0.633841
0.812194
0.824352
0.707329
0.426234
0.152973
0.0591417
0.028377
0.0189023
0.0157562
0.0146459
0.0140599
0.0139376
0.0138483
0.0140007
0.0142256
0.0145626
0.0146395
0.0149059
0.0149773
0.0152357
0.0152994
0.0155451
0.0158654
0.0162576
0.0170054
0.0176889
0.0190799
0.0203879
0.0227046
0.0250601
0.0288324
0.0329114
0.0389096
0.0455862
0.0548308
0.0652123
0.0787443
0.0937455
0.111963
0.132069
0.154656
0.179336
0.205432
0.233075
0.260621
0.288978
0.315415
0.341822
0.36442
0.386785
0.404079
0.422137
0.434261
0.448149
0.453451
0.455797
0.457502
0.456168
0.456027
0.450031
0.446318
0.434746
0.429505
0.416314
0.411659
0.398265
0.393691
0.381199
0.377043
0.366272
0.362869
0.354548
0.352302
0.347216
0.345539
0.345636
0.345171
0.346908
0.346885
0.349133
0.349107
0.350713
0.35049
0.353299
0.354187
0.362356
0.36768
0.378323
0.382477
0.385508
0.0029139
0.00290909
0.00290239
0.0029001
0.00289897
0.00289818
0.00289785
0.00289768
0.00289768
0.00289746
0.00289737
0.00289736
0.00289736
0.00289731
0.00289724
0.00289721
0.00289713
0.00289732
0.00289835
0.00290032
0.00290117
0.00290132
0.00290131
0.00290119
0.00290117
0.0029012
0.00290119
0.0029011
0.00290111
0.00290103
0.00290102
0.00290137
0.0029016
0.0029016
0.00290153
0.00290154
0.00290146
0.00290127
0.00290126
0.00290125
0.00290109
0.00290105
0.00290104
0.00290101
0.00290097
0.00290092
0.00290104
0.00290124
0.00290122
0.00290115
0.00290113
0.00290099
0.0029009
0.00290085
0.00290069
0.00290069
0.00290057
0.00290042
0.00290042
0.00290026
0.00290017
0.00290017
0.0029
0.00289992
0.00289993
0.00289981
0.00289971
0.00289971
0.00289973
0.00289971
0.00289969
0.00289959
0.00289958
0.0028995
0.00289956
0.00290029
0.00290121
0.00290138
0.00290141
0.00290139
0.00290137
0.00290137
0.00290136
0.0029013
0.00290142
0.00290202
0.00290371
0.00290671
0.00291162
0.00291987
0.00293377
0.00296097
0.00301746
0.00314798
0.00345423
0.00420369
0.00599548
0.0103179
0.0203647
0.0434579
0.0936033
0.197478
0.390159
0.653244
0.736065
0.704772
0.516905
0.237502
0.083884
0.0361076
0.0188631
0.0121138
0.00929536
0.00814005
0.00769874
0.00753427
0.00752784
0.00761817
0.0079857
0.00844806
0.00894681
0.00927311
0.00960355
0.00979948
0.0100665
0.0103166
0.0105361
0.0108941
0.0112207
0.0118758
0.0125278
0.0137974
0.015273
0.0176972
0.0205542
0.0247004
0.0296038
0.0362773
0.044127
0.0542635
0.0659597
0.0801443
0.0961712
0.114198
0.134122
0.15501
0.177058
0.198686
0.220342
0.239786
0.258343
0.273029
0.286574
0.295429
0.302745
0.305041
0.306529
0.306267
0.305425
0.30455
0.300527
0.298143
0.291863
0.288815
0.282241
0.279763
0.274008
0.271957
0.26738
0.265904
0.262863
0.262086
0.260639
0.260605
0.260318
0.261467
0.262113
0.264294
0.266299
0.269274
0.272554
0.276177
0.280562
0.284752
0.290397
0.295312
0.302242
0.307765
0.315539
0.321341
0.327603
0.330266
0.331794
0.00292156
0.00291454
0.00290826
0.00290531
0.0029033
0.00290201
0.00290148
0.00290109
0.00290083
0.00290049
0.00290044
0.00290043
0.00290033
0.00290031
0.00290031
0.00290023
0.00290016
0.0029005
0.00290149
0.00290244
0.00290284
0.00290304
0.00290316
0.0029032
0.00290323
0.00290324
0.00290309
0.00290311
0.0029031
0.0029029
0.00290291
0.00290284
0.00290263
0.00290261
0.00290244
0.0029023
0.00290223
0.00290202
0.00290198
0.0029019
0.00290171
0.00290171
0.00290168
0.00290147
0.00290147
0.00290144
0.00290122
0.00290123
0.00290116
0.00290096
0.00290097
0.00290081
0.00290068
0.00290066
0.00290051
0.00290049
0.00290047
0.00290043
0.00290039
0.0029003
0.00290044
0.00290105
0.00290172
0.00290209
0.00290221
0.00290223
0.00290222
0.00290204
0.00290204
0.00290195
0.00290174
0.00290173
0.00290156
0.0029014
0.0029014
0.00290123
0.00290106
0.00290107
0.00290105
0.00290099
0.002901
0.00290099
0.00290089
0.00290086
0.0029008
0.00290085
0.00290155
0.00290311
0.00290541
0.00290849
0.00291332
0.00292296
0.00294406
0.00299299
0.00310886
0.00339716
0.00410897
0.00588769
0.0101833
0.0204729
0.0438849
0.0953468
0.198973
0.38733
0.6058
0.663369
0.617865
0.452344
0.212608
0.0819139
0.0375419
0.0206088
0.0130918
0.00980951
0.00807463
0.00740273
0.00703481
0.00701059
0.00700115
0.007087
0.00707639
0.00714349
0.00722558
0.00748072
0.0077691
0.00819665
0.00850483
0.00889873
0.00925082
0.00995949
0.010941
0.0125027
0.0144695
0.0172076
0.0206743
0.0253075
0.0311217
0.0384522
0.0473336
0.0579693
0.0705077
0.0847565
0.100521
0.117668
0.135509
0.153858
0.171586
0.188508
0.203577
0.21684
0.227605
0.236126
0.242519
0.245669
0.246957
0.247005
0.247052
0.246036
0.244452
0.242859
0.239775
0.237918
0.23459
0.23329
0.231012
0.230281
0.229044
0.228864
0.228589
0.229121
0.229761
0.23139
0.232284
0.235119
0.236633
0.240171
0.242211
0.246221
0.248925
0.253148
0.256677
0.260993
0.26533
0.269751
0.274826
0.279721
0.285638
0.290994
0.297293
0.302349
0.307167
0.309368
0.310501
0.0029191
0.00291364
0.00290695
0.00290457
0.00290291
0.00290208
0.00290174
0.00290153
0.00290131
0.00290112
0.00290112
0.00290095
0.0029008
0.00290079
0.00290067
0.00290056
0.00290053
0.00290053
0.0029005
0.00290044
0.00290067
0.00290158
0.002902
0.00290208
0.00290208
0.0029019
0.0029019
0.0029019
0.00290166
0.00290166
0.00290164
0.0029014
0.0029014
0.00290137
0.00290125
0.00290129
0.0029013
0.00290131
0.00290131
0.0029011
0.00290111
0.0029011
0.00290086
0.00290085
0.00290083
0.00290059
0.0029006
0.00290056
0.00290033
0.00290034
0.00290028
0.00290021
0.00290028
0.00290028
0.00290018
0.00290019
0.00290016
0.00290014
0.00290063
0.00290152
0.00290172
0.00290171
0.0029017
0.00290168
0.00290164
0.00290161
0.00290149
0.00290148
0.00290145
0.00290143
0.00290136
0.00290127
0.00290155
0.00290252
0.0029034
0.00290368
0.00290376
0.00290379
0.00290379
0.00290378
0.0029036
0.00290365
0.00290361
0.00290358
0.00290357
0.00290354
0.00290372
0.00290454
0.00290617
0.00290906
0.00291357
0.00292079
0.00293282
0.00295553
0.00300353
0.00311615
0.00339089
0.00408154
0.00577897
0.00994055
0.0196923
0.042007
0.0895845
0.184153
0.346584
0.544984
0.601348
0.576436
0.470606
0.29649
0.138945
0.0755438
0.0531202
0.0476644
0.0458824
0.0460509
0.0439456
0.0395304
0.0273601
0.0155821
0.0102847
0.00832228
0.00719139
0.00675935
0.00658039
0.00653669
0.00655769
0.00674195
0.00715897
0.00780668
0.00869106
0.0099344
0.0116634
0.0140437
0.0171678
0.0212945
0.0265504
0.0333303
0.0416709
0.0519576
0.0640613
0.0780235
0.0934482
0.109832
0.12686
0.143512
0.159502
0.173878
0.186406
0.19633
0.203628
0.207505
0.209174
0.209594
0.209769
0.20946
0.208977
0.207661
0.206232
0.204995
0.20342
0.202855
0.20205
0.201932
0.201786
0.202221
0.20271
0.203866
0.204891
0.207058
0.208728
0.211584
0.21392
0.217436
0.22047
0.224808
0.228589
0.233542
0.237993
0.243136
0.248213
0.253553
0.258863
0.264316
0.269809
0.275169
0.281059
0.286408
0.292141
0.296683
0.300765
0.302769
0.303695
0.00292524
0.00291557
0.00290955
0.00290683
0.00290419
0.00290242
0.00290166
0.00290104
0.00290055
0.00290031
0.00290021
0.00290013
0.00290004
0.00289985
0.00289983
0.00289981
0.00289981
0.00289976
0.00289968
0.00289998
0.00290113
0.00290213
0.00290236
0.00290236
0.00290236
0.00290236
0.00290219
0.00290222
0.0029022
0.00290203
0.00290205
0.00290204
0.00290182
0.00290183
0.00290177
0.00290155
0.00290155
0.00290138
0.00290121
0.00290119
0.00290114
0.00290107
0.00290096
0.00290096
0.00290083
0.00290072
0.0029007
0.00290056
0.00290052
0.00290053
0.00290035
0.00290035
0.00290035
0.00290018
0.00290021
0.00290019
0.00289997
0.00289997
0.00289993
0.00289971
0.00289971
0.00289959
0.00289953
0.00289963
0.00289974
0.00289998
0.00290052
0.00290167
0.002903
0.00290378
0.0029041
0.0029043
0.00290461
0.0029049
0.00290497
0.00290496
0.00290481
0.00290484
0.00290484
0.00290464
0.00290464
0.0029046
0.00290445
0.00290447
0.00290442
0.00290443
0.00290441
0.00290442
0.00290491
0.00290625
0.00290875
0.00291292
0.00291939
0.00293028
0.00295028
0.0029931
0.00309147
0.00333385
0.00392849
0.00540993
0.00895819
0.0173478
0.0360398
0.0758042
0.151976
0.28226
0.462129
0.550541
0.555988
0.524484
0.445638
0.337488
0.240519
0.209292
0.206327
0.221785
0.236052
0.23941
0.219259
0.158988
0.0746629
0.039347
0.021283
0.0130975
0.0090399
0.00745645
0.00702779
0.00694321
0.00706138
0.00757891
0.00865428
0.0102197
0.0123418
0.0151441
0.0189668
0.0239811
0.0305083
0.038552
0.0484582
0.060038
0.0737002
0.0886716
0.104696
0.121226
0.137208
0.1526
0.165866
0.177468
0.185953
0.19246
0.195528
0.196661
0.197018
0.196979
0.19677
0.196063
0.195265
0.194193
0.19334
0.19271
0.192052
0.191899
0.191796
0.192067
0.192762
0.194036
0.195065
0.196632
0.19825
0.20071
0.203047
0.206287
0.209208
0.212954
0.216499
0.22089
0.225256
0.230378
0.235306
0.240757
0.246276
0.252123
0.257875
0.263983
0.269896
0.275965
0.281732
0.287522
0.292585
0.297282
0.300443
0.302514
0.303305
0.0029229
0.00291508
0.00290848
0.00290581
0.00290282
0.00290144
0.00290066
0.0029001
0.0028998
0.00289968
0.00289963
0.00289958
0.00289947
0.00289964
0.00290033
0.00290085
0.00290097
0.00290101
0.00290102
0.00290099
0.00290096
0.00290096
0.00290072
0.00290064
0.00290063
0.00290037
0.00290029
0.00290029
0.00290012
0.00290006
0.00290005
0.00289997
0.00289997
0.00289995
0.00289993
0.00290037
0.00290144
0.00290229
0.00290245
0.00290247
0.00290242
0.00290233
0.00290229
0.00290207
0.00290199
0.00290188
0.0029017
0.0029017
0.0029016
0.00290143
0.00290143
0.00290134
0.00290114
0.00290114
0.00290104
0.00290085
0.00290084
0.00290065
0.00290055
0.0029005
0.00290031
0.00290026
0.00290018
0.00290002
0.00290001
0.00289997
0.00289998
0.00289989
0.00289989
0.00289987
0.00289984
0.00290025
0.00290156
0.00290329
0.00290405
0.00290432
0.0029045
0.00290464
0.00290473
0.00290475
0.00290477
0.00290478
0.00290479
0.00290466
0.00290469
0.00290463
0.00290463
0.00290508
0.00290597
0.00290735
0.00290969
0.00291287
0.00291749
0.00292447
0.00293582
0.0029556
0.00299458
0.0030812
0.00328431
0.00378136
0.00497531
0.00784243
0.0143979
0.0289399
0.0586674
0.115419
0.210069
0.346094
0.479363
0.537672
0.565875
0.57887
0.586216
0.593697
0.605638
0.623057
0.631285
0.634522
0.621814
0.576614
0.48903
0.376405
0.237308
0.104555
0.0389299
0.0177715
0.010867
0.00851318
0.00790969
0.00777784
0.00794157
0.00867321
0.0103429
0.0129662
0.0166218
0.0214288
0.0276341
0.0356042
0.0454866
0.0574074
0.071219
0.0865109
0.102776
0.119306
0.135549
0.150434
0.163201
0.173224
0.179536
0.182181
0.18319
0.183427
0.183468
0.183225
0.182715
0.181895
0.181104
0.180427
0.180166
0.180143
0.180232
0.181001
0.181797
0.182986
0.184301
0.186513
0.188809
0.191541
0.194281
0.197441
0.200768
0.204616
0.208644
0.212988
0.217652
0.222619
0.228041
0.233804
0.23988
0.246159
0.252813
0.259596
0.26656
0.273671
0.280558
0.287559
0.293913
0.300365
0.305618
0.310642
0.313706
0.315925
0.3167
0.00292901
0.00292011
0.00291441
0.00291025
0.00290784
0.00290582
0.00290483
0.00290393
0.00290355
0.00290338
0.00290299
0.00290276
0.00290275
0.00290267
0.00290264
0.00290264
0.00290249
0.00290251
0.00290248
0.00290228
0.00290228
0.00290218
0.00290198
0.00290198
0.00290181
0.00290166
0.00290161
0.00290141
0.00290138
0.00290126
0.00290113
0.00290112
0.00290106
0.00290087
0.00290086
0.00290071
0.00290057
0.00290057
0.00290049
0.00290038
0.00290038
0.00290034
0.00290032
0.00290026
0.00290029
0.00290091
0.00290204
0.00290239
0.00290246
0.00290246
0.00290234
0.00290237
0.00290235
0.00290218
0.00290221
0.00290222
0.00290202
0.00290202
0.00290203
0.00290179
0.0029018
0.00290176
0.00290154
0.00290154
0.00290142
0.00290122
0.00290119
0.00290098
0.0029009
0.00290086
0.00290061
0.00290057
0.00290057
0.00290039
0.00290032
0.00290033
0.00290031
0.0029002
0.00290019
0.00290014
0.00290022
0.00290077
0.00290206
0.0029035
0.00290497
0.00290632
0.00290755
0.00290856
0.00290966
0.00291064
0.00291197
0.00291367
0.00291643
0.00292073
0.00292709
0.00293726
0.00295486
0.00298861
0.00305868
0.0032184
0.00358805
0.00446937
0.00650596
0.0111478
0.0210437
0.0412051
0.0782163
0.140116
0.233824
0.356599
0.473768
0.549657
0.60945
0.664409
0.731678
0.766835
0.772088
0.758839
0.718319
0.64827
0.555881
0.451118
0.346237
0.245466
0.155327
0.075316
0.0359238
0.0207141
0.0147229
0.0119414
0.0111881
0.0110377
0.0117426
0.0138704
0.0179021
0.023488
0.0307566
0.0395756
0.0505479
0.0635682
0.0790295
0.0958267
0.113249
0.130251
0.145729
0.159492
0.17028
0.176893
0.179413
0.180351
0.18061
0.180608
0.18038
0.179796
0.179039
0.178293
0.177718
0.177291
0.177125
0.177167
0.177738
0.179173
0.180742
0.182378
0.184153
0.186398
0.188812
0.191811
0.194931
0.198457
0.202183
0.206289
0.210843
0.215864
0.221251
0.226889
0.233159
0.239716
0.246718
0.254106
0.261659
0.269649
0.277571
0.285864
0.29371
0.301736
0.30867
0.31584
0.321339
0.32672
0.329706
0.332007
0.332749
0.00292705
0.00291949
0.00291339
0.00290932
0.00290654
0.00290438
0.00290327
0.00290227
0.00290173
0.00290141
0.00290113
0.00290108
0.002901
0.00290084
0.00290074
0.00290074
0.00290069
0.00290064
0.00290086
0.00290149
0.00290171
0.0029017
0.00290164
0.00290176
0.00290251
0.00290317
0.00290329
0.00290329
0.00290313
0.00290314
0.00290311
0.0029029
0.00290291
0.00290288
0.00290284
0.00290284
0.00290268
0.00290268
0.00290258
0.00290241
0.00290239
0.00290223
0.00290216
0.00290212
0.00290198
0.00290198
0.00290187
0.00290187
0.00290178
0.00290174
0.00290204
0.00290244
0.0029026
0.00290265
0.00290267
0.00290267
0.00290248
0.0029025
0.00290248
0.00290224
0.00290225
0.00290216
0.00290195
0.00290194
0.00290176
0.00290161
0.00290156
0.00290137
0.00290134
0.0029013
0.00290111
0.00290111
0.00290108
0.00290097
0.00290097
0.00290097
0.00290082
0.00290082
0.00290076
0.0029007
0.00290103
0.00290235
0.00290366
0.00290407
0.00290423
0.00290431
0.00290435
0.00290433
0.00290429
0.00290451
0.00290532
0.00290712
0.00291009
0.00291459
0.0029206
0.00292902
0.00294053
0.00295826
0.00298818
0.00304648
0.0031659
0.00343215
0.00402667
0.00537796
0.00830456
0.0144888
0.0264724
0.0481452
0.0843116
0.137867
0.213469
0.310044
0.420861
0.517109
0.614334
0.675848
0.694763
0.689318
0.660933
0.600163
0.523117
0.432351
0.350202
0.272608
0.216177
0.166783
0.132712
0.100384
0.0719714
0.0430006
0.0253827
0.0187307
0.0167395
0.0163567
0.0172761
0.0206227
0.0271462
0.0364983
0.0482167
0.0617333
0.0769421
0.0935603
0.111348
0.129466
0.146479
0.160813
0.170634
0.174787
0.176324
0.176807
0.176891
0.176808
0.176345
0.175502
0.174467
0.173933
0.173756
0.173749
0.174139
0.175148
0.176199
0.177734
0.179795
0.18234
0.184914
0.187801
0.191002
0.194296
0.197978
0.20183
0.206228
0.210523
0.215739
0.221258
0.227757
0.234283
0.241951
0.249481
0.257968
0.2667
0.275692
0.285017
0.294343
0.303882
0.313016
0.322385
0.330357
0.338487
0.344588
0.350483
0.353728
0.35618
0.356931
0.00293006
0.00292033
0.00291564
0.00291076
0.00290838
0.00290622
0.00290502
0.00290399
0.00290338
0.002903
0.00290275
0.00290242
0.0029023
0.00290228
0.00290203
0.00290191
0.00290191
0.00290176
0.00290158
0.00290159
0.00290145
0.00290129
0.00290126
0.00290127
0.00290122
0.00290119
0.00290117
0.00290108
0.00290116
0.00290185
0.00290259
0.00290285
0.00290287
0.00290287
0.00290284
0.00290281
0.00290277
0.00290275
0.00290292
0.00290299
0.002903
0.00290297
0.00290286
0.00290286
0.00290282
0.00290266
0.00290266
0.0029025
0.00290237
0.00290235
0.00290223
0.0029022
0.0029021
0.0029021
0.0029021
0.00290198
0.00290201
0.00290201
0.00290196
0.00290193
0.00290192
0.00290189
0.00290185
0.00290183
0.00290178
0.00290196
0.00290261
0.00290308
0.00290325
0.00290333
0.00290342
0.0029036
0.0029039
0.00290416
0.00290426
0.00290435
0.00290452
0.00290492
0.00290518
0.00290524
0.00290524
0.00290523
0.00290517
0.00290515
0.00290509
0.00290518
0.00290549
0.00290561
0.00290567
0.00290575
0.00290601
0.00290691
0.00290863
0.00291136
0.00291522
0.00292075
0.00292824
0.00293953
0.00295661
0.00298482
0.00303277
0.00312244
0.00329897
0.00367266
0.00445984
0.00613142
0.00945832
0.015751
0.0269107
0.044586
0.0713876
0.106828
0.153546
0.203404
0.266002
0.325675
0.365754
0.369789
0.361871
0.33042
0.293306
0.244069
0.207049
0.166028
0.141384
0.115596
0.0960783
0.0774876
0.0628176
0.058661
0.057382
0.054862
0.0469633
0.0346131
0.0296218
0.0285908
0.0299838
0.0360285
0.0475669
0.0625072
0.0797964
0.0980097
0.117266
0.136633
0.154976
0.170497
0.177498
0.180036
0.180772
0.180948
0.180867
0.180558
0.179661
0.178524
0.177118
0.176278
0.175854
0.175763
0.175999
0.177238
0.179181
0.181086
0.183119
0.18552
0.18879
0.191969
0.195275
0.198321
0.202035
0.205898
0.210793
0.215963
0.222058
0.228305
0.235812
0.243597
0.252588
0.261488
0.27116
0.281217
0.29151
0.302216
0.312851
0.323908
0.334252
0.345233
0.354536
0.364102
0.371124
0.377923
0.381441
0.384211
0.384996
0.00293288
0.00292216
0.00291751
0.00291222
0.00290914
0.00290672
0.00290525
0.00290398
0.00290334
0.00290279
0.00290254
0.00290234
0.00290215
0.00290196
0.0029019
0.00290177
0.0029016
0.00290159
0.00290149
0.00290134
0.00290133
0.00290126
0.00290105
0.00290105
0.00290093
0.00290076
0.00290075
0.0029007
0.00290058
0.00290057
0.00290048
0.00290045
0.00290033
0.00290042
0.00290097
0.00290165
0.00290192
0.00290206
0.00290215
0.00290213
0.00290212
0.00290211
0.00290195
0.00290183
0.00290179
0.00290167
0.00290165
0.0029016
0.00290159
0.00290152
0.00290162
0.00290224
0.00290264
0.00290271
0.0029027
0.00290255
0.00290256
0.0029025
0.0029023
0.00290229
0.00290215
0.00290198
0.00290198
0.00290189
0.00290177
0.00290179
0.00290176
0.00290166
0.00290163
0.00290156
0.00290169
0.00290252
0.00290334
0.00290348
0.00290348
0.00290343
0.00290341
0.0029033
0.00290331
0.0029032
0.00290321
0.00290357
0.00290393
0.002904
0.00290404
0.00290404
0.00290391
0.00290394
0.00290391
0.0029037
0.00290373
0.00290418
0.00290511
0.00290705
0.00291007
0.00291449
0.00292056
0.00292905
0.00294079
0.00295806
0.00298327
0.00302342
0.00308894
0.00320679
0.00342542
0.00385942
0.00469932
0.00630033
0.00922269
0.0140464
0.0217215
0.0322832
0.0468897
0.0632101
0.0832524
0.101881
0.119562
0.123124
0.122433
0.113979
0.103963
0.0889566
0.0782128
0.0650744
0.0581061
0.050705
0.0451068
0.04103
0.0395331
0.0405505
0.0434932
0.0499455
0.057907
0.0625123
0.0624304
0.0577676
0.0498886
0.0473846
0.0483337
0.0551449
0.0700366
0.089907
0.112921
0.136255
0.158857
0.176122
0.182753
0.18503
0.185665
0.185896
0.18586
0.185622
0.184554
0.182793
0.180897
0.180229
0.179973
0.180013
0.180511
0.181706
0.183612
0.185906
0.188968
0.191513
0.194232
0.196452
0.200061
0.20382
0.208582
0.212825
0.218344
0.224261
0.231816
0.238972
0.24735
0.255714
0.265673
0.275416
0.286332
0.297508
0.309312
0.321681
0.334259
0.347439
0.35991
0.37316
0.384678
0.396478
0.405285
0.413749
0.417991
0.421316
0.422201
0.00293104
0.00292019
0.00291555
0.00291107
0.00290717
0.00290545
0.00290329
0.00290221
0.0029013
0.00290084
0.00290042
0.00290012
0.00289984
0.00289976
0.00289975
0.00289959
0.00289941
0.0028994
0.00289929
0.00289907
0.00289907
0.00289887
0.00289874
0.00289871
0.00289847
0.00289841
0.00289835
0.00289813
0.00289811
0.00289804
0.00289785
0.00289784
0.00289779
0.00289758
0.00289758
0.00289751
0.0028974
0.0028974
0.00289736
0.00289735
0.0028973
0.00289728
0.00289775
0.00289935
0.00290108
0.00290151
0.00290151
0.00290144
0.00290143
0.0029014
0.0029014
0.00290141
0.00290129
0.0029013
0.00290119
0.00290118
0.0029017
0.00290256
0.00290282
0.00290291
0.00290292
0.00290293
0.0029029
0.00290269
0.00290272
0.0029027
0.00290254
0.00290259
0.00290258
0.00290242
0.00290245
0.00290245
0.00290233
0.00290237
0.00290239
0.00290228
0.00290235
0.00290235
0.00290219
0.00290221
0.00290218
0.00290209
0.00290213
0.00290213
0.0029021
0.00290211
0.00290208
0.00290208
0.00290245
0.00290338
0.00290442
0.00290536
0.00290637
0.00290807
0.00291077
0.00291442
0.00291943
0.00292638
0.00293623
0.00294961
0.0029684
0.00299451
0.00303146
0.00308499
0.0031665
0.00329922
0.00352398
0.00391763
0.00461372
0.00576045
0.00762652
0.0102678
0.0140545
0.0184192
0.0238962
0.0288308
0.0344328
0.0364782
0.0368827
0.0353238
0.0333146
0.0296876
0.0271485
0.0236262
0.0218217
0.0198994
0.018362
0.0174327
0.0170233
0.0173473
0.0183565
0.0217176
0.0274626
0.0367841
0.0484902
0.0649321
0.0826906
0.0907842
0.0917516
0.0900312
0.0899816
0.0945983
0.10929
0.132509
0.158574
0.183655
0.196826
0.201355
0.202524
0.202862
0.202399
0.201437
0.198819
0.196122
0.192605
0.191149
0.190384
0.190285
0.190378
0.191232
0.193094
0.194952
0.19731
0.199747
0.203398
0.206284
0.209899
0.213012
0.21837
0.223616
0.230132
0.235804
0.24339
0.250508
0.259541
0.268174
0.279067
0.289463
0.302144
0.315152
0.329171
0.34385
0.359017
0.375053
0.390269
0.406515
0.420739
0.435606
0.446706
0.45774
0.463059
0.467255
0.468372
0.00294314
0.00292724
0.00292137
0.00291495
0.00291099
0.00290754
0.00290578
0.00290397
0.00290292
0.00290255
0.0029021
0.00290197
0.00290205
0.00290243
0.00290249
0.00290245
0.00290226
0.00290226
0.00290216
0.00290202
0.00290202
0.00290172
0.00290166
0.00290165
0.00290143
0.00290133
0.00290134
0.00290113
0.00290103
0.00290102
0.00290091
0.00290068
0.00290069
0.00290062
0.00290057
0.00290058
0.00290057
0.0029005
0.00290059
0.00290141
0.00290262
0.00290292
0.00290291
0.00290288
0.00290276
0.00290272
0.00290265
0.00290247
0.00290247
0.00290244