/*--------------------------------*- C++ -*----------------------------------*\
| =========                 |                                                 |
| \\      /  F ield         | OpenFOAM: The Open Source CFD Toolbox           |
|  \\    /   O peration     | Version:  4.1                                   |
|   \\  /    A nd           | Web:      www.OpenFOAM.org                      |
|    \\/     M anipulation  |                                                 |
\*---------------------------------------------------------------------------*/
FoamFile
{
    version     2.0;
    format      ascii;
    class       volScalarField;
    location    "4";
    object      k;
}
// * * * * * * * * * * * * * * * * * * * * * * * * * * * * * * * * * * * * * //

dimensions      [0 2 -2 0 0 0 0];

internalField   nonuniform List<scalar> 
204246
(
0.891905
0.986228
0.988176
0.986973
0.990098
0.988771
0.991384
0.990608
0.992629
0.991052
0.992185
0.990023
0.990852
0.987938
0.989196
0.986401
0.988263
0.986107
0.985608
0.988244
0.98674
0.989856
0.988556
0.991159
0.990433
0.993281
0.992558
0.994402
0.992582
0.994301
0.991794
0.993189
0.990443
0.991758
0.988693
0.989609
0.987036
0.98609
0.988626
0.987073
0.989306
0.988395
0.991172
0.990572
0.993633
0.992428
0.994525
0.992192
0.993656
0.990943
0.991669
0.988607
0.989215
0.986474
0.985528
0.988083
0.986532
0.988751
0.987842
0.990543
0.989915
0.993026
0.991908
0.994105
0.991849
0.993357
0.990752
0.991519
0.989334
0.990632
0.989287
0.988782
0.990929
0.989948
0.992167
0.991339
0.993831
0.993134
0.996031
0.995237
0.998955
0.998065
1.00191
1.00117
1.00433
1.0043
1.00864
1.00896
1.01313
1.01721
1.02114
1.02743
1.03269
1.04183
1.04964
1.06282
1.07709
1.09996
1.12931
1.17712
1.24728
1.3609
1.52418
1.74163
1.88333
1.91986
1.92287
1.89887
1.84748
1.81161
1.79292
1.75438
1.70583
1.66999
1.64401
1.60524
1.56273
1.52929
1.50371
1.46712
1.4354
1.40356
1.38369
1.34748
1.32282
1.29808
1.27746
1.25585
1.23315
1.22478
1.21787
1.21863
1.21825
1.22299
1.22668
1.23912
1.25011
1.27317
1.29366
1.32954
1.36169
1.41026
1.46038
1.52073
1.58863
1.66036
1.74415
1.82504
1.92086
2.00778
2.10947
2.19789
2.29939
2.38627
2.48443
2.56862
2.6626
2.74504
2.83544
2.91553
3.00551
3.0849
3.17608
3.25451
3.34565
3.42081
3.50933
3.5781
3.66239
3.72427
3.80434
3.85812
3.93292
3.97599
4.04386
4.07487
4.13744
4.16796
4.22141
4.25868
4.30874
4.35554
4.40284
4.45876
4.50675
4.5741
4.62828
4.70868
4.77344
4.85911
4.92133
4.96681
4.98376
0.123958
0.217044
0.212398
0.211321
0.215484
0.21378
0.218057
0.217033
0.219968
0.217972
0.219706
0.217024
0.218443
0.213436
0.215169
0.211244
0.214223
0.212048
0.211736
0.215558
0.213544
0.218164
0.216395
0.220999
0.220092
0.223713
0.22199
0.223886
0.220359
0.222517
0.217768
0.219554
0.213888
0.215413
0.210123
0.211782
0.210021
0.209249
0.212922
0.210947
0.215336
0.21464
0.219964
0.219457
0.223338
0.220835
0.223268
0.219068
0.220902
0.215047
0.21599
0.211154
0.212265
0.21027
0.209489
0.213216
0.211254
0.215578
0.21484
0.219978
0.219431
0.223416
0.221009
0.223525
0.219566
0.221535
0.21629
0.217573
0.21479
0.217091
0.215766
0.215133
0.218623
0.217519
0.221716
0.220808
0.225469
0.22464
0.229012
0.227356
0.231817
0.229677
0.234043
0.231943
0.236742
0.236015
0.243168
0.243643
0.247744
0.25869
0.261712
0.281962
0.289656
0.322106
0.336688
0.388431
0.416788
0.499764
0.570852
0.735072
0.931375
1.2745
1.59718
1.70428
1.70322
1.53718
1.17675
0.808141
0.670632
0.60443
0.575496
0.520143
0.492554
0.463233
0.457824
0.433051
0.428699
0.408469
0.405599
0.389112
0.387598
0.375202
0.3754
0.365811
0.362421
0.363674
0.358869
0.36171
0.359466
0.365504
0.364931
0.377188
0.380195
0.404504
0.413775
0.452018
0.469154
0.522706
0.551239
0.621353
0.666128
0.750114
0.824773
0.924918
1.03289
1.15294
1.29267
1.42868
1.58937
1.73018
1.89703
2.03073
2.19029
2.31415
2.46189
2.57891
2.71717
2.83241
2.95759
3.07067
3.19733
3.30534
3.4381
3.5442
3.68331
3.78398
3.92004
4.00741
4.13268
4.20618
4.32558
4.39088
4.5046
4.56399
4.67087
4.72581
4.81888
4.8615
4.95308
4.99066
5.07887
5.11506
5.20424
5.23952
5.32914
5.36359
5.46243
5.50335
5.67141
5.82267
6.20848
6.45043
6.55126
0.0118111
0.0256381
0.0245627
0.0238801
0.0247812
0.0244938
0.0252075
0.0248915
0.0251912
0.0246961
0.0248934
0.0241991
0.0243279
0.0233294
0.0236552
0.0230875
0.0236688
0.0233549
0.0234246
0.0242549
0.0240308
0.0250924
0.0248799
0.0258487
0.0256864
0.0261218
0.0256613
0.0259254
0.025111
0.0254256
0.0244177
0.0246698
0.0235153
0.0237144
0.0227722
0.0231117
0.0228582
0.0228283
0.0236133
0.0234247
0.0244982
0.0245
0.0256439
0.0255549
0.0260351
0.025422
0.0257166
0.0247034
0.0249395
0.0237371
0.0238502
0.0229582
0.0232041
0.0229491
0.0229224
0.0237384
0.0235634
0.0246353
0.0246198
0.0256995
0.0255665
0.0259898
0.025362
0.0256621
0.0246769
0.024928
0.0239011
0.0241881
0.0238303
0.0243222
0.0241655
0.024231
0.0250712
0.0249651
0.0259005
0.0257692
0.0265762
0.0263733
0.0270695
0.0267333
0.0275341
0.0271423
0.0280543
0.0277024
0.0288201
0.0287617
0.0306297
0.0310018
0.0331064
0.0366051
0.0394445
0.0468774
0.0527471
0.0665399
0.0794816
0.106696
0.137826
0.198864
0.284715
0.444433
0.691599
1.1006
1.45336
1.52877
1.43514
1.0598
0.556889
0.342511
0.265763
0.231067
0.214405
0.191463
0.171451
0.159289
0.156205
0.151113
0.149998
0.146174
0.145853
0.143618
0.144174
0.143482
0.144885
0.144578
0.145259
0.14808
0.148647
0.154333
0.156474
0.165847
0.17044
0.184305
0.192379
0.212174
0.225521
0.253469
0.274409
0.313085
0.34422
0.396533
0.441087
0.506919
0.573233
0.654161
0.744353
0.842398
0.956284
1.06958
1.2017
1.32337
1.46424
1.58491
1.72397
1.8354
1.96762
2.06922
2.1979
2.29212
2.40575
2.50556
2.60078
2.70145
2.77994
2.8798
2.94606
3.04123
3.08463
3.1186
3.12033
3.1241
3.10426
3.07496
2.99211
2.90843
2.77332
2.67897
2.55799
2.50417
2.47613
2.42229
2.40985
2.35273
2.34254
2.2882
2.28096
2.23706
2.23672
2.21312
2.22371
2.21293
2.22222
2.09718
2.04516
0.0110699
0.0111607
0.0110644
0.0110036
0.011043
0.0110184
0.0110719
0.0110529
0.011076
0.0110451
0.0110553
0.011017
0.0110221
0.0109683
0.0109927
0.0109598
0.0109942
0.0109761
0.0109799
0.0110244
0.0110152
0.011079
0.0110693
0.0111332
0.0111186
0.0111465
0.011113
0.0111306
0.0110752
0.0110965
0.0110327
0.01105
0.0109794
0.0109919
0.0109342
0.0109521
0.0109341
0.0109298
0.0109714
0.0109635
0.0110252
0.0110364
0.0111194
0.0111139
0.0111449
0.0111005
0.0111193
0.0110519
0.0110683
0.0109941
0.0110023
0.0109482
0.0109609
0.0109428
0.0109397
0.0109834
0.0109761
0.011043
0.011056
0.011135
0.0111259
0.0111536
0.0111072
0.0111261
0.0110579
0.0110744
0.0110055
0.0110206
0.0109946
0.0110237
0.0110137
0.0110162
0.011071
0.0110676
0.0111378
0.0111308
0.0111945
0.0111809
0.0112352
0.0112097
0.0112709
0.0112407
0.0113143
0.0112876
0.0113929
0.0113978
0.0116133
0.0116936
0.0120084
0.0125309
0.0131342
0.0145083
0.0161853
0.0197328
0.0248892
0.0354548
0.0530946
0.0883972
0.151506
0.271376
0.478049
0.823153
1.19644
1.29723
1.26202
0.995346
0.534907
0.229341
0.133933
0.0991181
0.0847137
0.0763213
0.0709461
0.0631637
0.0598286
0.0573778
0.0569075
0.0564725
0.0567148
0.0565732
0.0570097
0.0569174
0.0575477
0.0575333
0.0581571
0.0592111
0.0598241
0.0620483
0.0630503
0.0664852
0.0683953
0.0737758
0.0777204
0.0863773
0.0938125
0.10744
0.120449
0.141528
0.16308
0.194694
0.228477
0.273733
0.323852
0.38566
0.454771
0.534674
0.622491
0.7179
0.819179
0.921731
1.02635
1.12382
1.22033
1.3022
1.38412
1.44723
1.51541
1.56223
1.61329
1.65723
1.68996
1.72922
1.74274
1.76423
1.76676
1.77328
1.76579
1.76377
1.73009
1.70621
1.64428
1.60777
1.52622
1.48109
1.38604
1.33997
1.259
1.22383
1.18248
1.15752
1.13329
1.09965
1.08528
1.05085
1.03916
1.01483
1.00958
1.00415
1.01702
1.03831
1.07144
1.08255
1.09038
0.0107535
0.010779
0.0107487
0.0107399
0.0107374
0.0107342
0.0107343
0.0107332
0.0107335
0.0107324
0.0107326
0.010731
0.010731
0.010729
0.010729
0.0107278
0.0107284
0.0107278
0.0107275
0.0107277
0.0107279
0.0107293
0.0107292
0.0107322
0.0107324
0.0107339
0.0107336
0.0107349
0.0107341
0.0107349
0.0107337
0.0107342
0.0107327
0.0107328
0.0107316
0.0107318
0.0107314
0.010731
0.010731
0.0107302
0.0107306
0.0107313
0.0107334
0.0107332
0.0107338
0.0107324
0.0107328
0.0107305
0.0107307
0.0107285
0.0107284
0.0107269
0.0107269
0.0107262
0.010726
0.0107259
0.0107259
0.0107266
0.0107265
0.0107283
0.0107284
0.0107297
0.0107287
0.0107294
0.0107281
0.0107288
0.0107279
0.0107287
0.0107285
0.0107312
0.0107333
0.0107368
0.0107392
0.0107397
0.010741
0.0107406
0.0107415
0.0107408
0.0107418
0.0107407
0.0107423
0.0107412
0.0107433
0.0107423
0.0107463
0.0107475
0.0107592
0.0107711
0.0108026
0.0108642
0.0109732
0.0112099
0.0116461
0.0125897
0.0144627
0.0185708
0.0270664
0.0454681
0.0832111
0.160483
0.307284
0.569465
0.957327
1.13864
1.14252
0.982644
0.614371
0.245104
0.107023
0.0590202
0.0435107
0.0382226
0.0363092
0.0352689
0.0350305
0.0348525
0.0350676
0.0353919
0.0360025
0.0361436
0.0366712
0.0368331
0.0374289
0.0376227
0.0382801
0.039078
0.0401423
0.0419627
0.0438155
0.0472044
0.0506583
0.0564002
0.0625975
0.0720537
0.082718
0.0978681
0.115378
0.138999
0.166487
0.201341
0.241222
0.288731
0.341634
0.401589
0.46628
0.536031
0.60783
0.681252
0.753249
0.822371
0.886479
0.943508
0.994203
1.03585
1.07318
1.10116
1.12806
1.14088
1.14601
1.14952
1.14731
1.14667
1.13435
1.12445
1.09885
1.08328
1.05018
1.03364
0.998733
0.984926
0.951186
0.938208
0.907936
0.896609
0.871353
0.862271
0.843308
0.835553
0.828347
0.823287
0.822172
0.817384
0.817015
0.811377
0.810274
0.804649
0.803918
0.80272
0.810605
0.816443
0.830073
0.834814
0.838958
0.0107568
0.010736
0.0107229
0.0107169
0.0107139
0.010712
0.0107114
0.0107106
0.0107103
0.0107103
0.01071
0.0107098
0.0107098
0.0107098
0.0107095
0.0107095
0.0107094
0.0107093
0.01071
0.0107128
0.010719
0.0107261
0.0107282
0.0107286
0.0107285
0.0107284
0.0107283
0.010728
0.0107277
0.0107276
0.0107272
0.0107272
0.0107269
0.0107266
0.0107266
0.0107265
0.0107261
0.0107261
0.010726
0.0107256
0.0107256
0.0107253
0.010725
0.010725
0.0107248
0.0107244
0.0107244
0.0107242
0.0107238
0.0107239
0.0107239
0.0107237
0.0107237
0.0107235
0.0107235
0.0107235
0.010723
0.0107231
0.0107228
0.0107225
0.0107225
0.0107222
0.0107219
0.0107218
0.0107216
0.0107213
0.0107213
0.0107212
0.0107208
0.0107208
0.0107208
0.0107203
0.0107204
0.0107201
0.0107198
0.0107198
0.0107196
0.0107193
0.0107193
0.0107191
0.0107191
0.010719
0.010719
0.0107192
0.010721
0.0107248
0.0107321
0.010743
0.0107593
0.0107837
0.0108221
0.0108934
0.0110341
0.0113473
0.0120503
0.013705
0.0174939
0.0262756
0.0457599
0.088375
0.175624
0.345254
0.639724
0.981957
1.07213
1.02465
0.783698
0.399229
0.152606
0.0734069
0.0433328
0.0309696
0.0255711
0.0232728
0.0223624
0.0220166
0.0219978
0.0221742
0.0229056
0.023837
0.0248513
0.0255328
0.0262427
0.0266972
0.0273313
0.0279704
0.0285994
0.0295674
0.0305633
0.0323936
0.034427
0.038021
0.0424268
0.0493416
0.0578006
0.0697772
0.0843002
0.103731
0.126859
0.156479
0.191067
0.233
0.280635
0.334288
0.393366
0.455419
0.520202
0.583548
0.645339
0.700522
0.750561
0.790119
0.823442
0.843789
0.853623
0.856477
0.858532
0.857478
0.854399
0.850243
0.838374
0.829578
0.812118
0.801298
0.781347
0.770767
0.751105
0.742844
0.726195
0.71945
0.705843
0.700624
0.690575
0.686989
0.680341
0.6783
0.674731
0.673437
0.673397
0.673408
0.676016
0.677552
0.682075
0.684798
0.691069
0.694735
0.703668
0.708393
0.71902
0.724824
0.732972
0.735906
0.737965
0.010778
0.0107597
0.0107436
0.010736
0.0107307
0.0107273
0.0107258
0.0107246
0.0107241
0.0107238
0.0107235
0.0107229
0.0107228
0.0107227
0.0107227
0.0107226
0.0107225
0.0107231
0.0107257
0.0107294
0.0107302
0.0107302
0.0107301
0.0107298
0.0107297
0.0107296
0.0107291
0.0107292
0.0107288
0.0107286
0.0107286
0.0107284
0.010728
0.010728
0.0107276
0.0107274
0.0107274
0.0107271
0.010727
0.010727
0.0107269
0.0107264
0.0107264
0.0107264
0.010726
0.010726
0.010726
0.0107255
0.0107255
0.0107252
0.0107249
0.0107249
0.0107246
0.0107244
0.0107244
0.0107243
0.0107242
0.0107241
0.0107245
0.0107263
0.0107283
0.0107287
0.0107288
0.0107288
0.0107288
0.0107286
0.0107283
0.0107282
0.0107278
0.0107277
0.0107274
0.010727
0.010727
0.0107267
0.0107263
0.0107263
0.010726
0.0107257
0.0107257
0.0107256
0.0107253
0.0107252
0.0107252
0.0107252
0.0107251
0.0107261
0.0107286
0.0107332
0.0107394
0.0107481
0.0107617
0.0107872
0.01084
0.0109568
0.011223
0.0118618
0.0133833
0.0170624
0.0256403
0.0454232
0.088441
0.178301
0.349157
0.641744
0.936868
1.00475
0.947621
0.731535
0.393416
0.162692
0.0804964
0.0483868
0.0338448
0.0274092
0.0238593
0.0222263
0.0211161
0.0209439
0.0208529
0.0209922
0.0209667
0.0211175
0.0213294
0.0219375
0.0226518
0.023714
0.024598
0.0257776
0.0270214
0.0292302
0.0322981
0.0369849
0.0430506
0.0514092
0.0621895
0.0764
0.0944306
0.117012
0.144682
0.177632
0.216786
0.261112
0.31024
0.363796
0.41912
0.476073
0.53014
0.581697
0.625899
0.664594
0.693807
0.716796
0.727345
0.730609
0.731862
0.731185
0.730058
0.725161
0.71867
0.711479
0.700457
0.692052
0.67953
0.671728
0.66006
0.654658
0.645789
0.64214
0.635339
0.63282
0.628512
0.627128
0.625134
0.624824
0.624421
0.625282
0.626061
0.627858
0.629706
0.631982
0.635167
0.637261
0.641753
0.644476
0.65011
0.653967
0.661268
0.666257
0.674563
0.679799
0.685829
0.688274
0.68975
0.0107711
0.0107572
0.0107388
0.0107321
0.0107268
0.0107241
0.0107225
0.0107214
0.010721
0.0107207
0.0107201
0.0107198
0.0107197
0.0107194
0.0107191
0.0107187
0.0107184
0.010718
0.0107178
0.0107176
0.0107172
0.0107168
0.0107163
0.0107158
0.0107155
0.0107155
0.0107151
0.0107149
0.0107148
0.0107145
0.010714
0.010714
0.0107137
0.0107133
0.0107133
0.0107131
0.0107127
0.0107127
0.0107125
0.0107121
0.0107121
0.0107119
0.0107116
0.0107116
0.0107114
0.0107111
0.0107111
0.0107109
0.0107109
0.0107107
0.0107109
0.0107124
0.0107166
0.0107193
0.0107196
0.0107195
0.0107195
0.0107195
0.0107193
0.0107192
0.0107186
0.0107184
0.0107183
0.0107181
0.0107179
0.0107178
0.0107178
0.0107177
0.0107177
0.0107176
0.0107175
0.010718
0.0107198
0.0107224
0.0107242
0.0107251
0.0107259
0.0107275
0.0107295
0.0107314
0.0107323
0.0107329
0.010733
0.010733
0.0107329
0.0107331
0.0107344
0.0107375
0.0107429
0.0107514
0.0107638
0.0107829
0.0108139
0.0108698
0.0109831
0.0112387
0.0118403
0.013305
0.0167974
0.0251056
0.04392
0.0853226
0.169695
0.329599
0.592728
0.876247
0.945129
0.917632
0.780424
0.538962
0.286981
0.158863
0.113327
0.10178
0.0982605
0.0987814
0.0954505
0.0875342
0.0636124
0.0386233
0.0273434
0.0232745
0.0211278
0.0203309
0.0200267
0.0199667
0.0200946
0.0207193
0.0220207
0.024024
0.0268304
0.0307924
0.0363246
0.0439401
0.0540084
0.0674035
0.0846213
0.106835
0.134334
0.168131
0.208111
0.254063
0.304685
0.358552
0.413738
0.467763
0.518336
0.563802
0.602143
0.631101
0.643218
0.647359
0.648788
0.648668
0.648086
0.64502
0.640871
0.634031
0.627093
0.620078
0.611491
0.605481
0.597551
0.593919
0.587917
0.585415
0.581135
0.57955
0.577097
0.57643
0.575947
0.576313
0.577436
0.57949
0.581169
0.585133
0.588068
0.593044
0.597085
0.602048
0.607445
0.612524
0.618255
0.623612
0.629708
0.635057
0.641844
0.647357
0.654131
0.658975
0.663708
0.665868
0.667032
0.0107855
0.0107609
0.0107453
0.0107384
0.0107312
0.0107268
0.0107248
0.0107234
0.0107228
0.010722
0.0107213
0.010721
0.010721
0.0107209
0.0107207
0.0107206
0.0107204
0.0107206
0.0107223
0.0107241
0.0107244
0.0107242
0.010724
0.0107239
0.0107236
0.0107235
0.0107234
0.010723
0.010723
0.0107228
0.0107225
0.0107225
0.0107223
0.0107219
0.0107218
0.0107214
0.0107213
0.0107211
0.0107206
0.0107206
0.0107204
0.01072
0.01072
0.0107199
0.0107194
0.0107194
0.0107192
0.010719
0.010719
0.0107189
0.0107184
0.0107184
0.0107181
0.0107178
0.0107178
0.0107173
0.0107172
0.0107172
0.0107171
0.010717
0.0107169
0.0107172
0.0107193
0.0107242
0.0107308
0.0107329
0.0107333
0.0107331
0.010733
0.0107337
0.0107361
0.0107381
0.0107387
0.0107391
0.0107396
0.0107402
0.0107406
0.0107407
0.0107407
0.0107407
0.0107403
0.0107403
0.0107403
0.01074
0.0107401
0.01074
0.0107398
0.01074
0.0107411
0.010744
0.0107498
0.0107597
0.0107758
0.0108033
0.0108533
0.0109557
0.0111799
0.0117119
0.0129763
0.0160401
0.0231744
0.0395463
0.0747792
0.146883
0.279348
0.496884
0.77571
0.895838
0.908107
0.871595
0.7689
0.616755
0.466674
0.412479
0.405722
0.431522
0.453871
0.457774
0.416666
0.305478
0.149918
0.0797065
0.0464712
0.0320172
0.0250717
0.0222893
0.021589
0.0215017
0.0220904
0.023952
0.02748
0.0325542
0.039514
0.0487933
0.0614747
0.078104
0.0997925
0.126572
0.159625
0.198238
0.24376
0.293546
0.346666
0.40136
0.453717
0.503758
0.546118
0.583171
0.60573
0.61437
0.617169
0.617613
0.617577
0.616174
0.613472
0.608673
0.603236
0.59649
0.590192
0.584191
0.577495
0.572671
0.567047
0.564175
0.56015
0.55839
0.555867
0.554983
0.554179
0.554115
0.554486
0.556638
0.558315
0.561085
0.564032
0.568019
0.57204
0.577748
0.582562
0.588411
0.594562
0.600848
0.607401
0.614061
0.620783
0.6273
0.634018
0.640272
0.646311
0.651187
0.655099
0.657143
0.658093
0.0107784
0.0107588
0.0107413
0.0107343
0.0107261
0.0107221
0.0107199
0.0107186
0.0107175
0.0107173
0.0107172
0.0107169
0.010717
0.0107186
0.0107209
0.0107216
0.0107217
0.0107217
0.0107217
0.0107213
0.0107213
0.0107211
0.0107208
0.0107208
0.0107205
0.0107201
0.0107201
0.01072
0.0107198
0.0107198
0.0107197
0.0107196
0.0107199
0.0107221
0.0107263
0.0107279
0.0107281
0.0107281
0.0107277
0.0107277
0.0107277
0.0107272
0.0107272
0.0107272
0.0107267
0.0107267
0.0107265
0.0107261
0.0107261
0.0107257
0.0107254
0.0107253
0.0107249
0.0107249
0.0107248
0.0107244
0.0107244
0.0107243
0.0107239
0.0107239
0.0107239
0.0107236
0.0107236
0.0107233
0.0107233
0.0107231
0.0107228
0.0107227
0.0107227
0.0107227
0.0107226
0.0107225
0.0107221
0.010722
0.0107231
0.0107241
0.0107247
0.0107253
0.0107261
0.0107264
0.0107269
0.0107274
0.0107286
0.0107296
0.0107317
0.0107334
0.0107359
0.0107379
0.0107411
0.0107448
0.0107508
0.0107595
0.0107726
0.0107911
0.0108196
0.010868
0.0109608
0.0111602
0.0116105
0.0126788
0.0151738
0.021012
0.0340035
0.0619769
0.117271
0.21911
0.382543
0.608392
0.808736
0.894557
0.938191
0.958658
0.968762
0.979639
0.998718
1.02611
1.04154
1.04785
1.03534
0.97294
0.836232
0.653496
0.420465
0.190103
0.0771815
0.0409742
0.0292579
0.0253235
0.0244287
0.0243115
0.0252539
0.0281697
0.0339979
0.0428298
0.0550975
0.0713454
0.0925064
0.119737
0.153606
0.194402
0.241718
0.293928
0.349147
0.405101
0.45927
0.50914
0.551805
0.576589
0.584942
0.587314
0.587783
0.587384
0.585779
0.582161
0.57738
0.571625
0.566112
0.560044
0.554478
0.549814
0.545085
0.541865
0.538253
0.536641
0.534824
0.534315
0.534084
0.534584
0.536307
0.538417
0.540337
0.543559
0.546709
0.550614
0.554629
0.559649
0.564474
0.5707
0.57647
0.582799
0.589451
0.596417
0.603498
0.610891
0.618105
0.625286
0.632194
0.638862
0.644784
0.649732
0.65333
0.655386
0.656249
0.0108006
0.0107762
0.0107623
0.0107511
0.0107448
0.0107392
0.0107364
0.0107333
0.0107318
0.0107307
0.0107298
0.0107293
0.010729
0.0107284
0.010728
0.0107279
0.0107276
0.0107272
0.0107272
0.010727
0.0107266
0.0107266
0.0107265
0.0107261
0.0107262
0.0107262
0.0107258
0.0107258
0.0107256
0.0107251
0.0107251
0.0107246
0.0107245
0.0107244
0.010724
0.0107239
0.0107237
0.0107234
0.0107234
0.0107232
0.010723
0.0107229
0.0107229
0.0107228
0.0107228
0.0107239
0.0107262
0.0107272
0.0107272
0.0107273
0.0107272
0.0107269
0.0107269
0.0107267
0.0107264
0.0107263
0.010726
0.0107256
0.0107256
0.0107252
0.0107251
0.0107249
0.0107246
0.0107246
0.0107246
0.0107242
0.0107242
0.010724
0.0107237
0.0107236
0.0107233
0.0107231
0.010723
0.010723
0.010723
0.0107228
0.0107228
0.0107227
0.0107228
0.0107243
0.0107279
0.0107334
0.0107382
0.0107401
0.0107408
0.0107414
0.0107421
0.0107439
0.0107467
0.0107511
0.0107571
0.0107643
0.0107731
0.0107844
0.0108005
0.0108256
0.0108692
0.010951
0.0111159
0.011477
0.0122845
0.0141537
0.0183639
0.0277295
0.0471893
0.0857411
0.15439
0.265683
0.429256
0.630297
0.809792
0.919886
1.00455
1.07934
1.17012
1.22695
1.2389
1.22904
1.18618
1.10174
0.977315
0.822745
0.651046
0.471241
0.295423
0.139355
0.0734867
0.0485934
0.0391601
0.0349737
0.034084
0.0342758
0.0378557
0.0461882
0.0602483
0.0791422
0.103624
0.133694
0.171271
0.215914
0.268577
0.325534
0.384395
0.441942
0.494587
0.541421
0.567666
0.576885
0.579744
0.580329
0.580246
0.578925
0.575719
0.570538
0.564327
0.557843
0.551892
0.546081
0.540389
0.535656
0.531818
0.529644
0.52723
0.526176
0.525454
0.525312
0.52545
0.526971
0.529042
0.531417
0.534496
0.538171
0.541651
0.546374
0.551445
0.556892
0.562792
0.569567
0.576582
0.584434
0.592433
0.600897
0.609539
0.618346
0.627063
0.635457
0.643054
0.650577
0.656673
0.662093
0.665393
0.667666
0.668477
0.0107938
0.0107742
0.0107583
0.0107477
0.0107407
0.0107348
0.0107318
0.0107289
0.0107273
0.0107265
0.0107258
0.0107255
0.0107254
0.0107247
0.0107244
0.0107244
0.0107241
0.0107239
0.0107239
0.0107238
0.0107237
0.0107236
0.010724
0.010726
0.0107299
0.0107324
0.0107329
0.010733
0.0107329
0.0107328
0.0107327
0.0107323
0.0107322
0.0107321
0.0107318
0.0107318
0.0107316
0.0107313
0.0107313
0.010731
0.0107308
0.0107308
0.0107302
0.0107301
0.0107301
0.0107296
0.0107294
0.0107294
0.0107289
0.0107287
0.0107287
0.0107283
0.010728
0.010728
0.0107278
0.0107275
0.0107275
0.0107272
0.0107269
0.0107269
0.0107268
0.0107264
0.0107264
0.0107263
0.010726
0.010726
0.0107258
0.0107254
0.0107254
0.010725
0.0107249
0.0107248
0.0107244
0.0107245
0.0107245
0.0107243
0.0107243
0.0107242
0.0107239
0.0107239
0.0107236
0.0107237
0.0107255
0.0107295
0.0107342
0.0107358
0.0107361
0.010736
0.0107361
0.0107371
0.0107397
0.0107447
0.0107527
0.0107647
0.0107806
0.0108035
0.0108347
0.0108821
0.010958
0.0110986
0.0113741
0.0119678
0.0132537
0.0161019
0.0221276
0.034582
0.0581641
0.0997863
0.167418
0.264669
0.398788
0.561268
0.737628
0.881407
1.01815
1.11084
1.14441
1.14221
1.11335
1.04131
0.940329
0.811259
0.682076
0.551411
0.441765
0.339489
0.259093
0.185295
0.123058
0.0740624
0.056493
0.0503435
0.0490654
0.049551
0.0555
0.0695634
0.093027
0.124932
0.164377
0.210263
0.262543
0.320149
0.381899
0.444837
0.504852
0.549372
0.565609
0.570681
0.571806
0.571881
0.571089
0.568584
0.5639
0.557611
0.550524
0.543694
0.537568
0.532561
0.528094
0.524239
0.521304
0.520126
0.519571
0.519453
0.519819
0.521648
0.524295
0.526399
0.52857
0.531209
0.534183
0.537008
0.540988
0.546017
0.551712
0.557986
0.565362
0.572953
0.581667
0.591256
0.600705
0.610624
0.620707
0.630578
0.640267
0.649974
0.658116
0.666202
0.672522
0.678063
0.681402
0.683601
0.684354
0.0108023
0.0107771
0.0107652
0.0107524
0.0107461
0.0107403
0.0107368
0.0107336
0.0107321
0.0107309
0.0107303
0.01073
0.0107294
0.0107286
0.0107284
0.0107284
0.0107278
0.0107275
0.0107275
0.0107272
0.0107269
0.0107269
0.0107267
0.0107265
0.0107265
0.0107265
0.0107262
0.0107262
0.0107261
0.0107263
0.010728
0.0107303
0.0107306
0.0107305
0.0107305
0.0107303
0.01073
0.0107299
0.0107296
0.0107294
0.0107294
0.0107291
0.0107291
0.0107287
0.0107285
0.0107284
0.010728
0.0107279
0.0107277
0.0107274
0.0107274
0.0107271
0.0107267
0.0107267
0.0107265
0.0107262
0.0107262
0.0107261
0.010726
0.0107259
0.0107264
0.0107288
0.0107326
0.0107335
0.0107335
0.0107334
0.0107331
0.0107329
0.0107326
0.0107322
0.0107322
0.0107319
0.0107317
0.0107315
0.0107315
0.0107314
0.0107314
0.0107324
0.0107335
0.0107337
0.0107337
0.0107337
0.0107336
0.0107336
0.0107335
0.0107339
0.0107351
0.0107365
0.0107372
0.0107379
0.0107392
0.0107415
0.0107451
0.0107508
0.0107595
0.0107735
0.0107941
0.0108265
0.010874
0.0109483
0.0110686
0.0112843
0.0116919
0.0125242
0.014224
0.017747
0.0246172
0.0373746
0.0595726
0.0940548
0.145292
0.211549
0.296719
0.387417
0.499318
0.600575
0.682205
0.697008
0.691435
0.651002
0.597634
0.52138
0.458401
0.383968
0.330135
0.272212
0.220255
0.168577
0.125008
0.110944
0.106414
0.102908
0.0951647
0.0859378
0.083847
0.0844902
0.0956592
0.122333
0.163569
0.21304
0.269408
0.330479
0.397012
0.465201
0.529875
0.566952
0.578831
0.582343
0.582856
0.582633
0.580625
0.576626
0.569793
0.561784
0.552973
0.545585
0.538372
0.532614
0.527545
0.524774
0.522853
0.522012
0.521743
0.521806
0.523216
0.525272
0.526185
0.526666
0.527892
0.529834
0.532476
0.536337
0.541575
0.547573
0.554713
0.563304
0.573009
0.582755
0.592955
0.603977
0.614521
0.625505
0.636293
0.647266
0.657381
0.668124
0.677204
0.686266
0.693094
0.699267
0.702656
0.705081
0.705827
0.0108061
0.0107782
0.0107664
0.0107529
0.0107443
0.0107386
0.0107345
0.0107312
0.0107296
0.0107284
0.0107278
0.0107269
0.0107266
0.0107266
0.0107262
0.0107257
0.0107257
0.0107254
0.010725
0.010725
0.0107246
0.0107244
0.0107244
0.0107241
0.0107238
0.0107238
0.0107232
0.010723
0.010723
0.0107228
0.0107224
0.0107224
0.0107222
0.0107222
0.0107219
0.0107223
0.0107243
0.0107275
0.0107286
0.0107289
0.0107291
0.0107291
0.0107292
0.0107292
0.010729
0.0107288
0.0107288
0.0107287
0.0107287
0.0107285
0.0107286
0.0107296
0.0107311
0.0107313
0.0107313
0.0107311
0.0107309
0.0107308
0.0107305
0.0107304
0.0107302
0.0107298
0.0107298
0.0107296
0.0107292
0.0107292
0.0107291
0.0107291
0.0107289
0.010729
0.0107301
0.0107325
0.0107333
0.0107334
0.0107334
0.0107334
0.0107332
0.010733
0.0107329
0.0107323
0.010732
0.010732
0.0107317
0.0107314
0.0107313
0.0107313
0.0107312
0.0107311
0.0107311
0.010731
0.0107312
0.0107325
0.0107352
0.0107403
0.0107483
0.0107601
0.0107766
0.0107998
0.0108318
0.010878
0.0109446
0.0110481
0.0112115
0.0114941
0.0119979
0.0129653
0.0147874
0.0181911
0.0243025
0.0342579
0.0499036
0.0712099
0.100344
0.132756
0.172307
0.208134
0.24776
0.261977
0.264204
0.253621
0.238672
0.213404
0.194122
0.168942
0.153663
0.137495
0.124182
0.113149
0.0983681
0.0940575
0.0934989
0.0967996
0.102943
0.112273
0.12035
0.125757
0.128449
0.133683
0.151122
0.186974
0.240799
0.30592
0.380245
0.458461
0.535897
0.578915
0.5919
0.595277
0.595606
0.595456
0.59379
0.590024
0.582301
0.571893
0.559905
0.550213
0.542913
0.538637
0.53426
0.530967
0.529619
0.529021
0.528944
0.529006
0.529254
0.52909
0.529226
0.530339
0.533037
0.536044
0.539746
0.545186
0.552835
0.560274
0.568217
0.576656
0.586329
0.595576
0.605778
0.616317
0.627271
0.638757
0.650628
0.662952
0.674726
0.687118
0.698082
0.709037
0.717404
0.725085
0.729017
0.731932
0.732744
0.0107982
0.0107697
0.0107576
0.0107456
0.0107349
0.0107302
0.010724
0.0107207
0.0107181
0.0107166
0.0107153
0.0107144
0.0107139
0.0107137
0.0107134
0.0107128
0.0107125
0.0107125
0.0107121
0.0107119
0.0107118
0.0107114
0.0107114
0.0107114
0.0107111
0.0107112
0.0107112
0.0107107
0.0107107
0.0107106
0.0107102
0.0107102
0.01071
0.0107096
0.0107096
0.0107093
0.0107092
0.0107092
0.0107091
0.0107091
0.010709
0.0107089
0.0107095
0.0107123
0.0107179
0.0107248
0.0107271
0.0107275
0.0107276
0.0107276
0.0107275
0.0107274
0.0107273
0.0107274
0.0107285
0.0107292
0.0107291
0.0107291
0.0107289
0.0107286
0.0107285
0.0107282
0.0107279
0.0107278
0.0107274
0.0107274
0.0107273
0.0107273
0.0107272
0.0107271
0.0107271
0.0107269
0.0107269
0.0107266
0.0107266
0.0107276
0.0107293
0.0107303
0.0107309
0.0107314
0.0107318
0.010732
0.0107322
0.0107323
0.0107326
0.0107329
0.0107333
0.0107334
0.0107334
0.0107333
0.0107333
0.0107343
0.0107368
0.0107408
0.0107476
0.0107585
0.0107737
0.0107937
0.0108205
0.0108567
0.0109068
0.0109759
0.011073
0.0112108
0.0114137
0.0117326
0.0122556
0.0131443
0.0146793
0.0171667
0.02117
0.0268058
0.0348556
0.0441741
0.0558849
0.0665627
0.0787754
0.0862087
0.0889081
0.0874005
0.0847774
0.078633
0.0741457
0.0672521
0.0634144
0.0593928
0.0557446
0.053112
0.0499838
0.0498133
0.0504427
0.0543864
0.0610667
0.0741648
0.092368
0.119383
0.147626
0.178104
0.204469
0.229757
0.257298
0.297529
0.356875
0.435974
0.521681
0.597072
0.625935
0.635003
0.636764
0.637065
0.634252
0.628504
0.616823
0.603563
0.586986
0.574169
0.563179
0.558408
0.553395
0.550011
0.546775
0.54519
0.544514
0.543799
0.543594
0.543094
0.543105
0.543604
0.546546
0.550412
0.555034
0.559367
0.565615
0.571224
0.578413
0.585583
0.595047
0.603816
0.615464
0.627663
0.641048
0.654959
0.669598
0.684933
0.699432
0.714693
0.727921
0.741632
0.751783
0.761691
0.766446
0.770074
0.771081
0.0108371
0.0107945
0.0107792
0.0107625
0.0107522
0.0107431
0.0107384
0.0107336
0.0107306
0.0107293
0.0107276
0.010727
0.0107263
0.0107262
0.0107258
0.0107258
0.0107256
0.0107253
0.0107253
0.0107249
0.0107247
0.0107247
0.0107245
0.0107242
0.0107242
0.0107236
0.0107235
0.0107234
0.0107233
0.0107229
0.0107229
0.0107223
0.0107222
0.0107221
0.0107221
0.010722
0.0107219
0.0107221
0.0107239
0.0107275
0.0107286
0.0107288
0.0107288
0.0107287
0.0107285
0.0107283
0.0107283
0.0107279
0.0107277
0.0107276
0.0107273
0.0107272
0.010727
0.0107267
0.0107267
0.0107264
0.0107262
0.0107261
0.0107258
0.0107258
0.0107256
0.0107253
0.0107252
0.0107249
0.0107246
0.0107245
0.0107241
0.0107239
0.0107237
0.0107232
0.010723
0.0107229
0.0107228
0.0107224
0.0107222
0.0107222
0.0107219
0.0107215
0.0107215
0.0107211
0.0107209
0.0107208
0.0107208
0.0107207
0.0107206
0.0107201
0.0107201
0.01072
0.0107199
0.0107198
0.0107195
0.01072
0.0107214
0.0107244
0.0107295
0.0107378
0.0107488
0.0107648
0.0107848
0.0108123
0.0108474
0.0108964
0.0109602
0.0110493
0.0111658
0.011327
0.0115437
0.0118514
0.0122976
0.0129463
0.0139217
0.0152637
0.0171895
0.0194574
0.0223923
0.0251291
0.0283118
0.0305667
0.0322786
0.0323688
0.032265
0.0312299
0.030549
0.0290868
0.0283542
0.0275965
0.0267917
0.0264201
0.0258894
0.0259678
0.0261058
0.0272208
0.0290698
0.0335569
0.0411829
0.0570608
0.0832232
0.125012
0.177867
0.239094
0.29568
0.351692
0.40162
0.453782
0.512187
0.588812
0.669474
0.705484
0.71523
0.718022
0.717113
0.714547
0.703238
0.686616
0.65987
0.635987
0.614092
0.60539
0.599256
0.594271
0.589316
0.585226
0.583872
0.58067
0.579389
0.57702
0.576767
0.576353
0.577614
0.579381
0.582063
0.584024
0.589979
0.594573
0.600687
0.607228
0.618891
0.62869
0.640668
0.653864
0.668423
0.683267
0.698181
0.714755
0.729407
0.74672
0.760521
0.776785
0.788001
0.800356
0.806154
0.810546
0.811791
0.0108744
0.010808
0.0107879
0.0107694
0.0107555
0.0107455
0.0107401
0.0107352
0.0107313
0.0107296
0.0107277
0.0107271
0.0107262
0.0107259
0.0107253
0.0107253
0.0107252
0.0107251
0.0107249
0.0107255
0.0107277
0.0107288
0.0107291
0.0107293
0.0107294
0.0107293
0.0107293