/*--------------------------------*- C++ -*----------------------------------*\
| =========                 |                                                 |
| \\      /  F ield         | OpenFOAM: The Open Source CFD Toolbox           |
|  \\    /   O peration     | Version:  4.1                                   |
|   \\  /    A nd           | Web:      www.OpenFOAM.org                      |
|    \\/     M anipulation  |                                                 |
\*---------------------------------------------------------------------------*/
FoamFile
{
    version     2.0;
    format      ascii;
    class       volScalarField;
    location    "4";
    object      p;
}
// * * * * * * * * * * * * * * * * * * * * * * * * * * * * * * * * * * * * * //

dimensions      [0 2 -2 0 0 0 0];

internalField   nonuniform List<scalar> 
204246
(
-23.8321
-36.5351
-37.2682
-37.4029
-37.5329
-37.5994
-37.62
-37.5985
-37.5633
-37.4958
-37.42
-37.2914
-37.1393
-36.9545
-36.8771
-36.9234
-37.2298
-37.3039
-36.9864
-36.9558
-36.8894
-36.8558
-36.7928
-36.7479
-36.694
-36.6728
-36.6428
-36.6299
-36.5651
-36.5035
-36.3894
-36.2882
-36.1666
-36.1305
-36.1826
-36.4309
-36.5286
-36.2682
-36.2835
-36.2191
-36.1838
-36.132
-36.1143
-36.0891
-36.0827
-36.0286
-35.9766
-35.871
-35.7792
-35.6652
-35.6134
-35.6417
-35.871
-35.9904
-35.7439
-35.762
-35.6911
-35.6521
-35.6027
-35.5855
-35.5593
-35.5508
-35.4987
-35.4461
-35.3446
-35.2509
-35.1232
-35.0655
-35.0868
-35.3048
-35.4094
-35.2941
-35.2065
-35.1216
-35.0618
-35.0003
-34.9691
-34.925
-34.8923
-34.8073
-34.7249
-34.6003
-34.4883
-34.3275
-34.2363
-34.1415
-34.2819
-34.2793
-34.0356
-33.9299
-33.6402
-33.4497
-33.2408
-33.0309
-32.7415
-32.4528
-32.1186
-31.824
-31.5363
-31.2993
-31.0846
-31.0568
-31.3725
-32.4968
-35.2449
-41.6566
-52.4111
-61.7667
-66.2953
-70.5073
-73.9419
-75.7586
-77.4541
-77.9453
-78.9055
-78.9338
-79.0551
-78.6683
-78.1489
-77.6108
-77.333
-77.4035
-78.0588
-78.2355
-77.6882
-78.1783
-78.1111
-78.0553
-77.8769
-78.7133
-78.8761
-79.1556
-79.3916
-79.6151
-79.7152
-79.9178
-80.1276
-80.381
-80.3624
-81.8828
-82.6802
-82.1524
-82.841
-82.5921
-83.2566
-82.9608
-83.718
-83.4797
-84.2717
-84.0403
-84.8655
-84.6406
-85.2306
-85.3609
-85.6489
-84.8291
-86.4263
-87.1512
-86.6633
-86.9621
-86.2217
-86.4537
-85.407
-85.3076
-84.1576
-83.2164
-81.4207
-80.7702
-77.9636
-75.9925
-72.6623
-69.6319
-65.2697
-60.8492
-55.7066
-49.9213
-43.2308
-35.4235
-26.9253
-17.1879
-6.25306
6.33927
20.656
37.1714
55.8526
76.9469
100.341
126.589
156.637
196.076
255.973
351.43
479.83
-33.5765
-34.4115
-35.8669
-36.8738
-37.4236
-37.6117
-37.6896
-37.6764
-37.6455
-37.5864
-37.5254
-37.4221
-37.2767
-37.1212
-37.0085
-36.9848
-37.1171
-37.1736
-37.1016
-37.0255
-36.9528
-36.9048
-36.8486
-36.8048
-36.7542
-36.722
-36.6861
-36.6679
-36.6204
-36.5785
-36.4922
-36.3936
-36.2866
-36.2207
-36.2121
-36.3497
-36.4176
-36.3684
-36.325
-36.2714
-36.2345
-36.1848
-36.1617
-36.1343
-36.1107
-36.0644
-36.052
-35.9695
-35.8789
-35.7763
-35.7058
-35.6932
-35.8078
-35.8742
-35.8302
-35.7969
-35.7424
-35.7056
-35.6555
-35.6364
-35.6038
-35.5805
-35.5354
-35.5157
-35.4401
-35.3637
-35.2491
-35.165
-35.1491
-35.2538
-35.3137
-35.302
-35.2591
-35.1929
-35.1386
-35.0807
-35.0345
-34.9933
-34.9489
-34.8877
-34.8149
-34.7134
-34.5948
-34.4892
-34.4136
-34.3609
-34.3041
-34.2429
-34.1555
-34.0257
-33.8599
-33.686
-33.4997
-33.2992
-33.0728
-32.8108
-32.517
-32.2345
-31.926
-31.5915
-31.2855
-31.1078
-31.2055
-31.9828
-33.9458
-38.6095
-49.0885
-59.3414
-66.1327
-69.981
-73.0433
-75.397
-77.1551
-78.1434
-78.831
-79.2237
-79.3169
-79.0523
-78.5118
-78.0317
-77.6431
-77.5664
-77.6774
-77.7326
-77.6829
-77.7783
-77.9172
-77.8959
-78.0059
-78.2893
-78.6911
-78.9503
-79.3013
-79.5256
-79.7804
-79.9568
-80.2109
-80.3885
-80.6349
-81.1865
-81.8379
-82.1971
-82.5057
-82.7462
-82.9918
-83.244
-83.5125
-83.8033
-84.0884
-84.4133
-84.7482
-85.1027
-85.3786
-85.7685
-85.9559
-86.1613
-86.5874
-87.0605
-87.335
-87.4966
-87.5615
-87.4242
-87.2899
-86.8851
-86.3998
-85.6986
-84.7199
-83.5023
-82.046
-80.226
-77.9476
-75.275
-71.9736
-68.2038
-63.7862
-58.8292
-52.9676
-46.2342
-38.7237
-30.2586
-20.8787
-10.2455
1.71143
15.4364
30.9767
48.5813
67.8739
88.6281
110.504
135.595
171.58
237.181
334.137
-42.1148
-39.1806
-37.8418
-37.4769
-37.498
-37.606
-37.6687
-37.6651
-37.6259
-37.5587
-37.4849
-37.3964
-37.2957
-37.1911
-37.1043
-37.0587
-37.0561
-37.0577
-37.0341
-36.9886
-36.9362
-36.8866
-36.8328
-36.783
-36.7324
-36.6923
-36.6552
-36.6201
-36.5839
-36.5433
-36.4874
-36.4227
-36.3594
-36.3034
-36.2667
-36.269
-36.2987
-36.299
-36.2756
-36.2457
-36.211
-36.1688
-36.1338
-36.1024
-36.0787
-36.0353
-35.9966
-35.9493
-35.8922
-35.8304
-35.7733
-35.7435
-35.7413
-35.7681
-35.7698
-35.7455
-35.7144
-35.6809
-35.6402
-35.6059
-35.573
-35.5467
-35.508
-35.4712
-35.4228
-35.3652
-35.2974
-35.2383
-35.2048
-35.2085
-35.2246
-35.2215
-35.1974
-35.1561
-35.111
-35.0606
-35.0148
-34.9665
-34.9267
-34.872
-34.7992
-34.7019
-34.6086
-34.5384
-34.4708
-34.4053
-34.332
-34.2392
-34.133
-33.9951
-33.8401
-33.6644
-33.4713
-33.2631
-33.0413
-32.7774
-32.5065
-32.2515
-32.0142
-31.8084
-31.6976
-31.7704
-32.2006
-33.8767
-37.9371
-42.8668
-51.3161
-60.8608
-67.0889
-71.0551
-73.4815
-75.4935
-77.1386
-78.3696
-79.1274
-79.4759
-79.3979
-79.2232
-78.8399
-78.3856
-77.938
-77.7048
-77.5662
-77.5329
-77.5458
-77.5838
-77.7164
-77.7537
-77.9249
-78.1112
-78.4282
-78.7081
-79.0532
-79.3104
-79.621
-79.8425
-80.1524
-80.3794
-80.7085
-80.9888
-81.3827
-81.7757
-82.0833
-82.3484
-82.566
-82.8017
-83.0121
-83.2654
-83.5065
-83.778
-84.0897
-84.41
-84.7022
-84.9905
-85.2938
-85.6304
-85.9809
-86.2521
-86.4465
-86.6011
-86.6014
-86.4899
-86.2254
-85.8514
-85.2743
-84.522
-83.5079
-82.2552
-80.6297
-78.6375
-76.3284
-73.5856
-70.4844
-66.8492
-62.6824
-57.8127
-52.1921
-45.8142
-38.4953
-30.2478
-20.9628
-10.6191
1.0286
14.1578
29.1346
46.0387
64.8115
84.8056
105.707
128.106
156.814
199.979
257.15
-45.3392
-42.4256
-40.3956
-39.1656
-38.4703
-38.1709
-37.9877
-37.8905
-37.7985
-37.7017
-37.5951
-37.4875
-37.3847
-37.3013
-37.2429
-37.1969
-37.1592
-37.1169
-37.0704
-37.0241
-36.9834
-36.9434
-36.9058
-36.8642
-36.8228
-36.7768
-36.7368
-36.6988
-36.654
-36.6005
-36.5414
-36.484
-36.4382
-36.4062
-36.3823
-36.3752
-36.3673
-36.3452
-36.3221
-36.3014
-36.2742
-36.2479
-36.2143
-36.1768
-36.143
-36.1151
-36.0728
-36.0152
-35.9569
-35.9144
-35.8849
-35.8569
-35.8554
-35.8459
-35.8197
-35.7944
-35.7736
-35.7475
-35.7221
-35.6878
-35.6537
-35.6158
-35.5818
-35.5316
-35.4744
-35.4256
-35.3849
-35.3494
-35.3212
-35.3243
-35.315
-35.2866
-35.2592
-35.2319
-35.195
-35.1592
-35.113
-35.0736
-35.0184
-34.9606
-34.8805
-34.8031
-34.7275
-34.6619
-34.6003
-34.5278
-34.466
-34.3912
-34.2949
-34.1754
-34.0327
-33.8806
-33.7143
-33.5326
-33.3204
-33.0489
-32.741
-32.4462
-32.1715
-31.9276
-31.8109
-31.9296
-32.4121
-34.2917
-39.1814
-45.4017
-53.6068
-62.7751
-68.5449
-72.2199
-74.0873
-75.7729
-77.1767
-78.5846
-79.3902
-79.611
-79.7613
-79.7116
-79.2711
-78.7065
-78.2741
-77.9659
-77.7258
-77.5781
-77.5279
-77.5286
-77.6015
-77.6982
-77.8887
-78.0714
-78.3702
-78.6305
-78.9713
-79.2295
-79.5537
-79.8002
-80.1189
-80.386
-80.6867
-80.979
-81.2899
-81.5994
-81.9291
-82.2072
-82.483
-82.743
-83.0085
-83.2791
-83.5525
-83.8607
-84.1719
-84.5672
-84.8678
-85.2199
-85.5685
-85.9669
-86.3037
-86.6354
-86.9638
-87.2612
-87.5139
-87.5695
-87.7166
-87.5066
-87.2993
-86.8948
-86.4167
-85.7273
-84.7308
-83.3784
-81.531
-79.2552
-76.4933
-73.2728
-69.515
-65.1791
-60.1122
-54.3005
-47.6971
-40.2151
-31.8333
-22.4407
-11.9645
-0.22063
12.8714
27.4062
43.3397
60.7042
79.6968
101.463
128.739
163.524
201.935
-46.845
-44.0497
-41.9652
-40.4341
-39.3892
-38.7308
-38.3218
-38.0607
-37.8699
-37.7118
-37.5725
-37.4527
-37.3422
-37.2522
-37.1773
-37.1273
-37.0838
-37.0561
-37.0207
-36.9709
-36.9164
-36.8643
-36.8149
-36.7794
-36.7387
-36.6977
-36.6604
-36.6265
-36.5884
-36.5445
-36.4957
-36.4461
-36.4009
-36.3578
-36.3291
-36.2969
-36.2801
-36.2753
-36.2501
-36.2198
-36.1931
-36.1614
-36.1371
-36.1014
-36.0654
-36.0325
-36.0046
-35.9619
-35.9098
-35.8637
-35.8203
-35.7894
-35.7606
-35.7497
-35.7455
-35.7218
-35.6933
-35.6661
-35.6321
-35.6089
-35.5777
-35.5526
-35.5188
-35.4825
-35.4335
-35.3789
-35.3351
-35.2936
-35.2582
-35.223
-35.2146
-35.2005
-35.1734
-35.1364
-35.1051
-35.0668
-35.0385
-34.9923
-34.9626
-34.9108
-34.8446
-34.7486
-34.6898
-34.6454
-34.5891
-34.5309
-34.4579
-34.3781
-34.2924
-34.1812
-34.0554
-33.911
-33.7646
-33.6127
-33.4389
-33.2283
-32.9984
-32.7556
-32.5037
-32.2645
-32.1476
-32.2526
-32.6767
-34.0592
-38.0836
-44.4235
-52.0138
-60.8003
-67.859
-71.4406
-73.97
-75.4059
-76.7103
-78.0511
-79.1607
-79.9637
-79.996
-79.7318
-79.1125
-78.6909
-78.1623
-77.7201
-77.4029
-77.2126
-77.1009
-77.0446
-77.1027
-77.2042
-77.3954
-77.604
-77.8757
-78.1734
-78.4763
-78.7802
-79.0772
-79.3696
-79.6428
-79.9395
-80.2545
-80.5585
-80.874
-81.2105
-81.4915
-81.7373
-81.976
-82.2256
-82.467
-82.7292
-83.016
-83.3124
-83.652
-83.9846
-84.3526
-84.7477
-85.1334
-85.553
-85.9464
-86.2939
-86.5944
-86.8255
-86.9104
-86.9939
-86.9338
-86.7685
-86.4207
-85.9315
-85.2604
-84.3727
-83.3588
-82.117
-80.608
-78.722
-76.4229
-73.6465
-70.368
-66.5041
-61.9975
-56.8253
-50.8731
-44.0777
-36.3678
-27.6639
-17.8986
-7.06707
4.74828
17.4003
30.8399
45.1698
60.9848
79.6469
102.962
130.967
158.95
-47.6369
-45.0886
-43.0326
-41.4508
-40.2783
-39.4351
-38.8404
-38.442
-38.1755
-37.9562
-37.7784
-37.6386
-37.5206
-37.4218
-37.3397
-37.2706
-37.2163
-37.165
-37.1124
-37.0645
-37.019
-36.975
-36.9412
-36.9013
-36.8676
-36.8291
-36.793
-36.75
-36.705
-36.6555
-36.605
-36.562
-36.5195
-36.4826
-36.4504
-36.4379
-36.4139
-36.3834
-36.3547
-36.3318
-36.3083
-36.2895
-36.2543
-36.2305
-36.1979
-36.1653
-36.1184
-36.072
-36.0344
-35.9979
-35.9685
-35.934
-35.9204
-35.8978
-35.8629
-35.8336
-35.8091
-35.7853
-35.7669
-35.7313
-35.699
-35.6632
-35.6309
-35.5841
-35.5419
-35.5066
-35.4705
-35.44
-35.4059
-35.3839
-35.3619
-35.3332
-35.3045
-35.2803
-35.2451
-35.2174
-35.1713
-35.1483
-35.089
-35.0477
-34.9772
-34.929
-34.8676
-34.7946
-34.7266
-34.664
-34.6114
-34.5443
-34.4581
-34.3613
-34.2426
-34.1166
-33.9792
-33.8379
-33.6679
-33.4714
-33.2587
-33.0468
-32.834
-32.6453
-32.5593
-32.6984
-33.1984
-34.3715
-37.5222
-43.4516
-50.4941
-58.6401
-66.1687
-71.5165
-74.6959
-75.9641
-76.994
-78.4014
-79.6321
-80.3435
-80.6792
-80.7505
-80.4732
-79.521
-78.7585
-78.1655
-77.7733
-77.4899
-77.3438
-77.279
-77.273
-77.3914
-77.5826
-77.7568
-78.0646
-78.3266
-78.6647
-78.9695
-79.2894
-79.6021
-79.931
-80.215
-80.4606
-80.71
-80.984
-81.2488
-81.5355
-81.7992
-82.0697
-82.334
-82.5954
-82.8623
-83.1482
-83.4846
-83.8074
-84.1519
-84.5222
-84.9157
-85.3215
-85.7518
-86.1577
-86.5738
-86.9828
-87.3841
-87.7465
-88.0245
-88.3131
-88.4266
-88.5292
-88.5412
-88.3868
-88.0089
-87.2881
-86.2469
-84.8597
-83.1228
-80.9911
-78.4495
-75.4574
-71.9695
-67.8825
-63.1877
-57.8125
-51.6538
-44.6389
-36.6453
-27.6389
-17.6289
-6.76003
4.81205
17.0114
29.9069
43.9562
60.3656
79.9814
102.664
124.202
-47.6143
-45.4148
-43.5231
-41.9675
-40.7469
-39.832
-39.1389
-38.634
-38.2387
-37.9726
-37.7476
-37.5785
-37.4403
-37.3339
-37.2389
-37.1607
-37.0833
-37.0393
-37.0081
-36.9663
-36.9134
-36.8624
-36.8107
-36.7737
-36.7299
-36.6951
-36.6611
-36.6286
-36.5937
-36.5553
-36.5193
-36.4763
-36.4334
-36.3909
-36.3602
-36.3158
-36.2863
-36.2783
-36.2508
-36.2195
-36.1928
-36.1578
-36.1342
-36.095
-36.068
-36.0423
-36.0156
-35.9777
-35.9341
-35.8937
-35.8493
-35.8213
-35.7781
-35.7551
-35.7518
-35.7268
-35.6959
-35.6687
-35.6335
-35.6129
-35.5754
-35.547
-35.5176
-35.4931
-35.4508
-35.4075
-35.3678
-35.3243
-35.2945
-35.2538
-35.2236
-35.2057
-35.179
-35.1472
-35.1227
-35.0806
-35.0538
-34.999
-34.9849
-34.9282
-34.8929
-34.8258
-34.7821
-34.7463
-34.6983
-34.6533
-34.5978
-34.5394
-34.4787
-34.3977
-34.3058
-34.2026
-34.1044
-34.0007
-33.8827
-33.7325
-33.5684
-33.3995
-33.2366
-33.0985
-33.0456
-33.1874
-33.6825
-34.7603
-37.0931
-41.8191
-48.1435
-55.5267
-63.0052
-69.1496
-72.4972
-74.6292
-76.3802
-77.7189
-78.8651
-79.6352
-80.1401
-79.924
-79.2843
-79.1871
-78.5179
-77.8323
-77.2038
-76.8656
-76.7448
-76.6655
-76.6557
-76.6068
-76.7658
-77.0855
-77.3584
-77.6577
-77.9159
-78.2458
-78.5036
-78.8539
-79.1689
-79.4835
-79.8145
-80.1341
-80.4571
-80.7564
-81.004
-81.255
-81.4998
-81.7438
-82.0085
-82.3031
-82.5711
-82.9095
-83.2583
-83.6463
-84.0403
-84.4709
-84.9011
-85.3308
-85.7546
-86.1777
-86.5832
-86.9492
-87.246
-87.4529
-87.509
-87.5107
-87.3972
-87.2013
-86.941
-86.601
-86.1917
-85.5898
-84.7386
-83.5662
-82.0203
-80.042
-77.606
-74.6797
-71.1956
-67.1589
-62.5018
-57.1449
-51.0039
-43.9764
-36.0337
-27.198
-17.5655
-7.24409
3.68926
15.315
28.009
42.571
59.361
78.121
95.3659
-47.1332
-45.2584
-43.5874
-42.2065
-41.0868
-40.1772
-39.4768
-38.926
-38.5075
-38.1865
-37.9522
-37.765
-37.6201
-37.5036
-37.4091
-37.3303
-37.2658
-37.2052
-37.1476
-37.0943
-37.0472
-37.0031
-36.9711
-36.9296
-36.8965
-36.8621
-36.8309
-36.7825
-36.7348
-36.6934
-36.6508
-36.6155
-36.5745
-36.5374
-36.5044
-36.4974
-36.4678
-36.4244
-36.3904
-36.3666
-36.3439
-36.3292
-36.2955
-36.2724
-36.236
-36.1932
-36.1456
-36.1155
-36.0865
-36.0533
-36.0269
-35.9912
-35.9777
-35.9439
-35.8996
-35.8677
-35.8448
-35.8219
-35.8071
-35.7722
-35.7517
-35.7157
-35.6805
-35.6302
-35.5949
-35.5636
-35.5293
-35.5015
-35.4652
-35.4473
-35.4134
-35.3769
-35.3506
-35.3267
-35.2927
-35.2724
-35.2307
-35.2253
-35.153
-35.0989
-35.0543
-35.0258
-34.9743
-34.9042
-34.8443
-34.7891
-34.7438
-34.6911
-34.6275
-34.5581
-34.4739
-34.3897
-34.297
-34.203
-34.0949
-33.9784
-33.8602
-33.7503
-33.6498
-33.5806
-33.5862
-33.7526
-34.2059
-35.1464
-36.9973
-40.3891
-45.46
-51.8774
-58.9426
-65.5087
-70.4789
-73.7532
-76.0211
-77.9
-79.595
-81.0167
-81.6672
-81.5814
-81.4066
-80.284
-79.3543
-78.5084
-77.7161
-77.2115
-76.9123
-76.8055
-76.8581
-77.0694
-77.201
-77.3362
-77.6646
-77.9432
-78.2844
-78.6222
-78.967
-79.2662
-79.5974
-79.8815
-80.1332
-80.391
-80.6567
-80.9175
-81.1864
-81.4342
-81.7004
-81.9672
-82.2195
-82.488
-82.7958
-83.1087
-83.4452
-83.8133
-84.2051
-84.623
-85.0637
-85.5258
-85.9765
-86.4432
-86.9122
-87.3832
-87.8446
-88.2962
-88.7322
-89.0869
-89.386
-89.5573
-89.5818
-89.4473
-89.0914
-88.5269
-87.7047
-86.6293
-85.2458
-83.5005
-81.3395
-78.7434
-75.6481
-72.0398
-67.861
-63.0407
-57.5254
-51.2457
-44.1913
-36.3781
-27.8682
-18.7211
-8.95967
1.51386
13.008
25.9944
40.6184
56.5367
70.8054
-46.0597
-44.5398
-43.162
-42.0014
-41.0024
-40.1715
-39.5122
-38.9651
-38.528
-38.1827
-37.906
-37.6974
-37.5261
-37.3943
-37.2743
-37.176
-37.0774
-37.0209
-36.9883
-36.9538
-36.9074
-36.8622
-36.8091
-36.771
-36.7256
-36.6948
-36.6638
-36.636
-36.6066
-36.5708
-36.5398
-36.5006
-36.4598
-36.4165
-36.3847
-36.3364
-36.307
-36.2989
-36.2658
-36.2303
-36.2014
-36.165
-36.1443
-36.1029
-36.078
-36.0559
-36.0353
-35.9968
-35.9566
-35.918
-35.8734
-35.8469
-35.7996
-35.7745
-35.7729
-35.7436
-35.709
-35.6801
-35.6425
-35.622
-35.5794
-35.5574
-35.5304
-35.5073
-35.4749
-35.435
-35.397
-35.3557
-35.3302
-35.2803
-35.2472
-35.23
-35.2004
-35.1686
-35.1449
-35.1017
-35.0799
-35.0239
-35.0296
-34.9935
-34.9494
-34.8926
-34.8635
-34.8389
-34.8052
-34.7728
-34.728
-34.6835
-34.6416
-34.5875
-34.5344
-34.4724
-34.4159
-34.3553
-34.2892
-34.2137
-34.1437
-34.0763
-34.0275
-34.0151
-34.0802
-34.2852
-34.7251
-35.5434
-37.0248
-39.566
-43.424
-48.533
-54.5437
-60.7532
-66.2833
-70.6222
-73.9055
-76.4005
-78.3393
-79.8522
-80.6856
-81.0568
-80.9177
-80.1139
-78.9735
-78.0265
-77.2279
-76.6683
-76.3256
-76.2021
-76.0769
-76.0304
-76.2625
-76.6362
-76.8026
-77.1147
-77.3724
-77.7218
-78.066
-78.419
-78.7711
-79.1153
-79.4463
-79.7839
-80.0977
-80.3663
-80.6093
-80.8529
-81.0928
-81.3505
-81.6099
-81.9078
-82.2156
-82.5658
-82.9181
-83.3005
-83.7075
-84.1407
-84.5856
-85.0462
-85.5142
-85.9938
-86.4611
-86.9136
-87.3426
-87.7418
-88.0778
-88.3459
-88.5159
-88.6732
-88.7713
-88.825
-88.8553
-88.7752
-88.5195
-88
-87.1802
-85.9912
-84.3749
-82.3126
-79.7599
-76.6985
-73.0722
-68.8364
-63.9561
-58.3906
-52.145
-45.2479
-37.7439
-29.6455
-20.9418
-11.5171
-1.12994
10.5019
23.4227
37.2397
49.3966
-44.633
-43.4831
-42.4115
-41.5018
-40.6879
-40.0038
-39.4515
-38.9622
-38.5715
-38.2464
-37.989
-37.7829
-37.6353
-37.5126
-37.428
-37.3524
-37.2843
-37.2202
-37.1597
-37.1022
-37.0589
-37.0186
-36.9867
-36.9434
-36.9145
-36.8832
-36.8502
-36.8094
-36.7646
-36.725
-36.6849
-36.6502
-36.6131
-36.5814
-36.5474
-36.5417
-36.5044
-36.4522
-36.4257
-36.4029
-36.3782
-36.3646
-36.3328
-36.3126
-36.2741
-36.2313
-36.1826
-36.1541
-36.1274
-36.0966
-36.072
-36.035
-36.026
-35.9889
-35.9378
-35.905
-35.8817
-35.8572
-35.8434
-35.8097
-35.7918
-35.7501
-35.7191
-35.669
-35.6342
-35.6063
-35.5749
-35.5502
-35.5153
-35.502
-35.4615
-35.4193
-35.3928
-35.3698
-35.3376
-35.3205
-35.2795
-35.2697
-35.2086
-35.1875
-35.1329
-35.1108
-35.0612
-34.9981
-34.9459
-34.8998
-34.8687
-34.8325
-34.7862
-34.741
-34.6893
-34.6455
-34.5946
-34.5421
-34.4823
-34.4289
-34.388
-34.3654
-34.3638
-34.4052
-34.5203
-34.7552
-35.1809
-35.9052
-37.1125
-39.0637
-42.0093
-45.9896
-50.8688
-56.2675
-61.6011
-66.3658
-70.3765
-73.6707
-76.3858
-78.5845
-80.2173
-81.3335
-81.4506
-80.7558
-79.9991
-78.8709
-77.785
-77.0538
-76.58
-76.419
-76.4025
-76.4461
-76.5451
-76.6893
-77.1064
-77.4588
-77.851
-78.1799
-78.487
-78.8113
-79.1508
-79.4585
-79.7491
-80.0196
-80.2957
-80.5674
-80.8209
-81.0651
-81.3278
-81.5733
-81.8289
-82.1012
-82.3975
-82.7104
-83.0411
-83.4039
-83.8009
-84.2291
-84.6825
-85.1617
-85.6491
-86.1646
-86.6951
-87.2253
-87.7405
-88.249
-88.7545
-89.2314
-89.6753
-90.0141
-90.2474
-90.3541
-90.3314
-90.2324
-90.0412
-89.6955
-89.1487
-88.3453
-87.1949
-85.6301
-83.6091
-81.11
-78.0632
-74.4274
-70.1899
-65.333
-59.8668
-53.8195
-47.2239
-40.0705
-32.3226
-23.861
-14.4917
-4.03192
7.51659
19.7294
30.347
-42.8565
-42.0707
-41.3198
-40.6652
-40.0586
-39.5442
-39.1068
-38.716
-38.3946
-38.1093
-37.8645
-37.6662
-37.5035
-37.3803
-37.268
-37.1654
-37.0538
-36.989
-36.9538
-36.9268
-36.8897
-36.8541
-36.807
-36.7705
-36.7234
-36.6915
-36.6585
-36.6378
-36.6172
-36.5873
-36.5575
-36.5214
-36.4846
-36.4422
-36.4104
-36.3586
-36.3278
-36.3169
-36.2849
-36.2499
-36.2207
-36.1831
-36.163
-36.1234
-36.0997
-36.0799
-36.0616
-36.022
-35.9828
-35.9452
-35.9007
-35.8739
-35.8244
-35.7951
-35.7918
-35.7656
-35.731
-35.702
-35.6636
-35.6433
-35.6006
-35.5812
-35.5557
-35.5344
-35.5021
-35.4633
-35.4275
-35.3879
-35.362
-35.3131
-35.2857
-35.2659
-35.2345
-35.2006
-35.1768
-35.1377
-35.1209
-35.0719
-35.0677
-35.0238
-35.009
-34.9714
-34.9432
-34.9213
-34.8941
-34.8719
-34.8366
-34.8027
-34.7771
-34.7439
-34.7197
-34.692
-34.669
-34.6452
-34.6328
-34.6299
-34.6339
-34.6347
-34.6632
-34.7449
-34.8997
-35.1551
-35.5707
-36.2272
-37.2439
-38.7903
-41.0653
-44.1534
-48.0302
-52.5121
-57.2447
-61.8347
-66.0066
-69.6277
-72.6778
-75.1598
-77.0434
-78.3297
-78.923
-78.8375
-78.4153
-77.8055
-76.9984
-76.2148
-75.6341
-75.3152
-75.2992
-75.6317
-75.9346
-76.0054
-76.2956
-76.6244
-76.9022
-77.3242
-77.6878
-78.0721
-78.4378
-78.7922
-79.1396
-79.4721
-79.793
-80.0733
-80.3175
-80.5655
-80.808
-81.0538
-81.3234
-81.6323
-81.9382
-82.2576
-82.5916
-82.9445
-83.3308
-83.7622
-84.219
-84.7027
-85.2031
-85.7258
-86.2685
-86.819
-87.3535
-87.8686
-88.3702
-88.8789
-89.372
-89.832
-90.2725
-90.6637
-90.9652
-91.1645
-91.2573
-91.209
-90.9804
-90.5326
-89.806
-88.715
-87.2083
-85.2617
-82.8004
-79.7729
-76.1751
-72.0132
-67.3007
-62.0611
-56.3088
-50.0329
-43.176
-35.6122
-27.1763
-17.7383
-7.32182
3.63391
13.0896
-40.8758
-40.4265
-39.9952
-39.6165
-39.2446
-38.9245
-38.6369
-38.3756
-38.1585
-37.9555
-37.7805
-37.6301
-37.5073
-37.3972
-37.3306
-37.2783
-37.2437
-37.1931
-37.1362
-37.0789
-37.04
-37.0054
-36.9831
-36.9456
-36.9232
-36.8947
-36.8681
-36.8308
-36.7878
-36.7486
-36.71
-36.6756
-36.6407
-36.6134
-36.5807
-36.5763
-36.5499
-36.4934
-36.4597
-36.4345
-36.4075
-36.3924
-36.3595
-36.342
-36.3029
-36.2603
-36.213
-36.1862
-36.1594
-36.13
-36.1071
-36.0703
-36.0639
-36.0326
-35.977
-35.9402
-35.9148
-35.888
-35.8734
-35.8387
-35.8235
-35.7806
-35.7499
-35.7007
-35.6666
-35.6395
-35.6106
-35.5881
-35.5542
-35.5414
-35.506
-35.4624
-35.4332
-35.4078
-35.3752
-35.3585
-35.3193
-35.3041
-35.2474
-35.2218
-35.1684
-35.1483
-35.1169
-35.0749
-35.0367
-34.9947
-34.9704
-34.9459
-34.9159
-34.8964
-34.8705
-34.8538
-34.8373
-34.8212
-34.8061
-34.8106
-34.815
-34.8364
-34.8987
-35.0165
-35.2015
-35.4793
-35.8893
-36.4926
-37.3769
-38.651
-40.4563
-42.8778
-45.9467
-49.593
-53.6145
-57.7521
-61.7642
-65.471
-68.7756
-71.6192
-73.9684
-75.7758
-77.0119
-77.6847
-77.9014
-77.7935
-77.3326
-76.8043
-76.3933
-76.1038
-75.9712
-75.9492
-75.9004
-76.0852
-76.6426
-77.0981
-77.3778
-77.6634
-77.9725
-78.3343
-78.6922
-79.0414
-79.3564
-79.631
-79.9152
-80.1898
-80.441
-80.7021
-80.9572
-81.1828
-81.4327
-81.7125
-81.9999
-82.3037
-82.6145
-82.9496
-83.319
-83.7191
-84.1593
-84.6502
-85.1637
-85.7028
-86.2679
-86.8519
-87.4351
-88.0087
-88.5756
-89.1183
-89.6292
-90.1317
-90.625
-91.0988
-91.5429
-91.9271
-92.2515
-92.4889
-92.5802
-92.4839
-92.1663
-91.5476
-90.5497
-89.1381
-87.2582
-84.8462
-81.8864
-78.3964
-74.4084
-69.9373
-64.988
-59.5475
-53.5483
-46.8458
-39.2837
-30.7531
-21.2917
-11.3428
-2.77971
-38.6694
-38.5529
-38.43
-38.3314
-38.2057
-38.0936
-37.9733
-37.8423
-37.726
-37.6093
-37.5004
-37.4045
-37.3085
-37.2261
-37.1474
-37.0729
-36.9888
-36.9306
-36.9004
-36.8827
-36.8552
-36.8269
-36.7888
-36.7609
-36.7223
-36.6935
-36.6633
-36.6421
-36.628
-36.6048
-36.5762
-36.5431
-36.5103
-36.47
-36.4386
-36.3846
-36.3509
-36.342
-36.3151
-36.281
-36.2509
-36.2125
-36.1924
-36.1541
-36.1315
-36.113
-36.095
-36.0544
-36.0155
-35.9785
-35.9343
-35.907
-35.8531
-35.8237
-35.8194
-35.7966
-35.7631
-35.7337
-35.6956
-35.6765
-35.6358
-35.6151
-35.5903
-35.5693
-35.5364
-35.4983
-35.4632
-35.4241
-35.3994
-35.3479
-35.318
-35.3007
-35.2727
-35.2395
-35.2165
-35.1824
-35.1705
-35.1319
-35.1188
-35.0849
-35.0642
-35.0325
-35.0078
-34.9903
-34.9659
-34.9477
-34.9225
-34.8959
-34.879
-34.8623
-34.8559
-34.8494
-34.8512
-34.8564
-34.8791
-34.9136
-34.9695
-35.0426
-35.1359
-35.2646
-35.4579
-35.7384
-36.1383
-36.6986
-37.4841
-38.571
-40.0588
-42.0114
-44.4771
-47.4411
-50.7976
-54.3898
-58.0318
-61.5604
-64.8454
-67.7923
-70.3418
-72.4166
-73.9723
-74.9792
-75.5107
-75.6805
-75.5958
-75.3492
-75.063
-74.865
-74.8011
-74.8929
-75.0319
-75.1921
-75.4561
-75.8986
-76.6632
-77.2092
-77.455
-77.7517
-78.0752
-78.4565
-78.858
-79.2089
-79.5466
-79.8294
-80.0847
-80.3285
-80.5762
-80.8379
-81.1066
-81.3989
-81.6862
-81.9764
-82.2767
-82.6024
-82.9619
-83.3603
-83.795
-84.2765
-84.7974
-85.3593
-85.942
-86.5505
-87.1816
-87.8126
-88.4326
-89.048
-89.6658
-90.2591
-90.8284
-91.3966
-91.959
-92.5092
-93.0357
-93.5211
-93.9153
-94.1627
-94.2342
-94.0747
-93.5915
-92.7207
-91.4181
-89.6197
-87.2953
-84.4579
-81.1528
-77.4111
-73.2393
-68.6107
-63.4513
-57.6063
-50.8965
-43.204
-34.5737
-25.4475
-17.5658
-36.3403
-36.5263
-36.7029
-36.8964
-37.025
-37.1323
-37.2083
-37.2303
-37.2393
-37.2419
-37.225
-37.1953
-37.1684
-37.1377
-37.1133
-37.1006
-37.1065
-37.0927
-37.0519
-37.0073
-36.9826
-36.9611
-36.9499
-36.9212
-36.908
-36.8882
-36.8668
-36.8349
-36.7945
-36.7595
-36.7247
-36.6908
-36.6573
-36.6319
-36.5987
-36.5906
-36.5676
-36.5174
-36.4824
-36.4555
-36.4287
-36.4128
-36.3793
-36.3636
-36.326
-36.2845
-36.2397
-36.2127
-36.1837
-36.1548
-36.1319
-36.0933
-36.0837
-36.0552
-36.0008
-35.9636
-35.9378
-35.9109
-35.8954
-35.8614
-35.8445
-35.8055
-35.777
-35.7303
-35.6943
-35.664
-35.6356
-35.6133
-35.5759
-35.5609
-35.5299
-35.4862
-35.4573
-35.4323
-35.4013
-35.3847
-35.3484
-35.3318
-35.2797
-35.2614
-35.2083
-35.1927
-35.1456
-35.1215
-35.1064
-35.0788
-35.0471
-35.0247
-35.0125
-35.0086
-35.0033
-35.006
-35.011
-35.0267
-35.0457
-35.0789
-35.1199
-35.1874
-35.2875
-35.4318
-35.6362
-35.923
-36.317
-36.8461
-37.5579
-38.5116
-39.7753
-41.397
-43.4271
-45.8718
-48.6811
-51.7676
-55.0003
-58.242
-61.376
-64.2998
-66.9476
-69.2404
-71.1278
-72.5661
-73.5901
-74.2533
-74.6395
-74.8502
-74.9068
-74.9208
-74.958
-75.0732
-75.2717
-75.5542
-75.9226
-76.2969
-76.6823
-77.0095
-77.4404
-78.0295
-78.5225
-78.7133
-78.9664
-79.2337
-79.544
-79.8363
-80.1075
-80.3589
-80.5982
-80.8374
-81.082
-81.3571
-81.6359
-81.9171
-82.1937
-82.4798
-82.8024
-83.1677
-83.5729
-84.0262
-84.5369
-85.1098
-85.7083
-86.3156
-86.9472
-87.6064
-88.2697
-88.9217
-89.5736
-90.2398
-90.9104
-91.5597
-92.2157
-92.9018
-93.606
-94.3047
-94.9659
-95.5337
-95.966
-96.2343
-96.2679
-95.9614
-95.2449
-94.0591
-92.3644
-90.1619
-87.5003
-84.4448
-81.0236
-77.1934
-72.8754
-67.9037
-62.06
-55.1836
-47.3158
-38.8891
-31.486
-33.8754
-34.3615
-34.8204
-35.298
-35.6742
-36.0023
-36.2712
-36.4634
-36.6081
-36.7255
-36.7935
-36.8417
-36.8771
-36.8865
-36.8829
-36.8727
-36.8379
-36.8199
-36.813
-36.8082
-36.792
-36.7774
-36.7541
-36.7418
-36.718
-36.6987
-36.6784
-36.6627
-36.6506
-36.6298
-36.601
-36.5697
-36.5382
-36.5014
-36.4685
-36.4138
-36.3802
-36.3732
-36.3483
-36.3169
-36.2854
-36.2479
-36.2303
-36.1948
-36.1727
-36.1567
-36.1385
-36.0961
-36.0564
-36.0193
-35.9767
-35.9466
-35.8947
-35.8624
-35.8565
-35.8326
-35.8009
-35.7702
-35.733
-35.7146
-35.6772
-35.6561
-35.6367
-35.6183
-35.5801
-35.5403
-35.5047
-35.4667
-35.4405
-35.3934
-35.3601
-35.344
-35.3148
-35.2821
-35.258
-35.2279
-35.2183
-35.1833
-35.1711
-35.1505
-35.1279
-35.0906
-35.0642
-35.0393
-35.0236
-35.0064
-34.9848
-34.9693
-34.9595
-34.9422
-34.9459
-34.9514
-34.9722
-34.9965
-35.0386
-35.087
-35.155
-35.2559
-35.4042
-35.5838
-35.8021
-36.0835
-36.4571
-36.9456
-37.5932
-38.4426
-39.5446
-40.9327
-42.6458
-44.7032
-47.0862
-49.7492
-52.5979
-55.5339
-58.45
-61.2633
-63.8977
-66.2796
-68.3484
-70.0498
-71.3787
-72.3429
-73.0335
-73.5243
-73.8172
-74.013
-74.1658
-74.3317
-74.5295
-74.7746
-75.0867
-75.475
-75.9505
-76.4178
-76.826
-77.222
-77.6499
-78.2973
-78.858
-79.0819
-79.3186
-79.594
-79.8527
-80.1022
-80.3813
-80.649
-80.9102
-81.1959
-81.4723
-81.7436
-82.0098
-82.2819
-82.5835
-82.9273
-83.3182
-83.7661
-84.2592
-84.8199
-85.4337
-86.0688
-86.7187
-87.3819
-88.056
-88.7413
-89.4392
-90.1425
-90.852
-91.5769
-92.3269
-93.1238
-93.9743
-94.8482
-95.7124
-96.5462
-97.3171
-97.9897
-98.5127
-98.7791
-98.6766
-98.1089
-97.0412
-95.4715
-93.4366
-91.0234
-88.3018
-85.2404
-81.7628
-77.6996
-72.7701
-66.7399
-59.6315
-51.8311
-44.7779
-31.2832
-32.0752
-32.8305
-33.5714
-34.2196
-34.7712
-35.2478
-35.629
-35.9329
-36.179
-36.3604
-36.5123
-36.6208
-36.6996
-36.7617
-36.8192
-36.8679
-36.8999
-36.8965
-36.8861
-36.8811
-36.8746
-36.8768
-36.8664
-36.8661
-36.8556
-36.8416
-36.8166
-36.7858
-36.7599
-36.7318
-36.6993
-36.6683
-36.6438
-36.6118
-36.5876
-36.5587
-36.5166
-36.4874
-36.4631
-36.4389
-36.4214
-36.3908
-36.3751
-36.3422
-36.307
-36.2682
-36.2386
-36.2047
-36.1736
-36.1499
-36.1138
-36.0894
-36.055
-36.0056
-35.9722
-35.9484
-35.9239
-35.9061
-35.8743
-35.8581
-35.8221
-35.787
-35.7468
-35.7182
-35.685
-35.6545
-35.6285
-35.59
-35.571
-35.5415
-35.4979
-35.4685
-35.4446
-35.4165
-35.3987
-35.3673
-35.3502
-35.3057
-35.2798
-35.2391
-35.2067
-35.1782
-35.1699
-35.1566
-35.1283
-35.0982
-35.0781
-35.0663
-35.0805
-35.0867
-35.0926
-35.1113
-35.1532
-35.1932
-35.2406
-35.2997
-35.3917
-35.5173
-35.6848
-35.893
-36.162
-36.5189
-36.9823
-37.5809
-38.352
-39.3337
-40.5484
-42.0273
-43.794
-45.8466
-48.1637
-50.6873
-53.3378
-56.0321
-58.6947
-61.2594
-63.6593
-65.8278
-67.7036
-69.2656
-70.517
-71.5027
-72.2482
-72.8206
-73.2473
-73.5784
-73.8701
-74.1596
-74.4683
-74.8089
-75.1849
-75.6212
-76.1016
-76.6103
-77.1399
-77.6351
-78.0847
-78.4563
-78.8339
-79.2768
-79.705
-79.9194
-80.0499
-80.2609
-80.4955
-80.7472
-81.0368
-81.3132
-81.5926
-81.849
-82.1011
-82.3667
-82.6629
-83.0087
-83.419
-83.8996
-84.4585
-85.0795
-85.7422
-86.4307
-87.1338
-87.8317
-88.5264
-89.2298
-89.9422
-90.6893
-91.4678
-92.279
-93.1527
-94.0931
-95.0901
-96.1299
-97.1875
-98.2616
-99.3249
-100.31
-101.112
-101.618
-101.689
-101.269
-100.355
-98.9637
-97.1592
-95.0574
-92.679
-89.9951
-86.8709
-82.9576
-77.8877
-71.6269
-64.4507
-57.7993
-28.5386
-29.6338
-30.717
-31.7231
-32.6386
-33.4327
-34.1158
-34.6792
-35.1495
-35.5238
-35.8238
-36.0579
-36.2422
-36.3828
-36.4831
-36.5535
-36.5946
-36.6311
-36.6634
-36.6927
-36.7011
-36.7064
-36.7003
-36.7044
-36.7011
-36.6976
-36.6925
-36.691
-36.6801
-36.6586
-36.635
-36.6065
-36.574
-36.5368
-36.5049
-36.4587
-36.4297
-36.4129
-36.3834
-36.3542
-36.3207
-36.2847
-36.265
-36.2399
-36.2225
-36.1994
-36.1816
-36.1484
-36.1084
-36.0689
-36.0268
-35.9962
-35.9501
-35.9204
-35.9049
-35.8743
-35.8422
-35.8086
-35.7725
-35.7521
-35.7261
-35.7118
-35.6845
-35.6652
-35.6307
-35.5926
-35.5552
-35.5157
-35.486
-35.4417
-35.4086
-35.3863
-35.3536
-35.3273
-35.3038
-35.2741
-35.2592
-35.2362
-35.2357
-35.2138
-35.1916
-35.1539
-35.1211
-35.0944
-35.073
-35.0574
-35.0407
-35.0242
-35.0111
-35.0026
-35.0072
-35.0077
-35.0394
-35.0751
-35.1212
-35.1751
-35.2513
-35.3569
-35.506
-35.6903
-35.9227
-36.2087
-36.564
-37.0059
-37.5603
-38.2547
-39.1337
-40.2126
-41.515
-43.0635
-44.8606
-46.905
-49.1555
-51.5605
-54.0434
-56.5458
-59.0144
-61.3871
-63.5971
-65.5787
-67.2992
-68.7533
-69.9667
-70.9344
-71.7336
-72.3604
-72.8632
-73.2732
-73.645
-74.0012
-74.3636
-74.7397
-75.1481
-75.5869
-76.049
-76.5322
-77.0326
-77.5579
-78.0619
-78.498
-78.8845
-79.2516
-79.5956
-79.9363
-80.2752
-80.5793
-80.7517
-81.0085
-81.2522
-81.5008
-81.7442
-82.0174
-82.2577
-82.5199
-82.8255
-83.1854
-83.6161
-84.1235
-84.7193
-85.3898
-86.1058
-86.8384
-87.5603
-88.2732
-88.9851
-89.6957
-90.4416
-91.2332
-92.0886
-93.0212
-94.0325
-95.123
-96.3061
-97.5624
-98.8883
-100.265
-101.63
-102.878
-103.929
-104.651
-104.952
-104.775
-104.079
-102.882
-101.299
-99.4482
-97.4279
-95.2119
-92.4543
-88.5974
-83.4268
-77.056
-70.8764
-25.6415
-27.0604
-28.4831
-29.7849
-30.9845
-32.0342