/*--------------------------------*- C++ -*----------------------------------*\
| =========                 |                                                 |
| \\      /  F ield         | OpenFOAM: The Open Source CFD Toolbox           |
|  \\    /   O peration     | Version:  4.1                                   |
|   \\  /    A nd           | Web:      www.OpenFOAM.org                      |
|    \\/     M anipulation  |                                                 |
\*---------------------------------------------------------------------------*/
FoamFile
{
    version     2.0;
    format      ascii;
    class       volScalarField;
    location    "533";
    object      p;
}
// * * * * * * * * * * * * * * * * * * * * * * * * * * * * * * * * * * * * * //

dimensions      [0 2 -2 0 0 0 0];

internalField   nonuniform List<scalar> 
204246
(
134.846
1.54818
47.1659
29.9539
25.9135
33.1198
21.3949
33.1735
20.0723
33.0201
19.4219
33.6341
17.8514
33.9248
19.0622
31.2997
25.4645
19.9133
32.1787
17.3967
33.3852
17.7253
31.9841
18.4567
31.8309
18.2373
32.6863
16.4378
33.5676
16.1241
33.5164
16.5016
32.5606
18.8991
28.6091
25.1329
18.2737
30.7035
16.7986
30.1735
16.9226
29.9647
16.2446
30.3689
13.9338
30.3509
13.2911
28.3789
13.9767
24.5639
13.6326
20.3154
15.8723
7.75673
15.4958
4.9959
9.98232
-0.269282
3.39977
-7.19858
-3.37346
-16.7612
-10.7837
-25.6648
-19.0048
-33.2214
-27.4724
-39.0706
-33.9864
-37.1971
-45.0406
-34.4493
-41.7775
-30.786
-35.2464
-23.7816
-26.5751
-13.5872
-18.1522
-3.47683
-9.0273
5.26745
-0.1876
10.8738
7.52629
15.079
16.4164
12.1591
22.3608
13.7272
26.6041
14.4215
29.0115
13.3754
30.7756
13.4918
31.3078
13.786
31.071
14.7913
29.0975
15.7843
28.0981
16.6122
26.095
20.1542
16.3846
24.788
13.1174
25.8542
9.69859
25.2954
8.553
22.8891
7.13542
20.2325
5.18367
17.1883
2.94489
13.5426
0.895322
8.43467
2.23192
-5.18955
3.25929
-9.95247
0.139085
-14.4698
-3.10124
-18.695
-5.90024
-22.1551
-7.97754
-24.4074
-9.45127
-25.3083
-10.6359
-24.1269
-13.1084
-17.78
-22.8084
-10.5847
-24.0835
-7.97397
-23.2125
-6.22474
-22.0125
-4.80597
-20.6639
-3.50512
-19.233
-2.32184
-17.4683
-1.57033
-14.3444
-2.61747
-6.88568
-10.8806
1.28824
-11.1848
4.93066
-8.91357
7.40762
-5.07133
10.2733
-0.346189
14.254
5.46607
19.4276
12.5041
25.7791
21.5264
33.8075
33.1073
43.3365
49.901
52.1302
66.0075
70.5435
83.8652
93.6113
106.993
121.332
136.24
156.18
174.011
202.299
224.959
268.858
297.805
385.535
401.459
608.499
50.2475
30.0416
28.0813
32.7409
25.6766
30.2584
24.6659
29.1169
24.1105
28.6395
23.7053
28.6524
23.6191
27.6967
24.9943
25.4949
28.1824
22.5506
28.0113
22.7183
27.6469
23.2289
27.2267
23.0611
27.3817
22.6765
27.846
22.2332
27.6537
22.3101
27.2633
22.7689
26.1848
24.2436
24.064
27.0446
21.5099
26.458
21.869
25.8844
21.5731
25.8066
20.9389
25.8353
20.1214
24.874
19.6718
23.3903
19.2391
21.5512
18.8082
17.4968
19.3196
13.7748
13.6269
10.268
9.71966
5.6882
3.78008
-0.855239
-3.18986
-8.92497
-11.6511
-17.0772
-20.9936
-25.1067
-29.916
-32.3994
-37.5796
-34.251
-42.427
-38.4885
-41.5722
-36.263
-36.0981
-30.5576
-27.7539
-21.484
-18.0148
-12.1956
-8.14312
-3.45778
0.891891
3.70794
8.25821
8.85515
14.899
12.7318
19.3252
15.8898
21.5651
17.9799
23.5926
18.7897
24.4729
19.4561
24.8588
19.9442
24.6745
20.5656
24.0715
20.6268
23.4018
21.1813
21.6791
23.0899
18.5815
22.3461
17.4021
21.864
16.0878
20.2105
15.0253
18.2783
13.232
16.3284
11.0001
13.8575
8.74989
10.4318
6.9838
5.20558
6.54094
-0.0996715
0.864116
-4.43765
-2.42011
-8.54806
-6.11203
-12.3419
-9.76673
-15.5581
-12.9476
-18.0628
-15.1575
-19.3469
-16.8261
-18.7662
-18.7391
-15.8308
-20.8721
-15.0847
-19.8001
-13.942
-18.4461
-12.5737
-17.03
-11.2575
-15.6436
-10.0171
-14.2313
-8.94646
-12.5393
-8.29205
-9.98297
-8.745
-5.72043
-9.6861
-3.87027
-7.71845
-1.83906
-5.16544
0.641775
-2.3141
3.69517
1.27229
7.52417
5.88353
12.3407
11.7885
17.8069
19.596
24.8213
29.4048
33.0454
41.822
45.5208
54.6129
61.1797
70.7142
80.4018
90.8694
103.911
115.498
132.68
145.497
168.706
182.135
217.386
224.031
298.752
264.192
398.872
25.3844
35.808
29.982
32.2776
27.4292
30.1009
25.3736
29.1505
24.4699
28.639
24.0166
28.3453
23.9493
27.6175
24.7977
26.0304
26.5572
23.9978
27.236
23.2421
27.453
23.1404
27.3209
23.0248
27.3225
22.7895
27.4715
22.4852
27.4313
22.4567
27.1325
22.8305
26.276
23.8535
24.5593
25.392
22.7444
25.8022
22.0671
25.7966
21.611
25.6733
21.0716
25.4549
20.4058
24.7645
19.9534
23.318
19.6731
21.0576
19.4448
17.8711
17.7729
14.6075
14.6879
10.908
10.0088
6.06737
4.47882
-0.144114
-2.42946
-7.65746
-10.9652
-16.0285
-20.1439
-24.6249
-29.195
-32.4199
-37.1072
-37.9068
-42.1171
-39.8336
-41.751
-37.977
-37.2606
-31.7266
-29.3749
-22.6183
-19.1767
-12.6934
-8.74582
-3.40444
0.709324
4.26213
8.33123
10.1132
14.1799
13.9328
18.4557
17.1231
21.1312
18.641
23.3039
19.1943
24.4854
19.7056
25.0039
20.1113
24.9478
20.4959
24.4623
20.7032
23.6615
21.1304
22.0904
22.0181
19.7348
22.0005
18.0211
21.5879
16.489
20.3794
15.102
18.6944
13.452
16.5507
11.493
13.7655
9.57152
10.0985
7.79516
5.59477
5.10551
1.00975
1.42698
-3.22662
-2.80503
-7.34381
-6.69799
-11.3284
-10.1948
-14.8721
-12.9956
-17.6432
-15.113
-19.1648
-16.7638
-19.0297
-18.4366
-17.1985
-19.6756
-15.7822
-19.3937
-14.1684
-18.3219
-12.6345
-16.9585
-11.2086
-15.5467
-9.89518
-14.0772
-8.77867
-12.3287
-8.06675
-9.846
-8.15384
-6.60972
-8.21795
-4.12783
-7.09046
-1.64835
-5.02289
0.682612
-1.90651
3.39636
2.04304
6.98078
6.86532
11.6941
12.8648
17.7819
20.3419
25.3276
29.8787
34.9728
41.5116
46.5342
55.5562
62.1681
72.4149
82.0862
93.3511
106.901
119.428
138.013
151.89
177.548
192.23
231.932
239.856
316.015
294.745
383.525
11.0372
26.3806
22.1238
28.6972
24.4252
28.3401
25.1034
27.564
25.2376
26.996
25.2929
26.6318
25.5673
25.8966
26.3064
24.8974
27.1344
24.4364
26.538
24.6105
26.091
24.7826
25.8971
24.6413
25.9143
24.4457
25.963
24.3639
25.7249
24.4514
25.3409
24.746
24.6758
25.3361
23.8005
25.8835
23.3609
25.2101
23.4648
24.7675
23.2672
24.5454
22.948
24.249
22.6333
23.4862
22.3891
22.3809
21.7674
21.2539
21.1206
19.1453
19.68
16.7188
16.3427
13.5438
12.5482
9.12931
7.35359
3.27794
0.665018
-4.00286
-7.69236
-12.547
-17.2765
-21.7787
-27.2174
-30.6777
-36.3161
-37.566
-42.4669
-42.4126
-44.0345
-41.7437
-41.0805
-36.4882
-33.5782
-27.7348
-23.3718
-17.476
-12.4606
-7.45761
-2.32701
1.21908
6.12679
7.91264
12.7786
12.9512
16.6444
17.0062
19.5572
19.4024
21.4517
20.6881
22.3365
21.4243
22.8233
21.8998
22.8964
22.2161
22.7331
22.2845
22.2547
22.5261
21.2813
22.8508
20.4724
21.7907
19.649
20.8359
18.8261
19.3645
17.745
17.7399
16.0969
15.9835
14.119
13.6228
11.962
10.5958
9.72566
6.86844
6.85898
3.05372
2.38412
-0.837327
-2.29569
-4.89768
-6.68929
-8.99576
-10.8253
-12.7694
-14.4396
-15.7687
-17.1751
-17.669
-18.8736
-18.2014
-19.8731
-17.6216
-19.8871
-17.3168
-18.8092
-16.3957
-17.3576
-15.1747
-15.8303
-13.8757
-14.4018
-12.6629
-13.0111
-11.6672
-11.4829
-10.9088
-9.6412
-10.3297
-7.87966
-9.14162
-6.57484
-7.42342
-5.06813
-5.31618
-3.00493
-2.90893
-0.46091
0.0818636
2.81356
3.82435
6.96293
8.57314
11.9857
14.8281
18.3187
22.6058
26.1997
32.4323
36.5847
43.537
49.664
57.0097
65.6816
73.516
85.1099
93.4204
108.64
117.421
137.99
145.087
178.131
173.016
230.503
217.368
288.465
12.2168
26.878
22.0792
27.4976
24.9798
27.5055
25.5842
27.2168
25.578
26.8614
25.5011
26.481
25.6544
25.8968
26.0245
25.2667
26.3078
25.0959
26.002
24.966
25.8669
24.8317
25.8306
24.6421
25.7987
24.4959
25.7339
24.4603
25.5426
24.4925
25.208
24.7072
24.6758
24.9663
24.0866
25.0506
23.8986
24.7155
23.6686
24.5535
23.323
24.3646
22.9851
24.0413
22.6585
23.4731
22.4637
22.4759
21.8486
21.1082
20.9995
19.4616
19.4142
17.3796
16.9301
14.2345
13.3287
10.1364
8.51772
4.6877
2.17401
-2.23982
-5.88336
-10.6712
-15.409
-20.2525
-25.7716
-30.059
-35.7356
-38.603
-43.0394
-43.8547
-46.1462
-44.1497
-43.6924
-39.1415
-36.1342
-29.8145
-25.251
-18.6471
-13.5425
-7.78978
-2.81098
1.41064
5.97111
8.53835
12.4094
13.875
16.9001
17.3562
19.7208
19.7249
21.5235
21.0475
22.5147
21.7479
23.0967
22.1972
23.1993
22.4127
23.0726
22.4733
22.581
22.5656
21.7737
22.3526
21.1151
21.7073
20.204
20.8049
19.2499
19.5938
18.0552
18.1336
16.5124
16.333
14.7132
13.9435
12.6114
10.9786
10.0884
7.6735
6.93947
4.11114
3.11756
0.13568
-1.35059
-4.05108
-5.79608
-8.2279
-10.0609
-12.0571
-13.8598
-15.2668
-16.8126
-17.4841
-18.7272
-18.5237
-19.5798
-18.6004
-19.4527
-18.0375
-18.5033
-16.8212
-17.1299
-15.3596
-15.6226
-13.8458
-14.1413
-12.4532
-12.6551
-11.3158
-11.0661
-10.4329
-9.39354
-9.33292
-7.67594
-8.15621
-6.37249
-6.57439
-4.70343
-4.6966
-2.64481
-2.28731
4.23483e-05
0.698735
3.36379
4.48184
7.593
9.37905
12.8579
15.6237
19.514
23.551
27.8758
33.3275
38.5583
45.3038
52.1832
59.9376
69.225
77.8655
90.3191
99.6877
116.139
125.787
148.291
156.051
190.397
187.338
236.625
225.264
270.361
9.87927
21.8593
18.8999
24.0533
22.8703
25.523
24.5449
26.0471
25.326
26.0123
25.7531
25.772
26.0709
25.4313
26.3505
25.1051
26.4135
25.2445
25.9088
25.3907
25.5895
25.4129
25.4572
25.3124
25.3885
25.2259
25.2951
25.2308
25.0957
25.3032
24.7838
25.307
24.4886
25.4686
24.0892
25.266
24.0173
24.7625
24.1597
24.4007
24.0395
24.1876
23.9443
23.8797
23.796
23.4085
23.3639
22.9487
22.9826
22.0692
22.2813
20.7889
20.9901
18.9864
18.7812
16.4501
15.6091
12.7926
11.166
7.74173
5.11837
1.06392
-2.76856
-7.39528
-12.4767
-17.4251
-23.5213
-28.2855
-34.7546
-38.5573
-44.1915
-46.2204
-49.2967
-48.6406
-48.5358
-44.9445
-41.8073
-35.9907
-30.6763
-24.1255
-17.9457
-12.0197
-5.92508
-1.42739
4.03105
6.90749
11.3838
12.9049
16.1615
17.1215
19.1433
19.8669
20.9941
21.3635
21.9331
22.1826
22.3732
22.6016
22.5338
22.8293
22.5026
22.9013
22.2334
22.8962
21.8881
22.6524
21.4956
21.9953
20.9431
21.0619
20.2351
19.8875
19.1801
18.5691
17.743
16.984
16.018
14.9102
14.0031
12.2619
11.5067
9.10686
8.38232
5.50932
4.39432
1.57673
-0.128821
-2.80896
-4.83674
-7.36557
-9.51711
-11.7316
-13.7954
-15.4598
-17.2672
-18.1583
-19.5755
-19.5631
-20.6113
-19.8157
-20.3079
-19.2416
-19.206
-18.0562
-17.5942
-16.6719
-15.8909
-15.2031
-14.4152
-13.8729
-13.092
-12.7683
-11.8432
-11.8676
-10.5933
-10.9617
-9.40397
-9.65012
-8.28815
-8.27547
-6.94826
-6.64229
-5.27176
-4.73898
-3.14511
-2.38969
-0.480477
0.602701
2.85331
4.47035
7.0176
9.42483
12.2539
15.6792
18.936
23.4094
27.5657
32.7055
38.4194
44.0094
51.8691
57.8182
68.3086
74.5592
88.3599
94.3437
113.166
116.406
146.826
140.377
181.558
179.05
219.643
12.7275
23.0575
19.6691
23.9251
23.077
25.1079
24.605
25.7095
25.3516
25.8274
25.68
25.7313
25.9352
25.4417
26.1188
25.2429
26.0193
25.4435
25.6371
25.5037
25.4421
25.4185
25.3526
25.2884
25.2608
25.2028
25.1416
25.1931
24.9712
25.1957
24.7341
25.208
24.4884
25.1407
24.2533
24.915
24.262
24.4756
24.1975
24.2223
24.005
23.9608
23.8323
23.7589
23.666
23.389
23.3412
22.8324
22.87
22.0758
22.2036
21.0291
21.0632
19.566
19.2407
17.314
16.5216
14.1032
12.6098
9.59794
7.13579
3.44522
-0.228244
-4.66759
-9.68797
-14.8258
-21.06
-26.5422
-33.3489
-38.4381
-44.4649
-47.9216
-51.6546
-52.0106
-52.3971
-49.1289
-45.8958
-39.6325
-33.8207
-26.5107
-19.9412
-13.1971
-7.00934
-1.77875
3.51471
7.1499
11.2348
13.5105
16.3486
17.6229
19.4591
20.3354
21.4179
21.8078
22.4455
22.6767
22.8625
23.0924
22.9899
23.2273
22.9374
23.1825
22.6729
23.0502
22.3015
22.7689
21.9004
22.1728
21.3625
21.3004
20.6125
20.2672
19.5647
19.0122
18.2295
17.4291
16.6053
15.443
14.6237
13.0142
12.2012
10.1225
9.15815
6.80263
5.42223
2.90773
1.11132
-1.49234
-3.57224
-6.13142
-8.37047
-10.6854
-12.9094
-14.7316
-16.7142
-17.8153
-19.363
-19.6488
-20.6555
-20.2396
-20.6394
-19.6953
-19.5958
-18.4323
-17.8828
-16.735
-16.0746
-14.9702
-14.3659
-13.4252
-12.7829
-12.1375
-11.3102
-11.0064
-9.91896
-9.91093
-8.60374
-8.7753
-7.44425
-7.42376
-6.10603
-5.86872
-4.42536
-3.98769
-2.29326
-1.63383
0.419031
1.39031
3.79703
5.35139
8.08346
10.4177
13.561
16.8101
20.5561
24.7597
29.5248
34.5464
40.9039
46.5673
55.0261
61.2258
72.3303
78.8332
93.2822
99.4076
119.031
121.255
149.194
145.847
177.058
173.216
202.018
11.8724
21.1491
18.2645
22.2785
21.8
23.8604
23.7642
24.8747
24.9178
25.3094
25.5842
25.3818
25.9929
25.2814
26.1861
25.2746
26.0483
25.5523
25.647
25.6876
25.4372
25.69
25.3343
25.6329
25.2382
25.5839
25.1319
25.5664
25.0396
25.5476
24.8848
25.5031
24.6695
25.4246
24.3463
25.0888
24.2876
24.6271
24.4485
24.371
24.3845
24.1816
24.3195
24.0136
24.2143
23.8453
23.9787
23.5171
23.7255
22.9529
23.2544
22.1301
22.3556
20.9254
20.8463
19.105
18.4983
16.3486
14.9896
12.2851
9.90272
6.49879
2.86093
-1.39173
-6.48613
-11.6598
-18.2036
-24.1567
-31.6742
-37.7639
-45.1819
-50.0982
-55.4476
-57.3321
-58.7257
-56.4663
-53.546
-47.7985
-41.4275
-33.6212
-25.7891
-18.1848
-10.5467
-4.60171
1.82593
5.92946
10.7053
13.0795
16.305
17.6267
19.4871
20.4091
21.3485
21.9862
22.2724
22.7772
22.612
23.1649
22.6812
23.3057
22.6774
23.2597
22.5415
23.2372
22.3093
23.0128
22.1535
22.4097
21.7955
21.7103
21.1668
20.8443
20.2848
19.7329
19.117
18.3187
17.6452
16.5061
15.7949
14.2138
13.4507
11.4308
10.4654
8.10124
6.7486
4.18882
2.36511
-0.335286
-2.57124
-5.30297
-7.79513
-10.3856
-12.895
-15.0826
-17.3309
-18.818
-20.5288
-21.1139
-22.0879
-21.8192
-21.9685
-21.1823
-20.6215
-19.6087
-18.7591
-17.7388
-16.7938
-15.9639
-15.038
-14.4918
-13.5891
-13.4018
-12.4173
-12.506
-11.3549
-11.623
-10.3558
-10.4918
-9.47278
-9.34747
-8.35971
-8.07668
-6.99259
-6.59959
-5.32342
-4.77003
-3.265
-2.41192
-0.683661
0.616677
2.60822
4.48628
6.83452
9.38386
12.2936
15.4853
19.3504
23.0465
28.2848
32.3646
39.4816
43.8329
53.3041
57.8202
70.2895
74.1339
91.8059
92.516
117.106
115.193
143.643
143.55
170.571
14.1454
22.4174
19.3011
22.8628
22.1828
23.8835
23.8718
24.7135
24.8741
25.1346
25.4791
25.2596
25.8292
25.2439
25.9429
25.3035
25.8046
25.5621
25.5501
25.6348
25.3747
25.5908
25.2172
25.5604
25.0827
25.5037
25.0387
25.3876
24.9865
25.3287
24.7975
25.3495
24.5865
25.2734
24.4352
24.894
24.4017
24.4366
24.335
24.2183
24.2211
24.0288
24.1475
23.8752
24.0402
23.6656
23.8958
23.3349
23.651
22.9133
23.2342
22.3169
22.4926
21.4215
21.2968
19.9781
19.4161
17.7298
16.5115
14.321
12.1725
9.26274
5.89153
2.00621
-2.8965
-8.0437
-14.625
-21.0322
-29.0206
-36.3268
-44.6989
-51.3655
-57.8919
-61.5853
-64.0742
-62.9413
-60.3565
-54.3547
-47.4114
-38.5202
-30.04
-21.5395
-13.19
-6.23146
0.429638
5.55582
10.3897
13.4734
16.5256
18.3718
19.8606
21.2196
21.9116
22.762
22.8857
23.5064
23.2469
23.8076
23.2849
23.8111
23.2264
23.6591
23.0394
23.4871
22.8179
23.1605
22.5947
22.6318
22.1962
22.0023
21.5597
21.2017
20.7215
20.1729
19.6345
18.8547
18.2877
17.1998
16.5798
15.1396
14.4017
12.6289
11.6057
9.57633
8.11557
5.82864
3.91229
1.3907
-0.956291
-3.63892
-6.27637
-8.9495
-11.6741
-14.04
-16.5521
-18.2976
-20.2648
-21.1649
-22.3314
-22.3846
-22.6667
-21.9698
-21.603
-20.367
-19.5039
-18.2053
-17.1649
-15.9758
-15.0223
-14.1081
-13.1384
-12.6257
-11.6463
-11.4595
-10.3807
-10.4082
-9.30164
-9.35204
-8.38141
-8.31224
-7.34301
-7.1549
-6.09025
-5.74889
-4.51205
-3.99482
-2.49695
-1.71107
0.056404
1.28397
3.35488
5.14103
7.63147
10.0367
13.1627
16.1858
20.2783
23.8095
29.3469
33.2339
40.621
44.7646
54.4016
58.6075
71.1847
74.4261
91.3375
91.6764
113.356
110.999
133.78
132.628
154.055
14.1372
21.8641
18.6528
22.4189
21.5395
23.3912
23.3684
24.3109
24.5619
24.868
25.3239
25.1134
25.7691
25.2171
25.9463
25.3458
25.8584
25.6119
25.5802
25.7711
25.4583
25.7906
25.3541
25.7321
25.2796
25.6862
25.1871
25.6949
25.0711
25.7112
24.9542
25.6549
24.8336
25.3832
24.6096
25.1124
24.514
24.6048
24.534
24.3533
24.4854
24.2109
24.474
24.1373
24.4968
24.0881
24.4261
23.9315
24.2852
23.6248
24.0024
23.1754
23.4402
22.4647
22.506
21.3266
20.9591
19.4934
18.4691
16.5146
14.5577
11.9301
8.7919
5.19952
0.54024
-4.40417
-11.0057
-17.6629
-26.0839
-34.2064
-43.856
-52.431
-61.3746
-67.486
-72.2448
-72.5839
-70.4379
-64.8689
-57.3123
-47.7718
-37.2622
-27.264
-17.4281
-9.16109
-1.18576
4.66502
10.3945
13.7679
16.9056
18.8601
20.2691
21.5352
22.1357
22.9128
22.9114
23.5434
23.1542
23.6786
23.1142
23.5843
23.0124
23.5116
22.8661
23.5177
22.7605
23.3473
22.7676
22.8531
22.4955
22.3806
22.0152
21.7103
21.3279
20.8061
20.3874
19.6173
19.1661
18.1108
17.569
16.1895
15.4984
13.8036
12.8267
10.823
9.44575
7.13693
5.27114
2.65924
0.278014
-2.59723
-5.40222
-8.38929
-11.4129
-14.2389
-17.1091
-19.3621
-21.6537
-22.9215
-24.2467
-24.3253
-24.5627
-23.6432
-22.9321
-21.5822
-20.437
-19.081
-17.8538
-16.7505
-15.6154
-14.9602
-13.9322
-13.8153
-12.8385
-12.9615
-11.931
-12.1399
-11.0637
-11.1548
-10.3034
-10.2181
-9.38868
-9.20424
-8.33992
-8.06081
-7.08103
-6.6781
-5.53388
-4.92182
-3.59417
-2.66802
-1.09171
0.231617
2.18105
3.92918
6.4574
8.60695
12.0251
14.5104
19.1656
21.908
28.2128
31.1308
39.522
42.4385
53.6545
55.8253
71.3534
71.1587
90.641
91.0589
111.47
111.963
132.004
15.7236
23.3413
19.6891
23.2748
22.0935
23.76
23.5771
24.3636
24.5697
24.7994
25.2139
25.0331
25.5968
25.1367
25.7695
25.2868
25.6902
25.5573
25.4293
25.6311
25.3208
25.6594
25.2186
25.6733
25.1078
25.6079
25.0344
25.4744
24.9795
25.4784
24.8759
25.4519
24.741
25.3773
24.5169
24.9521
24.5616
24.448
24.4766
24.2087
24.3284
24.0442
24.2641
23.9517
24.2654
23.8744
24.2779
23.7532
24.2334
23.5763
24.0142
23.3352
23.6195
22.9019
22.9597
22.158
21.8454
20.8452
19.9988
18.6264
16.938
14.8804
12.057
8.96307
4.58693
-0.0372778
-6.35703
-13.0597
-21.7588
-30.8698
-41.8795
-52.5001
-63.4093
-72.3406
-79.3192
-82.3294
-82.1765
-77.0967
-69.3257
-58.1143
-46.4481
-34.2946
-23.185
-13.2708
-4.2607
3.16467
9.5572
14.098
17.3894
19.7818
21.0671
22.5538
23.0648
23.9898
23.7928
24.5487
24.0762
24.5652
23.9832
24.2754
23.7409
24.0589
23.3757
23.8508
23.2086
23.5297
23.1548
23.1111
22.8814
22.6607
22.4159
22.0535
21.7919
21.2554
20.9511
20.2114
19.8732
18.9051
18.4672
17.2293
16.6168
15.1194
14.1879
12.4314
11.057
8.98937
7.0926
4.679
2.21971
-0.568702
-3.52604
-6.57402
-9.84116
-12.8879
-16.113
-18.7352
-21.4238
-23.1861
-24.8439
-25.4903
-25.8729
-25.3912
-24.7334
-23.3153
-21.9293
-20.3304
-18.7744
-17.3347
-15.7899
-14.8094
-13.3323
-12.9143
-11.7777
-11.7385
-10.6887
-10.8071
-9.80302
-9.82948
-9.18473
-9.09331
-8.51135
-8.31242
-7.64607
-7.38373
-6.58273
-6.22058
-5.22328
-4.66476
-3.45212
-2.59751
-1.10892
0.10588
1.99662
3.58482
6.08604
8.01393
11.4158
13.583
18.2581
20.6014
26.8706
29.3165
37.5709
39.8618
50.8358
51.9265
66.424
66.282
82.6245
82.5631
99.7517
99.8947
116.895
15.8416
23.4332
19.5652
23.338
21.8117
23.8454
23.3576
24.3811
24.4259
24.8059
25.1523
25.0501
25.6129
25.1801
25.7999
25.3528
25.7655
25.6405
25.5466
25.814
25.429
25.8449
25.3675
25.8142
25.3091
25.8152
25.2136
25.835
25.0783
25.8059
25.0418
25.7315
24.9217
25.5665
24.7998
25.1926
24.7856
24.6014
24.5925
24.3306
24.5259
24.1953
24.516
24.1573
24.6117
24.1847
24.7013
24.1879
24.6912
24.0634
24.5356
23.9111
24.2676
23.6209
23.7673
23.0863
22.9171
22.0808
21.4029
20.228
18.8118
17.0488
14.6042
11.8918
7.98496
3.72011
-2.29916
-8.8446
-17.4418
-26.7047
-38.3542
-51.1077
-65.0061
-77.8526
-88.8322
-94.5813
-96.0485
-91.8188
-82.9409
-70.5919
-56.0188
-42.2762
-28.52
-16.9027
-6.58934
1.88856
9.79839
15.2409
17.8589
21.0703
21.6372
23.2027
23.4945
24.1299
23.9307
24.5014
23.9841
24.3454
23.7265
23.9934
23.3429
23.8715
23.1321
23.7838
23.1354
23.6444
23.2803
23.2749
23.1242
22.9851
22.7863
22.4835
22.2762
21.7773
21.5445
20.8259
20.5667
19.6311
19.2703
18.1006
17.5538
16.1614
15.3062
13.6449
12.3767
10.3935
8.5905
6.20254
3.79987
0.93719
-2.08142
-5.37113
-8.88493
-12.3748
-16.0285
-19.2438
-22.4802
-24.7409
-26.906
-27.6008
-28.2677
-27.2871
-26.4245
-24.5057
-22.8523
-20.9232
-19.2297
-17.7532
-16.1591
-15.4361
-14.1001
-13.9916
-13.0542
-13.2331
-12.3179
-12.5595
-11.5828
-11.5864
-10.8713
-10.7627
-10.1298
-10.0083
-9.33315
-9.16587
-8.4192
-8.19325
-7.32786
-6.99296
-5.97547
-5.42715
-4.20268
-3.38746
-1.81697
-0.766311
1.35564
2.62729
5.50785
6.9658
10.9327
12.48
17.902
19.4427
26.7362
28.1246
37.9872
38.5903
50.9943
52.1275
66.311
67.8284
82.9746
84.099
99.9645
17.6481
24.8467
20.6486
24.2956
22.3997
24.3931
23.6078
24.6134
24.4774
24.8291
25.0908
24.9896
25.4703
25.1009
25.6442
25.2594
25.6219
25.5217
25.4028
25.659
25.3069
25.7223
25.2105
25.7423
25.1227
25.6849
25.0579
25.615
25.0046
25.6111
24.9481
25.5762
24.8006
25.5086
24.578
25.0826
24.6391
24.528
24.6017
24.197
24.4038
24.0134
24.3226
23.9304
24.3542
23.936
24.4692
23.9567
24.6134
24.0396
24.5036
24.0437
24.3169
23.9273
24.0508
23.6812
23.5612
23.1286
22.6104
21.9408
20.7859
19.5959
17.515
15.4232
12.0193
8.43331
3.06869
-2.99666
-11.44
-21.3276
-33.7956
-47.7721
-63.7227
-80.2006
-95.5733
-107.165
-113.244
-112.485
-105.246
-90.6555
-73.0095
-55.1495
-39.0623
-24.3423
-12.2699
-1.97218
7.55366
14.2471
19.5232
21.7926
23.3595
24.2907
25.0141
25.4347
25.0755
25.8295
25.2144
25.593
24.7523
25.0818
23.9936
24.5282
23.5574
24.1346
23.4608
23.7817
23.5549
23.545
23.4232
23.2418
23.1462
22.7972
22.7161
22.198
22.1018
21.4132
21.2632
20.4264
20.1511
19.1255
18.6571
17.4328
16.6673
15.203
14.0084
12.2363
10.4915
8.26449
5.87118
3.07918
-0.0345949
-3.40756
-7.16603
-10.9482
-15.018
-18.7239
-22.4833
-25.4456
-28.1049
-29.7172
-30.6153
-30.4881
-29.5933
-27.8748
-25.5624
-23.4374
-21.0467
-19.1493
-16.6788
-15.3578
-13.1684
-12.6246
-11.3783
-11.5873
-10.7086
-10.9961
-10.1297
-10.1141
-9.74949
-9.63794
-9.45958
-9.22239
-8.96737
-8.6406
-8.34397
-7.97954
-7.51599
-7.10392
-6.38769
-5.88081
-4.88989
-4.18577
-2.81017
-1.92955
-0.0158283
1.01769
3.74231
4.76688
8.58669
9.64744
14.7734
15.8334
22.5107
23.4342
32.1258
33.1152
43.4796
44.6807
56.4508
57.8767
70.9646
72.0495
86.159
17.8609
25.4742
20.7966
24.742
22.5158
24.7505
23.6801
24.9071
24.5482
25.0474
25.1735
25.1563
25.5886
25.2152
25.7598
25.3566
25.7514
25.6369
25.5403
25.813
25.3951
25.8921
25.339
25.9376
25.2757
25.9532
25.201
25.9051
25.1375
25.886
25.0636
25.8678
24.9904
25.6771
24.983
25.2692
24.9139
24.6708
24.758
24.3221
24.6239
24.0899
24.5917
24.0653
24.6118
24.1655
24.7606
24.2221
24.9158
24.3128
24.8816
24.3416
24.8065
24.3846
24.5703
24.2801
24.2398
23.9268
23.5402
23.0536
22.1519
21.2429
19.5477
17.8316
14.9399
11.8268
7.08966
1.71411
-5.8702
-14.9831
-27.3737
-42.7051
-61.0324
-82.3349
-102.997
-118.412
-128.404
-132.23
-126.805
-111.564
-91.4161
-68.5192
-48.5939
-30.4363
-16.3077
-4.43208
5.81266
15.719
19.6336
24.9274
23.6494
25.79
24.6357
26.0559
25.0337
25.7213
24.9365
25.3597
24.3531
24.705
23.6455
24.2079
23.2442
23.9288
23.4223
23.7944
23.6747
23.6839
23.6922
23.5302
23.5117
23.1776
23.159
22.6518
22.6121
21.946
21.863
21.0493
20.8947
19.9197
19.5763
18.4584
17.8155
16.5035
15.428
13.8391
12.2401
10.1969
7.94266
5.2719
2.23267
-1.1722
-5.04157
-9.11685
-13.6027
-17.9324
-22.4561
-26.1241
-29.7127
-31.5867
-33.3404
-32.7346
-31.9344
-29.1822
-26.5616
-23.6006
-21.2564
-19.3889
-17.0187
-16.1669
-14.1023
-13.9105
-12.7623
-13.2688
-12.4847
-13.069
-12.0095
-11.9697
-10.9651
-10.9281
-10.5999
-10.5865
-10.1473
-9.90974
-9.54351
-9.24681
-8.87804
-8.57709
-8.01969
-7.71279
-6.90486
-6.5414
-5.36584
-4.96026
-3.24993
-2.87537
-0.439455
-0.0378147
3.18839
3.63166
8.01033
8.42838
14.3427
14.7061
22.2994
22.9492
32.1407
33.2907
43.8763
45.3825
57.3472
58.5447
72.0511
19.4543
27.0187
21.836
25.7108
23.1417
25.2792
23.9982
25.1366
24.6569
25.0924
25.1531
25.0961
25.4953
25.1315
25.6554
25.2488
25.6331
25.5191
25.3962
25.7264
25.2611
25.8007
25.1644
25.8295
25.0851
25.8378
25.0255
25.82
24.9692
25.7592
24.9304
25.7334
24.803
25.6117
24.7248
25.2139
24.788
24.6545
24.7125
24.1984
24.5289
23.957
24.4449
23.8313
24.4862
23.8357
24.5859
23.9661
24.7666
24.1402
24.8821
24.4266
24.7217
24.531
24.655
24.6069
24.5796
24.5946
24.3191
24.2386
23.5485
23.1378
21.7869
20.6529
18.2729
15.8502
11.8187
7.19996
0.52063
-7.88025
-18.9212
-34.5251
-53.277
-75.9813
-100.837
-123.659
-140.787
-150.926
-154.095
-139.271
-116.259
-89.1691
-65.3319
-42.9182
-26.2833
-11.4479
-0.659206
11.0448
21.8404
24.447
27.266
27.3542
26.039
27.2285
26.4175
27.4156
26.3004
26.8849
25.8147
25.8606
24.4548
24.9174
23.5535
24.1333
23.4664
23.8004
23.7
23.8736
23.8517
23.7189
23.7721
23.4172
23.498
22.9819
23.0614
22.4265
22.4297
21.7103
21.5681
20.7651
20.4338
19.4926
18.9154
17.839
16.8464
15.5087
14.0407
12.209
10.0697
7.56205
4.56538
1.14812
-2.90291
-7.28504
-12.236
-17.1269
-22.3618
-26.9459
-31.3927
-34.662
-36.9717
-37.8734
-37.1163
-35.2884
-31.2335
-27.8741
-24.2237
-21.7957
-17.7644
-15.8828
-12.4777
-11.4986
-10.0823
-10.5618
-10.1577
-10.8695
-10.6805
-10.2994
-10.1759
-9.82196
-10.1072
-9.67502
-9.94724
-9.4887
-9.63805
-9.23485
-9.22556
-8.87895
-8.64174
-8.32217
-7.85472
-7.48451
-6.61928
-6.21918
-4.86577
-4.54059
-2.47036
-2.28647
0.671682
0.749928
4.69082
4.77085
9.82716
9.83268
16.4798
16.5179
24.701
24.9046
34.3903
34.9178
45.844
46.3038
59.0582
19.6632
27.9322
22.2105
26.401
23.562
25.794
24.3805
25.5201
24.9782
25.3762
25.4096
25.3058
25.718
25.27
25.8593
25.3767
25.7914
25.6489
25.5138
25.889
25.3386
26.0177
25.2526
26.0595
25.1899
26.0768
25.1238
26.0784
25.053
26.0576
25.007
26.0271
24.9674
25.8476
24.9608
25.3841
25.0105
24.774
24.9544
24.3368
24.7739
24.0056
24.6939
23.8544
24.7217
23.9665
24.7357
24.1195
24.8636
24.3018
25.0575
24.495
25.1595
24.8377
24.9574
24.9639
24.9312
24.9966
24.7743
24.7981
24.2727
24.0408
23.0123
22.1853
20.325
18.4086
15.1485
11.318
5.70302
-1.54889
-11.7765
-25.4107
-44.9317
-68.5139
-94.7976
-119.439
-140.609
-157.625
-167.7
-164.344
-138.117
-107.255
-77.0733
-50.4532
-30.7333
-15.6904
-2.75638
8.51866
19.6788
25.686
25.9457
29.3255
26.5048
27.3339
26.0056
26.6295
26.0116
26.3244
25.2838
25.4382
24.1472
24.5688
23.3803
23.9259
23.3688
23.7987
23.7316
24.011
24.1123
23.9475
24.137
23.7408
23.8911
23.3461
23.4794
22.8382
22.9114
22.1816
22.221
21.425
21.2572
20.459
19.9091
19.0387
18.1712
17.0125
15.7487
14.1652
12.2773
9.98812
7.2395
3.99488
0.0998188
-4.29622
-9.39829
-14.7914
-20.6879
-26.0858
-31.6106
-35.503
-39.3943
-40.3794
-40.8868
-37.5319
-33.0283
-27.4269
-23.595
-22.1818
-18.9537
-17.6247
-14.3651
-13.3339
-11.3666
-12.5216
-12.1719
-13.7387
-12.5481
-12.2111
-10.7113
-10.5236
-10.8053
-11.0566
-10.8579
-10.3919
-10.2826
-9.96056
-10.0523
-9.78247
-9.64698
-9.44643
-9.22891
-8.99703
-8.44699
-8.25982
-7.21999
-7.19882
-5.50659
-5.6783
-3.34151
-3.66537
-0.508851
-0.733164
3.25477
2.99526
8.3937
8.30206
15.1683
15.6767
23.4681
24.351
33.841
34.4053
46.4057
20.9481
29.3196
23.2024
27.2311
24.1399
26.2308
24.6863
25.6921
25.1335
25.3809
25.4747
25.2077
25.7227
25.1517
25.8365
25.2545
25.7293
25.56
25.3941
25.8367
25.1782
25.9704
25.0665
26.0103
24.9959
26.0266
24.9352
26.033
24.8723
25.987
24.8378
25.9189
24.7913
25.7675
24.8113
25.3506
24.9411
24.7415
24.9368
24.2679
24.7271
23.9644
24.6097
23.7614
24.6119
23.7084
24.658
23.8116
24.7216
24.1259
24.8355
24.4718
24.8748
24.7676
24.9308
25.0677
25.0412
25.3223
25.1268
25.4159
24.9981
25.0824
24.2678
23.8257
22.3273
20.9414
18.2973
15.2768
10.6391
4.83772
-3.78654
-14.9698
-32.6767
-53.8539
-79.4417
-106.59
-131.073
-152.924
-170.036
-175.083
-154.858
-130.709
-97.0987
-66.5013
-40.3871
-28.2672
-11.8702
1.80336
15.2349
26.448
25.8156
29.5567
28.4888
28.3315
27.7551
28.3714
27.6711
28.2648
26.8497
26.8262
24.846
25.1515
23.5453
24.0179
23.1017
23.7297
23.5214
24.0105
24.1138
24.0732
24.317
23.9244
24.1624
23.6206
23.8879
23.2358
23.4269
22.7088
22.7973
21.9953
21.9691
21.1228
20.8789
20.0803
19.37
18.4602
17.3646
16.0233
14.3859
12.4212
9.9388
6.91178
3.10814
-1.33582
-6.80174
-12.7107
-19.6662
-26.1699
-33.1787
-38.7091
-43.5277
-46.6416
-48.0349
-47.9594
-41.4973
-34.8944
-27.6089
-24.9202
-19.3544
-16.7941
-12.1186
-9.74483
-7.08579
-7.78527
-8.31664
-10.2607
-12.1318
-11.4064
-10.7547
-9.46069
-9.82872
-9.79878
-10.7587
-10.1727
-10.5643
-9.94184
-10.3339
-10.0132
-10.1591
-9.93075
-10.0501
-9.78846
-9.53659
-9.29778
-8.62855
-8.59059
-7.29865
-7.6053
-5.47577
-6.22355
-3.41927
-3.97903
-0.598019
-1.52212
3.32107
2.1627
8.39679
7.60195
14.7696
13.983
22.7278
21.793
33.7245
21.3113
30.2391
23.8575
27.9712
24.8211
26.7853
25.3084
26.0456
25.676
25.6298
25.8864
25.3931
26.0238
25.2875
26.083
25.3611
25.8773
25.7054
25.4736
26.0144
25.226
26.1716
25.1135
26.2146
25.0506
26.2319
24.9933
26.2493
24.9346
26.2289
24.914
26.1648
24.9201
25.9609
24.9794
25.486
25.1355
24.839
25.1066
24.378
24.964
23.9817
24.798
23.7564
24.7168
23.7296
24.7771
23.816
24.9157
24.0674
25.0081
24.572
25.0842
25.0171
25.108
25.2908
25.1682
25.4564
25.2449
25.5541
25.229
25.3936
24.8117
24.5416
23.4214
22.3364
20.2659
17.7823
13.9802
9.08483
1.95694
-7.48705
-21.6072
-40.6007
-63.2552
-88.2938
-112.585
-134.662
-153.436
-165.41
-158.111
-132.323
-102.276
-72.0345
-42.9896
-30.51
-15.554
-1.83573
11.2752
22.7841
28.0642
25.7492
28.2429
27.5261
26.2652
26.7455
26.5815
27.4284
26.2016
26.5529
24.8458
24.8592
23.5182
23.8808
22.8704
23.5927
23.4023
24.0331
24.3906
24.2197
24.6468
24.1859
24.4664
23.8294
24.1752
23.4126
23.7377
22.951
23.282
22.5067
22.6252
21.8929
21.6397
20.9433
20.3777
19.5987
18.7321
17.6471
16.2624
14.5564
12.44
9.79401
6.35449
2.18895
-3.06762
-9.0556
-16.2799
-23.4222
-31.2022
-37.4505
-44.1017
-47.7331
-51.8669
-51.3666
-45.4926
-32.5113
-26.1399
-25.7386
-23.1428
-20.9305
-16.8114
-12.9359
-8.93436
-9.27494
-10.6589
-13.6504
-13.5426
-12.8646
-10.5159
-9.44788
-10.3514
-11.4407
-11.3859
-10.6366
-10.3826
-10.2577
-10.6528
-10.4363
-10.4932
-10.3777
-10.6587
-10.5525
-10.5527
-10.4113
-9.93486
-10.0751
-9.02445
-9.45004
-7.87626
-8.8699
-6.81719
-7.41943
-5.09425
-6.32282
-2.65307
-4.26034
0.908471
0.933255
5.45317
6.04832
11.2823
11.5085
20.7712
22.5998
31.0265
24.7332
28.4029
25.3546
26.9346
25.6457
26.0072
25.9181
25.5187
26.066
25.2514
26.1465
25.1279
26.104
25.2565
25.8398
25.666
25.3421
26.0336
25.0522
26.1931
24.9362
26.2267
24.8712
26.2416
24.8091
26.2614
24.7466
26.2377
24.72
26.1578
24.7412
25.9564
24.8612
25.4814
25.118
24.7964
25.1922
24.3175
25.0321
23.9678
24.8914
23.6993
24.8118
23.531
24.845
23.5579
24.8994
23.8155
24.9038
24.22
24.8929
24.8348
24.8335
25.263
25.0859
25.565
25.3077
25.788
25.4753
25.7866
25.285
25.2013
24.2674
23.4666
21.7913
19.8013
16.7077