/*--------------------------------*- C++ -*----------------------------------*\
| =========                 |                                                 |
| \\      /  F ield         | OpenFOAM: The Open Source CFD Toolbox           |
|  \\    /   O peration     | Version:  4.1                                   |
|   \\  /    A nd           | Web:      www.OpenFOAM.org                      |
|    \\/     M anipulation  |                                                 |
\*---------------------------------------------------------------------------*/
FoamFile
{
    version     2.0;
    format      ascii;
    class       volScalarField;
    location    "1338";
    object      p;
}
// * * * * * * * * * * * * * * * * * * * * * * * * * * * * * * * * * * * * * //

dimensions      [0 2 -2 0 0 0 0];

internalField   nonuniform List<scalar> 
204246
(
139.028
-11.1402
43.0583
20.3004
18.6253
21.2741
12.5997
18.3604
8.0006
13.9923
2.89185
9.2622
-4.16702
3.76959
-10.045
-3.83627
-11.1564
-20.3177
-14.3273
-27.53
-16.0735
-30.961
-18.6179
-29.583
-18.0059
-25.8011
-12.3939
-20.5091
-5.43974
-12.8381
2.4666
-4.53855
9.50304
4.12086
13.1607
15.1819
10.8072
23.1683
13.6252
26.463
16.5278
29.8213
17.5617
32.0638
16.6949
33.7685
17.1117
33.9861
18.5709
32.006
20.8968
29.483
26.6436
19.3963
31.9778
17.937
31.3319
18.04
31.1059
17.3995
31.6332
15.1926
32.005
14.6249
31.0037
15.5427
27.9161
16.7342
24.854
20.9685
14.5935
23.8312
11.9563
23.2623
9.85561
21.7118
7.3749
20.2246
3.43903
17.6994
1.3457
13.4793
-0.762172
7.94707
-3.44678
2.11244
-2.69085
-11.0301
-4.85392
-15.836
-7.98801
-21.7782
-10.3537
-27.837
-12.0267
-31.1252
-13.8879
-32.8248
-15.1437
-32.289
-16.9842
-30.3072
-16.8589
-27.2557
-16.7349
-21.3815
-23.7052
-13.2707
-24.2237
-9.01345
-24.7049
-6.39803
-22.7717
-5.55527
-21.4122
-4.55748
-20.5035
-3.81652
-19.5013
-3.69677
-17.4
-5.78126
-11.0259
-15.7279
-4.27532
-17.946
-2.47441
-18.2789
-1.87158
-18.2022
-1.5839
-18.0415
-1.39395
-17.8679
-1.24723
-17.2786
-1.66584
-15.5667
-4.08207
-9.36216
-14.3618
-2.87138
-16.5745
-1.20809
-16.795
-0.474888
-16.6669
-0.00702738
-16.2706
0.470971
-15.6455
0.993403
-14.5756
1.29347
-12.051
-0.234724
-4.86758
-8.9941
3.01928
-9.55872
6.48009
-7.51964
8.90117
-3.86999
11.5586
0.791676
15.4337
6.54563
20.5414
13.5311
26.85
22.5106
34.8325
34.067
44.3219
50.8476
53.0835
66.9453
71.4757
84.7895
94.5307
107.908
122.243
137.15
157.084
174.918
203.202
225.863
269.763
298.709
386.44
402.364
609.404
47.5549
21.4848
22.4666
24.7539
18.899
20.6753
15.7903
16.8732
12.483
13.042
8.10474
8.27775
2.5567
2.07203
-2.40668
-6.36207
-5.39051
-15.3853
-14.7791
-22.4867
-20.5735
-25.3171
-23.7287
-26.178
-22.1736
-25.4142
-18.4972
-19.4894
-13.0741
-11.4499
-6.0467
-2.95439
0.914557
5.45896
5.92514
13.4235
10.9622
18.8841
16.2056
21.6116
18.9951
24.3029
21.0751
26.4742
22.0016
27.3211
22.9539
27.3883
24.1389
26.6217
25.3598
24.9092
28.1528
22.5823
27.5017
22.9408
26.8689
22.593
26.7656
21.9405
26.8758
21.1941
26.1753
20.9978
25.0541
21.1176
23.6545
21.3633
21.2377
23.1498
18.107
21.3843
16.8106
19.9384
15.1952
18.2931
13.0096
16.4417
10.3884
13.4475
7.8336
10.1193
5.34532
5.68461
2.42449
-0.188578
1.28927
-6.00748
-5.4659
-10.9263
-9.50869
-15.858
-13.4515
-20.3622
-17.4087
-23.6177
-20.2402
-25.7318
-22.1015
-26.2298
-22.9145
-25.8439
-22.4375
-23.9538
-22.1586
-19.6975
-22.9221
-17.3107
-21.0712
-14.7855
-19.3698
-13.3213
-17.4298
-12.015
-16.1725
-10.8339
-15.215
-10.0708
-14.1038
-10.0711
-12.1913
-11.4226
-8.84349
-13.6959
-8.35289
-13.3657
-7.99789
-13.0324
-7.70877
-12.7681
-7.48241
-12.5343
-7.32101
-12.2612
-7.34652
-11.6497
-7.86002
-10.165
-9.60544
-7.07194
-12.1014
-6.85701
-11.8936
-6.62601
-11.6156
-6.29497
-11.2993
-5.98243
-10.9058
-5.62357
-10.3347
-5.28371
-9.33209
-5.26555
-7.19578
-6.18368
-3.35702
-7.54039
-1.87742
-5.87903
-0.0777334
-3.56633
2.19866
-0.837427
5.10533
2.58254
8.80187
7.09287
13.5365
12.9022
18.9334
20.6475
25.8779
30.4151
34.0496
42.8033
46.4882
55.5678
62.1241
71.6501
81.3291
91.7925
104.826
116.414
133.588
146.406
169.611
183.039
218.293
224.934
299.657
265.097
399.777
19.7354
28.4218
24.4104
24.3008
20.9461
20.9788
17.3415
17.3599
13.6038
13.2942
9.30133
8.34817
4.07431
2.07683
-1.2834
-5.66088
-7.62793
-13.1865
-14.9239
-20.2969
-21.6139
-24.5692
-24.8036
-26.8716
-24.2119
-25.4003
-20.9183
-19.7506
-14.8819
-11.7368
-7.00272
-3.11313
0.711393
5.31944
7.16098
12.2882
12.3042
17.8068
17.1175
21.1147
20.2355
24.0985
21.8386
26.3025
22.5599
27.4302
23.3331
27.7101
24.23
27.1595
25.3505
25.7836
26.8201
24.0473
27.1594
23.3186
27.0742
22.7808
26.8897
22.1879
26.6976
21.5184
26.185
21.1629
25.2569
21.1332
23.6921
21.3082
21.5711
21.7414
19.081
21.0306
17.2034
19.9404
15.4097
18.3949
13.3246
16.4166
10.9027
13.6766
8.65951
9.8723
6.21219
5.47611
3.36511
0.38948
-0.439574
-4.78651
-5.18592
-9.67607
-10.1635
-14.7213
-14.2005
-19.4203
-17.6264
-23.0996
-20.3328
-25.5919
-22.0808
-26.5778
-22.9108
-26.1514
-22.842
-24.1176
-22.6411
-20.7963
-21.8722
-18.0377
-20.5997
-15.3732
-19.0644
-13.3868
-17.3821
-11.8905
-16.081
-10.668
-15.0897
-9.90947
-13.9439
-9.84034
-12.2945
-10.6854
-10.0326
-12.2112
-8.78634
-12.691
-7.99172
-12.7106
-7.56846
-12.5674
-7.32412
-12.3756
-7.18524
-12.1048
-7.21593
-11.5565
-7.66626
-10.3984
-8.95926
-8.4326
-10.7742
-7.40202
-11.3878
-6.71201
-11.4329
-6.26411
-11.2191
-5.90046
-10.8484
-5.5305
-10.2675
-5.19382
-9.2835
-5.11499
-7.44928
-5.63972
-4.56931
-6.30715
-2.39274
-5.48388
-0.120501
-3.63711
2.12245
-0.73963
4.68317
3.14885
8.16053
7.92304
12.8031
13.8883
18.8334
21.3464
26.3368
30.8622
35.949
42.4718
47.4882
56.4977
63.1036
73.3427
83.0077
94.2691
107.812
120.341
138.918
152.798
178.452
193.131
232.838
240.761
316.92
295.65
384.43
5.63664
19.9706
16.9427
21.8633
18.7154
20.3715
17.7094
18.0894
15.1519
14.7648
11.5657
10.2671
6.98908
4.25142
1.5256
-2.94037
-4.8771
-10.9571
-13.4076
-18.2238
-21.2698
-24.2051
-26.2877
-27.4913
-27.3323
-27.2043
-24.6689
-22.7696
-18.9069
-15.3074
-11.083
-6.35444
-2.94802
2.56769
4.36457
10.2788
10.7907
15.4342
16.3377
19.3132
19.955
22.2188
22.3212
24.18
23.866
25.0625
24.8148
25.3984
25.6141
25.2538
26.2551
24.7483
26.9267
24.4778
26.2387
24.522
25.7637
24.2353
25.4714
23.8194
25.1763
23.468
24.5114
23.2578
23.6849
23.1348
22.6859
22.8844
21.4068
22.7605
20.3464
21.0953
19.2641
19.5287
17.7901
17.9596
15.9692
16.0203
13.9095
13.3353
11.4952
10.2334
8.6333
6.54874
5.42647
2.12485
1.69845
-2.53356
-3.64385
-7.35619
-8.88846
-12.2204
-14.1098
-16.7967
-18.7888
-20.7028
-22.423
-23.4816
-24.7097
-25.0458
-25.4884
-25.196
-25.0937
-23.8987
-24.2173
-21.6579
-22.4543
-19.6895
-19.9576
-17.6328
-17.8444
-15.908
-16.0454
-14.3667
-14.7141
-13.063
-13.67
-12.2815
-12.5591
-12.0791
-11.2725
-12.2689
-9.96614
-12.2499
-9.93908
-11.8094
-9.83539
-11.4116
-9.66103
-11.0915
-9.47976
-10.8112
-9.35236
-10.4898
-9.3752
-9.973
-9.67351
-9.10097
-10.339
-8.11682
-10.5905
-8.35422
-10.323
-8.41229
-10.0302
-8.29792
-9.72559
-8.09905
-9.37673
-7.84446
-8.87995
-7.60543
-8.07753
-7.55102
-6.67449
-7.5251
-5.17929
-6.82815
-4.40573
-5.42324
-3.14152
-3.58386
-1.26623
-1.37691
1.0686
1.46205
4.17852
5.08754
8.2053
9.74662
13.1296
15.9277
19.3899
23.6486
27.2195
33.4302
37.565
44.5032
50.616
57.9538
66.6135
74.4446
86.0279
94.3394
109.547
118.333
138.898
145.987
179.036
173.92
231.409
218.272
289.37
7.04796
20.8423
17.2764
21.2904
19.7589
20.5467
18.5809
18.6253
16.153
15.5594
12.7665
11.2801
8.32965
5.63289
2.74502
-1.31252
-4.16253
-8.87003
-12.3856
-17.0837
-20.4646
-24.3199
-26.698
-28.8899
-29.1738
-29.2403
-27.2026
-25.0102
-21.1024
-17.0829
-12.4833
-7.5279
-3.49671
1.81763
4.58991
9.62444
11.4283
15.5735
16.7016
19.8292
20.4149
22.5597
22.889
24.454
24.4308
25.4681
25.3158
25.9385
25.9383
25.9192
26.3978
25.5856
26.5182
25.4264
26.172
25.04
25.9403
24.5786
25.6345
24.1148
25.2218
23.7049
24.6222
23.3653
23.8317
23.1715
22.785
22.8125
21.6408
22.0854
20.6848
21.0983
19.5522
19.6979
18.1222
18.1436
16.4304
16.2296
14.4614
13.792
12.1226
10.713
9.25203
7.14028
5.85246
2.99749
1.79266
-1.457
-2.94111
-6.41641
-8.11153
-11.3909
-13.3151
-16.077
-18.0909
-20.1735
-22.0719
-23.4356
-24.6751
-25.3826
-25.8508
-25.7692
-25.7976
-24.6066
-24.6131
-22.6232
-22.5536
-20.3597
-19.9858
-17.9912
-17.6337
-15.9842
-15.7874
-14.2544
-14.4329
-12.8758
-13.3415
-12.0287
-12.2472
-11.7068
-11.1212
-11.5058
-10.2736
-11.2024
-10.0247
-11.0148
-9.70335
-10.8574
-9.44625
-10.6797
-9.26265
-10.4802
-9.16082
-10.2206
-9.19102
-9.81671
-9.41699
-9.21245
-9.80478
-8.69448
-9.83108
-8.68083
-9.8012
-8.48992
-9.70833
-8.25805
-9.50306
-8.00231
-9.19573
-7.72734
-8.70598
-7.46655
-7.93665
-7.38789
-6.83385
-6.99747
-5.57444
-6.28205
-4.5686
-5.05111
-3.14933
-3.37518
-1.26844
-1.09109
1.24851
1.82229
4.51805
5.55608
8.67659
10.4323
13.8988
16.646
20.5227
24.5435
28.8565
34.2951
39.5157
46.2499
53.1212
60.868
70.1494
78.7852
91.2324
100.604
117.042
126.693
149.204
156.946
191.304
188.24
237.531
226.169
271.267
5.36151
16.5529
14.2942
18.8989
18.3042
19.7367
18.5682
19.0716
17.2274
16.8214
14.5648
13.1594
10.6186
7.96823
5.24742
1.27779
-1.81586
-6.76715
-10.4783
-15.5794
-19.6821
-24.0794
-27.528
-30.4215
-31.9293
-32.5438
-31.3596
-29.4094
-25.9045
-21.6448
-17.0684
-11.4265
-7.17913
-1.13187
1.99229
7.58718
9.63847
14.0986
15.5754
18.6518
19.7913
21.7294
22.6165
23.6005
24.3915
24.6646
25.3413
25.1958
25.889
25.3588
26.2123
25.3395
26.2356
25.3647
25.8738
25.2776
25.4737
25.0567
25.1006
24.7487
24.7289
24.4845
24.2092
24.1728
23.6189
23.8351
22.9818
23.4363
22.2019
22.7595
21.4117
21.6848
20.4893
20.4028
19.2896
18.8755
17.7784
17.0636
15.9216
14.8257
13.6672
12.1143
10.9152
8.769
7.62312
4.78013
3.61089
0.242674
-1.28283
-4.70013
-6.67263
-9.94543
-12.2687
-15.1733
-17.5942
-19.8928
-22.1231
-23.6515
-25.4567
-26.0813
-27.1103
-26.8211
-27.183
-25.9228
-25.8981
-23.9109
-23.4894
-21.4385
-20.7298
-18.8986
-18.1982
-16.7499
-16.1121
-15.017
-14.574
-13.7331
-13.367
-12.9101
-12.3702
-12.4437
-11.4719
-12.1947
-10.8596
-11.6087
-10.7241
-11.1833
-10.5977
-10.8179
-10.429
-10.4988
-10.26
-10.207
-10.1346
-9.89901
-10.0964
-9.53428
-10.1387
-9.12889
-10.2411
-8.88559
-9.95834
-9.10711
-9.69865
-9.18571
-9.47627
-9.1441
-9.24382
-9.02141
-8.98251
-8.84452
-8.60437
-8.60228
-8.07789
-8.41172
-7.33035
-8.02749
-6.65466
-7.12927
-5.93853
-6.12449
-4.90703
-4.79244
-3.50129
-3.09751
-1.5863
-0.926693
0.915431
1.91161
4.10979
5.67253
8.17671
10.5439
13.3402
16.735
19.9666
24.4172
28.5544
33.6795
39.3756
44.9584
52.8026
58.751
69.2241
75.4843
89.2733
95.2403
114.082
117.3
147.729
141.28
182.461
179.955
220.547
8.75067
18.816
15.7006
19.5605
18.9103
20.0556
19.3014
19.6264
18.1918
17.754
15.8558
14.5144
12.2585
9.82313
7.15329
3.595
0.252248
-4.20543
-8.50599
-13.5346
-18.3266
-23.3657
-27.6405
-31.6081
-33.9069
-35.4628
-34.8215
-33.1199
-29.5359
-24.7776
-19.6549
-13.6148
-8.67847
-2.46891
1.53845
6.98856
9.95813
14.1767
16.1509
19.1081
20.4289
22.355
23.2655
24.3274
25.0914
25.4543
26.0464
26.0153
26.5703
26.1399
26.7625
26.0772
26.6666
26.0415
26.2593
25.809
25.8204
25.4008
25.3789
24.9899
24.9092
24.6304
24.3679
24.2633
23.7434
23.8476
23.027
23.3444
22.2902
22.6484
21.6041
21.7364
20.7303
20.5908
19.6185
19.2069
18.2248
17.5164
16.4923
15.4302
14.3274
12.8502
11.6913
9.68587
8.46089
5.93429
4.49516
1.63668
-0.212856
-3.2977
-5.49625
-8.6188
-11.1021
-14.0355
-16.629
-19.1468
-21.5707
-23.4321
-25.3781
-26.3493
-27.6064
-27.5541
-28.0622
-27.0639
-26.8921
-25.043
-24.3982
-22.1527
-21.2559
-19.142
-18.2911
-16.6107
-15.9641
-14.7412
-14.2622
-13.4472
-12.9815
-12.5664
-11.9173
-11.9225
-11.0299
-11.3583
-10.4648
-10.804
-10.3753
-10.4229
-10.2421
-10.2028
-10.0938
-10.0131
-9.96012
-9.82546
-9.86992
-9.6182
-9.84399
-9.3718
-9.87512
-9.08983
-9.84762
-8.9806
-9.56293
-9.14179
-9.33433
-9.12517
-9.18526
-9.01601
-9.01036
-8.82862
-8.80789
-8.63719
-8.46453
-8.41034
-7.93986
-8.11032
-7.28425
-7.64292
-6.54382
-6.98319
-5.75535
-5.93067
-4.67235
-4.54917
-3.16291
-2.77342
-1.13325
-0.483262
1.52358
2.49154
4.86083
6.4121
9.116
11.4478
14.569
17.8129
21.5385
25.7364
30.4824
35.5019
41.8413
47.5038
55.949
62.1493
73.2432
79.7473
94.2045
100.303
119.945
122.153
150.097
146.752
177.961
174.124
202.922
8.36441
17.6296
14.6826
18.9439
18.3258
19.9039
19.4478
20.0945
19.0466
18.8593
17.3368
16.2058
14.2419
12.0253
9.49435
6.12295
2.7389
-1.74364
-6.15866
-11.579
-16.8298
-22.6295
-27.8805
-32.9377
-36.7457
-39.3847
-40.0277
-38.8573
-35.9623
-31.1773
-25.7413
-18.7701
-13.0998
-5.97194
-1.32743
4.79158
8.1648
12.9722
15.1312
18.3802
19.8548
21.8788
22.9029
23.8376
24.7784
25.0338
25.7672
25.5554
26.2824
25.7367
26.4049
25.726
26.3288
25.7267
26.0234
25.5897
25.7185
25.3803
25.3341
25.1519
24.9042
24.9167
24.4323
24.6165
23.9539
24.2808
23.4053
23.8617
22.7985
23.1948
22.205
22.3204
21.4741
21.2818
20.4799
20.0306
19.2219
18.4976
17.6443
16.5819
15.665
14.1839
13.18
11.2102
10.0592
7.59086
6.16673
3.26778
1.44762
-1.72019
-4.00426
-7.27916
-9.95738
-13.1447
-16.0073
-18.8671
-21.6158
-23.8689
-26.1721
-27.5091
-29.0277
-29.2214
-29.8043
-28.7703
-28.5562
-26.6158
-25.7387
-23.444
-22.2646
-20.0843
-18.9593
-17.2453
-16.3571
-15.195
-14.5366
-13.8402
-13.2843
-13.0028
-12.3843
-12.4474
-11.7069
-11.9949
-11.2858
-11.3826
-11.0921
-10.9687
-10.8997
-10.6246
-10.7092
-10.3092
-10.5388
-10.0193
-10.4021
-9.75451
-10.2976
-9.50007
-10.2476
-9.24505
-10.1359
-9.23398
-9.75474
-9.46684
-9.48751
-9.54637
-9.31901
-9.52771
-9.16844
-9.41863
-9.02513
-9.28337
-8.76255
-9.12006
-8.40402
-8.90743
-7.96667
-8.55129
-7.51622
-7.84567
-7.06344
-7.07287
-6.29397
-6.13245
-5.20248
-4.9219
-3.75092
-3.29388
-1.86922
-1.08754
0.576253
1.82418
3.76868
5.60623
7.92336
10.4408
13.3275
16.4955
20.3413
24.022
29.2434
33.3122
40.4193
44.7642
54.227
58.7346
71.2161
75.0247
92.7158
93.4132
117.998
116.097
144.542
144.458
171.479
11.9057
19.388
16.381
20.155
19.2717
20.695
20.314
20.8112
20.0369
19.8674
18.6574
17.6812
16.0248
14.1082
11.8146
8.84743
5.56453
1.43282
-3.14704
-8.50884
-14.3361
-20.6977
-27.1036
-33.4315
-38.6438
-42.7595
-44.6669
-44.4929
-41.8886
-36.8574
-30.6397
-22.9486
-16.3134
-8.47871
-2.70859
3.7811
8.03959
12.9466
15.8106
18.7848
20.7589
22.5547
23.9886
24.6242
25.8279
26.009
26.7034
26.6225
27.1757
26.7476
27.2403
26.6266
26.9958
26.4924
26.5653
26.212
26.1193
25.8113
25.6336
25.4412
25.0937
25.0904
24.5521
24.715
23.9908
24.2873
23.4429
23.8188
22.9072
23.172
22.3964
22.3887
21.7231
21.4894
20.8301
20.3836
19.704
19.0063
18.2858
17.2747
16.4731
15.0948
14.1709
12.3735
11.2364
9.01813
7.52173
4.94076
2.9581
0.0696532
-2.4038
-5.51454
-8.41122
-11.5836
-14.7212
-17.7231
-20.8003
-23.315
-25.9744
-27.669
-29.5689
-30.1464
-31.0796
-30.443
-30.3159
-28.4836
-27.4177
-24.8234
-23.2828
-20.7275
-19.286
-17.3213
-16.2481
-14.9856
-14.2371
-13.512
-12.8468
-12.5512
-11.7514
-11.8195
-10.8875
-11.1681
-10.4267
-10.5992
-10.3498
-10.2187
-10.293
-10.0291
-10.2315
-9.8728
-10.1486
-9.70226
-10.0614
-9.54507
-10.0097
-9.34665
-9.97799
-9.14914
-9.84079
-9.17739
-9.5003
-9.36291
-9.24336
-9.38894
-9.1117
-9.34446
-8.98874
-9.22495
-8.83969
-9.09427
-8.58918
-8.89706
-8.26177
-8.64757
-7.84064
-8.27181
-7.40212
-7.66886
-6.83902
-6.90473
-5.99485
-5.90534
-4.87422
-4.59113
-3.38989
-2.87074
-1.42104
-0.617972
1.1076
2.3476
4.38601
6.17619
8.6452
11.0467
14.1542
17.1703
21.242
24.7688
30.2869
34.1673
41.5411
45.6797
55.3189
59.5014
72.1175
75.3156
92.2458
92.5786
114.245
111.902
134.673
133.534
154.955
11.8717
19.7921
16.1994
20.4673
19.2022
21.0807
20.6396
21.3906
20.7994
20.8416
19.883
19.1349
17.7243
16.0771
13.9974
11.3131
8.20425
4.25644
-0.245778
-5.73015
-11.7965
-18.7759
-26.0316
-33.6319
-40.7894
-46.854
-50.982
-52.1886
-50.4187
-45.4996
-39.1473
-30.1142
-22.1785
-13.2262
-6.31894
1.08835
6.07714
11.7655
15.0236
18.4611
20.2624
22.3782
23.772
24.3015
25.5075
25.5534
26.3228
26.1207
26.6695
26.2233
26.7427
26.1525
26.6342
26.0374
26.3166
25.9215
25.985
25.7133
25.5751
25.5209
25.1544
25.2934
24.7185
25.0096
24.2803
24.6672
23.7973
24.2389
23.3433
23.6304
22.915
22.9068
22.3252
22.0913
21.5355
21.0928
20.5348
19.8463
19.2571
18.2727
17.5986
16.2673
15.4494
13.7294
12.6655
10.5408
9.09986
6.56462
4.64051
1.71759
-0.743324
-3.99166
-6.96649
-10.4087
-13.7406
-17.1626
-20.5673
-23.6174
-26.6924
-28.9144
-31.1954
-32.1383
-33.2176
-32.5926
-32.3769
-30.4197
-29.1389
-26.3667
-24.5163
-21.6617
-19.8657
-17.642
-16.3237
-15.0192
-14.1606
-13.5795
-12.9502
-12.8696
-12.2373
-12.3882
-11.7355
-11.9153
-11.3418
-11.3103
-11.1262
-10.885
-10.9126
-10.5557
-10.7354
-10.2747
-10.5758
-9.98639
-10.4246
-9.72399
-10.3114
-9.49859
-10.229
-9.3254
-10.0422
-9.39031
-9.6823
-9.59946
-9.43869
-9.66994
-9.31955
-9.66582
-9.22137
-9.62099
-9.11367
-9.54083
-8.94776
-9.424
-8.72144
-9.24679
-8.47356
-8.94417
-8.25461
-8.45993
-7.88825
-7.96013
-7.32883
-7.29601
-6.57794
-6.41291
-5.56441
-5.22599
-4.18823
-3.62098
-2.3687
-1.48346
0.0492674
1.33118
3.2594
4.97661
7.48527
9.61707
13.0093
15.4862
20.1195
22.8468
29.152
32.0473
40.4553
43.3333
54.585
56.7337
72.2649
72.0706
91.5214
91.9529
112.378
112.854
132.926
14.2038
21.6688
18.0986
21.837
20.4147
22.2024
21.6563
22.3174
21.8868
21.9293
21.232
20.6411
19.5444
18.2071
16.4708
14.2093
11.4399
7.92925
3.63977
-1.57069
-7.84808
-15.1639
-23.57
-32.6694
-41.8884
-50.381
-57.0186
-60.5488
-60.5912
-56.0516
-48.5221
-38.243
-28.2608
-17.794
-9.23897
-0.845304
5.20507
11.3584
15.5745
19.0251
21.4089
23.3522
24.9768
25.3473
26.7432
26.8887
27.6246
27.4803
27.9757
27.5143
27.839
27.2299
27.4936
26.9136
26.922
26.5882
26.4015
26.1967
25.8364
25.8056
25.2908
25.4548
24.7881
25.0756
24.3034
24.6861
23.8343
24.2274
23.4399
23.6324
23.1089
22.9895
22.5836
22.3003
21.9039
21.4543
21.051
20.3889
19.9557
19.0366
18.5142
17.2955
16.6112
15.0614
14.0925
12.1764
10.781
8.47615
6.52165
3.80609
1.24129
-1.87726
-5.04591
-8.46914
-12.1
-15.6431
-19.455
-22.778
-26.3735
-29.0369
-31.9138
-33.4219
-35.1255
-35.0818
-35.3368
-33.6245
-32.2709
-29.1368
-26.7109
-23.3106
-20.8776
-18.2736
-16.4965
-15.0918
-13.9357
-13.3232
-12.4434
-12.3357
-11.4095
-11.5628
-10.5966
-10.8971
-10.2308
-10.4186
-10.2012
-10.0744
-10.234
-9.9425
-10.284
-9.8222
-10.2759
-9.68251
-10.1701
-9.54142
-10.1102
-9.37742
-10.0534
-9.22586
-9.86079
-9.28578
-9.52438
-9.48087
-9.28006
-9.52572
-9.16762
-9.52427
-9.06717
-9.4911
-8.95701
-9.42916
-8.80511
-9.30692
-8.60586
-9.11914
-8.3721
-8.82012
-8.15569
-8.35992
-7.79869
-7.84633
-7.24355
-7.15847
-6.50354
-6.27519
-5.51072
-5.12411
-4.17658
-3.58496
-2.40761
-1.53937
-0.0769208
1.13748
3.00604
4.59402
7.07539
9.00893
12.3871
14.558
19.2158
21.5404
27.8009
30.2373
38.5061
40.7323
51.7613
52.8167
67.3009
67.1965
83.5642
83.3868
100.697
100.733
117.8
14.7054
21.8632
18.1997
22.3431
20.5739
22.7683
22.0417
22.9249
22.5629
22.6829
22.1645
21.7406
20.8443
19.753
18.2725
16.3374
13.892
10.757
6.78788
1.81985
-4.26958
-11.6788
-20.3576
-30.5052
-41.8359
-53.0638
-63.4201
-70.3326
-73.0855
-69.6734
-61.8533
-49.6499
-37.52
-25.2592
-14.574
-4.6783
2.66781
9.84748
14.9609
19.204
20.9857
23.614
24.4918
25.2755
26.2018
26.4261
27.0737
26.8318
27.3009
26.855
27.2855
26.6021
27.1234
26.4493
26.6845
26.2941
26.2483
26.1103
25.8012
25.9149
25.3713
25.6641
24.9693
25.3569
24.5651
25.0178
24.1496
24.5688
23.8269
23.9941
23.5433
23.4173
23.0518
22.7827
22.4494
22.0127
21.6956
21.0517
20.7153
19.8363
19.4074
18.2633
17.6595
16.226
15.3363
13.5686
12.2575
10.1001
8.24395
5.62468
3.1393
0.0254213
-3.13291
-6.70525
-10.451
-14.3488
-18.4525
-22.3294
-26.3787
-29.702
-33.1335
-35.2223
-37.359
-37.5576
-37.8207
-35.9627
-34.4496
-31.0234
-28.2358
-24.2247
-21.2236
-18.0471
-15.8495
-14.33
-13.208
-12.8262
-12.2005
-12.5244
-11.957
-12.3287
-11.6286
-11.8491
-11.2169
-11.2033
-11.0175
-10.7645
-10.7874
-10.3929
-10.6967
-10.1812
-10.5949
-9.92566
-10.4301
-9.66977
-10.2801
-9.48353
-10.186
-9.35041
-9.99208
-9.4193
-9.64972
-9.62352
-9.4207
-9.69635
-9.32762
-9.71972
-9.25135
-9.73543
-9.18029
-9.72865
-9.07778
-9.67358
-8.94052
-9.54855
-8.82045
-9.32044
-8.77452
-8.96812
-8.53861
-8.65045
-8.1639
-8.20804
-7.66149
-7.62772
-6.99649
-6.84672
-6.07241
-5.77216
-4.81716
-4.29911
-3.09876
-2.3335
-0.759707
0.256873
2.3638
3.63616
6.47359
7.93172
11.8822
13.4006
18.8245
20.328
27.6901
28.9904
38.9
39.5242
51.9341
52.9887
67.2645
68.6689
83.8945
84.9674
100.856
16.9088
24.0978
19.7857
23.9683
21.7394
23.9855
23.003
23.9289
23.5491
23.7094
23.3561
23.0687
22.4511
21.63
20.5339
19.0272
17.0779
14.5166
11.1419
6.78547
0.991154
-6.26221
-15.6617
-26.5681
-39.7566
-54.1237
-68.9612
-80.7331
-88.0042
-87.9787
-79.504
-65.321
-48.4549
-33.5851
-20.3728
-8.49087
0.304002
8.25467
14.988
19.2005
22.7857
24.6355
26.1781
26.5369
27.8418
28.1033
28.6822
28.5658
28.9178
28.374
28.6086
27.8209
28.0651
27.3118
27.3457
26.8911
26.619
26.5215
25.9947
26.1337
25.461
25.7656
25.0053
25.3937
24.5657
25.0267
24.1731
24.572
23.878
24.0315
23.6851
23.5154
23.2894
22.9831
22.8022
22.3566
22.1987
21.5825
21.4041
20.5971
20.327
19.2984
18.851
17.5746
16.8295
15.2493
14.0577
12.0893
10.3037
7.84485
5.34959
2.32026
-0.97284
-4.57873
-8.59483
-12.6633
-17.2123
-21.4183
-26.1069
-29.9511
-34.1645
-36.9792
-40.012
-41.0674
-42.1835
-41.0292
-39.785
-36.1813
-32.6411
-27.8611
-23.6479
-19.7038
-16.475
-14.6191
-12.9828
-12.4212
-11.3587
-11.618
-10.6816
-11.0027
-10.1229
-10.4382
-9.89789
-10.2109
-9.97603
-9.89835
-10.0536
-9.83731
-10.2587
-9.83264
-10.3775
-9.71647
-10.2534
-9.55377
-10.1584
-9.41443
-10.0939
-9.25658
-9.90202
-9.31227
-9.55875
-9.53347
-9.31363
-9.625
-9.20365
-9.6563
-9.11657
-9.67356
-9.064
-9.6942
-8.98123
-9.65984
-8.86648
-9.56545
-8.73574
-9.32993
-8.72955
-8.96367
-8.59002
-8.65423
-8.28379
-8.21027
-7.85754
-7.67233
-7.2716
-7.00593
-6.46849
-6.10142
-5.34685
-4.84676
-3.84572
-3.16375
-1.81914
-0.926551
0.95269
2.01392
4.73262
5.72857
9.57539
10.5632
15.7086
16.6893
23.4822
24.2962
33.0283
34.0146
44.3086
45.6212
57.3001
58.7377
71.8662
72.8955
87.0471
16.8201
25.0725
20.0507
24.7497
22.161
24.675
23.527
24.5961
24.2022
24.4079
24.1776
23.9806
23.5163
22.8622
21.9886
20.7503
19.1389
16.9903
14.1018
10.3688
5.28563
-1.24892
-10.0606
-21.256
-35.8143
-53.0249
-72.3298
-89.5947
-102.979
-109.358
-102.337
-86.771
-65.6097
-46.0256
-29.2013
-14.4501
-3.4245
6.09499
13.5359
20.0542
22.7597
25.4455
25.5938
26.651
27.0226
27.6018
27.589
27.7322
28.1183
27.5437
28.0479
27.133
27.6681
26.9845
27.0752
26.8219
26.5034
26.571
26.0112
26.3057
25.5751
26.0059
25.1863
25.706
24.7981
25.3583
24.4499
24.9199
24.1813
24.3534
24.0319
23.8617
23.6705
23.3612
23.2419
22.7922
22.7182
22.1117
22.0301
21.2556
21.0842
20.1333
19.7735
18.6324
17.9808
16.5901
15.5189
13.7805
12.1381
9.90832
7.55866
4.7037
1.52706
-2.03116
-6.04731
-10.2786
-15.0002
-19.634
-24.7135
-29.2652
-34.1579
-37.7935
-41.638
-43.3689
-45.0484
-43.8735
-42.6303
-38.7373
-34.8833
-29.2405
-24.1452
-19.2238
-14.9544
-12.8631
-11.3455
-11.1315
-10.9184
-11.8638
-11.6048
-12.5289
-11.516
-11.849
-10.7984
-11.0202
-10.9866
-10.5801
-10.5286
-10.0197
-10.5702
-10.0566
-10.6909
-9.90171
-10.448
-9.59888
-10.2345
-9.46281
-10.1853
-9.33947
-9.99487
-9.39469
-9.63133
-9.60828
-9.38685
-9.71836
-9.29608
-9.77327
-9.23859
-9.81188
-9.20732
-9.87308
-9.15762
-9.88344
-9.07449
-9.84607
-9.03732
-9.65578
-9.13473
-9.36937
-9.07357
-9.17801
-8.88091
-8.89397
-8.61156
-8.53649
-8.25043
-8.10029
-7.72059
-7.50954
-6.94385
-6.6857
-5.84345
-5.53823
-4.32993
-3.96798
-2.27426
-1.90717
0.540465
0.915135
4.18147
4.56595
8.95001
9.27314
15.2769
15.6107
23.2111
23.8864
33.037
34.1622
44.8641
46.1665
58.336
59.368
72.9644
18.7302
26.8972
21.6197
26.07
23.2942
25.7577
24.3488
25.5044
24.9714
25.2305
25.0746
24.9326
24.688
24.2038
23.6447
22.7377
21.5531
19.9286
17.6124
14.6203
10.2692
4.71403
-3.36088
-13.7598
-28.817
-47.3894
-70.555
-93.6512
-115.993
-132.115
-131.657
-110.458
-84.5701
-60.3446
-39.6563
-21.8594
-9.12474
2.25852
10.4178
19.2493
23.6531
27.3052
28.2162
28.0107
29.2231
29.3843
29.9721
29.7751
30.0597
29.2628
29.5354
28.4538
28.5236
27.7668
27.5797
27.3339
26.8055
26.8451
26.1249
26.4113
25.6096
26.0309
25.1553
25.7296
24.7142
25.3837
24.3735
24.94
24.145
24.3986
24.0763
23.9195
23.8424
23.4976
23.5087
23.0503
23.1013
22.5291
22.569
21.8786
21.8265
21.0055
20.7799
19.7955
19.2943
18.0998
17.18
15.6745
14.1793
12.1724
9.94041
7.25245
4.09246
0.563284
-3.609
-8.02419
-13.2209
-18.2999
-24.1903
-29.3519
-35.2836
-39.7442
-44.8076
-47.6177
-50.6718
-50.7947
-50.5235
-46.9677
-42.5937
-36.0337
-28.9687
-22.6045
-16.3928
-13.0461
-10.926
-10.2736
-8.72256
-10.0207
-9.03963
-10.463
-9.74082
-9.93111
-9.33646
-9.87521
-9.85096
-9.77137
-9.87009
-9.58451
-10.1027
-9.82099
-10.4417
-9.89997
-10.3387
-9.60103
-10.1835
-9.38007
-10.1127
-9.23198
-9.94932
-9.27548
-9.58992
-9.52204
-9.32337
-9.64798
-9.21935
-9.72443
-9.14023
-9.79963
-9.11768
-9.85586
-9.10948
-9.91385
-9.06038
-9.90387
-9.01708
-9.7448
-9.10377
-9.43082
-9.17582
-9.27268
-9.08289
-8.98973
-8.88085
-8.68784
-8.60727
-8.38894
-8.23115
-7.98059
-7.61535
-7.34357
-6.79404
-6.47234
-5.62365
-5.28155
-3.89822
-3.62016
-1.48554
-1.32812
1.67763
1.70865
5.62428
5.51643
10.8964
10.6127
17.4094
17.4058
25.4984
25.8373
35.1692
35.7722
46.7059
47.1897
59.936
18.626
27.9691
21.8558
26.8368
23.8289
26.3979
24.9515
26.1095
25.5745
25.8179
25.7002
25.5789
25.3984
24.9935
24.5582
23.8272
22.889
21.6182
19.7771
17.4475
13.9145
9.38126
2.50353
-6.71282
-20.5359
-38.9231
-62.929
-89.5347
-118.43
-145.3
-159.167
-142.843
-111.093
-78.0195
-52.2507
-29.1165
-13.9109
-0.515295
8.25236
16.6748
24.5965
24.8116
28.3889
27.919
27.7845
27.7589
28.273
28.3975
29.1561
28.3904
28.8684
27.9146
28.2909
27.5922
27.4518
27.372
26.7648
27.004
26.2038
26.6362
25.7199
26.323
25.3288
26.0434
24.9591
25.6982
24.6323
25.2502
24.394
24.7064
24.3104
24.1527
24.1473
23.7632
23.8417
23.3598
23.4971
22.9108
23.0553
22.3684
22.4214
21.6609
21.5161
20.6736
20.2488
19.2548
18.4588
17.1892
15.8819
14.1448
12.1362
9.71979
6.77879
3.44973
-0.562701
-4.92009
-10.05
-15.3098
-21.2983
-27.0833
-33.5638
-38.9628
-45.024
-48.9363
-53.0897
-54.1567
-54.7204
-51.5488
-47.0899
-39.7674
-31.1172
-23.1086
-13.9168
-9.79789
-7.71221
-8.16785
-8.24232
-10.8501
-11.1898
-13.4917
-11.4148
-11.8228
-10.0599
-10.5267
-11.1867
-10.4668
-10.1662
-9.32648
-10.0307
-9.91366
-11.027
-9.97576
-10.6049
-9.4407
-10.2335
-9.39809
-10.2781
-9.32021
-10.0703
-9.32281
-9.61834
-9.58449
-9.343
-9.73912
-9.23098
-9.83382
-9.1666
-9.91474
-9.16271
-9.977
-9.1932
-10.0622
-9.15219
-10.0905
-9.16108
-9.97441
-9.36495
-9.66333
-9.52436
-9.57954
-9.51857
-9.39121
-9.4147
-9.19572
-9.2499
-9.02172
-9.10273
-8.82874
-8.76101
-8.51147
-8.18786
-8.01208
-7.41211
-7.28951
-6.27753
-6.26752
-4.57758
-4.76003
-2.30155
-2.65279
0.418183
-0.0817184
4.43532
3.71503
9.3705
9.23017
15.9843
16.607
24.3593
25.1638
34.7779
35.2205
47.3171
20.4387
29.6136
23.1455
27.8851
24.6439
27.2004
25.5236
26.6727
26.0823
26.2769
26.2162
26.0951
26.0704
25.7183
25.5006
24.9565
24.2735
23.3501
21.8672
20.1543
17.2717
13.7984
8.13857
0.683813
-11.0633
-27.298
-49.7311
-76.5284
-108.036
-140
-163.373
-155.696
-130.459
-95.8273
-66.997
-41.4334
-21.371
-8.94782
3.20826
13.3547
22.6082
28.2118
27.9599
30.1721
30.2598
30.3066
30.8441
30.622
30.966
30.2164
30.2531
29.0122
28.7838
28.394
27.7864
27.8009
26.9907
27.1535
26.2566
26.677
25.6979
26.2904
25.2569
26.0342
24.8653
25.7163
24.5625
25.2793
24.3656
24.7412
24.3737
24.1707
24.2624
23.8604
24.0626
23.5469
23.7936
23.2041
23.4914
22.807
23.0438
22.2847
22.3599
21.574
21.3388
20.5102
19.8718
18.8489
17.724
16.2682
14.4695
12.3286
9.58119
6.45256
2.51293
-1.80938
-7.21622
-12.6706
-19.5143
-25.686
-33.4638
-39.5369
-47.0494
-52.0918
-58.1238
-60.8091
-63.2413
-61.609
-58.0505
-50.7562
-40.3651
-31.0146
-18.6835
-10.042
-7.1857
-6.34764
-3.07053
-5.9994
-5.48574
-10.4464
-10.7725
-10.3813
-8.55074
-8.85747
-9.46867
-10.5494
-10.2198
-9.28929
-9.35728
-9.26289
-10.5211
-10.404
-10.7491
-9.70194
-10.1047
-9.22092
-10.0673
-9.20632
-10.0341
-9.25897
-9.58588
-9.46646
-9.31671
-9.62696
-9.19937
-9.74354
-9.13914
-9.83453
-9.14269
-9.93889
-9.16359
-10.073
-9.18901
-10.137
-9.19851
-10.0277
-9.34567
-9.75992
-9.54778
-9.70464
-9.68548
-9.48878
-9.66576
-9.29833
-9.51003
-9.28433
-9.44863
-9.23791
-9.27099
-8.98825
-8.99978
-8.74929
-8.55534
-8.38956
-7.7319
-7.7213
-6.34545
-6.69898
-4.46129
-5.05712
-2.51528
-3.46429
0.680683
-0.808116
4.11563
3.20677
9.10107
8.55539
15.6
14.7323
23.6247
22.6494
34.5118
20.1464
30.9104
23.4548
28.8696
25.1823
27.7896
26.1382
27.2765
26.6011
26.7706
26.7403
26.5185
26.5242
26.1992
25.9916
25.5499
24.9625
24.2751
23.0371
21.7646
19.416
16.7378
12.1676
6.31144
-3.12435
-15.8776
-34.5898
-56.9245
-84.0203
-112.814
-139.507
-148.469
-130.519
-102.408
-74.3106
-46.8797
-25.5335
-11.7981
-1.47979
9.77047
18.9361
25.8191
25.725
26.5992
27.8119
27.2049
28.8623
28.5158
29.9387
29.2725
29.8316
28.7208
28.6794
28.212
27.8288
27.8442
27.0693
27.3671
26.3239
26.9336
25.8087
26.6187
25.3937
26.3427
25.0613
25.9869
24.7848
25.5191
24.5821
24.9337
24.5378
24.3535
24.4556
23.993
24.327
23.6833
24.1086
23.4098
23.8217
23.1318
23.4358
22.7209
22.9004
22.175
22.0562
21.365
20.8525
20.0491
19.1123
17.9379
16.4046
14.5966
12.1311
9.31279
5.65364
1.58323
-3.57165
-9.04449
-15.5627
-22.1156
-30.0238
-36.8187
-45.0426
-50.7988
-57.4735
-61.3843
-65.5384
-65.7542
-63.6137
-57.2771
-45.5213
-34.4828
-17.5405
-4.52645
-2.41056
-5.30693
-5.15406
-8.27984
-9.83566
-13.7711
-12.6891
-12.5052
-8.88329
-9.3511
-11.1338
-11.1932
-10.0989
-8.21486
-8.96224
-9.50593
-11.3107
-10.4137
-11.079
-9.38919
-10.2233
-9.33885
-10.3444
-9.34799
-10.1281
-9.29157
-9.57843
-9.50645
-9.31907
-9.71263
-9.17796
-9.85262
-9.10285
-9.93682
-9.0994
-10.0225
-9.16813
-10.1013
-9.21342
-10.1697
-9.27492
-10.0865
-9.4586
-9.86267
-9.73648
-9.78058
-9.98735
-9.69024
-9.91733
-9.54271
-9.78234
-9.48038
-9.91074
-9.69858
-9.83038
-9.63284
-9.64073
-9.4914
-9.44278
-9.43154
-9.05411
-9.17413
-8.24242
-8.63239
-6.85484
-7.47449
-5.95984
-7.13565
-3.60682
-5.60711
-1.92561