/*--------------------------------*- C++ -*----------------------------------*\
| =========                 |                                                 |
| \\      /  F ield         | OpenFOAM: The Open Source CFD Toolbox           |
|  \\    /   O peration     | Version:  4.1                                   |
|   \\  /    A nd           | Web:      www.OpenFOAM.org                      |
|    \\/     M anipulation  |                                                 |
\*---------------------------------------------------------------------------*/
FoamFile
{
    version     2.0;
    format      ascii;
    class       volScalarField;
    location    "24.5";
    object      p;
}
// * * * * * * * * * * * * * * * * * * * * * * * * * * * * * * * * * * * * * //

dimensions      [0 2 -2 0 0 0 0];

internalField   nonuniform List<scalar> 
204246
(
164.87
9.21059
63.285
35.9971
30.4423
40.5222
20.5873
39.9
16.8046
38.9708
15.0645
38.6042
13.4626
37.2812
15.8509
32.1005
25.2942
16.905
34.2675
12.4663
36.5253
12.0313
35.4591
12.4404
35.5022
11.9148
36.5701
9.93789
37.3689
9.8763
36.656
11.1971
34.2323
15.4104
27.7413
24.794
14.4459
32.4875
11.4947
33.0628
11.1112
33.6314
10.3663
34.8708
8.45698
35.6676
8.79433
34.6561
11.2462
30.9755
15.5385
26.1596
24.3732
13.4752
32.001
10.8573
32.6558
10.6668
33.3105
10.0086
34.5917
8.08647
35.3735
8.31739
34.305
10.5608
30.5765
14.4999
25.8705
22.6568
13.9226
28.615
11.0045
30.6125
9.65943
31.5621
8.55307
32.881
6.4258
33.6574
6.58598
32.5969
8.85772
28.8963
12.9094
24.2345
21.2722
12.2808
27.516
9.30457
29.9938
7.57714
32.0704
4.98909
33.5034
4.37707
33.5192
4.70147
32.5117
6.38485
29.5487
8.53276
27.351
11.0773
23.6948
17.4067
11.3743
24.9149
6.59228
27.9553
2.73479
28.6854
1.858
27.2242
0.867035
25.4878
-0.291442
22.9627
-1.06056
18.8706
-0.183792
11.9722
4.91565
-4.36064
9.35602
-11.92
7.74618
-17.1028
3.82812
-21.7244
-0.805158
-26.3983
-5.49778
-30.5851
-10.0816
-33.0786
-15.043
-32.8029
-21.4886
-26.2625
-36.0668
-18.204
-39.8628
-14.9111
-39.9453
-12.3964
-38.601
-10.1609
-36.3396
-8.22819
-33.4928
-6.83235
-29.8595
-6.55719
-24.2613
-9.00362
-12.9645
-20.1561
-1.85899
-21.874
3.62039
-20.3889
7.66611
-17.3353
11.5821
-12.9621
15.7312
-6.72236
19.9404
1.51456
25.3427
11.7469
31.5809
24.6775
39.51
42.5687
47.1203
60.884
64.0567
77.7131
87.3279
98.2143
115.697
126.442
152.375
164.845
205.112
211.594
274.758
277.715
396.63
385.496
610.467
78.3634
33.8312
38.6804
41.9283
28.1102
38.8387
24.1113
35.5426
21.8546
33.5632
20.8053
31.9841
21.1111
28.9223
23.9527
23.9806
29.298
19.1316
29.8305
18.4554
29.6983
18.6416
29.3944
18.2441
29.6816
17.6803
30.1461
17.3394
29.5712
17.9967
28.2413
19.6575
25.5454
23.0426
21.179
27.6638
17.2932
27.8472
17.109
27.69
16.5989
28.0205
16.031
28.4526
15.8299
27.7623
16.8377
26.226
19.015
23.6676
21.9743
19.9649
26.7505
16.4161
27.1296
16.478
27.1639
16.1502
27.6492
15.6897
28.1782
15.5079
27.5213
16.4341
25.9723
18.4119
23.4005
21.0181
19.7632
25.2699
16.3527
25.4069
15.4957
25.7895
14.8735
26.1457
14.1935
26.5473
13.8601
25.7986
14.7142
24.2031
16.7039
21.6268
19.406
18.0112
23.8435
14.6086
24.2573
13.6812
25.0776
12.8342
25.9887
12.1864
25.9092
12.3379
25.3882
12.9617
24.2528
14.2122
22.6344
15.3157
20.7014
17.5143
17.2528
21.6693
12.7333
22.4226
11.1437
22.8923
9.99566
21.9837
9.54986
20.733
8.73363
19.1007
7.84711
16.5485
7.43773
12.4351
7.91904
6.37367
10.3111
-0.183613
6.96665
-4.37418
3.35969
-8.68276
-0.861168
-13.2492
-5.52547
-17.7428
-10.7327
-21.7209
-16.2864
-24.4598
-22.001
-24.9748
-28.1768
-22.5424
-33.9286
-23.0152
-34.7501
-22.3809
-34.1237
-20.8501
-32.4462
-19.0181
-29.9716
-17.2899
-26.9139
-16.0796
-23.1037
-15.9453
-17.8723
-17.6741
-10.5653
-19.4917
-7.24389
-17.7939
-4.24292
-15.3748
-1.22925
-12.2737
2.05657
-8.2222
5.75337
-2.86256
9.96356
3.85475
15.3012
12.364
21.1945
22.9985
28.7478
35.7809
41.721
47.8434
58.7764
62.324
77.7978
81.239
99.8462
104.901
131.085
133.296
171.924
167.527
226.688
199.278
301.979
248.944
384.403
29.7358
49.1954
34.1749
42.6821
30.3273
37.9516
25.6894
35.6318
22.6991
33.8486
21.5669
32.0392
21.7567
29.4056
23.6998
25.5799
26.9371
21.5474
28.7421
19.4713
29.5809
18.6838
29.723
18.2369
29.8398
17.8578
29.9405
17.6577
29.535
18.1353
28.3979
19.5468
26.1415
22.1493
22.6874
25.32
19.2762
26.9083
17.6295
27.645
16.7513
28.0198
16.2443
28.1832
16.127
27.7375
16.8662
26.5206
18.5945
24.3692
21.21
21.3535
24.5139
18.2928
26.26
16.9279
27.164
16.2522
27.6816
15.8577
27.9351
15.7557
27.518
16.4098
26.28
17.9445
24.0925
20.2477
21.0595
23.1434
17.9316
24.6294
16.1214
25.5763
15.0948
26.0748
14.4101
26.2718
14.1246
25.7975
14.695
24.5273
16.2384
22.3366
18.6399
19.3189
21.7297
16.1831
23.4948
14.321
24.8063
13.1662
25.6541
12.4453
25.8698
12.3337
25.5414
12.763
24.6128
13.7095
23.1367
14.9727
21.1384
16.9537
18.1468
19.6908
14.4836
21.369
12.0103
22.2644
10.3796
21.9937
9.4643
20.9596
8.63924
19.367
7.86818
16.844
7.54765
13.0356
7.80313
7.70494
8.11829
1.66468
6.52069
-3.32167
3.70576
-7.77497
-0.457788
-12.1581
-5.3724
-16.5644
-10.603
-20.6312
-15.9777
-23.5592
-21.5093
-24.6394
-27.0576
-24.5783
-31.5616
-23.8746
-33.6461
-22.3998
-33.7622
-20.5195
-32.3901
-18.5912
-29.9675
-16.8551
-26.9125
-15.6584
-23.1759
-15.3928
-18.3222
-16.3277
-12.6288
-17.4237
-8.23849
-16.9757
-4.43771
-15.2247
-1.06147
-12.3949
2.26334
-8.35415
5.79543
-2.96833
9.45589
4.12557
14.3103
12.6464
21.0746
22.5334
30.3262
34.034
41.7512
48.1797
56.9428
64.9171
76.3179
84.7838
101.358
108.941
135.064
141.093
182.118
178.232
244.117
223.588
320.951
295.62
389.442
15.9764
32.2699
25.2332
36.6369
25.8407
35.2553
24.6849
32.9749
23.7843
30.6125
23.7122
28.4428
24.5121
25.7654
26.2636
22.9345
28.0383
21.3639
27.6289
21.1575
27.0847
21.2337
26.7937
21.0434
26.7408
20.8956
26.577
21.1211
25.8074
21.8842
24.5105
23.2319
22.5958
25.0849
20.5039
26.5015
19.4544
25.9705
19.3915
25.5213
19.208
25.283
19.1175
24.9533
19.4662
24.0547
20.4257
22.7352
21.929
21.0911
23.6954
19.328
25.3441
18.546
25.089
18.7295
24.9045
18.7506
24.8895
18.7995
24.7173
19.2005
23.9009
20.1098
22.5963
21.4537
20.9176
22.9616
19.0703
24.3306
18.0604
23.9881
17.6835
23.7206
17.4373
23.5075
17.2806
23.143
17.5303
22.1765
18.3559
20.7777
19.6972
19.0592
21.2908
17.217
22.8344
16.229
22.7415
15.8723
22.779
15.6659
22.7929
15.7205
22.3816
16.086
21.7294
16.6997
20.7953
17.5325
19.6559
18.4359
18.1455
19.8329
16.1694
21.3444
14.601
21.1114
13.9209
20.5676
13.5691
19.4749
13.2908
18.2086
12.774
16.619
12.1792
14.2527
11.8577
10.8685
11.5774
6.84496
10.8559
3.92971
6.74624
0.567838
2.50119
-3.11891
-2.21029
-7.26987
-7.41579
-11.7042
-12.9952
-16.1648
-18.6591
-20.1096
-23.9892
-22.8713
-28.4442
-24.7354
-32.0834
-26.5426
-32.9269
-26.7423
-32.3138
-25.7614
-30.4062
-24.179
-27.5667
-22.4976
-24.2679
-21.1795
-20.636
-20.552
-16.5962
-20.1612
-12.917
-18.6856
-10.7818
-16.5966
-8.67566
-14.1267
-6.44882
-11.2345
-3.87768
-7.75064
-0.60589
-3.58445
3.22849
1.82505
7.82205
8.62699
14.0677
16.5726
22.1812
26.3261
33.0321
37.1159
46.745
49.7648
63.3009
64.6336
82.9678
81.4554
107.842
101.545
140.236
124.734
185.038
147.734
224.136
199.222
271.741
10.3132
35.4148
23.0014
35.2572
26.1137
34.5387
25.7275
32.9681
24.843
30.8888
24.6231
28.8634
25.0539
26.6203
25.9806
24.4853
26.7536
23.2391
26.7403
22.3566
26.8041
21.7445
26.8729
21.3179
26.8215
21.1751
26.5435
21.4094
25.8865
21.9972
24.846
22.9844
23.3852
24.19
21.8768
24.9896
20.997
25.0307
20.2815
25.1621
19.704
25.1206
19.494
24.8021
19.7654
24.1057
20.4662
23.1123
21.5574
21.8873
22.8458
20.6025
23.9107
19.9659
24.212
19.5091
24.5892
19.1538
24.7567
19.0922
24.5829
19.4202
23.9552
20.078
22.9573
21.0285
21.6679
22.1055
20.2425
22.9349
19.3576
23.1132
18.5431
23.2889
17.958
23.277
17.672
22.9565
17.8258
22.2131
18.3803
21.1407
19.3106
19.8183
20.4501
18.402
21.4422
17.5344
21.8431
16.7514
22.2649
16.2272
22.4371
16.0856
22.2524
16.2165
21.8071
16.6035
21.0729
17.2055
20.0952
17.9936
18.7329
19.0514
17.1307
19.9487
15.9355
20.0274
14.9091
19.8939
14.1518
19.2881
13.5328
18.3118
12.9728
16.8358
12.4932
14.5687
12.2189
11.6532
11.6072
8.43035
9.68831
5.38261
7.16756
2.05794
3.48127
-1.62237
-1.00144
-5.63537
-6.21339
-10.0457
-11.7653
-14.6702
-17.2958
-18.9616
-22.258
-22.9113
-26.4276
-25.8634
-29.5861
-27.2292
-31.2502
-26.9134
-31.4705
-25.4833
-30.0857
-23.8338
-27.3117
-22.0184
-24.0911
-20.5339
-20.636
-19.5808
-17.4462
-18.1379
-14.2851
-16.7719
-11.7184
-15.3481
-8.9946
-13.4368
-6.22498
-11.0345
-3.45688
-7.84081
-0.238101
-3.55576
3.61405
1.83152
8.6286
8.16755
15.1689
15.9285
23.4229
25.4658
34.136
37.3559
47.8141
52.073
65.0922
69.538
88.1206
89.6263
116.594
114.88
156.05
141.803
201.661
180.041
240.856
229.18
274.856
9.70395
24.8861
18.6111
28.8568
22.3875
30.3104
23.8541
29.6889
24.4398
28.2061
24.9062
26.5015
25.645
24.6886
26.4656
23.2338
26.7973
22.714
26.2278
22.6408
25.6941
22.6525
25.3369
22.6327
25.046
22.7471
24.6271
23.1368
23.9106
23.7797
22.9476
24.612
21.838
25.3692
20.9769
25.5157
20.7669
24.8649
20.767
24.2951
20.7457
23.7393
20.875
23.0865
21.3118
22.2263
22.0325
21.2706
22.9281
20.3724
23.7572
19.7271
24.1698
19.7719
23.8359
20.0453
23.5893
20.2695
23.3294
20.5877
22.9005
21.1258
22.1698
21.8433
21.246
22.6367
20.2744
23.2935
19.4604
23.5049
19.192
23.0244
19.0612
22.5424
19.0059
22.0225
19.085
21.3548
19.439
20.428
20.043
19.367
20.8091
18.3259
21.5274
17.5039
21.8922
17.2915
21.6232
17.2674
21.375
17.3698
21.042
17.6594
20.5336
18.0736
19.92
18.5873
19.1912
19.1643
18.3801
19.772
17.4177
20.4309
16.4721
20.7432
15.9905
20.2121
15.7837
19.4494
15.7004
18.4087
15.5638
17.2084
15.2735
15.7576
14.8538
13.7585
14.3181
11.3888
13.3505
9.02893
11.3548
6.54592
8.23215
3.54094
4.31666
0.0944366
-0.331019
-3.93349
-5.62427
-8.59868
-11.3863
-13.6741
-17.3437
-18.8231
-22.8834
-23.4789
-27.5022
-27.533
-30.9179
-30.0057
-32.7191
-30.3746
-32.579
-29.6292
-30.4474
-28.0755
-27.1664
-25.9609
-23.776
-23.8363
-20.7038
-22.1737
-17.7841
-20.5722
-15.4684
-18.4034
-13.5709
-16.348
-11.8187
-14.243
-9.80701
-12.1399
-7.36609
-9.69582
-4.5882
-6.39609
-1.4045
-2.11241
2.76682
3.07144
8.13995
9.44541
15.0259
17.078
23.8211
26.0382
34.6727
36.3861
48.9785
47.2676
66.3065
60.8446
87.5113
75.8539
115.514
93.6226
143.422
122.034
171.199
162.188
204.586
10.16
29.5903
18.6241
30.1575
22.9367
30.379
24.7312
29.9197
25.3186
28.7406
25.6205
27.1435
26.0869
25.6118
26.402
24.4807
26.2926
24.0452
25.7696
23.6905
25.4632
23.3374
25.2938
23.088
25.071
23.094
24.6843
23.3905
24.0935
23.8603
23.3632
24.4039
22.5825
24.8086
22.0026
24.6998
21.8801
24.2381
21.6568
23.9221
21.3934
23.5448
21.3556
23.0174
21.6336
22.3442
22.1244
21.6538
22.7054
21.0501
23.1987
20.6625
23.4011
20.7309
23.2473
20.7696
23.2487
20.7592
23.1538
20.9189
22.8354
21.3122
22.2766
21.8215
21.5928
22.3347
20.907
22.7083
20.3215
22.7207
20.1353
22.4075
19.8592
22.1466
19.6192
21.7946
19.5554
21.2563
19.7599
20.5187
20.1335
19.7121
20.5897
18.9556
20.9661
18.3828
21.1077
18.2303
20.966
18.0505
20.9026
17.9487
20.731
18.0463
20.3941
18.2691
19.946
18.5898
19.3798
18.9744
18.7242
19.3891
17.9433
19.7981
17.2166
19.8763
16.8914
19.4452
16.5845
18.9295
16.2929
18.2137
15.9474
17.3109
15.6416
16.009
15.3822
14.277
14.7482
12.3971
13.4794
10.3693
11.5879
8.05285
9.15482
5.40011
5.68509
2.11416
1.45151
-1.83724
-3.4936
-6.47507
-9.03655
-11.6346
-14.8677
-17.045
-20.5072
-22.2161
-25.3071
-26.7067
-29.0528
-29.4394
-31.2242
-30.3265
-31.7059
-29.7378
-30.1926
-27.9727
-27.2138
-25.5209
-23.8386
-22.9666
-20.872
-20.7361
-18.3261
-18.9295
-15.7768
-17.368
-13.6933
-15.5763
-11.4528
-13.7535
-8.97462
-11.8871
-6.48248
-9.39466
-3.78489
-5.95657
-0.414866
-1.84977
3.94507
3.14798
9.49518
9.41253
16.6458
17.2531
25.8506
27.0361
37.7891
38.5395
53.3244
52.4651
72.6906
68.9727
97.1219
88.118
126.228
112.565
154.77
143.744
180.448
175.837
203.868
8.1001
23.3499
15.7129
24.8827
20.1419
26.3761
22.6187
26.6867
24.1389
26.2112
25.0251
25.2524
25.6847
24.2607
26.0422
23.5922
25.8986
23.4804
25.2937
23.5092
24.7813
23.5383
24.3783
23.607
23.9941
23.819
23.5437
24.2009
22.9834
24.6591
22.375
25.0871
21.8012
25.282
21.5744
24.9213
21.6179
24.2039
21.6982
23.5438
21.7476
22.8266
21.9005
22.0789
22.2403
21.3253
22.6915
20.679
23.1476
20.2881
23.4194
20.1726
23.383
20.507
23.0089
20.8886
22.7298
21.2304
22.4016
21.6412
21.9538
22.1503
21.3806
22.6613
20.7877
23.0656
20.2682
23.2456
20.0023
22.9767
19.9892
22.3994
20.0044
21.8108
20.0422
21.1643
20.1742
20.4286
20.454
19.6149
20.8041
18.8343
21.1536
18.2371
21.3387
17.9076
21.2234
18.0024
20.8205
18.1839
20.4532
18.4369
20.0229
18.7975
19.5158
19.1956
18.9886
19.6028
18.4428
19.9845
17.9107
20.3021
17.3764
20.5077
17.0185
20.3186
16.9745
19.6799
17.0351
18.9184
17.099
18.0006
17.0713
16.9725
16.8642
15.7394
16.4955
14.2812
15.8131
12.6734
14.6351
10.9528
12.7146
8.8372
9.97805
6.32226
6.50869
3.16488
2.21888
-0.756289
-2.86543
-5.55293
-8.68832
-11.1374
-14.9678
-17.2392
-21.3086
-23.29
-27.0605
-28.7233
-31.5106
-32.6014
-34.0482
-33.9944
-34.208
-33.3314
-32.2073
-31.1661
-28.8633
-28.1281
-25.211
-25.077
-21.8742
-22.6883
-18.9255
-20.8483
-16.9323
-18.7891
-15.2849
-16.9473
-13.7175
-15.2205
-11.9322
-13.6535
-9.95133
-11.9028
-7.82207
-9.40294
-5.173
-6.23161
-1.78819
-2.2688
2.54978
2.60585
8.1023
8.5294
15.1623
15.5372
24.4731
23.4015
36.6869
32.1806
51.5696
42.6738
69.7901
55.1383
89.0844
74.4001
109.202
100.335
132.416
129.795
158.154
11.6625
26.8626
17.2508
27.4502
21.2196
27.6198
23.6082
27.3964
24.9546
26.8797
25.592
26.0017
26.0955
25.122
26.1817
24.5694
25.8076
24.4784
25.1458
24.3793
24.668
24.2239
24.3282
24.1214
23.9995
24.1946
23.6224
24.4525
23.1961
24.7627
22.7737
25.0138
22.4475
24.9428
22.369
24.5589
22.5022
23.8719
22.5132
23.2738
22.453
22.6865
22.4632
22.0603
22.6373
21.4528
22.904
21.0062
23.0972
20.7927
23.1754
20.8118
23.0181
21.1511
22.6741
21.4513
22.4783
21.6671
22.2493
21.9489
21.9122
22.3224
21.4849
22.6828
21.064
22.9234
20.7638
22.8832
20.623
22.6084
20.7025
22.0592
20.6912
21.5604
20.6528
21.0182
20.6834
20.3965
20.837
19.7207
21.018
19.1123
21.1468
18.6973
21.0836
18.527
20.8254
18.6829
20.415
18.8076
20.1055
18.9466
19.7688
19.17
19.3756
19.4256
18.9671
19.6823
18.5462
19.9071
18.1458
20.0549
17.7638
20.0744
17.5371
19.8191
17.5936
19.2052
17.6481
18.5724
17.648
17.8584
17.5493
17.0661
17.4094
16.0867
17.0279
14.9213
16.327
13.7349
15.1086
12.3755
13.466
10.685
11.2197
8.50442
8.22569
5.67149
4.42026
1.99417
-0.187205
-2.6413
-5.62746
-8.24329
-11.7558
-14.5203
-18.2366
-20.9828
-24.3634
-26.8733
-29.4804
-31.2735
-32.8209
-33.704
-34.0225
-33.7905
-33.001
-31.7492
-29.8779
-28.263
-25.7955
-24.6396
-22.0027
-21.8521
-19.1877
-19.8676
-16.9654
-18.1874
-15.0717
-16.4167
-13.1092
-14.6228
-10.9788
-13.0256
-8.88299
-11.1798
-6.68126
-8.71092
-3.99226
-5.67718
-0.564802
-1.88805
3.86672
2.88703
9.64014
8.94953
17.2312
16.1043
27.5336
24.664
40.7655
35.3922
56.812
48.361
75.6485
65.3766
94.7204
87.0318
114.681
110.439
134.652
133.159
153.37
8.82122
22.6591
14.5866
23.404
18.8309
24.1246
21.7411
24.5153
23.5588
24.5605
24.6647
24.3392
25.2789
23.9872
25.4862
23.8048
25.2299
23.9247
24.6232
24.0564
24.1059
24.1269
23.6737
24.2316
23.2779
24.4489
22.8949
24.7551
22.5292
25.0548
22.2107
25.224
22.021
25.1705
22.0008
24.6799
22.2269
23.9178
22.3586
23.1224
22.4669
22.2843
22.5425
21.5124
22.7281
20.8505
22.9209
20.496
23.025
20.3826
23.0494
20.4995
22.8529
20.9726
22.4549
21.4458
22.1591
21.8595
21.8391
22.2879
21.4584
22.7274
21.0463
23.0816
20.7101
23.2098
20.5174
23.1477
20.4312
22.7323
20.5913
22.0514
20.7001
21.3751
20.7735
20.6805
20.8792
19.9563
21.0407
19.2656
21.1578
18.7129
21.1752
18.3576
21.1075
18.2247
20.7639
18.4854
20.2646
18.7939
19.8394
19.1303
19.3958
19.5139
18.9288
19.8778
18.495
20.1917
18.1054
20.4204
17.7988
20.5178
17.5647
20.4687
17.4787
20.1046
17.669
19.4165
17.8962
18.6901
18.0714
17.884
18.1478
17.006
18.0104
16.1101
17.6457
15.1431
16.9064
14.1168
15.7865
12.809
14.1792
11.1325
11.9263
9.05917
8.94823
6.36965
5.15327
2.75605
0.504673
-1.95637
-5.07025
-7.80222
-11.5971
-14.5865
-18.789
-21.8733
-26.0038
-28.8304
-32.2975
-34.4114
-36.4406
-37.3847
-37.6169
-37.2795
-35.8202
-34.6571
-31.9302
-30.5786
-27.1676
-26.2856
-22.8626
-22.9459
-19.511
-20.8986
-17.6496
-19.0845
-16.2895
-17.5967
-15.0789
-16.1091
-13.5975
-14.9567
-11.9437
-13.871
-10.2637
-12.1131
-8.238
-9.78509
-5.60963
-6.85722
-2.15949
-3.27485
2.24467
1.11578
8.23326
6.0167
16.0913
11.7983
25.9922
18.6191
38.2534
27.3723
50.7138
40.8628
64.9118
58.1572
81.9102
78.7313
101.515
101.02
122.175
12.7716
26.0105
17.1267
25.8718
20.467
25.8648
22.814
25.6781
24.2926
25.4035
25.1702
25.0427
25.643
24.7367
25.704
24.5563
25.312
24.6779
24.6517
24.7384
24.111
24.7247
23.6588
24.7102
23.2822
24.7943
22.9702
24.9848
22.7269
25.1637
22.56
25.2194
22.5105
25.0867
22.675
24.5032
22.9997
23.7202
23.1167
23.0657
23.1007
22.3013
23.0974
21.528
23.1884
20.9744
23.2334
20.7779
23.1212
20.7399
22.99
20.8936
22.7072
21.3641
22.2854
21.8185
21.9977
22.1738
21.7199
22.5194
21.4159
22.8566
21.1174
23.0997
20.9191
23.1531
20.8338
23.0329
20.9037
22.5711
21.1533
21.9112
21.2803
21.2862
21.3287
20.6328
21.3821
19.9807
21.4505
19.3811
21.4796
18.9501
21.354
18.6802
21.0204
18.6714
20.5725
18.9738
20.0326
19.2543
19.6019
19.5277
19.1912
19.8246
18.7873
20.0938
18.4302
20.2986
18.1308
20.4056
17.9286
20.3922
17.7867
20.2243
17.8233
19.8053
18.0938
19.1355
18.3502
18.481
18.5382
17.8074
18.6309
17.1491
18.4823
16.5042
18.0977
15.8479
17.4351
15.0905
16.5014
14.1201
15.1765
12.916
13.2804
11.3175
10.6999
9.02283
7.44862
5.70575
3.36764
1.21765
-1.78776
-4.48342
-8.11412
-11.3606
-15.4001
-19.0561
-23.0732
-26.7447
-30.1601
-33.1567
-35.4957
-37.3962
-38.2605
-38.8397
-37.9907
-37.0786
-34.382
-32.3925
-28.8679
-27.0115
-23.4388
-23.0646
-19.9576
-20.6589
-17.8849
-18.9227
-16.1331
-17.1678
-14.4464
-15.3563
-12.5917
-14.0229
-10.789
-12.8847
-9.23613
-11.2396
-7.3097
-9.29455
-4.83678
-6.77545
-1.53426
-3.51054
2.90909
0.545931
9.21668
5.27166
17.609
11.2809
28.1186
19.3282
39.6198
31.1429
52.1615
45.6792
66.4135
62.3226
82.0442
80.0749
98.2392
97.8365
114.054
9.4327
22.742
14.6305
22.5948
18.4573
22.9842
21.1513
23.3667
22.978
23.586
24.1227
23.7155
24.7356
23.793
24.9516
23.9307
24.7155
24.203
24.1325
24.4202
23.5825
24.5439
23.1262
24.6458
22.7388
24.8176
22.448
25.0041
22.3082
25.1638
22.2063
25.2664
22.2196
25.1121
22.4181
24.5843
22.7477
23.803
22.9474
23.0116
22.9639
22.1942
22.9019
21.3734
22.8615
20.7258
22.8363
20.4277
22.7805
20.4094
22.7364
20.6848
22.4839
21.2553
22.0735
21.8145
21.7707
22.2833
21.4812
22.7078
21.1832
23.0779
20.9047
23.3095
20.7432
23.3369
20.7262
23.1412
20.8441
22.6439
21.1015
21.9069
21.2651
21.2011
21.3019
20.5049
21.3271
19.813
21.3546
19.1754
21.3469
18.705
21.2128
18.4399
20.8987
18.4681
20.4381
18.8125
19.8688
19.2086
19.4086
19.6065
18.9712
20.0073
18.5489
20.3427
18.2001
20.5816
17.9375
20.6915
17.7887
20.6529
17.7642
20.4581
17.8589
20.019
18.1722
19.3128
18.5184
18.6173
18.7889
17.9033
18.9445
17.2387
18.825
16.6742
18.4658
16.0948
17.8803
15.3935
17.0274
14.5266
15.7317
13.4286
13.8414
11.9898
11.4444
9.7984
8.43891
6.61949
4.53109
2.30253
-0.579411
-3.3788
-7.05644
-10.5122
-14.8729
-18.8654
-23.5891
-27.6924
-32.1865
-35.7161
-38.8651
-41.0038
-42.0895
-42.4256
-41.1551
-39.9164
-36.7753
-34.46
-30.0652
-27.9421
-23.7101
-22.696
-19.3128
-20.4138
-17.6352
-19.1916
-16.7676
-18.2134
-15.9768
-16.9804
-14.737
-16.0112
-13.4635
-15.264
-12.2046
-14.1448
-10.61
-12.6594
-8.51063
-10.7093
-5.77984
-8.30793
-2.2109
-5.50025
2.79244
-2.38193
9.03812
1.76492
16.165
7.90104
23.923
16.4843
33.2568
27.7433
44.7429
41.6031
58.8031
57.8261
74.9738
75.268
92.1636
14.475
25.613
17.8865
24.8379
20.4451
24.5811
22.3222
24.5077
23.7221
24.3618
24.6073
24.3024
25.0937
24.3428
25.161
24.4558
24.8392
24.7533
24.2385
24.9344
23.6926
25.028
23.1213
25.0622
22.7207
25.1023
22.5349
25.1618
22.4585
25.278
22.4425
25.358
22.6069
25.1241
22.9423
24.5056
23.4298
23.6488
23.6221
22.989
23.612
22.2319
23.5013
21.4425
23.3768
20.8962
23.2005
20.6663
23.0322
20.6047
22.8008
20.8743
22.4484
21.4384
21.9815
22.0099
21.6511
22.4668
21.3699
22.8499
21.1195
23.1584
20.9281
23.3119
20.8637
23.3265
20.941
23.1083
21.1744
22.6006
21.5453
21.8951
21.7722
21.191
21.8153
20.5221
21.8233
19.8635
21.8001
19.3056
21.6806
18.9578
21.4053
18.7115
20.9339
18.7938
20.368
19.1571
19.7475
19.5225
19.2449
19.8835
18.8008
20.2348
18.4068
20.5132
18.1009
20.6822
17.8969
20.718
17.8205
20.5986
17.8515
20.3319
18.0446
19.8416
18.4508
19.1504
18.8355
18.4967
19.1372
17.878
19.3019
17.3718
19.1628
17.0204
18.8179
16.6595
18.3184
16.2065
17.5961
15.6765
16.4985
15.0185
14.9609
13.8851
13.0346
12.0185
10.5644
9.23739
7.16312
5.28487
2.51511
-0.142817
-3.69838
-7.26551
-11.5803
-15.9727
-20.7739
-25.6421
-30.3278
-34.873
-38.5384
-41.7704
-43.8077
-45.3824
-45.2231
-44.7691
-41.7737
-39.2104
-34.1058
-30.839
-25.6405
-24.132
-20.2756
-20.596
-18.1758
-19.0533
-16.8747
-17.4655
-15.2736
-15.6795
-13.9116
-14.5323
-12.5313
-14.0337
-11.4464
-13.248
-10.3659
-12.3715
-8.75526
-11.2144
-6.31845
-9.53781
-3.0227
-7.44079
1.77861
-4.55779
7.585
0.0694987
14.1354
6.88466
22.0577
15.6532
31.3
26.3933
42.133
38.9195
54.3774
52.8545
67.8972
67.3948
81.6159
11.0838
22.9831
15.5982
22.3826
18.8189
22.4063
21.1211
22.6744
22.7559
22.9657
23.714
23.3064
24.2425
23.6642
24.4875
24.0273
24.3261
24.412
23.8147
24.6723
23.3128
24.7998
22.7776
24.8673
22.3211
25.0043
22.1567
25.0334
22.1311
25.1644
22.1628
25.2847
22.3579
25.0922
22.7493
24.5634
23.2501
23.7426
23.6335
22.9582
23.5465
22.2049
23.3256
21.3794
23.0169
20.6509
22.7637
20.3079
22.5474
20.3536
22.5055
20.7225
22.2126
21.4232
21.784
22.0811
21.4706
22.5998
21.2174
23.0137
20.9983
23.3272
20.8235
23.4726
20.7929
23.447
20.9128
23.1724
21.1788
22.6428
21.5652
21.8672
21.8273
21.1117
21.8092
20.4325
21.7488
19.7617
21.6678
19.1885
21.5225
18.7525
21.241
18.5328
20.7602
18.6428
20.2033
19.0363
19.568
19.5065
19.0701
19.963
18.6344
20.3872
18.2506
20.7069
17.9729
20.8905
17.8109
20.9213
17.7837
20.7909
17.8788
20.5034
18.1123
20.0118
18.5364
19.2899
18.9881
18.6125
19.3358
17.9844
19.5248
17.5151
19.397
17.2188
19.1262
16.8933
18.7177
16.5429
18.0303
16.1705
16.9685
15.6483
15.5445
14.6245
13.9191
12.9282
11.7568
10.4638
8.71659
6.89365
4.44009
1.84861
-1.48951
-5.06574
-9.42242
-14.0411
-19.305
-24.659
-30.3572
-35.6509
-40.5973
-44.5167
-47.1045
-48.789
-48.5606
-47.7221
-44.369
-41.3727
-35.3232
-31.1517
-24.8215
-22.0308
-17.9776
-18.7779
-16.8316
-18.8397
-17.2501
-18.8998
-17.1209
-17.568
-15.7359
-16.5126
-14.7426
-16.062
-13.8678
-15.3659
-12.7797
-14.4112
-11.2761
-13.3396
-9.13598
-12.0924
-6.2395
-10.5847
-2.55058
-8.30401
1.55213
-4.77408
6.15213
-0.0208983
11.6929
6.50782
18.521
14.9765
27.1356
25.4881
38.0577
37.8106
51.2174
51.3802
65.5781
16.3832
25.3541
19.0835
24.1599
20.8273
23.7667
22.223
23.5961
23.3039
23.6181
24.0638
23.7568
24.5096
23.9733
24.6479
24.2978
24.4184
24.764
23.8921
25.0479
23.4001
25.1472
22.8515
25.1628
22.3471
25.1516
22.2285
25.1261
22.2083
25.2526
22.2921
25.4037
22.6263
25.1277
23.1155
24.4996
23.7902
23.5933
24.1228
22.9594
24.1116
22.2608
23.9317
21.4777
23.5925
20.8807
23.1568
20.5083
22.9049
20.3679
22.6186
20.742
22.1818
21.4313
21.6734
22.1383
21.3288
22.6831
21.0787
23.0885
20.8919
23.3729
20.7719
23.4797
20.8071
23.4496
21.0266
23.1777
21.4057
22.6555
21.9236
21.9128
22.2824
21.1362
22.2836
20.4707
22.197
19.816
22.0641
19.3046
21.8384
18.9509
21.4627
18.7265
20.8777
18.8488
20.1972
19.2478
19.4837
19.6975
18.9217
20.1426
18.4642
20.5496
18.0895
20.8411
17.8338
20.9827
17.7079
20.9655
17.7306
20.7812
17.8807
20.4441
18.1888
19.902
18.7062
19.1711
19.2082
18.511
19.5842
17.9498
19.721
17.6124
19.6168
17.4076
19.4019
17.1937
19.0536
17.0304
18.4537
16.88
17.5645
16.6685
16.3843
15.8847
15.161
14.556
13.4245
12.5079
10.8807
9.37951
7.10092
4.73235
1.54747
-1.98719
-6.33519
-11.2044
-16.7245
-22.6901
-28.9097
-35.1409
-40.9928
-46.3577
-50.3213
-53.4603
-54.6354
-55.5674
-53.0271
-50.6155
-43.9703
-38.1739
-30.0072
-25.0737
-19.4587
-18.9161
-16.7114
-18.2828
-16.5518
-17.0617
-15.9081
-15.7316
-14.8262
-14.4672
-13.6467
-14.5391
-13.0489
-14.3835
-12.8678
-14.4732
-12.2181
-14.3427
-10.8297
-13.6965
-8.71955
-12.6772
-5.77561
-10.839
-2.34682
-8.03029
1.89422
-3.94506
7.14689
1.5847
13.6681
8.65479
21.3924
17.3336
30.5759
27.9111
41.4706
40.357
53.5577
13.1469
23.4305
17.3593
22.3964
19.7692
22.1541
21.546
22.3063
22.7691
22.6238
23.4322
23.1127
23.8546
23.6026
24.0945
24.0818
23.985
24.6177
23.5157
25.0037
23.0529
25.0918
22.6003
25.0431
22.1741
24.9619
21.9382
24.915
21.9598
25.0123
22.0569
25.206
22.417
25.0805
23.0034
24.5482
23.7196
23.7434
24.2703
22.9638
24.2302
22.2747
23.875
21.5063
23.2699
20.6568
22.7303
20.1478
22.3504
20.2043
22.3215
20.6891
21.9359
21.5602
21.4917
22.3219
21.1641
22.889
20.9638
23.2755
20.8296
23.5311
20.7504
23.6223
20.7882
23.5389
21.016
23.2159
21.444
22.6489
22.0328
21.8495
22.4718
21.0482
22.3786
20.4142
22.1713
19.7807
21.9631
19.2483
21.7033
18.8338
21.3169
18.6337
20.6964
18.7785
20.0188
19.2172
19.2865
19.754
18.7352
20.2714
18.2972
20.7312
17.9523
21.0411
17.7431
21.1718
17.6706
21.1315
17.7402
20.9255
17.9367
20.5659
18.2828
20.0134
18.8218
19.2616
19.376
18.5882
19.7823
18.0379
19.9644
17.6804
19.9013
17.5304
19.7197
17.4034
19.4167
17.3238
18.9143
17.305
18.1116
17.2106
17.0314
16.621
16.029
15.5466
14.6454
13.8675
12.5692
11.2492
9.3693
7.23593
4.4776
1.19011
-2.84001
-7.6208
-13.2084
-19.5159
-26.4396
-33.4948
-40.4618
-46.6493
-51.6808
-55.5113
-57.4854
-58.7939
-56.3634
-53.9552
-46.544
-39.6347
-28.7667
-22.3769
-14.9991
-14.3866
-13.7282
-17.1531
-18.5305
-19.9285
-18.795
-18.0822
-16.3208
-16.6662
-15.259
-16.5952
-15.0512
-16.2415
-14.365
-15.6882
-13.7397
-15.4223
-12.5681
-14.9088
-10.8441
-14.1711
-8.55596
-12.9046
-5.9463
-10.866
-3.09539
-8.11158
0.478751
-4.11656
5.01771
1.58433
10.9476
9.02018
18.5749
17.6146
28.1694
28.3621
40.5193
19.094
24.4689
20.7729
23.6943
21.5082
23.2617
22.2632
23.0473
23.0768
23.1075
23.6059
23.3905
23.9494
23.6989
24.1984
24.1529
24.037
24.787
23.5569
25.2282
23.0601
25.3071
22.6657
25.2246
22.214
25.0993
22.0142
24.9907
22.0247
25.1325
22.109
25.365
22.4725
25.0897
23.1579
24.4431
24.0906
23.4804
24.6292
22.8812
24.6824
22.379
24.417
21.7244
23.9089
20.9678
23.2034
20.291
22.7571
20.0341
22.3996
20.5627
21.8249
21.4594
21.2427
22.3128
20.9422
22.8771
20.7908
23.2841
20.6729
23.5538
20.6138
23.6505
20.7061
23.5468
21.0499
23.2138
21.602
22.6502
22.3231
21.8834
22.8819
21.1204
22.782
20.4953
22.5205
19.8163
22.2771
19.3446
21.9601
19.0084
21.514
18.7894
20.8499
18.8733
20.034
19.3057
19.1873
19.8504
18.5605
20.3911
18.1021
20.8579
17.7647
21.158
17.5704
21.2664
17.5167
21.2056
17.619
20.9706
17.8592
20.5671
18.2758
19.953
18.9221
19.1379
19.5648
18.452
20.0045
17.9348
20.1731
17.6397
20.0839
17.5263
19.9173
17.4529
19.6562
17.4644
19.2207
17.5819
18.542
17.7474
17.5696
17.375
16.8262
16.594
15.8023
15.2991
14.2107
13.2033
11.6154
9.81454
7.38055
4.39218
0.607774
-4.05859
-9.7425
-16.4419
-24.2654
-32.3203
-41.0172
-48.8962
-55.5376
-60.6066
-64.0044
-67.3048
-66.3432
-66.0923
-59.6115
-52.1368
-39.6912
-28.5942
-17.8472
-13.9867
-11.3004
-14.3566
-13.8303
-16.6473
-17.9442
-16.3989
-15.5264
-14.2255
-13.4467
-14.2094
-13.7732
-15.2001
-14.3227
-15.8838
-14.6874
-16.4208
-14.2124
-16.3169
-12.9838
-15.8701
-11.2336
-15.2379
-9.24199
-13.97
-6.80142
-11.892
-3.71766
-8.94106
0.149629
-4.79957
5.11415
0.242163
11.1169
6.84087
18.0383
15.4072
27.9089
17.2472
23.475
19.4442
22.7528
21.1148
22.2033
22.352
22.0812
22.9339
22.5161
23.2841
23.0071
23.6103
23.4705
23.7431
24.1345
23.5824
24.8242
23.1244
25.3435
22.851
25.3918
22.5301
25.2202
22.1167
24.9398
21.8005
24.7747
21.6627
24.9286
21.8097
25.1997
22.3147
24.9867
23.1821
24.3745
24.2012
23.599
24.8278
22.9864
24.9349
22.3742
24.4423
21.7461
23.6656
20.8157
22.8674
20.0199
22.373
19.8647
22.1598
20.694
21.54
21.8048
21.0861
22.6091
20.7709
23.1846
20.6688
23.5377
20.6207
23.7546
20.6063
23.7883
20.6896
23.6293
21.0246
23.2095
21.6494
22.5629
22.5313
21.7429
23.1799
21.0822
23.0244
20.5325
22.615
19.8817
22.2478
19.3176
21.8781
18.9406
21.4702
18.7621
20.7638
18.9314
19.8725
19.4274
18.9397
20.0259
18.3084
20.5913
17.877
21.103
17.5811
21.4032
17.459
21.467
17.4773
21.3547
17.6395
21.0769
17.9407
20.6282
18.4136
19.9784
19.1091
19.1314
19.7881
18.4532
20.2379
17.9773
20.3855
17.7249
20.3243
17.6569
20.1944
17.6478
19.9894
17.7556
19.5948
17.9769
19.011
18.2315
18.1826
18.0419
17.5843
17.4955
16.8852
16.5349
15.726
14.9233
13.7288
12.2191
10.2932
7.6813
4.43687
0.131931
-5.1981
-11.7699
-19.7918
-28.3609
-37.9281
-46.7206
-54.3737
-59.7963
-63.6279
-68.3345
-68.5031
-69.9271
-65.4542
-57.3925
-41.679
-28.3036
-12.4871
-7.12134
-5.96273
-14.9489
-19.2668
-21.4497
-20.6396
-19.6433
-16.8469
-16.0793
-15.2435
-16.6922
-15.355
-16.4988
-14.7769
-16.2132
-15.1278
-16.9458
-15.0501
-17.1252
-14.1136
-16.9316
-12.5777
-16.3372
-11.347
-15.5028
-9.9578
-14.613
-8.13172
-13.3037
-6.03753
-10.2722
-2.87614
-5.30257
0.374614
-0.0978601
6.12824
6.0626
15.2461
21.3956
24.3037
22.1529
23.3621
22.3232
22.9286
22.5043
22.8978
22.8386
22.9411
23.2833
23.1848
23.5627
23.6027
23.7078
24.0967
23.67
24.8475
23.0857
25.2979
22.8794
25.436
22.6104
25.4091
22.232
25.1882
21.9431
25.0733
21.7096
25.2156
21.8929
25.2851
22.1634
24.9159
23.1052
24.2079
24.3656
23.2669
24.9587
22.8372
25.0307
22.6568
24.8469
22.1759
24.3719
21.2203
23.414
20.2369
22.6076
19.8036
21.9407
20.5246
21.2866
21.6765
20.656
22.5484
20.575
22.9731
20.5989
23.3795
20.5184
23.7197
20.4547
23.8271
20.565
23.6245
21.0649
23.1469
21.8179
22.4529
22.7524
21.7359
23.4193
21.2188
23.2757
20.6642
22.8012
19.884
22.4748
19.3884
22.1357
18.9915
21.7111
18.8423
20.9053
18.9579
19.8888
19.4643
18.8272
20.0726
18.1252
20.6884
17.6691
21.2064
17.4192
21.4784
17.3251
21.5295
17.3364
21.4353
17.4961
21.1543
17.8202
20.6666
18.3651
19.9401
19.1989
18.9716
19.9995
18.2734
20.4601
17.8454
20.584
17.6043
20.489
17.5242
20.3323