/*--------------------------------*- C++ -*----------------------------------*\
| =========                 |                                                 |
| \\      /  F ield         | OpenFOAM: The Open Source CFD Toolbox           |
|  \\    /   O peration     | Version:  4.1                                   |
|   \\  /    A nd           | Web:      www.OpenFOAM.org                      |
|    \\/     M anipulation  |                                                 |
\*---------------------------------------------------------------------------*/
FoamFile
{
    version     2.0;
    format      ascii;
    class       volScalarField;
    location    "1033";
    object      p;
}
// * * * * * * * * * * * * * * * * * * * * * * * * * * * * * * * * * * * * * //

dimensions      [0 2 -2 0 0 0 0];

internalField   nonuniform List<scalar> 
204246
(
134.448
-13.0693
39.6763
18.7113
16.5239
22.7387
11.5024
22.8891
9.93787
22.7145
9.12927
23.2715
7.44083
23.4959
8.58323
20.7983
14.9621
9.35693
21.6554
6.83121
22.8531
7.16741
21.4532
7.91514
21.3186
7.71974
22.209
5.94896
23.1423
5.69584
23.161
6.16529
22.2726
8.72783
18.4323
15.0001
8.16557
20.7322
6.87254
20.3898
7.24435
20.4792
6.93088
21.3696
5.10068
22.1914
4.9086
21.8497
6.04052
19.5309
8.2765
16.869
13.9541
6.69639
19.3677
5.2874
18.7942
5.46933
18.6314
4.88359
19.1762
2.66879
19.4517
2.03682
18.0899
2.95402
14.5583
3.47775
11.0089
6.51289
-0.0180112
7.10428
-2.45139
4.16445
-6.38631
0.341132
-11.1834
-3.82116
-17.9693
-8.78096
-23.7577
-14.6941
-28.6998
-21.5463
-32.6848
-27.7844
-30.8749
-40.3432
-28.867
-41.0494
-27.3557
-38.8732
-24.2354
-35.9115
-19.6675
-31.3819
-14.25
-26.6216
-10.1982
-22.1865
-8.62738
-19.1743
-7.32536
-17.5028
-8.72424
-13.6345
-18.7912
-9.54849
-22.4086
-9.1161
-26.3691
-10.057
-27.7123
-12.2419
-29.0672
-13.5948
-30.1761
-14.4896
-30.5379
-15.3676
-29.2787
-17.9681
-23.2561
-28.1798
-16.6298
-30.3901
-14.7922
-30.6249
-14.0767
-30.4089
-13.6443
-30.0889
-13.2996
-29.7469
-12.9967
-28.9875
-13.2644
-27.1051
-15.5477
-20.7611
-25.6779
-14.1275
-27.7766
-12.346
-27.8946
-11.5169
-27.6805
-10.975
-27.2162
-10.4426
-26.5398
-9.87955
-25.4325
-9.54962
-22.8792
-11.0581
-15.6787
-19.7955
-7.77807
-20.3487
-4.30895
-18.2997
-1.88718
-14.6427
0.781434
-9.98104
4.65935
-4.22682
9.76788
2.75824
16.0752
11.7377
24.059
23.2939
33.5505
40.074
42.3143
56.1705
60.7075
74.0153
83.7626
97.1342
111.474
126.377
146.315
164.145
192.432
215.091
258.991
287.936
375.667
391.591
598.631
41.9366
18.8571
18.3903
22.3912
15.6022
20.0705
14.6229
18.8678
13.9508
18.3382
13.4191
18.2766
13.2373
17.2403
14.5393
14.9816
17.6483
12.0119
17.4423
12.1633
17.0681
12.6703
16.6532
12.5112
16.8237
12.143
17.3102
11.7312
17.1473
11.8592
16.803
12.4001
15.7921
13.9607
13.8131
16.8421
11.3579
16.3411
11.8495
15.9119
11.7347
16.0706
11.3655
16.5005
10.9423
16.1965
11.1277
15.5516
11.8833
14.3671
12.8636
12.5166
15.6246
10.0361
14.9889
10.4057
14.4027
10.127
14.3645
9.54174
14.5144
8.82038
13.7659
8.56812
12.4443
8.39247
10.9366
8.3162
7.86469
9.35177
4.71948
5.26852
1.65098
3.13128
-1.73909
-0.429776
-6.00659
-4.82979
-11.307
-10.477
-16.6169
-16.9681
-21.7711
-23.8178
-26.494
-30.7878
-27.6655
-36.2957
-33.1628
-37.2106
-32.9713
-35.97
-29.7551
-33.0784
-25.764
-28.6389
-21.3088
-23.4704
-17.2728
-18.8999
-14.403
-15.8747
-12.8591
-13.4693
-13.5576
-11.0878
-16.1915
-12.2075
-17.7442
-13.3472
-19.7007
-15.6291
-21.2233
-17.6345
-22.9228
-19.1167
-24.2417
-20.2652
-24.7208
-21.4607
-23.8064
-23.4606
-20.9425
-26.0289
-20.6692
-25.7453
-20.304
-25.3391
-19.9119
-24.9538
-19.555
-24.5822
-19.2609
-24.1664
-19.1542
-23.4107
-19.5348
-21.7817
-21.142
-18.5602
-23.5064
-18.2013
-23.1776
-17.8456
-22.7882
-17.4084
-22.3743
-17.0099
-21.9007
-16.5857
-21.269
-16.1951
-20.2218
-16.1389
-18.0511
-17.0255
-14.1913
-18.3593
-12.6909
-16.6817
-10.8771
-14.3568
-8.58997
-11.6244
-5.67879
-8.19637
-1.97727
-3.68306
2.75971
2.12552
8.15865
9.87094
15.1045
19.64
23.2783
32.0282
35.7192
44.793
51.3556
60.876
70.5606
81.0188
94.0564
105.64
122.819
135.633
158.84
172.267
207.52
214.162
288.884
254.324
389.004
16.9786
25.1546
20.8228
21.9176
17.8166
19.8643
15.5628
18.947
14.3994
18.4338
13.7836
18.0607
13.5964
17.2465
14.3608
15.5812
16.0632
13.4724
16.7211
12.6804
16.9259
12.5705
16.7905
12.4633
16.805
12.2449
16.9798
11.966
16.9816
11.9889
16.752
12.4343
15.9839
13.5736
14.3583
15.2296
12.5926
15.7645
12.048
15.9136
11.7718
16.0218
11.4873
16.1726
11.1755
16.0571
11.2075
15.6006
11.6682
14.6487
12.5387
13.0734
14.0377
11.2393
14.4187
10.5725
14.3972
10.1357
14.3033
9.64193
14.1851
9.0467
13.6752
8.70898
12.5781
8.54606
10.6605
8.60318
8.1548
7.87028
5.26934
6.06008
2.62868
2.808
-0.524144
-0.874944
-4.57766
-5.40933
-9.56912
-10.987
-14.9748
-17.3089
-20.6438
-23.8444
-26.0099
-30.0685
-30.6552
-35.401
-33.7411
-37.1778
-33.7302
-36.7798
-31.6676
-33.0061
-27.8326
-27.501
-22.9535
-21.9431
-18.2424
-17.3467
-14.6362
-14.3086
-12.624
-12.5181
-12.8038
-11.5383
-14.4893
-12.0704
-16.7465
-13.3116
-18.8924
-15.239
-20.8222
-17.2469
-22.6337
-18.8378
-24.0349
-20.0846
-24.5891
-21.269
-24.0391
-22.9213
-22.2857
-24.7032
-21.2611
-25.2528
-20.456
-25.1981
-19.9221
-24.9114
-19.5193
-24.538
-19.2066
-24.0711
-19.0599
-23.328
-19.3355
-21.9919
-20.4607
-19.8635
-22.1296
-18.6891
-22.6152
-17.8738
-22.5496
-17.3236
-22.2422
-16.8805
-21.7967
-16.4524
-21.1612
-16.0709
-20.1382
-15.9602
-18.2764
-16.4617
-15.3809
-17.1066
-13.1894
-16.2718
-10.9083
-14.4162
-8.66168
-11.5082
-6.09469
-7.62087
-2.61358
-2.84547
2.03203
3.11361
8.06143
10.5708
15.5663
20.0854
25.1806
31.6955
36.7196
45.7225
52.3354
62.5688
72.2395
83.4962
97.0432
109.567
128.148
142.026
167.68
182.362
222.065
229.988
306.147
284.877
373.657
0.73108
16.4146
12.1024
18.5582
14.5608
18.1414
15.1089
17.3982
15.0467
16.7724
15.0019
16.3144
15.1888
15.4794
15.8603
14.4081
16.6147
13.8876
15.9783
14.0308
15.5053
14.1917
15.2964
14.0494
15.3121
13.8583
15.3683
13.7953
15.1472
13.9289
14.8046
14.3186
14.1975
15.0571
13.4435
15.6832
13.1583
15.0451
13.3573
14.7109
13.277
14.6465
13.1098
14.6231
13.0438
14.2896
13.1666
13.8032
13.4841
13.1638
13.924
12.3278
14.4821
11.9385
13.7542
12.024
13.3022
11.8177
13.0899
11.4945
12.8657
11.2113
12.2278
11.0214
11.323
10.6314
10.3269
10.1832
8.64189
9.37455
6.89185
7.04728
4.6419
4.2807
1.73452
0.810323
-2.06907
-3.50085
-6.74142
-8.99998
-12.2226
-15.3545
-18.2689
-22.2287
-24.433
-28.9406
-29.7974
-34.1513
-35.0199
-37.2175
-36.293
-37.2107
-34.7854
-34.2422
-31.1898
-29.0063
-26.1237
-23.2656
-20.9456
-18.1979
-16.7109
-14.5399
-14.086
-12.2853
-13.3209
-11.4008
-13.7238
-12.3533
-14.8088
-14.4199
-16.6096
-16.8721
-18.617
-19.0846
-20.6064
-20.8789
-22.1948
-22.3007
-22.9524
-23.4178
-22.7589
-24.3143
-22.152
-24.5955
-22.3215
-24.2321
-22.1811
-23.7483
-21.8887
-23.3125
-21.5885
-22.9054
-21.3543
-22.4579
-21.2666
-21.8149
-21.4367
-20.8126
-21.9671
-19.6898
-22.0785
-19.7789
-21.683
-19.6993
-21.266
-19.4671
-20.8478
-19.1711
-20.4027
-18.8435
-19.8388
-18.5437
-18.9882
-18.4456
-17.5451
-18.377
-16.0309
-17.6561
-15.2289
-16.2325
-13.9475
-14.3792
-12.0672
-12.1606
-9.72158
-9.31836
-6.60466
-5.68706
-2.572
-1.03163
2.35477
5.14847
8.61802
12.8709
16.4489
22.6546
26.795
33.7286
39.8467
47.1801
55.8443
63.6718
75.2578
83.5663
98.7765
107.562
128.125
135.218
168.264
163.147
220.635
207.5
278.597
2.68263
16.9257
12.7723
17.6161
15.4685
17.6292
15.7871
17.2984
15.5337
16.7913
15.3305
16.2821
15.3709
15.5798
15.6484
14.8574
15.8392
14.5984
15.4905
14.4191
15.3186
14.2624
15.2647
14.0672
15.2399
13.928
15.189
13.9152
15.0217
13.9972
14.7689
14.251
14.3252
14.6424
13.8346
14.8756
13.7376
14.6049
13.6111
14.5626
13.3891
14.5374
13.2178
14.4456
13.1684
14.1949
13.2071
13.8189
13.3431
13.3176
13.5538
12.6966
13.6901
12.4737
13.3103
12.2331
13.1282
11.8784
12.9502
11.5507
12.6774
11.2718
12.1895
11.0935
11.3894
10.7343
10.246
10.1346
8.90456
8.98373
7.30487
7.40164
5.23739
4.80156
2.49205
1.56933
-1.08444
-2.581
-5.5572
-7.80766
-10.9889
-14.0379
-17.2097
-21.008
-23.8155
-28.1536
-30.2468
-34.1404
-35.3567
-38.0077
-37.7902
-38.5205
-36.6782
-35.6316
-32.63
-30.1686
-26.6454
-23.6775
-20.5878
-17.7813
-15.7949
-13.5115
-12.8973
-11.1569
-11.8044
-10.5485
-12.0616
-11.541
-13.4406
-13.5567
-15.4164
-16.0829
-17.6994
-18.4849
-19.9155
-20.5212
-21.695
-22.0349
-22.7379
-23.107
-23.049
-23.8156
-22.8724
-23.8913
-22.7128
-23.8247
-22.3527
-23.5584
-21.941
-23.1903
-21.565
-22.7571
-21.2673
-22.2633
-21.1031
-21.6391
-21.1359
-20.8507
-21.336
-20.158
-21.219
-19.9939
-21.059
-19.6713
-20.8469
-19.3347
-20.5382
-18.9971
-20.1434
-18.6582
-19.5996
-18.3458
-18.7871
-18.2379
-17.6605
-17.8193
-16.3749
-17.0903
-15.3654
-15.8365
-13.941
-14.1454
-12.0504
-11.8592
-9.52688
-8.94772
-6.25526
-5.2112
-2.0886
-0.344276
3.13121
5.86593
9.7525
13.7653
18.0873
23.5192
28.7466
35.4748
42.3524
50.0945
59.3795
68.0129
80.4612
89.8309
106.269
115.924
138.428
146.18
180.531
177.469
226.757
215.396
260.493
-0.100208
12.051
9.04959
14.2564
13.0629
15.5981
14.5996
16.0103
15.2529
15.8695
15.5034
15.5313
15.7282
15.0847
15.9193
14.6695
15.9194
14.6863
15.3592
14.805
14.9904
14.8036
14.8125
14.6796
14.7238
14.5829
14.6199
14.5969
14.4165
14.6864
14.1758
14.8802
13.8967
15.0842
13.7121
15.015
13.8992
14.5258
14.023
14.2816
13.9615
14.1328
13.8823
13.9586
13.8779
13.6772
13.9178
13.3578
13.964
13.0322
14.0019
12.6925
13.8786
12.7609
13.3091
12.7803
12.9648
12.628
12.705
12.4416
12.4354
12.2683
12.0242
11.9546
11.5815
11.6614
10.8412
11.1079
9.83041
10.2032
8.52272
8.52901
6.78674
6.33065
4.3142
3.37707
1.01967
-0.542463
-3.24337
-5.63124
-8.5945
-11.9066
-14.9885
-19.1685
-22.1377
-26.8281
-29.4532
-33.898
-35.984
-38.9965
-39.765
-40.7516
-39.7193
-38.6622
-36.0391
-33.3276
-29.9219
-26.3416
-23.1756
-19.653
-17.3821
-14.5204
-13.49
-11.4412
-11.6697
-10.4274
-11.4738
-11.1911
-12.6732
-13.0905
-14.7886
-15.6663
-17.3147
-18.4432
-19.8192
-20.8984
-21.9056
-22.7363
-23.1554
-23.8775
-23.5676
-24.4011
-23.4641
-24.2419
-23.3066
-23.8135
-23.0733
-23.2545
-22.7122
-22.8058
-22.4343
-22.3735
-22.2352
-21.949
-22.1097
-21.4814
-21.9956
-20.9648
-21.9697
-20.5571
-21.5238
-20.6037
-21.1403
-20.5269
-20.7721
-20.3584
-20.4017
-20.1306
-20.017
-19.8734
-19.576
-19.5573
-18.9998
-19.3151
-18.203
-18.899
-17.5
-17.9676
-16.7673
-16.9427
-15.7158
-15.5938
-14.299
-13.8844
-12.3734
-11.7118
-9.86438
-8.86687
-6.66269
-5.10474
-2.59627
-0.235238
2.56647
5.9569
9.19492
13.642
17.7837
22.9057
28.6059
34.1869
42.0329
47.9801
58.4541
64.712
78.4993
84.4751
103.304
106.534
136.957
130.509
171.689
169.182
209.773
3.29423
13.9796
10.4724
14.5078
13.6786
15.5282
14.9774
15.9335
15.5112
15.8949
15.6593
15.6127
15.7384
15.2154
15.7881
14.8772
15.6026
14.9705
15.1242
14.9791
14.8656
14.8632
14.746
14.6973
14.6617
14.6011
14.5377
14.6085
14.3615
14.6503
14.1771
14.7563
13.9651
14.814
13.8951
14.6555
14.105
14.297
14.1433
14.1659
14.0321
14.0579
13.9306
13.8975
13.8831
13.6808
13.8824
13.4031
13.8479
13.1113
13.7662
12.8285
13.5236
12.8899
13.0989
12.8462
12.805
12.6185
12.5839
12.3835
12.3533
12.2104
12.0048
11.957
11.501
11.5869
10.8489
11.0538
10.0051
10.1841
8.95901
8.88099
7.38955
6.97488
5.21363
4.33689
2.2589
0.761246
-1.66349
-3.96481
-6.77587
-9.98782
-13.1705
-17.2639
-20.7105
-25.3914
-28.8352
-33.3301
-36.2619
-39.7314
-41.1993
-42.7446
-42.0759
-41.2521
-38.4355
-35.3598
-31.2757
-27.1538
-23.161
-19.2571
-16.3917
-13.3419
-12.0076
-9.9386
-9.94521
-8.83112
-9.7705
-9.55055
-11.0875
-11.5567
-13.3525
-14.3289
-16.1134
-17.316
-18.9102
-20.0867
-21.2408
-22.2654
-22.7965
-23.6445
-23.5276
-24.2442
-23.6379
-24.2042
-23.4461
-23.8135
-23.1325
-23.2705
-22.722
-22.7388
-22.3527
-22.2045
-22.0358
-21.7144
-21.7977
-21.241
-21.6225
-20.7756
-21.4101
-20.4589
-20.992
-20.4597
-20.6331
-20.3231
-20.344
-20.1168
-20.0537
-19.8565
-19.7354
-19.5694
-19.3639
-19.2932
-18.797
-18.9576
-18.1008
-18.4566
-17.345
-17.7804
-16.5441
-16.7196
-15.4569
-15.3244
-13.9364
-13.5477
-11.8918
-11.2639
-9.23883
-8.28473
-5.90075
-4.36243
-1.64846
0.668233
3.79658
7.03224
10.7666
14.9617
19.7135
24.7286
31.0716
36.733
45.1777
51.3789
62.4691
68.9752
83.4202
89.5394
109.165
111.385
139.327
135.982
167.19
163.35
192.15
2.17918
12.1323
8.68633
12.9956
12.1468
14.2456
13.9934
15.0209
14.9662
15.2844
15.4729
15.2346
15.7067
15.0446
15.789
14.8594
15.5921
15.0117
15.1479
15.1029
14.8538
15.0656
14.6408
14.9526
14.501
14.8896
14.3543
14.9035
14.1849
14.9244
14.0596
14.9597
13.9211
14.9718
13.9315
14.7331
14.201
14.3383
14.321
14.1512
14.283
13.9985
14.23
13.8172
14.1834
13.6116
14.1379
13.3786
14.1058
13.1364
14.0091
12.9689
13.6879
13.1001
13.2321
13.1253
12.9361
13.0273
12.6664
12.8776
12.4544
12.7041
12.2621
12.5328
11.9634
12.267
11.501
11.8569
10.8553
11.1209
9.96798
9.96896
8.67766
8.3126
6.79116
5.94625
4.12861
2.64668
0.465776
-1.83273
-4.45791
-7.71588
-10.8393
-15.0768
-18.6801
-23.6712
-27.6137
-32.8169
-36.5447
-40.8998
-43.4172
-45.7445
-45.9658
-45.438
-43.164
-40.0133
-35.9046
-31.1934
-26.7273
-21.9332
-18.3269
-14.4898
-12.4515
-10.0071
-9.4928
-8.35836
-8.92214
-8.81257
-10.1271
-10.8012
-12.5524
-13.7879
-15.6838
-17.1998
-18.9191
-20.4956
-21.7802
-23.0317
-23.6928
-24.5972
-24.5272
-25.0947
-24.4468
-24.7837
-24.0568
-24.0822
-23.5721
-23.4097
-23.071
-22.8286
-22.7615
-22.3343
-22.5812
-21.9379
-22.3916
-21.6124
-22.2112
-21.2364
-21.964
-21.0081
-21.4278
-21.015
-21.0311
-20.9287
-20.6701
-20.7788
-20.3532
-20.5693
-20.0478
-20.3265
-19.7328
-20.0831
-19.329
-19.8154
-18.8457
-19.4117
-18.3605
-18.6809
-17.8892
-17.8924
-17.1028
-16.9385
-15.9911
-15.7158
-14.5341
-14.074
-12.6447
-11.8645
-10.1932
-8.94953
-7.00015
-5.16912
-2.85038
-0.337247
2.55336
5.71982
9.56924
13.2487
18.4714
22.5437
29.6459
33.9934
43.4532
47.9655
60.4291
64.2616
81.9369
82.6391
107.235
105.323
133.771
133.684
160.7
5.5114
14.0491
10.3178
14.0957
12.9853
14.6584
14.4366
15.1562
15.2217
15.3162
15.5965
15.2666
15.7167
15.1175
15.7153
14.9469
15.4593
15.0848
15.047
15.1203
14.8129
15.0344
14.6223
14.9281
14.4626
14.8645
14.3122
14.8425
14.181
14.8295
14.0484
14.87
13.9248
14.8026
14.0007
14.5585
14.2471
14.2348
14.3227
14.1097
14.2907
13.9694
14.2372
13.8058
14.1837
13.6117
14.1252
13.3811
14.0216
13.1653
13.8409
13.0246
13.5016
13.1002
13.1028
13.0729
12.836
12.9325
12.5836
12.7771
12.3705
12.6255
12.1237
12.4384
11.8475
12.1754
11.497
11.814
11.0183
11.2076
10.3444
10.309
9.29429
8.97024
7.74278
6.99332
5.49115
4.15157
2.28608
0.167492
-2.21077
-5.28285
-8.33744
-12.4515
-16.2952
-21.359
-25.9289
-31.4379
-36.1332
-41.1215
-44.7393
-47.892
-49.0808
-49.2237
-47.2322
-43.8417
-39.0704
-33.3352
-27.7795
-22.1774
-17.8496
-13.4699
-11.0983
-8.34111
-7.65002
-6.37314
-6.93198
-6.77543
-8.12615
-8.83785
-10.6407
-11.9803
-13.9804
-15.6622
-17.5887
-19.317
-20.8518
-22.3794
-23.2214
-24.3689
-24.4612
-25.1873
-24.7268
-24.967
-24.3135
-24.3626
-23.7414
-23.6396
-23.1633
-22.8904
-22.6697
-22.1829
-22.2785
-21.6444
-21.9548
-21.2492
-21.7184
-20.8852
-21.4321
-20.6756
-20.9978
-20.6698
-20.6361
-20.5905
-20.3343
-20.4417
-20.0575
-20.2591
-19.7722
-20.0372
-19.4714
-19.7687
-19.1051
-19.4794
-18.658
-19.0733
-18.1882
-18.4586
-17.6167
-17.6898
-16.773
-16.6866
-15.649
-15.3629
-14.1465
-13.6485
-12.1763
-11.3932
-9.64965
-8.42497
-6.37545
-4.60051
-2.12909
0.262726
3.37502
6.39216
10.4694
13.9996
19.5186
23.4086
30.7772
34.923
44.5426
48.7495
61.3201
64.5532
81.4696
81.7971
103.486
101.14
123.905
122.769
144.18
4.99591
13.5503
9.36139
13.6711
12.1069
14.1606
13.772
14.6967
14.7905
14.9941
15.3797
15.0781
15.6267
15.055
15.6809
14.9916
15.4707
15.1409
15.1025
15.1943
14.8732
15.1311
14.6606
15.0466
14.4735
14.9857
14.3101
14.9687
14.1571
14.9681
14.0374
14.9762
13.9642
14.8729
14.0672
14.6286
14.3179
14.3075
14.4336
14.1709
14.4283
14.0297
14.3913
13.8652
14.3455
13.6738
14.2915
13.4628
14.2012
13.2819
14.0178
13.1702
13.6709
13.2656
13.2629
13.293
13.0117
13.1878
12.7771
13.1034
12.5783
13.0004
12.4501
12.8756
12.2946
12.6978
12.0651
12.4141
11.7075
11.9408
11.1623
11.2037
10.3209
10.0695
9.02659
8.34849
7.06917
5.8128
4.18567
2.17641
0.0196783
-2.93453
-5.84222
-9.89523
-13.7549
-18.9249
-23.7894
-29.8885
-35.4069
-41.6106
-46.6053
-51.2714
-53.8132
-54.8576
-53.3066
-50.1389
-45.2449
-39.1915
-32.7394
-25.9052
-20.1217
-14.6618
-11.0218
-7.93871
-6.51248
-5.35981
-5.47504
-5.59783
-6.71892
-7.72457
-9.50812
-11.1713
-13.3362
-15.3434
-17.538
-19.6457
-21.4517
-23.3053
-24.3591
-25.6699
-25.8077
-26.3917
-25.7307
-25.8398
-24.8915
-24.7263
-24.0327
-23.7538
-23.3298
-22.9486
-22.9938
-22.4267
-22.7472
-22.0756
-22.5517
-21.8104
-22.3476
-21.4739
-22.0071
-21.2473
-21.4528
-21.2224
-21.0454
-21.1203
-20.7117
-20.9483
-20.4234
-20.7849
-20.1421
-20.5977
-19.9037
-20.3705
-19.6382
-20.1329
-19.3486
-19.789
-19.0775
-19.285
-18.7005
-18.7673
-18.1333
-18.0952
-17.3717
-17.2031
-16.3345
-16.0091
-14.9545
-14.3995
-13.1358
-12.2541
-10.7174
-9.43774
-7.51456
-5.79999
-3.29291
-1.15956
2.23592
4.71403
9.34547
12.0859
18.3734
21.2838
29.6761
32.5755
43.7994
45.9479
61.4995
61.2707
80.7577
81.1847
101.602
102.1
122.145
7.50143
15.6593
11.0107
14.9566
13.1158
14.9473
14.3249
15.0793
15.069
15.1463
15.4725
15.1511
15.635
15.077
15.6296
15.0103
15.402
15.1379
15.0326
15.1814
14.8102
15.1122
14.6089
15.0152
14.4329
14.9474
14.264
14.9218
14.1149
14.902
13.9974
14.8905
13.9418
14.775
14.0551
14.5366
14.3025
14.2401
14.4186
14.1224
14.4129
14.0105
14.3907
13.8599
14.3532
13.6693
14.293
13.4598
14.162
13.2891
13.9396
13.1772
13.57
13.2397
13.148
13.2213
12.8867
13.1149
12.6451
13.0121
12.4337
12.9002
12.2591
12.7523
12.1587
12.6085
12.0163
12.4025
11.8307
12.0422
11.4824
11.5237
10.9047
10.7039
9.96412
9.40123
8.45928
7.38651
6.11403
4.35541
2.53681
-0.12592
-2.78884
-6.59297
-10.4399
-15.5939
-20.8894
-27.4086
-33.9277
-40.9918
-47.4747
-53.4899
-57.8537
-60.3451
-60.3565
-57.4736
-52.2411
-44.6864
-36.4941
-28.3235
-21.4183
-14.7008
-10.3439
-6.38471
-4.66227
-3.08317
-3.22871
-3.09551
-4.28182
-5.17943
-7.03736
-8.72233
-11.0173
-13.2404
-15.6488
-18.0878
-20.2353
-22.4876
-23.9307
-25.5827
-26.0778
-26.8791
-26.5224
-26.4984
-25.7166
-25.3092
-24.6386
-24.179
-23.7297
-23.0832
-22.9594
-22.1425
-22.3993
-21.5267
-22.0086
-21.2559
-21.8116
-20.9404
-21.5318
-20.7806
-21.0694
-20.8592
-20.6956
-20.8074
-20.4089
-20.6842
-20.1344
-20.5541
-19.884
-20.3716
-19.6657
-20.1605
-19.4235
-19.9261
-19.1756
-19.6041
-18.9263
-19.1338
-18.5648
-18.6192
-18.0161
-17.9426
-17.2778
-17.0582
-16.2667
-15.9001
-14.9207
-14.3529
-13.1597
-12.3042
-10.8337
-9.62829
-7.76137
-6.18643
-3.7096
-1.77965
1.597
3.77793
8.42495
10.7888
17.0349
19.4855
27.72
30.0115
40.9669
42.038
56.5732
56.3474
72.786
72.6454
89.8907
90.0214
107.007
7.43887
15.5886
10.7692
14.8574
12.691
14.923
13.9414
15.0701
14.8116
15.1361
15.3319
15.1605
15.6027
15.1192
15.6428
15.0858
15.4567
15.2149
15.1009
15.2723
14.8799
15.2091
14.6697
15.1178
14.4664
15.0432
14.285
15.0156
14.1279
14.9981
14.0169
14.9618
13.9909
14.8327
14.1136
14.603
14.3595
14.3206
14.4958
14.1915
14.5248
14.0802
14.517
13.9411
14.4903
13.7688
14.4328
13.5734
14.312
13.4123
14.0958
13.3142
13.7317
13.3927
13.3222
13.4071
13.0542
13.3388
12.8206
13.2788
12.6349
13.2104
12.5598
13.0861
12.4863
13.0265
12.4104
12.871
12.3254
12.5816
12.0865
12.1732
11.6536
11.51
10.9122
10.4227
9.66491
8.70344
7.65625
6.06942
4.50814
2.08457
-0.311453
-3.84837
-7.46579
-12.4245
-17.6664
-24.3301
-31.3714
-39.6344
-47.5935
-55.7747
-62.3789
-67.2302
-68.5215
-66.326
-60.9218
-53.226
-43.8395
-33.4455
-24.1875
-15.7757
-9.53604
-5.15281
-2.54317
-1.24208
-1.0057
-1.45197
-2.3828
-3.74706
-5.52677
-7.64558
-10.0199
-12.5528
-15.199
-17.9968
-20.4854
-23.1532
-24.9566
-26.936
-27.5766
-28.4422
-27.7988
-27.6083
-26.2462
-25.708
-24.6318
-24.1337
-23.6449
-23.0917
-23.2593
-22.5112
-22.9089
-22.1367
-22.6834
-21.9804
-22.5222
-21.6911
-22.1254
-21.3595
-21.5026
-21.3041
-21.0639
-21.2147
-20.7534
-21.0666
-20.4578
-20.9311
-20.2109
-20.7739
-20.0159
-20.5936
-19.8302
-20.3919
-19.6735
-20.1357
-19.5687
-19.7646
-19.3237
-19.4303
-18.9529
-18.9998
-18.4424
-18.4318
-17.753
-17.6342
-16.8283
-16.5401
-15.5796
-15.0598
-13.8614
-13.0888
-11.5291
-10.5122
-8.4213
-7.14555
-4.31225
-2.83678
1.09561
2.65657
8.05799
9.59852
16.8977
18.2598
28.1413
28.6774
41.1713
42.2093
56.4505
57.922
73.1019
74.2435
90.1138
10.0072
17.703
12.4408
16.3321
13.7316
15.8265
14.5393
15.5662
15.1119
15.3772
15.4606
15.2404
15.6318
15.1375
15.6234
15.0647
15.4218
15.1831
15.0456
15.2376
14.817
15.1915
14.6055
15.0954
14.4118
15.0203
14.2278
14.9803
14.0665
14.9496
13.9582
14.8955
13.9419
14.7706
14.0625
14.5486
14.3148
14.2707
14.4789
14.1284
14.5225
14.0387
14.5242
13.9207
14.5005
13.7681
14.4452
13.5834
14.3273
13.4095
14.0796
13.3041
13.6812
13.352
13.231
13.3507
12.941
13.2565
12.6856
13.1733
12.4779
13.0943
12.3642
12.9878
12.3315
12.9259
12.3247
12.8462
12.3363
12.699
12.3241
12.4224
12.1373
12.0444
11.7302
11.3573
10.9258
10.1547
9.46885
8.16473
6.99941
4.94779
2.94606
-0.194314
-3.53326
-8.22678
-13.5131
-20.3006
-27.9494
-36.9541
-46.868
-57.1654
-66.6958
-74.2748
-78.792
-78.8039
-74.4503
-65.4251
-53.7376
-41.164
-29.2764
-18.7484
-9.96435
-4.03158
-0.428719
1.28456
1.80257
1.54794
0.625196
-0.463444
-2.38058
-4.3326
-7.01434
-9.8324
-12.8037
-16.12
-19.0984
-22.3248
-24.7338
-27.2535
-28.5306
-29.6984
-29.6704
-29.2122
-28.1443
-26.8324
-25.8843
-24.9431
-24.3524
-23.2647
-23.1675
-21.9564
-22.3138
-21.1994
-21.9243
-21.2277
-21.8783
-21.0044
-21.6952
-20.8482
-21.1945
-21.007
-20.7706
-20.9799
-20.4784
-20.8729
-20.2097
-20.7745
-19.9925
-20.6379
-19.8192
-20.4916
-19.6475
-20.318
-19.5264
-20.0844
-19.4563
-19.714
-19.3311
-19.3947
-19.0324
-18.996
-18.6295
-18.4734
-18.0313
-17.7876
-17.2031
-16.8596
-16.1087
-15.6104
-14.6104
-13.9177
-12.5685
-11.6914
-9.82242
-8.77637
-6.07593
-5.04848
-1.24391
-0.183332
4.95386
5.96702
12.6599
13.6074
22.2391
23.2515
33.6003
34.7765
46.6522
47.8922
61.1221
62.1438
76.2255
9.92798
18.1364
12.4563
16.6214
13.7791
16.0382
14.5813
15.7364
15.16
15.5228
15.5344
15.3595
15.726
15.2343
15.7557
15.1584
15.5414
15.2839
15.1458
15.3397
14.89
15.3035
14.6674
15.2
14.444
15.126
14.2459
15.0754
14.077
15.0346
13.9714
14.9668
13.9645
14.8377
14.0944
14.611
14.3649
14.3247
14.5587
14.1835
14.6285
14.0884
14.6512
13.9788
14.644
13.8368
14.601
13.6688
14.4852
13.5129
14.2352
13.4299
13.8409
13.5001
13.3819
13.5224
13.0704
13.46
12.8238
13.3963
12.6472
13.3422
12.5603
13.285
12.5468
13.2263
12.5863
13.1803
12.6685
13.071
12.7335
12.8587
12.649
12.5843
12.384
12.0629
11.7941
11.135
10.6571
9.54843
8.65488
6.91666
5.27652
2.58185
-0.305835
-4.49421
-9.36941
-15.9291
-23.6849
-33.3025
-43.964
-56.3176
-68.7371
-80.5693
-88.7872
-91.8218
-87.6895
-78.6108
-64.9683
-49.2556
-34.3977
-21.011
-9.94399
-1.82114
2.43217
4.30766
4.52638
3.57492
2.52035
1.09779
-0.765493
-3.2716
-5.63831
-8.63585
-11.6449
-15.0689
-18.4185
-22.1024
-25.0218
-28.1834
-29.8557
-31.4709
-31.2078
-30.8877
-28.7826
-27.3707
-25.3046
-24.4531
-24.1109
-23.3006
-23.6967
-22.6482
-23.0675
-21.9854
-22.7125
-22.0105
-22.8194
-21.9284
-22.3058
-21.382
-21.4677
-21.3557
-21.0589
-21.3008
-20.7783
-21.1556
-20.4707
-21.024
-20.2532
-20.9007
-20.0772
-20.7804
-19.9206
-20.6295
-19.8512
-20.42
-19.8964
-20.1097
-19.8119
-19.9057
-19.6281
-19.6751
-19.3926
-19.358
-19.0074
-18.8879
-18.4657
-18.2586
-17.7092
-17.4302
-16.6096
-16.2899
-15.0935
-14.7196
-13.0562
-12.6731
-10.2785
-9.86062
-6.65671
-6.20868
-1.83344
-1.41269
4.44327
4.92674
12.3632
13.094
22.2545
23.3746
33.9958
35.5207
47.4131
48.7586
62.2411
12.1596
20.1448
14.1057
18.0088
14.8839
16.8956
15.2433
16.197
15.5134
15.7317
15.7008
15.4249
15.7899
15.2039
15.7848
15.1131
15.5365
15.241
15.1196
15.3094
14.8331
15.2889
14.5963
15.2058
14.3775
15.1212
14.1773
15.0621
14.0002
15.0125
13.8883
14.9346
13.8831
14.805
14.0166
14.5745
14.306
14.2812
14.5294
14.1328
14.6339
14.0311
14.6904
13.9276
14.6951
13.8079
14.6593
13.6593
14.5462
13.5082
14.2667
13.4268
13.826
13.4883
13.2975
13.4939
12.9763
13.3968
12.6898
13.3021
12.4836
13.2307
12.3768
13.193
12.3602
13.1616
12.4629
13.1093
12.6116
13.0878
12.8565
12.9919
12.9816
12.9442
12.9828
12.7456
12.7411
12.2391
12.066
11.2113
10.6757
9.31235
8.10601
5.92225
3.56358
0.0306974
-4.22452
-10.0728
-17.5278
-27.3187
-39.5176
-53.9593
-70.0915
-86.738
-101.217
-108.926
-109.75
-101.665
-86.228
-67.3139
-46.7267
-30.1946
-13.6015
-2.98795
5.58777
7.11869
7.8229
7.24113
6.03633
4.86795
3.38273
0.984373
-1.97344
-5.26302
-8.6678
-12.8662
-16.6555
-21.1487
-24.8541
-28.8457
-31.5226
-33.859
-34.6538
-34.0995
-32.6635
-29.7762
-27.5751
-25.7878
-24.7283
-23.2761
-23.1955
-21.6371
-21.9617
-20.6012
-21.3722
-20.95
-21.9382
-21.19
-22.0325
-20.9832
-21.3928
-21.0442
-20.8767
-21.0497
-20.5396
-20.9821
-20.2845
-20.8927
-20.0796
-20.8287
-19.9033
-20.7311
-19.7877
-20.6215
-19.7383
-20.4598
-19.7821
-20.1562
-19.8621
-19.9468
-19.7639
-19.7647
-19.6376
-19.5396
-19.356
-19.1949
-18.9478
-18.7095
-18.4184
-18.1039
-17.5751
-17.2288
-16.3447
-16.0071
-14.649
-14.385
-12.3006
-12.0952
-9.21615
-9.10041
-5.09675
-5.11369
-0.0495881
0.0679933
6.51911
6.69361
14.8113
14.9808
24.5907
24.9019
36.0616
36.318
49.0673
12.065
20.694
14.2512
18.497
15.1873
17.2931
15.5857
16.5074
15.8483
15.9551
16.0173
15.5825
16.0754
15.3371
16.0158
15.2383
15.7031
15.3738
15.2296
15.4507
14.8946
15.4336
14.6332
15.3409
14.391
15.2467
14.1721
15.1764
13.9853
15.1116
13.8761
15.0205
13.8792
14.8739
14.0302
14.6222
14.3503
14.3036
14.613
14.1445
14.7482
14.0452
14.824
13.9451
14.8507
13.8242
14.8218
13.6986
14.7025
13.5893
14.4065
13.5509
13.9727
13.6319
13.4405
13.6356
13.0697
13.5784
12.7921
13.5037
12.6071
13.4417
12.4873
13.417
12.4695
13.406
12.5922
13.3649
12.8073
13.3108
13.1133
13.2169
13.2761
13.2213
13.3496
13.1242
13.2475
12.8171
12.8033
12.111
11.7925
10.7164
9.83864
8.1078
6.22159
3.3109
-0.304717
-5.37057
-12.0215
-21.111
-32.8328
-48.7823
-66.8688
-87.8878
-108.502
-123.547
-128.472
-123.982
-105.827
-83.1534
-58.4875
-37.42
-18.6712
-1.25512
7.65858
12.3018
10.81
9.39731
7.59793
5.71216
3.71383
1.70928
-0.481382
-3.72718
-6.77597
-10.6614
-14.845
-19.3979
-23.8207
-28.5799
-31.9572
-35.3645
-36.5941
-36.8994
-33.9841
-31.0501
-26.0885
-24.3432
-24.7202
-23.4924
-24.4816
-23.1516
-23.2587
-21.5276
-22.1117
-21.5887
-23.2006
-22.4034
-22.6481
-21.3774
-21.2741
-21.3978
-21.0827
-21.4891
-20.7923
-21.2604
-20.4288
-21.0972
-20.2382
-21.0515
-20.0641
-20.9254
-19.9536
-20.8242
-19.9325
-20.7142
-20.0462
-20.3685
-20.1502
-20.2189
-20.1533
-20.1263
-20.1822
-20.0765
-20.0254
-19.8668
-19.7864
-19.5651
-19.5216
-19.2382
-19.0179
-18.7779
-18.1539
-17.9957
-17.0142
-17.0247
-15.3732
-15.5375
-13.2136
-13.5488
-10.2547
-10.6547
-6.67705
-6.7188
-1.68745
-1.48805
5.20325
5.8338
13.5392
14.5771
23.8951
24.7018
36.5335
14.4458
22.4808
15.8508
19.6542
16.2381
17.9698
16.2241
16.8149
16.2245
16.0335
16.2367
15.5676
16.1926
15.2864
16.0647
15.183
15.7204
15.3423
15.2102
15.4501
14.8449
15.4508
14.5704
15.3592
14.3317
15.2628
14.1021
15.1914
13.8927
15.1262
13.7666
15.0329
13.7622
14.8734
13.9279
14.6008
14.2859
14.2558
14.5871
14.0835
14.7571
13.9818
14.8769
13.888
14.9424
13.7814
14.92
13.6785
14.8002
13.5902
14.4899
13.5435
14.0018
13.6393
13.3986
13.6622
13.0031
13.5386
12.6529
13.456
12.4187
13.4036
12.2762
13.3651
12.257
13.3522
12.4093
13.3041
12.7227
13.2343
13.1152
13.2289
13.4586
13.3996
13.7164
13.5356
13.8412
13.5239
13.7187
13.229
13.1717
12.4007
11.8674
10.6075
9.23501
7.03525
4.18773
0.12051
-5.43847
-13.3478
-23.9932
-39.206
-59.356
-83.2562
-109.404
-131.424
-145.112
-148.089
-136.187
-109.642
-79.6538
-55.9171
-31.3384
-12.791
8.27128
13.0641
16.499
13.2011
12.0054
10.3528
8.93785
6.40134
3.30579
-0.0966502
-3.55732
-8.06319
-12.2879
-17.894
-23.055
-29.0004
-33.6712
-38.3951
-41.3628
-42.3817
-41.3745
-36.2567
-30.8587
-25.8712
-24.0354
-22.3137
-22.897
-21.7562
-21.8322
-20.0927
-19.8866
-19.7814
-21.5833
-21.6904
-23.1926
-21.4267
-21.5831
-20.7543
-20.8605
-21.0238
-20.6864
-21.126
-20.3376
-20.9586
-20.0983
-20.9351
-19.9862
-20.837
-19.9004
-20.745
-19.8607
-20.7333
-19.993
-20.4482
-20.1668
-20.2596
-20.2254
-20.2227
-20.3386
-20.2563
-20.3122
-20.1099
-20.1494
-19.8834
-20.081
-19.7917
-19.8462
-19.5173
-19.2777
-19.0566
-18.3641
-18.4861
-17.1555
-17.3441
-15.5684
-16.1053
-13.0429
-13.8714
-10.562
-11.1684
-6.75911
-7.6625
-1.52222
-2.4352
5.02483
3.93782
12.9243
11.803
23.9239
14.3409
23.081
16.1779
20.1649
16.8486
18.3628
16.9103
17.1025
16.8649
16.2661
16.7192
15.7811
16.5819
15.4459
16.3229
15.3577
15.8913
15.5216
15.2936
15.6488
14.8599
15.6419
14.5576
15.5392
14.3032
15.4242
14.06
15.3407
13.8408
15.257
13.7191
15.1416
13.7329
14.9375
13.9359
14.6125
14.3501
14.2136
14.7047
14.0214
14.9201
13.9096
15.0387
13.824
15.1076
13.7312
15.0864
13.6592
14.9437
13.6428
14.6181
13.6647
14.117
13.7968
13.4717
13.8363
13.0515
13.7267
12.7355
13.6243
12.4881
13.5868
12.2989
13.5827
12.2713
13.5567
12.4351
13.4871
12.7701
13.399
13.2695
13.2946
13.5822
13.4815
13.8673
13.6641
14.0626
13.7701
14.063
13.6841
13.7586
13.208
12.8794
11.9757
10.9452
9.2985
7.05895
3.90725
-0.631857
-6.99126
-16.319
-29.2894
-48.3974
-71.2919
-98.9405
-125.03
-144.292
-153.662
-149.58
-122.521
-92.7676
-64.7095
-41.0292
-16.4551
3.90017
15.2186
12.7211
15.2614
10.3725
9.06103
7.56982
6.60177
5.26328
1.59524
-1.14007
-5.30123
-9.55531
-14.9288
-20.5452
-27.0341
-32.3055
-38.313
-42.6723
-45.9633
-44.4848
-39.5479
-28.3505
-24.0253
-24.5303
-23.0014
-25.6526
-24.7095
-23.9755
-21.185
-20.466
-19.9029
-23.0436
-23.065
-23.4346
-21.7777
-21.1183
-21.0295
-21.1151
-21.6685
-20.9101
-21.3154
-20.3439
-21.143
-20.1959
-21.1308
-20.0805
-20.9815
-19.95
-20.8755
-19.9506
-20.8108
-20.1059
-20.588
-20.2386
-20.3136
-20.4165
-20.2813
-20.6423
-20.4636
-20.7222
-20.4506
-20.5557
-20.2646
-20.5428
-20.3048
-20.5686
-20.3896
-20.2588
-20.0566
-19.6518
-19.9334
-18.8384
-19.3707
-17.9525
-18.8608
-16.3398
-17.2894
-15.2543
-15.8009
-12.8644
-14.0697
-8.83036
-9.17509
-4.28102
-3.87961
1.58126
1.53395