/*--------------------------------*- C++ -*----------------------------------*\
| =========                 |                                                 |
| \\      /  F ield         | OpenFOAM: The Open Source CFD Toolbox           |
|  \\    /   O peration     | Version:  4.1                                   |
|   \\  /    A nd           | Web:      www.OpenFOAM.org                      |
|    \\/     M anipulation  |                                                 |
\*---------------------------------------------------------------------------*/
FoamFile
{
    version     2.0;
    format      ascii;
    class       volScalarField;
    location    "1548";
    object      p;
}
// * * * * * * * * * * * * * * * * * * * * * * * * * * * * * * * * * * * * * //

dimensions      [0 2 -2 0 0 0 0];

internalField   nonuniform List<scalar> 
204246
(
141.87
-2.19775
51.3446
31.9565
30.4022
37.408
26.6256
38.3906
25.7807
38.6729
25.3381
39.496
23.8269
39.8578
25.0271
37.2187
31.3886
25.764
38.0003
23.1712
39.0967
23.3936
37.577
23.9995
37.3008
23.6478
38.0337
21.7126
38.7995
21.2879
38.6448
21.5894
37.569
24.0117
33.5971
30.0642
23.1355
35.641
21.6739
35.1246
21.8647
35.022
21.3471
35.6872
19.279
36.2136
18.8523
35.3946
19.8928
32.4451
21.3432
29.4255
26.0811
18.393
30.5311
16.0215
28.6019
14.751
26.8328
12.5306
25.0746
9.00482
22.0143
6.36492
17.5735
3.5774
11.5167
0.173688
4.88191
-0.112373
-8.15803
-4.77633
-14.6215
-8.80215
-20.884
-12.8721
-27.2535
-15.1539
-32.3629
-15.7559
-33.6742
-16.1397
-31.2289
-17.774
-26.4225
-16.8521
-18.1155
-21.6066
-10.7142
-19.4126
-5.62147
-17.5113
-1.73644
-17.5845
1.148
-16.7034
2.45242
-15.8547
2.77919
-14.3288
1.20522
-12.7414
0.739703
-11.1273
-0.710932
-6.61509
-9.90574
-0.400593
-12.2427
2.14265
-14.3752
3.27316
-13.8234
2.89572
-13.5428
2.93351
-13.4483
2.95193
-13.0624
2.54967
-11.4451
0.107986
-5.3574
-10.1768
1.16464
-12.5823
2.80349
-13.0599
3.28285
-13.0942
3.47392
-13.0193
3.58896
-12.9113
3.67977
-12.3712
3.22245
-10.6946
0.782898
-4.5113
-9.51841
1.96747
-11.7399
3.62387
-11.9657
4.35301
-11.8412
4.818
-11.4476
5.29273
-10.8244
5.81355
-9.75599
6.11292
-7.23298
4.58448
-0.0491087
-4.17628
7.83905
-4.73928
11.3009
-2.69636
13.7194
0.958371
16.3821
5.62129
20.2609
11.376
25.3713
18.3617
31.6796
27.3415
39.663
38.8982
49.1528
55.6787
57.9136
71.7762
76.3064
89.6205
99.362
112.739
127.075
141.982
161.917
179.75
208.036
230.693
274.597
303.539
391.273
407.195
614.236
49.5798
29.4964
29.9858
35.169
29.1124
34.459
29.507
34.1491
29.6656
34.2049
29.5714
34.4926
29.6121
33.6408
31.0053
31.4561
34.1264
28.4877
33.8665
28.5736
33.4038
28.9721
32.8735
28.6777
32.9043
28.1576
33.2333
27.5831
32.9029
27.5383
32.3846
27.9035
31.1997
29.274
29.0858
32.0127
26.4297
31.3407
26.7528
30.7398
26.468
30.7177
25.9147
30.9394
25.2832
30.3675
25.222
29.3849
25.5246
28.0634
25.9849
25.6611
28.2293
22.3324
26.6924
21.6988
25.0409
20.217
23.4275
18.1692
21.4763
15.4585
18.6247
12.744
14.8423
9.78738
9.91734
6.20224
3.44233
4.12457
-3.29656
-3.64261
-9.76847
-9.73874
-15.4521
-14.8445
-21.0787
-19.0558
-25.3458
-22.2111
-27.0446
-23.6622
-26.0669
-23.382
-23.8914
-22.3799
-18.8098
-20.5087
-14.75
-17.4176
-11.364
-14.2381
-8.02115
-12.2643
-5.9874
-10.7089
-4.75464
-9.6122
-4.33655
-8.49824
-4.46729
-7.94949
-4.62751
-6.75495
-5.70808
-4.08803
-8.34175
-3.5724
-8.46864
-2.83703
-8.51586
-2.99196
-8.01971
-3.03596
-7.9123
-2.92893
-7.83717
-2.96962
-7.39319
-3.55368
-5.98145
-5.35517
-2.94556
-7.94855
-2.72586
-7.83954
-2.55888
-7.67328
-2.41701
-7.54155
-2.31168
-7.41621
-2.24979
-7.23123
-2.35501
-6.68841
-2.92881
-5.25361
-4.71557
-2.19384
-7.23978
-2.00348
-7.04863
-1.78541
-6.78016
-1.46143
-6.46929
-1.15346
-6.07931
-0.799722
-5.51173
-0.462569
-4.51183
-0.446008
-2.37732
-1.36574
1.46113
-2.72326
2.94137
-1.06102
4.74254
1.25525
7.02145
3.98426
9.92875
7.40919
13.6291
11.9226
18.3646
17.732
23.7634
25.4772
30.7079
35.2467
38.8801
47.6344
51.3183
60.3987
66.9546
76.481
86.1603
96.6236
109.658
121.245
138.421
151.237
174.446
187.868
223.127
229.764
304.489
269.929
404.609
25.2172
36.4925
32.5238
34.6027
31.2053
34.1657
30.5027
34.1731
30.0874
34.2088
29.8656
34.1926
29.8944
33.5759
30.7599
31.9982
32.4881
29.8996
33.1039
29.0531
33.2302
28.8425
32.9882
28.6056
32.8688
28.2407
32.8903
27.8036
32.7273
27.6607
32.3234
27.9354
31.3806
28.9051
29.5676
30.3985
27.6512
30.7578
26.9412
30.7324
26.495
30.6592
26.0288
30.6063
25.5135
30.2455
25.3053
29.4924
25.4599
28.0829
25.8597
26.0342
26.6485
23.5464
26.2284
21.9561
25.1058
20.3802
23.5492
18.4784
21.5363
16.2189
18.4788
13.7914
14.5058
10.8436
9.75835
7.27521
3.82675
2.64831
-2.02733
-3.24254
-8.15492
-9.7555
-14.1615
-15.5829
-20.0062
-19.9445
-24.6189
-22.7882
-26.9466
-24.1411
-26.6787
-24.12
-24.0305
-22.8617
-19.7923
-20.3464
-16.0183
-16.3313
-12.0092
-13.4
-8.36095
-11.5843
-5.90024
-10.2193
-4.47796
-9.25644
-3.93177
-8.46142
-3.98602
-7.82453
-4.33611
-6.80375
-5.35509
-5.04861
-7.08617
-4.02718
-7.83173
-3.21299
-8.13831
-2.94793
-7.9908
-2.88618
-7.88927
-2.7939
-7.8152
-2.88237
-7.37427
-3.41536
-6.26844
-4.76007
-4.34123
-6.63339
-3.32932
-7.33875
-2.70781
-7.51081
-2.41437
-7.47538
-2.26815
-7.3633
-2.20345
-7.15342
-2.28855
-6.65288
-2.7761
-5.5291
-4.09556
-3.58369
-5.92863
-2.56315
-6.55268
-1.88011
-6.60369
-1.4363
-6.39368
-1.07484
-6.02433
-0.708866
-5.4455
-0.373
-4.46308
-0.294357
-2.63158
-0.819656
0.248717
-1.49089
2.42702
-0.66552
4.69974
1.18384
6.9417
4.0879
9.50489
7.97692
12.9858
12.7568
17.633
18.7179
23.6629
26.177
31.1666
35.6938
40.7798
47.3036
52.3185
61.3282
67.9341
78.173
87.8391
99.0999
112.645
125.171
143.752
157.629
183.287
197.961
237.671
245.591
321.751
300.481
389.261
11.783
28.1061
24.6313
31.6371
28.5385
32.4124
30.211
32.591
30.8948
32.6607
31.2074
32.5903
31.61
31.9548
32.3794
30.966
33.1564
30.4561
32.4864
30.5251
31.9348
30.5768
31.616
30.3011
31.4917
29.9609
31.3871
29.7367
30.998
29.6943
30.4843
29.897
29.7093
30.4664
28.7896
30.9186
28.3201
30.1342
28.3549
29.6304
28.1167
29.3973
27.7857
29.1912
27.5365
28.6428
27.4421
27.914
27.4816
27.0598
27.4317
25.8388
27.5302
24.861
26.0163
24.1134
24.6266
22.7871
23.1805
21.1046
21.2816
19.0904
18.6578
16.5605
15.3623
13.4525
11.2253
9.74464
6.13274
5.19773
0.384108
-1.20392
-5.66062
-7.87191
-11.9444
-14.3485
-17.879
-20.4298
-22.7091
-24.8426
-25.673
-26.8553
-26.295
-26.6779
-24.9077
-24.9746
-21.6844
-21.4969
-18.1312
-17.2815
-14.3462
-13.2365
-10.9213
-10.4303
-8.66919
-8.69324
-7.1914
-7.63611
-6.44896
-6.93636
-6.17083
-6.49482
-6.2572
-5.75885
-6.72471
-4.78601
-7.04848
-4.83898
-6.88829
-4.75403
-6.59645
-4.87956
-6.2923
-4.8871
-6.18099
-4.81619
-6.07838
-4.91125
-5.6839
-5.31949
-4.87458
-6.04857
-3.92894
-6.38572
-4.17505
-6.17764
-4.27659
-5.95572
-4.27118
-5.78302
-4.23294
-5.62953
-4.22516
-5.4152
-4.34605
-4.98199
-4.72403
-4.16603
-5.43573
-3.23029
-5.72572
-3.49576
-5.47631
-3.56792
-5.19361
-3.46083
-4.89451
-3.26781
-4.54636
-3.02201
-4.05636
-2.78499
-3.25777
-2.73029
-1.8562
-2.70958
-0.359346
-2.01348
0.411508
-0.608298
1.67875
1.23645
3.55246
3.44682
5.89013
6.28607
9.00167
9.92087
13.0338
14.5766
17.9582
20.758
24.2195
28.48
32.0501
38.2618
42.3953
49.334
55.4465
62.7842
71.4447
79.2751
90.8599
99.1697
114.381
123.164
143.735
150.816
183.87
178.752
236.241
223.105
294.202
14.6515
29.7138
25.8313
31.0169
29.5422
31.955
30.7792
32.4075
31.2306
32.537
31.3813
32.4162
31.6503
31.9401
32.045
31.318
32.2978
31.0797
31.9397
30.8538
31.6997
30.5995
31.5528
30.2822
31.3958
30.0044
31.1912
29.8364
30.8632
29.7553
30.4322
29.834
29.8012
30.066
29.1314
30.1072
28.8642
29.6884
28.5913
29.4682
28.2072
29.2737
27.8724
29.0042
27.6429
28.5482
27.4351
27.9674
27.3831
27.1079
27.2379
26.0376
26.8057
25.3256
25.8782
24.3949
24.7019
23.1302
23.3205
21.5837
21.5014
19.6631
19.0543
17.287
15.8479
14.2334
11.9596
10.4073
7.22694
5.66477
1.92791
-0.186199
-4.27796
-6.75386
-10.8442
-13.5127
-17.127
-19.8203
-22.4741
-24.7349
-26.0744
-27.4266
-27.2739
-27.682
-26.099
-25.8261
-22.9999
-22.2211
-18.7786
-17.5769
-14.4323
-13.1384
-10.6792
-9.81525
-8.12707
-7.92734
-6.5948
-7.01349
-5.83778
-6.53113
-5.66364
-6.2045
-5.85665
-5.69899
-6.2383
-5.15411
-6.29967
-5.09018
-6.30328
-4.91089
-6.19214
-4.842
-6.07469
-4.76946
-6.01482
-4.71507
-5.94429
-4.81693
-5.65031
-5.12479
-5.1189
-5.56206
-4.58199
-5.66634
-4.56514
-5.69782
-4.41782
-5.67918
-4.28634
-5.59453
-4.198
-5.46477
-4.16995
-5.26051
-4.25604
-4.90655
-4.51893
-4.35278
-4.92794
-3.84536
-4.98294
-3.84132
-4.96583
-3.65861
-4.87887
-3.43103
-4.67826
-3.17739
-4.36651
-2.90605
-3.88417
-2.64479
-3.1168
-2.56561
-2.0168
-2.17795
-0.761103
-1.45944
0.24913
-0.234757
1.66544
1.44882
3.55152
3.73382
6.07244
6.64611
9.34013
10.3899
13.5066
15.2646
18.7286
21.4764
25.3521
29.3746
33.6877
39.1274
44.3465
51.0803
57.9522
65.698
74.9807
83.615
96.0648
105.433
121.875
131.522
154.042
161.776
196.137
193.07
242.36
230.999
276.097
13.5173
25.5011
22.9992
28.5346
27.6984
30.6393
30.0065
31.6617
31.2648
32.0002
31.8421
31.9764
32.2563
31.6607
32.5667
31.3308
32.5469
31.3928
31.963
31.4039
31.5277
31.2786
31.2452
31.0245
31.0088
30.782
30.7341
30.6341
30.3616
30.5455
29.9618
30.5187
29.544
30.5517
29.1324
30.3481
29.1108
29.7112
29.1096
29.2825
28.8995
28.976
28.6766
28.6493
28.5143
28.217
28.3421
27.7538
28.1079
27.24
27.8845
26.6144
27.3206
26.0467
26.4055
25.3553
25.2995
24.3329
23.9889
22.9599
22.3823
21.2264
20.2412
19.0088
17.4528
16.12
13.8743
12.4786
9.37298
7.79535
3.9957
1.91994
-2.18106
-4.85199
-8.99525
-12.0959
-15.9446
-19.1864
-22.2537
-25.1138
-26.9172
-28.8491
-29.072
-29.8369
-28.4207
-28.1594
-25.3665
-24.275
-20.9591
-19.2536
-16.172
-14.3215
-12.022
-10.4398
-9.10337
-7.98491
-7.41949
-6.78937
-6.7013
-6.30286
-6.50784
-6.02732
-6.6671
-5.71444
-6.78229
-5.48956
-6.50045
-5.52833
-6.20764
-5.51829
-5.87817
-5.54228
-5.64753
-5.52335
-5.55325
-5.50446
-5.4692
-5.593
-5.23381
-5.77082
-4.89506
-5.94059
-4.67402
-5.73849
-4.8796
-5.49572
-4.96146
-5.29384
-4.97892
-5.1288
-4.96939
-4.97906
-4.97692
-4.79871
-5.04563
-4.5335
-5.19392
-4.17375
-5.34432
-3.99347
-5.11051
-4.25116
-4.85728
-4.34063
-4.64406
-4.30172
-4.41606
-4.1914
-4.14098
-4.02753
-3.78289
-3.7853
-3.2582
-3.5912
-2.51372
-3.20928
-1.84399
-2.31227
-1.12653
-1.30946
-0.0915881
0.0260505
1.31466
1.72666
3.23508
3.89405
5.73911
6.74126
8.93834
10.5053
13.0064
15.3745
18.1695
21.5661
24.7972
29.2498
33.3851
38.5099
44.2063
49.7881
57.6339
63.58
74.0563
80.3139
94.1079
100.068
118.921
122.132
152.566
146.113
187.296
184.785
225.38
17.0487
28.3819
24.4821
29.4369
28.4049
30.6968
30.2995
31.5667
31.2798
31.8856
31.8337
31.8511
32.1327
31.6317
32.2571
31.4612
32.1102
31.5438
31.7018
31.5093
31.342
31.2798
31.1453
31.0035
30.9175
30.7818
30.6309
30.6237
30.3076
30.5017
29.9576
30.4038
29.5738
30.2987
29.235
29.9863
29.2732
29.5035
29.2005
29.1407
28.9364
28.8768
28.6842
28.5695
28.4893
28.187
28.2737
27.762
28.036
27.2232
27.6965
26.666
27.185
26.1957
26.4037
25.5434
25.4603
24.6189
24.2862
23.3924
22.7817
21.8127
20.8288
19.7484
18.2999
17.0932
15.0157
13.6505
10.9053
9.17733
5.89392
3.52718
-0.202058
-3.18299
-7.19431
-10.6272
-14.5671
-18.1814
-21.5785
-24.8486
-27.1577
-29.4795
-30.2149
-31.2297
-30.2349
-29.918
-27.2954
-25.8075
-22.2507
-20.0346
-16.5157
-14.2812
-11.4886
-9.8622
-8.05543
-7.17805
-6.31409
-5.89083
-5.77378
-5.52026
-5.89375
-5.50874
-6.22665
-5.4568
-6.3513
-5.38051
-6.12005
-5.49843
-5.81345
-5.47759
-5.56163
-5.43046
-5.42416
-5.3549
-5.36059
-5.34918
-5.32429
-5.44483
-5.17989
-5.58559
-4.98357
-5.62698
-4.85812
-5.39785
-4.98404
-5.20024
-4.97693
-5.06946
-4.92549
-4.93893
-4.87651
-4.80388
-4.85909
-4.64081
-4.89777
-4.43099
-4.97648
-4.21367
-4.98572
-4.13917
-4.71543
-4.31296
-4.50355
-4.2987
-4.35671
-4.19346
-4.18526
-4.019
-3.95774
-3.80795
-3.65178
-3.58627
-3.12528
-3.28858
-2.46548
-2.82093
-1.72729
-2.16307
-0.938062
-1.11644
0.135146
0.275677
1.6499
2.05214
3.69373
4.33706
6.34251
7.32236
9.6878
11.2469
13.9491
16.2792
19.398
22.6421
26.3681
30.5693
35.3149
40.3316
46.6716
52.3322
60.7809
66.9778
78.0753
84.5748
99.0394
105.125
124.78
126.986
154.928
151.581
182.793
178.949
207.751
17.129
27.4422
23.5625
28.9042
27.5848
30.3691
29.8954
31.4195
31.255
31.8953
32.043
31.9498
32.4555
31.8171
32.5331
31.7447
32.3286
31.8595
31.8997
31.81
31.5496
31.6027
31.2485
31.3725
30.9471
31.1557
30.6274
30.9784
30.2918
30.8181
29.9596
30.691
29.6253
30.5709
29.3745
30.1617
29.467
29.6486
29.4612
29.2815
29.2722
28.9477
29.0887
28.6298
28.9212
28.2691
28.7201
27.9295
28.4775
27.562
28.1921
27.1272
27.639
26.776
26.92
26.2406
26.1057
25.446
25.0972
24.3956
23.7901
23.0108
22.0581
21.1741
19.7498
18.7227
16.7253
15.4528
12.8286
11.1316
7.91006
5.61443
1.86292
-1.12547
-5.27895
-8.93686
-13.2274
-17.2728
-21.2617
-25.1372
-28.1766
-31.1358
-32.5226
-33.9418
-33.2445
-32.965
-30.4782
-28.7243
-25.1669
-22.4802
-18.7468
-15.9216
-12.9058
-10.5864
-8.79439
-7.22724
-6.64158
-5.69714
-6.00446
-5.34446
-6.20363
-5.50499
-6.63619
-5.74596
-6.78552
-5.88583
-6.38025
-5.94733
-6.0131
-5.82283
-5.65164
-5.69464
-5.41222
-5.62628
-5.32923
-5.6401
-5.3208
-5.73679
-5.24814
-5.84883
-5.13798
-5.84512
-5.07252
-5.54176
-5.21308
-5.26696
-5.24388
-5.04751
-5.25615
-4.88135
-5.24839
-4.74692
-5.24799
-4.62726
-5.24979
-4.52012
-5.26594
-4.34477
-5.23809
-4.377
-4.9073
-4.62587
-4.65648
-4.70332
-4.50174
-4.66429
-4.35805
-4.60415
-4.15954
-4.45952
-3.94431
-4.2986
-3.59228
-4.09305
-3.15494
-3.73355
-2.70304
-3.03242
-2.25181
-2.25831
-1.48765
-1.31731
-0.390279
-0.102123
1.0607
1.53909
2.9472
3.74367
5.40375
6.65691
8.60238
10.4397
12.7553
15.2737
18.1591
21.3302
25.1749
28.8547
34.0763
38.1438
45.2524
49.5918
59.0598
63.5599
76.0523
79.8474
97.5519
98.2536
122.843
120.929
149.378
149.288
176.309
20.8438
29.6677
25.2877
30.2551
28.3842
30.883
30.1938
31.4856
31.272
31.8198
31.9027
31.8899
32.2299
31.8123
32.2456
31.7581
32.0511
31.8358
31.7403
31.7355
31.467
31.5415
31.1879
31.3167
30.9006
31.1173
30.5772
30.9396
30.2486
30.7732
29.9158
30.6014
29.5993
30.3896
29.4182
29.9716
29.4836
29.511
29.433
29.2134
29.2504
28.8945
29.0522
28.5856
28.8723
28.2417
28.6537
27.8841
28.3923
27.5327
28.0598
27.2225
27.5401
26.9198
26.9428
26.4131
26.2645
25.7258
25.3934
24.83
24.253
23.643
22.7512
22.0511
20.7631
19.9017
18.1295
16.9818
14.6727
13.0264
10.1651
7.80373
4.36566
1.17795
-2.81405
-6.78233
-11.1364
-15.6478
-19.9471
-24.4392
-28.0127
-31.6867
-33.7003
-35.7722
-35.6922
-35.8429
-33.5946
-31.7241
-27.758
-24.4471
-19.9567
-16.4706
-12.7255
-10.0964
-7.7684
-6.24112
-5.30676
-4.6038
-4.72941
-4.39304
-5.22043
-4.85153
-5.92335
-5.29666
-6.34565
-5.61297
-6.16726
-5.77115
-5.83741
-5.65853
-5.54069
-5.49437
-5.25321
-5.40939
-5.12968
-5.43692
-5.15198
-5.56239
-5.14262
-5.67572
-5.07816
-5.67661
-5.08276
-5.36584
-5.1906
-5.12159
-5.16865
-4.91646
-5.14928
-4.7383
-5.11441
-4.59784
-5.08257
-4.51234
-5.04581
-4.39746
-5.0795
-4.27604
-4.98879
-4.34389
-4.66875
-4.54327
-4.43699
-4.56228
-4.31033
-4.52113
-4.15792
-4.42091
-3.98706
-4.26873
-3.76527
-4.06012
-3.44891
-3.8248
-3.0291
-3.45203
-2.57951
-2.85004
-2.025
-2.08325
-1.18975
-1.08745
-0.0704646
0.231
1.42631
1.95125
3.39981
4.20798
5.93715
7.17966
9.22268
11.0091
13.4747
15.8754
18.9795
22.0002
26.0724
29.5965
35.1169
38.9939
46.3763
50.5085
60.153
64.3292
76.9554
80.1342
97.0793
97.4068
119.085
116.726
139.509
138.359
159.786
21.1449
30.4485
25.4546
30.7423
28.2882
31.4573
30.2013
31.9937
31.4395
32.2593
32.1767
32.2909
32.5451
32.1926
32.5485
32.1153
32.3371
32.1382
32.0225
32.0179
31.7273
31.8104
31.3988
31.5795
31.0727
31.3694
30.7218
31.1661
30.379
30.9741
30.0592
30.7933
29.7497
30.5688
29.5783
30.1416
29.6529
29.6744
29.6363
29.3713
29.4729
29.0682
29.3032
28.7631
29.1451
28.457
28.9685
28.1447
28.7285
27.8705
28.4142
27.6048
27.9362
27.3782
27.3949
26.957
26.7988
26.3854
26.0459
25.6291
25.0606
24.6004
23.7401
23.1846
21.9579
21.2264
19.5648
18.5193
16.3661
14.813
12.106
9.86811
6.52539
3.45146
-0.557301
-4.56273
-9.16693
-13.9843
-18.9231
-24.0825
-28.629
-33.1743
-36.2715
-39.0044
-39.5216
-39.5917
-37.5076
-35.3215
-31.3554
-27.5709
-22.7191
-18.4474
-14.1117
-10.5655
-7.8854
-5.68448
-4.90346
-3.80801
-4.35724
-3.8614
-5.1165
-4.78209
-6.23169
-5.65314
-6.8698
-6.24508
-6.48074
-6.2468
-6.1026
-5.91418
-5.65331
-5.61118
-5.29715
-5.48455
-5.17116
-5.53454
-5.22059
-5.71329
-5.28451
-5.87929
-5.33814
-5.84148
-5.33463
-5.52912
-5.37366
-5.24819
-5.32179
-5.00205
-5.29914
-4.83354
-5.28109
-4.68139
-5.29075
-4.60013
-5.27622
-4.52595
-5.28793
-4.45317
-5.17141
-4.56005
-4.85804
-4.77519
-4.63134
-4.83078
-4.52012
-4.82765
-4.38977
-4.8094
-4.25692
-4.72751
-4.12148
-4.59679
-3.91659
-4.43594
-3.66795
-4.13766
-3.43793
-3.64603
-3.08195
-3.14019
-2.52918
-2.478
-1.77907
-1.59151
-0.750296
-0.400549
0.633107
1.20181
2.46078
3.34415
4.88569
6.16813
8.09188
9.8124
12.3148
14.4503
17.8443
20.3165
24.9539
27.6751
33.9834
36.8696
45.2935
48.1531
59.428
61.5559
77.0965
76.9038
96.3742
96.7942
117.202
117.699
137.741
24.0983
32.3715
27.3014
31.9746
29.1746
32.0887
30.5339
32.2013
31.4615
32.2598
32.0312
32.2265
32.331
32.137
32.3295
32.0489
32.1681
32.0526
31.8929
31.9358
31.6229
31.7538
31.3229
31.5356
31.0127
31.3271
30.6817
31.1266
30.3389
30.927
30.0086
30.7306
29.7017
30.4698
29.5581
30.0319
29.624
29.5694
29.6036
29.2865
29.4409
29.0002
29.2725
28.7068
29.1036
28.4055
28.9271
28.0842
28.6921
27.8316
28.3641
27.6542
27.9119
27.4807
27.4364
27.1315
26.9446
26.6708
26.3362
26.0736
25.5462
25.2611
24.4878
24.1246
23.0539
22.5205
21.0914
20.2368
18.3792
16.9967
14.6125
12.4768
9.4311
6.33074
2.48903
-1.71323
-6.38681
-11.6464
-16.8944
-22.7758
-28.0145
-33.5486
-37.551
-41.4403
-43.0017
-44.2097
-42.792
-40.9739
-36.664
-32.2657
-26.2638
-20.8329
-15.2776
-10.9138
-7.44263
-4.78055
-3.54086
-2.4043
-2.74035
-2.45345
-3.72843
-3.64987
-5.25638
-4.92443
-6.34809
-5.89777
-6.43768
-6.16556
-6.10794
-5.96555
-5.68596
-5.57809
-5.21431
-5.29679
-4.9508
-5.34019
-4.98257
-5.52667
-5.10885
-5.70468
-5.19231
-5.79856
-5.29458
-5.48687
-5.36193
-5.18501
-5.30347
-4.94541
-5.2577
-4.72055
-5.21333
-4.53966
-5.15043
-4.4901
-5.11112
-4.41302
-5.13897
-4.36994
-5.02046
-4.47585
-4.7213
-4.68311
-4.49662
-4.72398
-4.37826
-4.7222
-4.25373
-4.69355
-4.11498
-4.60327
-3.9682
-4.46278
-3.77308
-4.30151
-3.56014
-4.00834
-3.33563
-3.52981
-2.99213
-3.01348
-2.44351
-2.34126
-1.70975
-1.46507
-0.706205
-0.310292
0.648179
1.23698
2.42446
3.28912
4.75714
5.97435
7.8422
9.43494
11.9108
13.8439
17.2209
19.3834
24.043
26.369
32.64
35.0575
43.3326
45.5544
56.5831
57.6402
72.1413
72.0294
88.333
88.2901
105.474
105.611
122.621
25.0998
33.6568
28.0823
33.1367
29.8601
33.0776
31.1232
33.0449
32.0085
32.9423
32.5535
32.7683
32.7956
32.6028
32.7568
32.4365
32.5512
32.3583
32.2199
32.2421
31.9052
32.0351
31.5567
31.8024
31.1982
31.5731
30.8381
31.3448
30.4884
31.128
30.1535
30.9268
29.8399
30.6265
29.7154
30.1896
29.7815
29.7248
29.7783
29.4309
29.6436
29.1544
29.4853
28.8823
29.336
28.6049
29.1852
28.3225
28.973
28.0954
28.6494
27.9379
28.2356
27.8235
27.7816
27.5397
27.3416
27.1564
26.8122
26.6572
26.1353
25.9646
25.2244
24.9737
23.9743
23.552
22.2542
21.5191
19.8538
18.6137
16.4728
14.5226
11.7223
8.81658
5.15473
1.07056
-3.57293
-8.91418
-14.5488
-20.9535
-27.1405
-33.8084
-39.3433
-44.4583
-47.2644
-48.8091
-47.5082
-45.3768
-41.0396
-36.0477
-29.591
-23.247
-16.5984
-10.7855
-6.54453
-3.12951
-1.9526
-0.675162
-1.49327
-1.23678
-3.15138
-3.36006
-5.49959
-5.40392
-7.08059
-6.62556
-6.93624
-6.57729
-6.40086
-6.0948
-5.78871
-5.56982
-5.20867
-5.21489
-4.92114
-5.25296
-5.02984
-5.58392
-5.24718
-5.9343
-5.44559
-5.99936
-5.55606
-5.62635
-5.51158
-5.29356
-5.35982
-4.97627
-5.32362
-4.77759
-5.28904
-4.63199
-5.27481
-4.56018
-5.27409
-4.50397
-5.28335
-4.50275
-5.16507
-4.61526
-4.86279
-4.82978
-4.63521
-4.88856
-4.53645
-4.91594
-4.42345
-4.94588
-4.32752
-4.92763
-4.24092
-4.84676
-4.13565
-4.72452
-4.0303
-4.52078
-3.97214
-4.1443
-3.7338
-3.8207
-3.36141
-3.395
-2.8586
-2.82615
-2.17482
-2.03824
-1.24832
-0.957898
0.0192254
0.522505
1.73965
2.51158
4.06909
5.10305
7.19023
8.46433
11.3095
12.762
16.719
18.2273
23.6752
25.1652
32.5382
33.8119
43.7796
44.2934
56.7412
57.8436
72.0578
73.5534
88.7191
89.8159
105.703
27.6079
35.4813
29.6289
34.2562
30.7176
33.581
31.4754
33.1706
32.0633
32.8928
32.4493
32.6671
32.6314
32.4617
32.6232
32.3186
32.453
32.2712
32.097
32.1755
31.7886
32.0052
31.4649
31.785
31.1383
31.5425
30.81
31.3079
30.4574
31.0928
30.1079
30.8726
29.8156
30.5661
29.6767
30.1223
29.7401
29.6376
29.7399
29.3544
29.6121
29.0899
29.4525
28.8218
29.316
28.5404
29.1829
28.2593
28.9831
28.0517
28.6585
27.9554
28.2506
27.909
27.821
27.7039
27.4651
27.423
27.0697
27.0655
26.5805
26.5753
25.9215
25.8536
25.0025
24.7754
23.6899
23.1657
21.7813
20.765
18.956
17.2256
14.7918
12.0659
8.71614
4.67671
0.0948088
-5.54347
-11.5617
-18.7802
-25.9238
-33.7879
-40.6121
-47.4377
-51.8992
-55.3503
-55.5185
-54.5552
-50.5505
-45.4775
-37.8027
-29.778
-21.1278
-13.3176
-7.27896
-2.32596
-0.288591
1.47301
0.821253
1.03355
-0.844149
-1.37613
-3.92064
-4.18341
-6.40382
-6.32268
-7.19426
-6.85011
-6.79274
-6.51716
-6.08122
-5.83456
-5.19729
-5.12601
-4.58212
-4.99794
-4.63237
-5.32102
-4.92727
-5.69784
-5.23545
-5.99997
-5.55416
-5.72927
-5.58921
-5.33926
-5.44924
-5.0067
-5.34489
-4.70165
-5.25575
-4.46554
-5.16761
-4.42431
-5.12814
-4.40758
-5.16513
-4.41259
-5.09947
-4.54376
-4.8061
-4.78156
-4.56339
-4.85722
-4.43812
-4.88111
-4.32058
-4.89814
-4.22617
-4.87547
-4.12431
-4.82773
-4.00223
-4.70821
-3.95445
-4.52181
-3.91302
-4.13437
-3.79359
-3.80326
-3.47511
-3.38737
-3.07055
-2.87585
-2.48266
-2.21123
-1.62791
-1.28689
-0.516178
-0.0212396
0.960989
1.67462
3.01513
3.92409
5.80919
6.85301
9.55923
10.5465
14.4042
15.3768
20.55
21.5164
28.3056
29.0999
37.9379
38.7857
49.2353
50.3858
62.1345
63.5866
76.682
77.7447
91.8868
29.0817
37.3149
30.9243
35.8576
31.966
34.9024
32.604
34.2288
33.0542
33.7089
33.2833
33.2964
33.31
32.9648
33.1743
32.705
32.9119
32.615
32.4495
32.5037
32.0786
32.3057
31.7013
32.0466
31.3423
31.7835
30.9622
31.5447
30.5791
31.3125
30.224
31.0665
29.9337
30.7374
29.8166
30.2769
29.8872
29.7758
29.8918
29.4829
29.7899
29.2159
29.6576
28.9451
29.551
28.6693
29.4331
28.4119
29.225
28.2419
28.8991
28.1574
28.4891
28.1662
28.051
28
27.7298
27.7606
27.3889
27.4669
26.9777
27.0631
26.4365
26.4637
25.681
25.5569
24.6071
24.2029
23.0336
22.185
20.6749
19.1757
17.0939
14.6618
11.6786
7.94364
3.68443
-1.74351
-7.69925
-15.0952
-22.777
-31.7378
-40.1505
-48.7484
-55.3707
-60.2768
-61.3741
-59.8526
-55.761
-50.0134
-41.8369
-32.9933
-23.0547
-13.1497
-5.86004
0.241637
2.53904
4.10814
3.01496
2.98943
0.238436
-0.680114
-4.18728
-4.99096
-7.20043
-7.29898
-7.78553
-7.21557
-7.05793
-6.46892
-6.20757
-5.80753
-5.28378
-5.02168
-4.47061
-4.75702
-4.60144
-5.33095
-5.09935
-5.95657
-5.48026
-6.25129
-5.86558
-5.85451
-5.70206
-5.42062
-5.4182
-4.98097
-5.38261
-4.7428
-5.3298
-4.56106
-5.26472
-4.49485
-5.26712
-4.47163
-5.29328
-4.50144
-5.20657
-4.62786
-4.89369
-4.86481
-4.63596
-4.94987
-4.51955
-4.98905
-4.43321
-5.04779
-4.36532
-5.09096
-4.30275
-5.0823
-4.2686
-4.97224
-4.25339
-4.88228
-4.35055
-4.53274
-4.27374
-4.33906
-4.05465
-4.0864
-3.80055
-3.74197
-3.45508
-3.28347
-2.9219
-2.69298
-2.09988
-1.85934
-1.00719
-0.685525
0.478667
0.879779
2.57738
2.92824
5.40875
5.73531
9.01501
9.37589
13.7881
14.1152
20.1169
20.391
28.0662
28.671
37.8979
39.0153
49.6453
51.0622
63.1249
64.2243
77.7711
30.9963
38.9666
32.2617
36.6785
32.8404
35.1332
33.0203
34.1124
33.2218
33.4922
33.33
33.0955
33.2919
32.8239
33.1162
32.5872
32.8526
32.5339
32.3574
32.4359
31.9653
32.292
31.6148
32.0419
31.2831
31.8087
30.9029
31.5752
30.511
31.3384
30.1521
31.0745
29.8712
30.7168
29.7641
30.2461
29.8354
29.7382
29.8402
29.4179
29.766
29.1435
29.6672
28.8602
29.5663
28.5928
29.4542
28.3609
29.2558
28.2139
28.9441
28.1528
28.5461
28.2031
28.0922
28.1354
27.8099
27.9706
27.5793
27.7884
27.3182
27.5491
26.9917
27.1738
26.5206
26.5544
25.7907
25.5621
24.6446
24.0008
22.8273
21.5849
19.9329
17.8161
15.3255
11.9167
8.06184
2.80683
-3.06076
-10.7654
-19.2553
-29.5759
-40.2204
-51.5724
-60.958
-68.8896
-72.2009
-72.8097
-69.8571
-65.7887
-56.7453
-46.9102
-33.9152
-19.7962
-8.88709
0.881895
5.09737
7.73173
6.15776
6.45818
4.13776
2.96092
-1.10513
-2.93517
-6.65017
-7.51133
-8.81995
-8.19974
-8.04014
-7.56686
-6.82714
-6.37826
-5.42433
-5.00381
-4.06745
-4.2773
-3.90921
-4.78921
-4.47886
-5.544
-5.19911
-6.25071
-5.87428
-6.24121
-5.93574
-5.60998
-5.66976
-5.03475
-5.44028
-4.61735
-5.25805
-4.33052
-5.11747
-4.29152
-5.09836
-4.33298
-5.18126
-4.39164
-5.20603
-4.56744
-4.91613
-4.85058
-4.63429
-4.94784
-4.46826
-4.98594
-4.34503
-5.00482
-4.29563
-5.06367
-4.22699
-5.08213
-4.2011
-5.01994
-4.18868
-4.94599
-4.30229
-4.66906
-4.36561
-4.40541
-4.24231
-4.14035
-4.09458
-3.90716
-3.84001
-3.62337
-3.39744
-3.14431
-2.79996
-2.5018
-2.00874
-1.67444
-0.792914
-0.429272
0.9655
1.2989
3.31625
3.49116
6.49869
6.50953
10.4439
10.4017
15.695
15.4186
22.3265
22.1596
30.4163
30.6477
40.0296
40.6104
51.5437
52.0329
64.7839
32.6938
40.8733
33.9462
38.1934
34.61
36.4952
34.5974
35.267
34.4897
34.3742
34.3134
33.7748
34.0418
33.355
33.738
32.9719
33.3063
32.9053
32.719
32.7867
32.2298
32.6006
31.8394
32.3268
31.4379
32.0717
31.0346
31.821
30.6184
31.5622
30.2486
31.2673
29.9724
30.8749
29.8837
30.3859
29.967
29.8574
29.9935
29.5167
29.9348
29.2241
29.8571
28.939
29.7741
28.6735
29.6569
28.4616
29.4531
28.339
29.1416
28.2964
28.7328
28.394
28.2208
28.3483
27.957
28.2103
27.7343
28.0547
27.526
27.8617
27.2799
27.5687
26.9484
27.0806
26.4378
26.3049
25.5936
25.0906
24.2006
23.1758
21.8847
20.0935
18.0522
15.0987
11.7911
7.05364
1.66322
-5.73563
-14.1384
-24.9331
-36.3933
-49.6359
-61.8886
-73.1054
-79.3375
-79.9792
-76.7539
-72.1938
-63.1878
-51.9469
-39.7271
-23.1897
-9.33021
2.82286
8.85147
11.5937
9.65195
8.69334
5.29662
3.64855
-1.24117
-3.54043
-7.06541
-8.42011
-9.71245
-8.60062
-7.90347
-7.37554
-7.06315
-6.80341
-5.93521
-5.23995
-3.79597
-3.85074
-3.661
-4.87811
-4.70499
-5.84627
-5.35737
-6.45935
-6.20566
-6.37378
-6.11824
-5.62975
-5.56772
-5.00783
-5.54302
-4.73809
-5.44363
-4.45912
-5.2546
-4.37215
-5.24978
-4.38453
-5.31162
-4.4473
-5.29084
-4.61364
-4.94385
-4.9242
-4.64315
-5.03355
-4.48041
-5.06467
-4.39367
-5.12096
-4.37043
-5.20437
-4.34901
-5.25987
-4.33374
-5.22596
-4.38849
-5.13893
-4.59892
-4.91672
-4.66513
-4.74846
-4.63123
-4.57056
-4.5719
-4.36824
-4.51645
-4.22196
-4.31937
-4.03974
-3.87358
-3.68723
-3.36356
-3.1527
-2.65531
-2.45393
-1.42753
-1.3955
0.305459
0.110858
2.51871
2.11026
5.24406
4.86533
9.12299
8.57203
14.3024
13.9258
20.9581
21.3731
29.3109
29.9048
39.582
40.0705
52.127
34.7883
42.0243
35.4274
38.3994
35.5441
36.214
35.0658
34.919
34.6885
34.1578
34.353
33.6635
34.0198
33.2699
33.7282
32.8985
33.2801
32.8536
32.6207
32.7875
32.1283
32.62
31.7528
32.3869
31.3721
32.1365
30.9781
31.8916
30.5593
31.6198
30.1921
31.3072
29.9169
30.9049
29.8184
30.3941
29.9157
29.8242
29.9804
29.4482
29.9458
29.1417
29.8889
28.8547
29.8331
28.5894
29.7339
28.397
29.5426
28.2992
29.2272
28.2895
28.7922
28.4373
28.2523
28.4949
27.971
28.4153
27.8014
28.338
27.6834
28.2509
27.5938
28.1075
27.4824
27.8097
27.2603
27.2798
26.7745
26.4273
25.8482
25.0577
24.198
22.76
21.2875
18.8109
16.1709
12.0176
7.33699
0.43536
-7.68308
-18.7723
-31.738
-46.9875
-62.7163
-78.6456
-88.7589
-91.8552
-90.5017
-90.2244
-82.4947
-72.8225
-58.1614
-37.5919
-18.5458
0.718496
11.6205
17.5336
13.3666
13.2828
11.6317
10.1823
4.29705
-0.766427
-6.51997
-9.73192
-12.6762
-11.2016
-10.1634
-8.50319
-7.67358
-7.076
-6.3853
-5.70153
-3.85441
-3.00404
-2.3406
-3.65892
-3.54786
-5.26518
-5.01228
-6.39382
-6.21064
-7.12952
-6.70273
-6.16942
-6.00038
-4.94426
-5.46384
-4.47436
-5.23472
-4.21227
-5.01694
-4.10511
-4.97968
-4.20658
-5.15514
-4.34149
-5.30568
-4.60642
-5.01551
-4.91894
-4.72969
-4.98733
-4.51599
-5.01489
-4.3345
-5.0285
-4.30283
-5.12129
-4.29841
-5.23735
-4.32784
-5.24637
-4.35876
-5.21588
-4.54789
-5.01532
-4.77754
-4.82644
-4.82808
-4.61843
-4.79786
-4.54628
-4.76091
-4.53893
-4.67196
-4.37473
-4.44637
-4.13096
-4.23638
-4.01532
-3.74358
-3.55352
-2.8648
-2.65216
-1.59392
-1.85418
0.383887
-0.33133
2.22382
1.57067
5.39777
3.97095
9.1542
7.85962
14.0133
13.456
20.359
19.6875
28.4025
27.5077
39.4105
36.7453
42.9702
38.0711
39.7212
37.6383
37.7617
36.5773
36.2263
35.8293
35.0779
35.2358
34.3165
34.7464
33.7571
34.3373
33.287
33.6929
33.2474
32.9234
33.1575
32.3349
32.9628
31.8801
32.6995
31.4644
32.4204
31.0565
32.1413
30.6417
31.832
30.2723
31.4825
29.9989
31.0622
29.9214
30.4988
30.0624
29.885
30.1381
29.4843
30.1416
29.1447
30.1038
28.8531
30.0411
28.6038
29.9191
28.4309
29.7127
28.3624
29.3805
28.3933
28.9221
28.5681
28.3612
28.5987
28.0613
28.5341
27.8774
28.4859
27.7633
28.4059
27.7083
28.3121
27.687
28.1041
27.6269
27.7211
27.3838
27.1002
26.7584
26.101
25.5416
24.3592
23.3059
21.2905
19.2416
15.7795
11.8661
5.92119
-1.30199
-11.4636
-23.9623
-40.1777
-57.5811
-77.8477
-92.253
-95.4144
-91.1663
-90.2187
-84.5946
-76.1513
-69.6835
-48.8483
-26.3965
-5.09261
12.3309
22.5074
19.2868
12.4578
9.75721
9.2532
5.11461
0.48326
-5.87322
-9.71631
-13.3544
-12.6966
-9.57812
-8.49088
-8.2665
-8.41956
-7.5748
-6.52675
-3.59773
-2.5126
-1.9484
-4.16023
-4.03001
-5.30999
-4.90247
-6.29007
-6.42962
-7.1377
-7.06876
-6.0334
-5.82019
-5.15489
-5.69237
-4.86441
-5.54528
-4.42401
-5.17732
-4.23285
-5.14448
-4.23179
-5.26667
-4.38015
-5.29979
-4.6423
-4.97248
-4.97193
-4.70159
-5.08181
-4.47202
-5.12905
-4.34263
-5.15961
-4.3134
-5.23547
-4.34799
-5.30157
-4.38955
-5.32803
-4.45667
-5.28133
-4.67928
-5.10289
-4.95099
-4.95503
-5.06362
-4.81651
-4.97942
-4.68752
-5.07601
-4.84456
-5.13334
-4.8632
-4.95349
-4.72442
-4.81663
-4.64931
-4.76997
-4.71087
-4.17048
-4.25816
-3.26981
-3.64687
-2.03919
-2.86138
-1.37342
-1.78473
1.0179
-0.930834
3.20296
1.4922
6.47389
6.77288
11.1131
11.7619
17.0188
17.168
26.483
39.4562
43.2582
39.3384
39.8581
37.8986
37.4978
36.6622
35.8471
35.9699