/*--------------------------------*- C++ -*----------------------------------*\
| =========                 |                                                 |
| \\      /  F ield         | OpenFOAM: The Open Source CFD Toolbox           |
|  \\    /   O peration     | Version:  4.1                                   |
|   \\  /    A nd           | Web:      www.OpenFOAM.org                      |
|    \\/     M anipulation  |                                                 |
\*---------------------------------------------------------------------------*/
FoamFile
{
    version     2.0;
    format      ascii;
    class       volScalarField;
    location    "25.5";
    object      p;
}
// * * * * * * * * * * * * * * * * * * * * * * * * * * * * * * * * * * * * * //

dimensions      [0 2 -2 0 0 0 0];

internalField   nonuniform List<scalar> 
204246
(
160.983
9.7571
61.6102
36.4117
29.6582
40.6911
20.0414
39.9557
16.3997
38.9324
14.7491
38.5072
13.2031
37.1515
15.6264
31.9537
25.0939
16.7498
34.0839
12.3094
36.3528
11.8742
35.2924
12.2813
35.3366
11.7511
36.4019
9.76749
37.1962
9.69887
36.4786
11.0131
34.0512
15.2212
27.5576
24.6063
14.2627
32.3031
11.3168
32.8847
10.9411
33.4616
10.2049
34.7103
8.30437
35.5157
8.64991
34.5113
11.1078
30.8354
15.4032
26.0217
24.2382
13.3372
31.8639
10.7173
32.5146
10.5226
33.1637
9.85868
34.4383
7.92999
35.2138
8.15481
34.1399
10.3931
30.4069
14.328
25.6976
22.4825
13.7473
28.4396
10.8291
30.4371
9.48517
31.3879
8.38077
32.7091
6.25653
33.4891
6.42123
32.4331
8.69793
28.7371
12.7537
24.079
21.1192
12.1274
27.3639
9.15269
29.8414
7.42528
31.9166
4.83553
33.3471
4.22049
33.3596
4.5413
32.3487
6.22114
29.3818
8.36508
27.1791
10.9047
23.5157
17.2269
11.1884
24.7273
6.39656
27.7577
2.52594
28.4737
1.632
26.9933
0.619796
25.2338
-0.558972
22.6814
-1.34513
18.5515
-0.496163
11.6271
4.56028
-4.72843
8.95345
-12.3006
7.29108
-17.4741
3.32174
-22.1471
-1.29638
-26.8701
-5.95475
-31.0614
-10.4896
-33.5122
-15.397
-33.1589
-21.7897
-26.5167
-36.2945
-18.379
-40.0259
-15.0222
-40.0509
-12.4678
-38.662
-10.2193
-36.381
-8.28706
-33.5399
-6.89386
-29.9301
-6.61122
-24.352
-9.08868
-13.0524
-20.2689
-1.95545
-22.0019
3.515
-20.5395
7.55495
-17.5218
11.4884
-13.2279
15.7597
-7.08793
19.9346
1.19543
25.2415
11.3673
31.5749
24.2673
39.2144
42.8567
45.7278
60.5131
63.7818
76.278
87.372
98.0425
115.019
127.489
155.831
164.218
203.488
211.94
274.284
277.369
396.243
385.177
610.241
77.3732
34.4313
37.4259
41.9581
27.4069
38.8154
23.514
35.4622
21.4385
33.4476
20.4895
31.8418
20.8526
28.7655
23.7298
23.8171
29.0985
18.9679
29.6476
18.2946
29.5278
18.484
29.2315
18.0872
29.5204
17.5204
29.9819
17.1734
29.4012
17.8234
28.0653
19.4772
25.364
22.857
20.9935
27.475
17.1093
27.6598
16.9294
27.508
16.4265
27.8461
15.8673
28.2867
15.6752
27.6052
16.6916
26.0773
18.8757
23.5257
21.8391
19.8273
26.6169
16.2806
26.9955
16.342
27.0273
16.0112
27.5077
15.5456
28.0298
15.3572
27.3655
16.2765
25.8099
18.2481
23.2328
20.849
19.5916
25.0967
16.179
25.2315
15.3216
25.6136
14.6999
25.9702
14.0211
26.3729
13.6904
25.6271
14.5488
24.0364
16.5436
21.4658
19.2501
17.8554
23.6905
14.4569
24.1059
13.5319
24.9269
12.6858
25.8375
12.0371
25.7561
12.1862
25.2317
12.8065
24.0926
14.0536
22.4707
15.1535
20.534
17.3476
17.0811
21.4953
12.5554
22.2421
10.9573
22.703
9.79796
21.7813
9.33626
20.5126
8.50096
18.8555
7.5982
16.2784
7.17132
12.1384
7.61835
6.05236
9.97044
-0.52826
6.57572
-4.74815
2.93017
-9.10641
-1.28545
-13.7121
-5.9703
-18.2219
-11.1788
-22.1789
-16.7185
-24.8742
-22.4013
-25.3315
-28.5153
-22.8158
-34.1801
-23.2026
-34.9224
-22.4949
-34.2284
-20.9157
-32.4957
-19.0605
-29.9939
-17.3238
-26.9374
-16.1166
-23.1402
-16.0093
-17.897
-17.7472
-10.6165
-19.5868
-7.31303
-17.909
-4.32606
-15.5144
-1.32187
-12.4504
1.9651
-8.43291
5.56563
-2.94699
9.77644
3.77432
15.2091
12.2005
20.9489
23.2301
28.2556
35.8357
41.3495
47.1469
57.6746
62.0116
75.5388
81.6852
100.427
103.706
132.364
135.409
172.138
166.561
225.826
199.518
301.863
248.452
384.137
29.8062
50.8293
33.8147
43.1713
29.9275
38.2611
25.2882
35.6716
22.3556
33.7827
21.2903
31.924
21.5178
29.2636
23.4855
25.423
26.7398
21.3841
28.5582
19.3075
29.4073
18.5223
29.5563
18.0766
29.676
17.6956
29.7756
17.4901
29.3663
17.9604
28.2238
19.3641
25.962
21.9599
22.5041
25.1273
19.0913
26.7176
17.4473
27.4605
16.5756
27.8442
16.0774
28.0181
15.9695
27.5826
16.7176
26.3743
18.4529
24.2287
21.0727
21.2155
24.378
18.1545
26.123
16.7878
27.0237
16.1088
27.5362
15.7095
27.7837
15.6013
27.3603
16.249
26.1167
17.778
23.9242
20.0764
20.8872
22.9685
17.7563
24.4527
15.9451
25.3992
14.9191
25.8984
14.2362
26.0971
13.9533
25.6259
14.5273
24.3603
16.0753
22.1747
18.4809
19.1615
21.574
16.0281
23.3408
14.1676
24.6525
13.013
25.4994
12.2911
25.7131
12.177
25.3818
12.6031
24.4499
13.5462
22.9705
14.8058
20.9681
16.782
17.9707
19.5132
14.2998
21.1848
11.8177
22.072
10.1764
21.7902
9.24767
20.7386
8.40512
19.1229
7.60949
16.5766
7.28274
12.7245
7.51357
7.36734
7.78
1.32138
6.12803
-3.68495
3.26399
-8.17309
-0.937266
-12.6042
-5.86795
-17.0485
-11.111
-21.1168
-16.4575
-24.0092
-21.9342
-25.0425
-27.4161
-24.9006
-31.8406
-24.1002
-33.8635
-22.544
-33.9071
-20.6245
-32.4645
-18.6784
-30.014
-16.9333
-26.9647
-15.7359
-23.2475
-15.4805
-18.4207
-16.4144
-12.7294
-17.5339
-8.34508
-17.1019
-4.55451
-15.3733
-1.18907
-12.5595
2.10092
-8.53768
5.63908
-3.20322
9.22226
3.89497
14.053
12.4475
20.7304
22.3105
30.1185
33.7638
41.2528
47.959
56.3573
64.3167
75.9208
83.3769
101.965
109.299
136.307
140.937
182.145
178.76
244.137
222.99
320.74
295.323
389.111
14.5297
33.0142
24.5789
36.6982
25.3179
35.3028
24.1349
32.848
23.4315
30.4567
23.4188
28.2751
24.2632
25.592
26.0459
22.7606
27.8416
21.1935
27.4477
20.9927
26.9158
21.0747
26.6333
20.8879
26.5841
20.7392
26.4189
20.9596
25.6439
21.7151
24.3396
23.0544
22.4175
24.899
20.3207
26.3099
19.2692
25.7786
19.2079
25.3332
19.0309
25.1022
18.95
24.782
19.3094
23.8937
20.2789
22.5842
21.7901
20.9489
23.5623
19.1918
25.2141
18.4129
24.9591
18.5969
24.7721
18.616
24.7523
18.6602
24.5736
19.0547
23.7497
19.9564
22.4378
21.2932
20.7527
22.7947
18.9004
24.1584
17.8873
23.8123
17.5089
23.543
17.2626
23.3297
17.1073
22.9665
17.3597
22.0031
18.1896
20.6095
19.536
18.8975
21.1347
17.0617
22.6823
16.0787
22.5916
15.7252
22.6302
15.52
22.6439
15.5742
22.2311
15.9377
21.5762
16.5485
20.6392
17.3784
19.4971
18.279
17.9839
19.6723
16.0038
21.1782
14.4297
20.9381
13.7425
20.3852
13.3818
19.2813
13.0907
18.0023
12.5541
16.387
11.9488
13.9806
11.6353
10.5787
11.2976
6.55674
10.5178
3.61983
6.36943
0.227
2.07612
-3.49482
-2.66182
-7.70584
-7.85405
-12.2078
-13.4158
-16.6687
-19.1029
-20.5506
-24.4353
-23.2432
-28.8146
-25.0265
-32.3737
-26.7273
-33.1171
-26.8569
-32.4078
-25.8262
-30.4273
-24.2077
-27.5603
-22.5051
-24.2697
-21.181
-20.6539
-20.5883
-16.6094
-20.2082
-12.9512
-18.7738
-10.8267
-16.7044
-8.74225
-14.2526
-6.54599
-11.3743
-3.90981
-7.93874
-0.830666
-3.57165
3.04755
1.75367
7.61503
8.61666
13.9109
16.5724
21.9224
26.3396
32.6413
36.8101
46.038
49.4805
62.4844
63.878
82.7419
80.9084
108.173
102.593
140.466
124.607
184.8
147.937
223.726
199.171
271.491
11.5255
35.3641
23.4054
35.4114
26.0315
34.6476
25.5502
32.9612
24.6026
30.8084
24.3923
28.7377
24.8366
26.4687
25.7766
24.319
26.5592
23.0683
26.5553
22.1874
26.6286
21.5802
26.7058
21.158
26.66
21.0163
26.3834
21.2471
25.7232
21.8277
24.6763
22.8049
23.2086
23.9986
21.6953
24.7903
20.8106
24.8315
20.095
24.9678
19.5223
24.9364
19.3213
24.6309
19.6034
23.9469
20.3147
22.9641
21.4132
21.7462
22.707
20.4642
23.7743
19.8279
24.0748
19.3703
24.4492
19.0128
24.6125
18.9474
24.4335
19.2698
23.7999
19.9209
22.7961
20.8647
21.501
21.9355
20.0707
22.7591
19.1823
22.9342
18.366
23.1088
17.7809
23.0969
17.4967
22.7776
17.653
22.037
18.2107
20.9691
19.1449
19.6529
20.2883
18.2422
21.2837
17.3785
21.6865
16.5976
22.109
16.0742
22.2808
15.9319
22.0948
16.0609
21.6472
16.4451
20.9103
17.0439
19.9296
17.8287
18.564
18.8824
16.9572
19.7742
15.7558
19.8467
14.7213
19.707
13.9535
19.0944
13.3215
18.1058
12.757
16.6011
12.2406
14.3172
11.987
11.3523
11.3303
8.11643
9.35907
5.04618
6.81615
1.7106
3.05678
-2.0016
-1.51154
-6.08019
-6.74409
-10.5825
-12.304
-15.2014
-17.8176
-19.4401
-22.7502
-23.3731
-26.8587
-26.238
-29.9468
-27.5082
-31.5281
-27.0767
-31.6559
-25.6241
-30.1443
-23.947
-27.3418
-22.1042
-24.143
-20.6143
-20.6938
-19.7016
-17.4908
-18.301
-14.369
-16.9012
-11.8378
-15.4737
-9.13138
-13.5861
-6.36458
-11.2485
-3.65009
-8.00043
-0.434507
-3.8014
3.45347
1.51125
8.40873
7.85913
14.8766
15.6732
23.1254
25.2249
33.7634
37.184
47.262
51.5536
65.277
68.3592
87.9049
89.5514
116.897
114.682
156.207
142.177
201.508
180.158
240.651
229.106
274.668
9.111
25.2255
18.0515
29.0892
21.9429
30.2974
23.4884
29.5943
24.1228
28.0639
24.6395
26.335
25.4135
24.5091
26.2604
23.0554
26.6057
22.5399
26.0482
22.4729
25.5258
22.4921
25.1786
22.4785
24.8942
22.5948
24.4768
22.9809
23.7565
23.6159
22.7862
24.4375
21.6675
25.1806
20.7995
25.3191
20.5809
24.6664
20.5777
24.0989
20.5618
23.5497
20.7017
22.908
21.1527
22.0598
21.8859
21.1172
22.7911
20.2302
23.6279
19.5924
24.0444
19.6417
23.7104
19.9168
23.4609
20.1397
23.1963
20.4536
22.7612
20.9852
22.0234
21.6947
21.0918
22.4798
20.1125
23.1286
19.2926
23.3326
19.0192
22.8468
18.8856
22.3619
18.8301
21.8412
18.9108
21.1748
19.2679
20.2519
19.876
19.1969
20.6468
18.1636
21.3707
17.3493
21.7401
17.1431
21.4742
17.1229
21.2275
17.2268
20.8947
17.5162
20.3852
17.9289
19.7697
18.4403
19.0386
19.0147
18.2255
19.62
17.2609
20.2757
16.3119
20.5836
15.8252
20.0465
15.6121
19.276
15.5223
18.2247
15.3775
17.0152
15.065
15.5614
14.6245
13.562
14.0595
11.1394
13.076
8.7748
11.0289
6.24249
7.90362
3.19981
3.93659
-0.255301
-0.764574
-4.35002
-6.07649
-9.05171
-11.8917
-14.1502
-17.8575
-19.2797
-23.3619
-23.8897
-27.9345
-27.8553
-31.2663
-30.1856
-32.9593
-30.4936
-32.6634
-29.7026
-30.4205
-28.0803
-27.1116
-25.9378
-23.7429
-23.8291
-20.6949
-22.1917
-17.773
-20.6157
-15.4998
-18.4758
-13.6024
-16.4543
-11.856
-14.3931
-9.83552
-12.3
-7.39513
-9.8642
-4.67443
-6.48484
-1.51064
-2.16483
2.61858
3.06389
7.97767
9.43116
14.7992
17.0647
23.4488
25.9098
34.5117
35.6812
48.7716
46.932
65.8517
60.6151
87.5087
76.1426
115.498
93.6935
143.358
122.106
171.039
162.111
204.445
11.1163
29.3931
18.9325
30.1981
23.044
30.3863
24.721
29.8618
25.1954
28.6483
25.4443
27.0124
25.899
25.4549
26.2111
24.3096
26.1019
23.8694
25.5844
23.5166
25.2863
23.1705
25.1263
22.9288
24.9123
22.9389
24.5305
23.2343
23.9383
23.6986
23.2003
24.2308
22.4137
24.6136
21.8263
24.4939
21.6922
24.0308
21.4661
23.7151
21.2044
23.3486
21.1749
22.8372
21.4658
22.1805
21.9693
21.5048
22.5572
20.9093
23.0588
20.5246
23.2646
20.5941
23.1103
20.6333
23.1091
20.6218
23.0109
20.7784
22.6886
21.1665
22.1249
21.669
21.4352
22.1747
20.7433
22.5403
20.1516
22.5437
19.9604
22.2263
19.681
21.9629
19.4404
21.6097
19.3782
21.0721
19.585
20.3375
19.9616
19.5358
20.4209
18.7871
20.8006
18.2214
20.9458
18.0738
20.8067
17.897
20.7449
17.7964
20.5736
17.8937
20.2359
18.115
19.7862
18.433
19.2178
18.8145
18.5598
19.2262
17.7762
19.6319
17.0464
19.7053
16.7165
19.2687
16.4034
18.7477
16.1004
18.0302
15.7282
17.1352
15.4441
15.7852
15.1495
14.0586
14.491
12.1356
13.1973
10.1021
11.2772
7.73321
8.8104
5.06319
5.26668
1.73092
0.98739
-2.30215
-4.0131
-6.99514
-9.60778
-12.2024
-15.4591
-17.6075
-21.072
-22.7575
-25.8292
-27.1761
-29.4894
-29.7816
-31.5587
-30.5679
-31.9068
-29.8955
-30.2551
-28.0692
-27.2064
-25.605
-23.835
-23.0641
-20.9058
-20.8733
-18.3591
-19.0956
-15.8249
-17.5452
-13.7554
-15.7556
-11.5251
-13.9701
-9.08304
-12.1126
-6.6511
-9.59948
-3.98358
-6.18207
-0.63946
-2.1079
3.70092
2.86684
9.23434
9.15877
16.3501
16.9999
25.545
26.6661
37.5558
38.052
53.056
51.8191
72.3366
68.6789
97.1798
87.8022
126.481
112.386
154.855
143.669
180.413
175.754
203.772
7.57409
23.6804
15.3938
24.9634
19.8297
26.3596
22.3433
26.6323
23.87
26.1194
24.7888
25.1086
25.4771
24.0815
25.8607
23.4176
25.7138
23.3061
25.1149
23.3394
24.6122
23.3766
24.221
23.454
23.8475
23.6706
23.4025
24.0509
22.8409
24.5019
22.2282
24.9167
21.6448
25.0874
21.41
24.7198
21.4304
23.9976
21.5024
23.3385
21.5534
22.6248
21.7171
21.89
22.0785
21.1495
22.5447
20.5245
23.013
20.145
23.297
20.0398
23.2643
20.3808
22.8882
20.7652
22.6048
21.1059
22.2717
21.5125
21.8185
22.015
21.2389
22.5177
20.638
22.9128
20.1089
23.0836
19.8388
22.8039
19.8157
22.2195
19.8273
21.6263
19.8652
20.9773
19.9991
20.2431
20.282
19.4343
20.6365
18.6617
20.9882
18.0748
21.1803
17.7542
21.0711
17.8567
20.6716
18.0424
20.3066
18.2971
19.8769
18.6576
19.3691
19.0543
18.8404
19.4595
18.2929
19.8389
17.7592
20.1543
17.2231
20.3568
16.8628
20.1648
16.8145
19.5224
16.8689
18.7582
16.9249
17.8372
16.8897
16.8024
16.6477
15.5743
16.2767
14.0966
15.5804
12.4531
14.378
10.703
12.4457
8.57654
9.65571
6.03701
6.1396
2.82688
1.82699
-1.16383
-3.31062
-6.01088
-9.18729
-11.6363
-15.5053
-17.749
-21.8423
-23.781
-27.5558
-29.1446
-31.9099
-32.898
-34.291
-34.1437
-34.3002
-33.3756
-32.1805
-31.1288
-28.7754
-28.0582
-25.1387
-25.0286
-21.832
-22.6905
-18.9264
-20.8789
-16.9592
-18.8603
-15.3247
-17.047
-13.7543
-15.3535
-11.9805
-13.8007
-10.0103
-12.034
-7.92861
-9.47448
-5.27781
-6.29664
-1.90635
-2.31048
2.39932
2.57194
7.91314
8.50696
14.9112
15.4219
24.3978
23.0253
36.6189
31.8779
51.1674
42.4711
69.5416
55.2728
89.1546
74.2474
109.261
100.215
132.334
129.704
158.059
12.145
26.8423
17.6108
27.372
21.3866
27.5363
23.6442
27.3015
24.9156
26.7744
25.4815
25.8701
25.9536
24.9575
25.9994
24.4074
25.6226
24.3019
24.962
24.2019
24.4898
24.0544
24.1589
23.9623
23.8434
24.0426
23.4778
24.3019
23.0529
24.6099
22.619
24.8541
22.292
24.754
22.1935
24.3584
22.3092
23.6618
22.3189
23.0495
22.2568
22.4747
22.2706
21.864
22.4632
21.2815
22.7423
20.8582
22.9423
20.6516
23.0347
20.6748
22.8819
21.0179
22.5371
21.3202
22.339
21.5354
22.1078
21.8139
21.7687
22.1823
21.3383
22.536
20.9116
22.7699
20.6051
22.7162
20.4566
22.4337
20.5289
21.8758
20.5125
21.372
20.4729
20.827
20.5044
20.2053
20.6594
19.5326
20.8434
18.9316
20.9732
18.5249
20.9123
18.3657
20.6588
18.5273
20.2531
18.6555
19.9465
18.7959
19.6107
19.0193
19.2172
19.2733
18.8076
19.5274
18.3851
19.7491
17.9832
19.8942
17.599
19.9109
17.3705
19.6515
17.4238
19.0331
17.4748
18.3948
17.4686
17.6763
17.3494
16.8997
17.2008
15.8816
16.821
14.7088
16.0944
13.5004
14.8459
12.1205
13.1681
10.4031
10.8911
8.18382
7.84845
5.28231
4.00271
1.53345
-0.686124
-3.16637
-6.20701
-8.83485
-12.3946
-15.1575
-18.8897
-21.6139
-24.9796
-27.4469
-30.0066
-31.7448
-33.2095
-34.0431
-34.2487
-33.9784
-33.057
-31.8094
-29.8233
-28.2661
-25.7343
-24.6779
-21.9999
-21.9694
-19.2092
-20.0401
-16.9926
-18.3639
-15.1147
-16.5903
-13.1763
-14.8091
-11.0752
-13.2535
-9.0461
-11.3885
-6.8713
-8.92794
-4.21877
-5.93164
-0.802999
-2.1568
3.63049
2.62969
9.31518
8.71761
16.9713
15.6834
27.3514
24.2284
40.4018
35.0335
56.4354
48.05
75.3237
65.1475
94.8605
86.7759
114.77
110.307
134.638
133.059
153.326
8.67129
22.7324
14.4181
23.4505
18.6751
24.105
21.5506
24.466
23.3867
24.4624
24.4767
24.2317
25.1025
23.8603
25.3017
23.6436
25.0527
23.7524
24.4452
23.8853
23.9334
23.9645
23.5147
24.0782
23.1372
24.3019
22.7654
24.6107
22.3977
24.9106
22.0756
25.0553
21.8784
24.9965
21.8324
24.4914
22.0382
23.7124
22.1483
22.9105
22.2549
22.0673
22.3413
21.3071
22.5629
20.6578
22.7682
20.342
22.9011
20.2329
22.9401
20.3691
22.7424
20.852
22.3386
21.3291
22.0366
21.7412
21.712
22.164
21.327
22.5964
20.9095
22.9433
20.5654
23.0599
20.3669
22.9884
20.2677
22.561
20.4187
21.8693
20.5209
21.1857
20.596
20.4849
20.7039
19.7628
20.867
19.078
20.9897
18.5344
21.0046
18.2002
20.9428
18.0755
20.6086
18.3427
20.1156
18.6553
19.6938
18.9935
19.2509
19.377
18.7833
19.7395
18.3484
20.0512
17.9575
20.2776
17.6494
20.3734
17.4133
20.3196
17.3274
19.9539
17.5138
19.2643
17.7353
18.5393
17.9003
17.7375
17.9592
16.8505
17.8321
15.9388
17.4401
14.9713
16.6945
13.9201
15.5602
12.5925
13.9303
10.8845
11.6511
8.78777
8.63911
6.04247
4.80422
2.37891
0.0758355
-2.39356
-5.56952
-8.31539
-12.1668
-15.1594
-19.3984
-22.4637
-26.602
-29.3753
-32.8108
-34.8306
-36.7771
-37.6176
-37.7404
-37.3044
-35.7806
-34.5579
-31.7891
-30.4261
-27.0216
-26.1691
-22.7601
-22.9205
-19.5254
-20.9152
-17.7293
-19.1506
-16.3772
-17.6765
-15.1425
-16.2464
-13.6318
-15.126
-12.0086
-13.9989
-10.3802
-12.1851
-8.32795
-9.88815
-5.70206
-6.9542
-2.29278
-3.28302
2.0457
1.06265
8.10393
5.91179
15.9511
11.5786
25.8941
18.3498
37.9472
27.216
50.4978
40.6855
64.8939
57.9776
81.8919
78.5987
101.477
100.856
122.078
13.035
26.1251
17.3255
25.9431
20.625
25.8158
22.8835
25.5705
24.3022
25.2956
25.0965
24.9189
25.5246
24.5893
25.5577
24.3898
25.1429
24.499
24.4719
24.5572
23.9314
24.5509
23.4864
24.5486
23.1295
24.6428
22.8391
24.8384
22.5989
25.0206
22.425
25.0616
22.3729
24.9067
22.514
24.3043
22.8154
23.5272
22.8963
22.8375
22.8896
22.0522
22.9062
21.294
23.0179
20.7971
23.0523
20.6155
22.9787
20.5871
22.8512
20.7614
22.5707
21.2398
22.1471
21.6971
21.858
22.0497
21.5806
22.3902
21.2768
22.7219
20.9772
22.958
20.777
23.0018
20.6841
22.8726
20.7437
22.3972
20.9836
21.7249
21.1014
21.0904
21.1508
20.4333
21.2015
19.7816
21.2694
19.1817
21.3015
18.764
21.1719
18.5061
20.841
18.5129
20.4017
18.8194
19.8688
19.1044
19.4423
19.3802
19.0331
19.6771
18.6291
19.9445
18.2713
20.1464
17.9711
20.2498
17.7681
20.2344
17.6249
20.0635
17.6596
19.6415
17.9286
18.9678
18.1848
18.3077
18.3796
17.619
18.4292
16.9913
18.2857
16.3266
17.8952
15.6513
17.2186
14.8763
16.2617
13.8874
14.9106
12.6558
12.9784
11.0151
10.3672
8.66341
7.05479
5.29122
2.89612
0.723147
-2.34218
-5.06373
-8.75817
-12.0302
-16.1152
-19.7852
-23.8063
-27.4589
-30.8146
-33.768
-36.0073
-37.8644
-38.5731
-39.1156
-38.0602
-37.1043
-34.2531
-32.2849
-28.6943
-26.934
-23.3577
-23.1194
-19.959
-20.8103
-17.8821
-19.1036
-16.1673
-17.3203
-14.4724
-15.5417
-12.6473
-14.2555
-10.9398
-13.1017
-9.39714
-11.4668
-7.51725
-9.57005
-5.04698
-7.04653
-1.8114
-3.69425
2.59292
0.300814
8.97065
4.92497
17.4757
10.8399
27.8542
19.0114
39.2616
30.824
51.8746
45.4146
66.3394
62.1163
82.0095
79.9498
98.2591
97.7026
113.994
9.4478
22.7704
14.5925
22.623
18.4042
22.9912
21.0609
23.3309
22.8929
23.4998
23.9962
23.6285
24.6034
23.6812
24.8084
23.783
24.5553
24.0362
23.9559
24.2471
23.3987
24.387
22.9584
24.4876
22.6051
24.6644
22.3367
24.8636
22.1812
25.0367
22.0907
25.107
22.0862
24.9635
22.2581
24.4142
22.5745
23.5993
22.7084
22.8108
22.7307
21.969
22.67
21.153
22.6593
20.524
22.6496
20.2761
22.6816
20.2558
22.6429
20.5548
22.3804
21.1438
21.9593
21.7075
21.6492
22.1717
21.3565
22.5874
21.0558
22.9492
20.7737
23.1724
20.6075
23.1936
20.58
22.988
20.6873
22.4758
20.932
21.7247
21.0826
21.0118
21.1185
20.3053
21.1446
19.6134
21.1763
18.9837
21.1654
18.5288
21.0301
18.2802
20.729
18.3188
20.2814
18.6712
19.7205
19.0726
19.2642
19.4729
18.8275
19.8736
18.4045
20.2071
18.0548
20.4432
17.7912
20.55
17.6414
20.5086
17.6162
20.3114
17.7102
19.8697
18.0219
19.1608
18.3658
18.4627
18.6348
17.7455
18.7911
17.0787
18.6632
16.5135
18.2853
15.934
17.688
15.2215
16.8254
14.3347
15.5192
13.2119
13.6082
11.742
11.1748
9.51568
8.11317
6.27543
4.13197
1.8795
-1.07044
-3.89716
-7.64424
-11.1307
-15.5472
-19.5593
-24.3116
-28.3997
-32.8647
-36.3176
-39.3557
-41.3683
-42.3212
-42.5087
-41.1258
-39.7677
-36.5625
-34.1495
-29.7896
-27.6818
-23.4716
-22.6391
-19.326
-20.4657
-17.7891
-19.2666
-16.9092
-18.3291
-16.0572
-17.1335
-14.7567
-16.1712
-13.5179
-15.4082
-12.3547
-14.2073
-10.7013
-12.7425
-8.62056
-10.7662
-5.99518
-8.26352
-2.40577
-5.58733
2.71466
-2.51437
8.92502
1.59498
16.0782
7.62438
23.7482
16.2272
33.0642
27.4872
44.6248
41.3867
58.7269
57.6001
74.9
75.1143
92.0269
14.6702
25.7899
18.0428
24.9281
20.5782
24.5784
22.4061
24.438
23.7564
24.2618
24.5737
24.197
25.0059
24.2185
25.0412
24.3066
24.6872
24.5832
24.0627
24.7543
23.5038
24.8475
22.9478
24.8868
22.5742
24.9451
22.4231
25.0106
22.3548
25.1413
22.3312
25.2098
22.4828
24.9524
22.8065
24.2878
23.2904
23.4176
23.4465
22.7447
23.4089
21.9673
23.2874
21.1732
23.1935
20.6797
23.0258
20.4787
22.885
20.4615
22.6538
20.761
22.303
21.3325
21.8382
21.9034
21.511
22.3508
21.2355
22.7253
20.987
23.0278
20.7955
23.1754
20.7281
23.185
20.8009
22.9548
21.0249
22.4302
21.3826
21.7091
21.5919
20.9944
21.6333
20.3176
21.6342
19.6587
21.6071
19.1095
21.4874
18.7681
21.215
18.5329
20.7482
18.6321
20.1933
19.0035
19.5813
19.3761
19.0848
19.7411
18.6429
20.0922
18.2491
20.3676
17.9431
20.5327
17.739
20.5648
17.6626
20.4427
17.6932
20.1732
17.8858
19.68
18.2913
18.9852
18.6767
18.326
18.9829
17.6962
19.1141
17.2173
18.9709
16.8596
18.6205
16.4831
18.1141
16.0087
17.3857
15.4549
16.2727
14.7833
14.6971
13.6232
12.736
11.7113
10.2157
8.86948
6.73844
4.83632
1.99603
-0.700519
-4.33092
-7.95057
-12.3304
-16.7755
-21.617
-26.514
-31.1843
-35.6903
-39.2479
-42.4249
-44.2933
-45.7602
-45.4034
-44.8031
-41.5842
-38.9272
-33.6987
-30.5597
-25.3682
-24.01
-20.1887
-20.7364
-18.1393
-19.3099
-16.8133
-17.6442
-15.2104
-15.9102
-13.9435
-14.769
-12.6308
-14.254
-11.6929
-13.4784
-10.5682
-12.617
-8.98124
-11.4216
-6.65349
-9.69762
-3.26548
-7.73525
1.53322
-4.81089
7.3433
-0.240973
13.9175
6.5821
21.7638
15.3723
31.0137
26.1556
41.9078
38.7982
54.2991
52.729
67.7706
67.3518
81.5389
11.1623
23.0326
15.6539
22.4041
18.8465
22.4306
21.1169
22.671
22.7092
22.9293
23.6204
23.2692
24.1504
23.5782
24.3845
23.9051
24.1941
24.2569
23.664
24.4756
23.135
24.6304
22.5761
24.7058
22.1866
24.8296
22.0655
24.895
22.0303
25.0544
22.0564
25.1491
22.2481
24.9532
22.619
24.4042
23.0742
23.5737
23.391
22.7649
23.2947
21.975
23.0577
21.1272
22.7689
20.4339
22.528
20.1596
22.4637
20.196
22.4154
20.6049
22.1167
21.3248
21.6695
21.9856
21.3505
22.4927
21.0963
22.8942
20.8744
23.1995
20.6967
23.3404
20.6604
23.3117
20.7758
23.026
21.0333
22.4798
21.4026
21.6879
21.6435
20.9213
21.6189
20.2272
21.5609
19.5586
21.4755
18.9929
21.3275
18.5739
21.046
18.3679
20.5838
18.4893
20.0442
18.8948
19.4206
19.3722
18.9269
19.8329
18.4918
20.2571
18.107
20.5736
17.8286
20.7533
17.666
20.7804
17.6382
20.647
17.7332
20.3569
17.9669
19.8623
18.391
19.1374
18.8423
18.4578
19.1906
17.8306
19.3774
17.3637
19.24
17.0706
18.9621
16.7457
18.5443
16.3802
17.8588
15.9945
16.7697
15.4689
15.3305
14.4087
13.6776
12.6756
11.4692
10.1574
8.35689
6.50949
3.9873
1.35376
-2.06458
-5.70249
-10.1378
-14.8151
-20.1354
-25.5201
-31.2305
-36.492
-41.3512
-45.0961
-47.5624
-49.0502
-48.6484
-47.6043
-44.1205
-40.9276
-34.8016
-30.5951
-24.3076
-21.9308
-17.8989
-18.9482
-17.1083
-18.9698
-17.5101
-19.096
-17.1308
-17.7081
-15.7101
-16.6706
-14.804
-16.1825
-14.0143
-15.4522
-12.898
-14.49
-11.4006
-13.3992
-9.33292
-12.1009
-6.4517
-10.6236
-2.69927
-8.36851
1.37139
-4.90075
5.99979
-0.162872
11.4598
6.29833
18.271
14.7488
26.8764
25.2623
37.9064
37.598
51.0325
51.233
65.4306
16.5782
25.55
19.2117
24.2957
20.9469
23.7874
22.3175
23.5616
23.3467
23.5543
24.0611
23.666
24.4674
23.8671
24.5628
24.1716
24.2915
24.6217
23.7238
24.8653
23.2121
24.9627
22.6679
24.9537
22.1924
24.9933
22.1164
24.9898
22.1257
25.1295
22.2202
25.2572
22.527
24.965
23.0021
24.3091
23.6676
23.3682
23.9416
22.7234
23.912
21.9866
23.6964
21.1968
23.3529
20.6222
22.9695
20.3071
22.7129
20.2602
22.4567
20.6521
22.0259
21.3595
21.5219
22.0513
21.1926
22.5728
20.9558
22.9657
20.7676
23.2433
20.6477
23.347
20.6806
23.3137
20.9005
23.0312
21.272
22.4909
21.7733
21.7289
22.1046
20.9406
22.0893
20.2581
21.9956
19.6114
21.8542
19.1139
21.6271
18.7636
21.2565
18.544
20.6837
18.6802
20.0168
19.0955
19.3153
19.5575
18.7614
20.0089
18.3069
20.4145
17.9329
20.6999
17.6776
20.836
17.5524
20.8145
17.5756
20.6268
17.7264
20.2866
18.0353
19.7416
18.5526
19.0077
19.0537
18.3445
19.4287
17.7798
19.5448
17.458
19.4356
17.2502
19.2141
17.0389
18.8536
16.8544
18.2586
16.7099
17.3389
16.4703
16.1613
15.6636
14.9114
14.3013
13.1339
12.2039
10.5224
8.99852
6.6544
4.23721
0.970349
-2.64725
-7.08997
-12.0579
-17.663
-23.7062
-29.9608
-36.2102
-42.0206
-47.2918
-51.034
-54.072
-54.9872
-55.739
-52.8407
-50.2528
-43.2369
-37.4476
-29.2482
-24.5444
-19.1758
-18.9859
-16.8016
-18.6584
-16.4082
-17.3656
-15.8156
-15.9357
-14.8292
-14.6545
-13.8
-14.6897
-13.2961
-14.6152
-13.0977
-14.7244
-12.4549
-14.542
-11.0966
-13.8762
-9.00248
-12.8313
-6.04336
-10.9936
-2.61355
-8.17744
1.64571
-4.1297
6.96511
1.40793
13.4216
8.51715
21.2124
17.1985
30.4951
27.8235
41.2843
40.2756
53.438
13.2936
23.5402
17.4589
22.4343
19.8354
22.1985
21.5926
22.3394
22.7597
22.6433
23.3786
23.1063
23.7997
23.5431
24.0249
23.9993
23.8676
24.5039
23.356
24.8471
22.8869
24.8952
22.4228
24.8413
22.018
24.7463
21.8352
24.7717
21.8906
24.9145
21.9657
25.1135
22.3324
24.9535
22.9025
24.3938
23.5953
23.553
24.0931
22.7511
23.977
22.0498
23.5618
21.2301
22.9634
20.3846
22.4707
20.0088
22.2531
20.0144
22.2521
20.5779
21.8497
21.4801
21.3737
22.2369
21.0515
22.7763
20.8501
23.1548
20.7087
23.4049
20.6232
23.494
20.6566
23.4109
20.8893
23.0782
21.3183
22.4918
21.8839
21.6803
22.2854
20.8635
22.1728
20.2113
21.9659
19.5791
21.7528
19.0487
21.4952
18.6479
21.1131
18.4575
20.5115
18.6177
19.8534
19.0723
19.1373
19.6213
18.5923
20.1457
18.1568
20.6053
17.8106
20.9092
17.6005
21.0343
17.5271
20.9896
17.5962
20.7804
17.7936
20.4177
18.1411
19.863
18.6808
19.1089
19.2347
18.4344
19.6403
17.8853
19.8229
17.533
19.752
17.3871
19.5601
17.2617
19.252
17.1927
18.7419
17.1549
17.9264
17.0531
16.8402
16.4356
15.8237
15.3349
14.4052
13.6159
12.2687
10.9257
8.98667
6.80798
3.97332
0.603713
-3.52952
-8.41926
-14.1194
-20.5204
-27.527
-34.5961
-41.5482
-47.6294
-52.5162
-56.1304
-57.9384
-58.9319
-56.3004
-53.4575
-45.7395
-38.6421
-27.7698
-21.6974
-14.4973
-14.7368
-13.8849
-18.0127
-19.0033
-20.1939
-18.7501
-18.0666
-16.2349
-16.7296
-15.3895
-16.7115
-15.1674
-16.3441
-14.4925
-15.8206
-13.8684
-15.5218
-12.7426
-14.9675
-11.0657
-14.2596
-8.76925
-12.9871
-6.21561
-11.0333
-3.32797
-8.30897
0.130292
-4.3785
4.69691
1.33101
10.5282
8.85256
18.1418
17.6059
28.0174
28.14
40.3839
19.2895
24.7327
20.8976
23.8981
21.571
23.2985
22.3946
23.0418
23.1306
23.0642
23.6441
23.3048
23.9702
23.6008
24.1474
24.0595
23.9319
24.6754
23.4118
25.0623
22.8959
25.1045
22.4744
25.0122
22.0504
24.9011
21.908
24.8237
21.9494
25.0446
22.0325
25.2409
22.3899
24.9436
23.072
24.2698
24.0001
23.2635
24.4602
22.6871
24.4753
22.1386
24.1718
21.4299
23.6049
20.6816
22.933
20.0709
22.5354
19.9266
22.2007
20.4942
21.6462
21.4062
21.1327
22.2143
20.848
22.7636
20.688
23.1638
20.5565
23.433
20.4857
23.5228
20.5834
23.4107
20.9437
23.068
21.495
22.4967
22.1883
21.7139
22.7091
20.9268
22.5666
20.2743
22.3007
19.6118
22.0537
19.1622
21.7335
18.8189
21.3004
18.5907
20.644
18.6957
19.8456
19.1549
19.0155
19.721
18.399
20.2697
17.9454
20.7338
17.6112
21.0211
17.4168
21.1222
17.3642
21.0565
17.467
20.8169
17.7094
20.4094
18.1285
19.7928
18.7757
18.9758
19.4145
18.2902
19.8463
17.7753
19.9991
17.4913
19.9092
17.3752
19.7385
17.309
19.4649
17.308
19.0477
17.4389
18.3343
17.5762
17.3779
17.1877
16.6206
16.3873
15.5684
15.0628
13.9312
12.9044
11.265
9.41935
6.91802
3.84691
-0.0385552
-4.84138
-10.6817
-17.5384
-25.4957
-33.6456
-42.3788
-50.1382
-56.5317
-61.5269
-64.6083
-67.7352
-66.4569
-66.0021
-58.7399
-50.9748
-38.3497
-27.3113
-16.7708
-13.8707
-11.3814
-14.9504
-13.6827
-17.663
-17.8665
-16.5261
-15.4148
-14.1836
-13.6216
-14.3485
-14.0559
-15.4178
-14.6141
-16.1532
-14.9181
-16.6589
-14.4288
-16.4848
-13.2311
-15.9739
-11.5013
-15.3324
-9.54945
-14.0239
-7.05578
-12.0341
-3.87151
-9.08432
-0.0309411
-5.00403
4.8742
0.0541887
10.9857
6.67977
17.9789
15.2802
27.7185
17.3995
23.6307
19.6194
22.7705
21.3663
22.153
22.4261
22.1844
22.9055
22.5849
23.2851
23.0125
23.5822
23.4672
23.685
24.0806
23.4838
24.7491
23.0112
25.1716
22.742
25.1709
22.3677
24.9553
21.9533
24.6881
21.6873
24.5976
21.5806
24.8826
21.7274
25.1328
22.2565
24.868
23.1113
24.2266
24.1586
23.3667
24.7419
22.7445
24.6845
22.1725
24.0984
21.488
23.3188
20.433
22.606
19.7016
22.3587
19.7286
22.0779
20.6111
21.4362
21.7059
20.9877
22.5259
20.6753
23.0664
20.5616
23.4257
20.5006
23.6318
20.472
23.6649
20.5542
23.5022
20.9094
23.0813
21.5559
22.4111
22.4032
21.5979
23.0022
20.9201
22.7868
20.3397
22.3784
19.6727
22.0056
19.1187
21.6665
18.7461
21.2676
18.5718
20.5638
18.7559
19.6918
19.2751
18.785
19.8926
18.1632
20.4725
17.741
20.9818
17.4463
21.272
17.3192
21.3273
17.3355
21.2111
17.4977
20.9285
17.8011
20.4759
18.276
19.8255
18.9722
18.9793
19.6479
18.3044
20.0921
17.8311
20.2298
17.589
20.1688
17.5199
20.0459
17.5046
19.8355
17.6325
19.4154
17.8582
18.8481
18.0822
18.0079
17.8755
17.4089
17.3182
16.6838
16.3307
15.4837
14.6609
13.4218
11.8683
9.88167
7.18515
3.84546
-0.583006
-6.07338
-12.8253
-21.0435
-29.7432
-39.4187
-48.134
-55.5059
-60.7027
-64.4425
-68.8155
-68.9317
-69.9955
-64.8499
-55.897
-39.9034
-26.7473
-10.8579
-7.35485
-6.49601
-16.5552
-19.7215
-21.8361
-20.8472
-19.3641
-16.7582
-15.9385
-15.4145
-16.7748
-15.5051
-16.5726
-14.9319
-16.3598
-15.3353
-17.0558
-15.249
-17.2197
-14.3031
-16.9845
-12.8126
-16.4339
-11.6192
-15.6063
-10.3116
-14.6934
-8.47902
-13.5806
-6.18961
-10.5261
-3.2707
-5.56978
0.0346169
-0.167045
5.83748
6.06674
15.1067
21.6854
24.5194
22.3898
23.5026
22.4356
23.1062
22.4861
22.9848
22.9117
22.8316
23.4171
23.1151
23.5935
23.5513
23.6772
24.0401
23.5644
24.7598
23.0057
25.1233
22.7437
25.2761
22.4361
25.1978
22.0505
24.9701
21.7528
24.9554
21.5756
25.1468
21.7914
25.166
22.1044
24.7894
23.0448
24.0384
24.3105
23.085
24.8194
22.6936
24.8357
22.481
24.6191
21.8384
24.1154
20.8455
23.0429
19.9181
22.2817
19.7612
21.7355
20.506
21.0876
21.6525
20.5883
22.4324
20.5126
22.8791
20.4836
23.2948
20.3792
23.6135
20.3183
23.7044
20.444
23.4718
20.9868
22.9733
21.7634
22.3266
22.6171
21.6037
23.2433
21.0582
23.0277
20.424
22.5733
19.6727
22.2508
19.1946
21.9103
18.7917
21.4879
18.6429
20.6848
18.7708
19.6868
19.3109
18.6483
19.9576
17.958
20.5788
17.5128
21.0969
17.2729
21.3441
17.1753
21.3873
17.1872
21.2879
17.3478
21
17.6771
20.5071
18.225
19.779
19.0615
18.8104
19.8526
18.1185
20.305
17.691
20.4086
17.4619