/*--------------------------------*- C++ -*----------------------------------*\
| =========                 |                                                 |
| \\      /  F ield         | OpenFOAM: The Open Source CFD Toolbox           |
|  \\    /   O peration     | Version:  4.1                                   |
|   \\  /    A nd           | Web:      www.OpenFOAM.org                      |
|    \\/     M anipulation  |                                                 |
\*---------------------------------------------------------------------------*/
FoamFile
{
    version     2.0;
    format      ascii;
    class       volScalarField;
    location    "1348";
    object      p;
}
// * * * * * * * * * * * * * * * * * * * * * * * * * * * * * * * * * * * * * //

dimensions      [0 2 -2 0 0 0 0];

internalField   nonuniform List<scalar> 
204246
(
135.792
-12.0885
40.0295
17.7138
15.1877
17.2289
8.35155
12.4969
2.32653
6.9204
-4.29219
1.27494
-12.7326
-4.61468
-19.0279
-12.083
-18.8378
-29.9884
-16.5971
-33.0703
-16.9294
-29.8251
-17.6882
-24.8399
-12.7222
-17.6728
-4.74472
-10.9266
3.69593
-3.4434
11.4161
3.58142
17.2668
10.6057
19.1039
20.2952
14.5428
27.7861
16.1893
29.5894
18.1003
31.2963
18.5309
32.9891
17.2255
34.2778
17.3243
34.1789
18.5691
31.9655
20.7841
29.2986
26.3843
19.1231
31.6604
17.6025
30.9735
17.665
30.7159
16.9926
31.2146
14.7569
31.5537
14.1618
30.5033
15.06
27.3608
16.1753
24.248
20.3223
13.8938
23.0905
11.1619
22.3944
8.94825
20.6746
6.36736
18.9392
2.45017
16.0891
0.00261011
11.7996
-2.3949
6.13087
-5.28649
0.150752
-4.62977
-13.0844
-6.91627
-18.0242
-9.96362
-23.9269
-12.0877
-29.6235
-13.5352
-32.5775
-14.9993
-33.8596
-15.8101
-32.8433
-17.2866
-30.3805
-17.0022
-27.0013
-16.5092
-21.0047
-23.3373
-12.9059
-23.8373
-8.67957
-24.3799
-6.12492
-22.5283
-5.35236
-21.2468
-4.42251
-20.4021
-3.74327
-19.4553
-3.67611
-17.4052
-5.80114
-11.0643
-15.7869
-4.34331
-18.0293
-2.5635
-18.3801
-1.97664
-18.3165
-1.70162
-18.1662
-1.52237
-18.0017
-1.38515
-17.4211
-1.812
-15.7172
-4.23441
-9.51839
-14.5205
-3.03171
-16.7361
-1.37076
-16.9586
-0.638837
-16.8318
-0.172348
-16.4367
0.303137
-15.8127
0.824656
-14.7441
1.12462
-12.2213
-0.403645
-5.03753
-9.1647
2.84995
-9.72815
6.3107
-7.68646
8.72826
-4.0334
11.3899
0.627351
15.2677
6.38005
20.3762
13.3641
26.6826
22.3427
34.6646
33.8984
44.1532
50.6781
52.9147
66.7748
71.3076
84.6189
94.3633
107.737
122.076
136.979
156.918
174.747
203.036
225.691
269.596
298.537
386.271
402.193
609.234
45.4717
20.8119
20.2344
22.5343
16.2006
17.2854
12.112
11.7117
7.40952
6.28587
1.47701
0.261912
-5.48526
-6.87172
-11.0987
-15.5925
-12.9855
-24.2907
-22.0049
-26.9082
-24.3626
-26.2745
-22.3673
-24.4066
-18.854
-17.5373
-11.9077
-9.8065
-4.31321
-1.83821
3.26333
5.60738
9.30426
12.6225
12.5243
19.1335
15.8972
23.4276
19.2362
24.7898
21.262
26.3184
22.3886
27.7241
22.7001
28.018
23.2753
27.7039
24.2152
26.6744
25.2572
24.8495
27.9458
22.3685
27.2292
22.6466
26.5465
22.2528
26.4091
21.569
26.4902
20.796
25.758
20.5702
24.5983
20.6414
23.1712
20.8302
20.6903
22.5572
17.4741
20.6884
16.0882
19.1215
14.3746
17.3106
12.0616
15.2644
9.22137
12.2204
6.4781
8.61697
3.79495
3.93976
0.642166
-2.09137
-0.606422
-8.06671
-7.52261
-13.0828
-11.5951
-17.9296
-15.511
-22.277
-19.1314
-25.2536
-21.5569
-26.9651
-22.9568
-26.9544
-23.3301
-26.0967
-22.4488
-23.9965
-21.9346
-19.4876
-22.5022
-16.9741
-20.6686
-14.4346
-19.0303
-13.0199
-17.169
-11.7819
-15.9879
-10.6731
-15.0941
-9.97535
-14.0414
-10.0319
-12.1845
-11.4343
-8.87067
-13.7448
-8.40957
-13.4398
-8.07554
-13.1237
-7.80226
-12.8718
-7.58867
-12.6483
-7.43857
-12.3851
-7.47475
-11.7836
-7.99844
-10.3082
-9.75285
-7.22246
-12.2558
-7.01384
-12.0527
-6.78628
-11.7776
-6.4571
-11.4627
-6.14628
-11.0701
-5.79104
-10.5011
-5.45216
-9.50025
-5.43381
-7.36525
-6.35329
-3.52635
-7.71054
-2.04649
-6.04845
-0.246373
-3.73354
2.03093
-1.00606
4.93765
2.41654
8.63515
6.92794
13.3698
12.7345
18.7667
20.479
25.71
30.2467
33.8812
42.6336
46.3198
55.3975
61.9561
71.4794
81.1617
91.6214
104.659
116.243
133.422
146.235
169.445
182.867
218.125
224.763
299.487
264.927
399.607
18.0446
27.232
22.4186
22.2476
18.2568
17.6368
13.3349
12.9206
8.30174
7.30094
2.55808
0.844945
-4.03229
-6.58077
-10.2193
-14.7529
-16.6195
-22.2876
-22.2273
-26.37
-25.0175
-27.1743
-24.2714
-24.5721
-20.4794
-18.6502
-13.5515
-10.3722
-5.35388
-1.85796
2.54883
6.13862
9.13553
12.9427
13.8027
18.2419
17.4501
22.2489
20.5576
24.3204
22.2855
26.2543
22.9326
27.6112
23.2585
28.1428
23.6574
28.0177
24.2835
27.2094
25.1821
25.667
26.5884
23.7844
26.8627
22.9845
26.7179
22.4066
26.4967
21.7811
26.2757
21.0892
25.737
20.7124
24.7795
20.6508
23.1744
20.7883
20.9953
21.1518
18.4337
20.3505
16.4916
19.1301
14.6106
17.4346
12.4101
15.283
9.87877
12.261
7.41328
8.30614
4.70767
3.76455
1.61614
-1.50231
-2.37991
-6.82227
-7.26566
-11.8148
-12.2825
-16.8528
-16.1773
-21.3971
-19.3669
-24.8149
-21.6798
-26.9136
-22.989
-27.3776
-23.3914
-26.4494
-22.9197
-24.0354
-22.5114
-20.4784
-21.4603
-17.6091
-20.1833
-14.9632
-18.7034
-13.0452
-17.1058
-11.634
-15.8877
-10.492
-14.961
-9.80173
-13.8705
-9.78825
-12.2722
-10.69
-10.0552
-12.2598
-8.84269
-12.7711
-8.07475
-12.8121
-7.6711
-12.6833
-7.44109
-12.5015
-7.31303
-12.2391
-7.35272
-11.6987
-7.81114
-10.5478
-9.11135
-8.58889
-10.9315
-7.56223
-11.5488
-6.87474
-11.5962
-6.42789
-11.3837
-6.06518
-11.0129
-5.69846
-10.4339
-5.36216
-9.45226
-5.28308
-7.62097
-5.80822
-4.74047
-6.47968
-2.56267
-5.65388
-0.290399
-3.80534
1.95105
-0.903339
4.51369
2.98601
7.99399
7.76183
12.6387
13.7205
18.6665
21.1789
26.1693
30.6938
35.7814
42.302
47.3197
56.3267
62.9357
73.1715
82.8408
94.0976
107.646
120.169
138.753
152.627
178.286
192.961
232.669
240.59
316.75
295.479
384.26
4.26201
19.2242
15.7927
19.3378
16.7382
17.5631
14.2225
13.8774
10.3416
9.09491
5.18573
3.06507
-1.01841
-4.45674
-7.61757
-12.5992
-14.3675
-20.3274
-22.5765
-25.686
-27.2524
-28.1463
-27.4621
-27.0239
-24.0659
-21.8985
-17.4836
-13.9392
-9.25967
-4.98744
-0.990639
3.56889
6.2732
11.0163
11.8145
16.7565
16.5163
20.1113
20.4399
22.7583
22.5704
24.4695
23.9042
25.5857
24.6105
25.9441
25.1757
25.8583
25.7186
25.4161
26.2286
24.6851
26.7774
24.2768
26.0015
24.2548
25.4605
23.9185
25.1407
23.4741
24.8157
23.0992
24.1219
22.8609
23.2692
22.699
22.2259
22.4034
20.9057
22.2154
19.7723
20.4808
18.5798
18.8149
17.0217
17.0879
15.0805
14.9752
12.8702
12.1372
10.2428
8.82219
7.14263
4.93007
3.70495
0.286616
-0.216716
-4.57715
-5.74313
-9.52682
-11.1096
-14.4285
-16.3234
-18.9193
-20.7775
-22.545
-24.0055
-24.9685
-25.7499
-25.9944
-26.0061
-25.6507
-25.2095
-23.925
-24.0364
-21.4276
-22.0432
-19.2942
-19.4975
-17.2229
-17.4666
-15.5569
-15.7566
-14.0882
-14.5108
-12.8763
-13.5284
-12.1688
-12.48
-12.0222
-11.2587
-12.2724
-9.98081
-12.294
-9.98197
-11.8788
-9.90076
-11.4965
-9.74412
-11.1875
-9.57692
-10.9168
-9.4617
-10.6058
-9.49621
-10.1
-9.8069
-9.23865
-10.4818
-8.26426
-10.7431
-8.5091
-10.4814
-8.57063
-10.1925
-8.45831
-9.88868
-8.26224
-9.53714
-8.01483
-9.04572
-7.77445
-8.24597
-7.71606
-6.84389
-7.69672
-5.3456
-6.99927
-4.57577
-5.59345
-3.30921
-3.75075
-1.4372
-1.54351
0.897762
1.29702
4.00807
4.92719
8.03906
9.57951
12.9618
15.7596
19.2222
23.48
27.0518
33.2606
37.3967
44.3325
50.4482
57.7826
66.4464
74.2729
85.861
94.1671
109.382
118.163
138.732
145.817
178.868
173.75
231.238
218.103
289.2
5.69276
20.0601
15.8575
19.3509
17.7502
17.7955
15.4148
14.7857
11.6133
10.341
6.67739
4.4595
0.636274
-2.91073
-6.45484
-11.1761
-14.3295
-19.1235
-22.1058
-26.1176
-27.7727
-29.7917
-29.4227
-29.2169
-26.5597
-24.2362
-19.6627
-15.6935
-10.6106
-6.07236
-1.51004
3.05252
6.3576
10.7871
12.6006
16.5085
17.4464
20.5558
20.9061
23.0881
23.2008
24.7942
24.4775
25.8736
25.2509
26.3128
25.7072
26.3138
26.0463
26.0027
26.2926
25.4152
26.3227
25.1464
25.8969
24.708
25.5804
24.2046
25.2364
23.7091
24.7967
23.2859
24.18
22.9322
23.3729
22.7201
22.2979
22.3236
21.1224
21.5497
20.093
20.516
18.9082
18.9994
17.3909
17.3147
15.5739
15.2412
13.4364
12.6224
10.9009
9.35737
7.80733
5.57271
4.18265
1.19254
-0.100868
-3.46277
-5.03621
-8.58077
-10.3358
-13.6205
-15.554
-18.2356
-20.2109
-22.1272
-23.8219
-25.0183
-25.8907
-26.4713
-26.5264
-26.2882
-25.9809
-24.6049
-24.4053
-22.2788
-22.1044
-19.7834
-19.5164
-17.4484
-17.2205
-15.5464
-15.4866
-13.9332
-14.215
-12.6696
-13.1865
-11.8905
-12.1514
-11.6135
-11.0657
-11.5112
-10.2809
-11.2533
-10.0703
-11.0984
-9.78291
-10.9624
-9.54771
-10.798
-9.37952
-10.6067
-9.2878
-10.3542
-9.3259
-9.95715
-9.55954
-9.36043
-9.95495
-8.85036
-9.98644
-8.84058
-9.9609
-8.65267
-9.87027
-8.42228
-9.66693
-8.16867
-9.35349
-7.89556
-8.87353
-7.63432
-8.10931
-7.55456
-7.00634
-7.16783
-5.75216
-6.44786
-4.74127
-5.22126
-3.32316
-3.539
-1.43778
-1.25639
1.08006
1.65909
4.34798
5.3982
8.5133
10.2685
13.733
16.4783
20.3558
24.3749
28.6897
34.1255
39.3475
46.0784
52.9537
60.696
69.9827
78.613
91.0659
100.43
116.876
126.522
149.036
156.778
191.135
188.07
237.358
225.998
271.096
3.97618
16.0348
13.1105
17.3389
16.4112
17.435
15.6764
15.658
13.0551
11.984
8.85773
6.61321
3.15058
-0.453259
-4.03283
-8.86077
-12.5321
-17.9066
-21.647
-26.1063
-29.1061
-31.7156
-32.5633
-32.8025
-30.8856
-28.6026
-24.463
-20.1465
-15.0387
-9.78046
-5.05574
0.324625
3.80921
8.82867
10.9074
15.2289
16.2685
19.4871
20.2866
22.2924
22.8756
24.0321
24.4919
24.9903
25.3307
25.4376
25.7996
25.5207
26.0819
25.3944
26.2525
25.2063
26.1568
25.1302
25.6398
25.057
25.1576
24.748
24.7988
24.4238
24.3828
24.1402
23.8363
23.8003
23.2288
23.4326
22.5582
22.9947
21.7336
22.2825
20.8696
21.1313
19.8797
19.7668
18.5718
18.1417
16.9502
16.18
14.9478
13.769
12.5064
10.8381
9.52628
7.25718
5.9926
3.01851
1.72936
-1.76636
-3.40167
-6.91902
-8.98072
-12.2936
-14.6518
-17.518
-19.8832
-22.0504
-24.1178
-25.4277
-26.9395
-27.3038
-27.9538
-27.4001
-27.4474
-25.9449
-25.6859
-23.5357
-23.0194
-20.9098
-20.1466
-18.3936
-17.672
-16.36
-15.7216
-14.7221
-14.2985
-13.5535
-13.1751
-12.8229
-12.2511
-12.4148
-11.4174
-12.2072
-10.8555
-11.6615
-10.7521
-11.2543
-10.6518
-10.9012
-10.505
-10.5896
-10.3521
-10.3054
-10.2384
-10.0082
-10.2116
-9.65516
-10.2707
-9.26135
-10.3783
-9.03119
-10.113
-9.26163
-9.85829
-9.34117
-9.64282
-9.30042
-9.40827
-9.18757
-9.13037
-9.02209
-8.77123
-8.77269
-8.24561
-8.57745
-7.50117
-8.19183
-6.83005
-7.29803
-6.11085
-6.29483
-5.07905
-4.9578
-3.67306
-3.26287
-1.75665
-1.09399
0.747619
1.7469
3.94509
5.50803
8.01047
10.3759
13.1729
16.5663
19.7994
24.248
28.3863
33.508
39.2083
44.7865
52.6361
58.5788
69.0574
75.3111
89.1071
95.0724
113.914
117.135
147.563
141.111
182.293
179.784
220.378
8.07184
17.8504
14.6827
18.1976
17.2506
18.0441
16.7665
16.6039
14.4962
13.4023
10.6765
8.48999
5.26286
1.78704
-1.92026
-6.54555
-10.8022
-16.015
-20.6749
-25.7185
-29.5957
-33.3046
-34.9295
-36.0297
-34.5683
-32.4045
-27.9851
-23.1605
-17.4629
-11.7888
-6.40908
-0.779071
3.48217
8.41442
11.3626
15.2782
17.0947
19.8822
21.0391
22.9017
23.5864
24.769
25.1998
25.7833
26.1008
26.2384
26.5317
26.2827
26.7022
26.0991
26.6426
25.8582
26.4265
25.7068
25.9157
25.4398
25.4263
24.9976
24.9584
24.5941
24.4696
24.2317
23.9263
23.851
23.3068
23.4247
22.5751
22.8971
21.8111
22.1742
21.0851
21.21
20.1491
19.9914
18.9474
18.505
17.445
16.6815
15.5688
14.4334
13.2303
11.6581
10.3801
8.25304
6.90286
4.23918
2.67151
-0.319596
-2.29943
-5.49367
-7.80404
-10.9932
-13.5369
-16.4664
-19.042
-21.4585
-23.7448
-25.4051
-27.0998
-27.7549
-28.6854
-28.3053
-28.4653
-27.1307
-26.6823
-24.5619
-23.7944
-21.4176
-20.5706
-18.43
-17.7143
-16.0412
-15.5846
-14.3714
-13.9832
-13.2203
-12.7678
-12.4184
-11.7721
-11.8377
-10.9403
-11.3621
-10.4477
-10.8528
-10.4252
-10.5167
-10.3249
-10.3141
-10.198
-10.135
-10.08
-9.95236
-9.99684
-9.75062
-9.9768
-9.50672
-10.0136
-9.23868
-9.99227
-9.13598
-9.71479
-9.30256
-9.49373
-9.28753
-9.34273
-9.1844
-9.1698
-9.01343
-8.94024
-8.79516
-8.64528
-8.57708
-8.11878
-8.27869
-7.45903
-7.81068
-6.71798
-7.15243
-5.92895
-6.10139
-4.8561
-4.70778
-3.33772
-2.93539
-1.2982
-0.648945
1.35567
2.33066
4.69872
6.25166
8.95408
11.2804
14.4021
17.643
21.3716
25.5675
30.3152
35.3286
41.6738
47.3306
55.783
61.9763
73.078
79.5714
94.034
100.134
119.772
121.987
149.928
146.579
177.791
173.947
202.75
7.80964
17.0402
13.715
17.9328
16.8624
18.1664
17.156
17.4781
15.6935
14.9476
12.5619
10.6152
7.62493
4.33142
0.60132
-4.00718
-8.61529
-14.2325
-19.4866
-25.3506
-30.3404
-35.1614
-38.3265
-40.3876
-40.0731
-38.3211
-34.5077
-29.4063
-23.268
-16.6066
-10.5246
-4.00151
0.794964
6.40069
9.71342
14.2398
16.1144
19.2094
20.4752
22.4218
23.1794
24.2996
24.8965
25.2902
25.7753
25.7326
26.2287
25.8095
26.3957
25.7153
26.4048
25.5251
26.2199
25.4938
25.7608
25.3539
25.406
25.1145
24.9843
24.8629
24.5238
24.6067
24.0372
24.2725
23.5625
23.897
23.0038
23.4564
22.3621
22.755
21.7243
21.8281
20.9314
20.7233
19.8555
19.3792
18.4969
17.72
16.7859
15.6484
14.6347
13.0506
11.9337
9.83815
8.55478
5.94445
4.37351
1.32667
-0.643688
-3.95114
-6.37156
-9.75363
-12.5213
-15.7504
-18.6165
-21.4221
-24.0493
-26.1227
-28.1538
-29.1878
-30.2946
-30.1045
-30.2642
-28.8769
-28.318
-26.1364
-25.0498
-22.6787
-21.4274
-19.34
-18.2296
-16.6916
-15.8355
-14.8547
-14.1979
-13.6637
-13.0753
-12.919
-12.2599
-12.4222
-11.6518
-11.9972
-11.2731
-11.4506
-11.0918
-11.0482
-10.9423
-10.7132
-10.7826
-10.3948
-10.6336
-10.1101
-10.5036
-9.85645
-10.4084
-9.62073
-10.3664
-9.38147
-10.2705
-9.38273
-9.90604
-9.62276
-9.65026
-9.69644
-9.49926
-9.66708
-9.33781
-9.6057
-9.14572
-9.44639
-8.9392
-9.28276
-8.58328
-9.07495
-8.1417
-8.7159
-7.68655
-8.01663
-7.23737
-7.24068
-6.47566
-6.29982
-5.37902
-5.08577
-3.93051
-3.45068
-2.04141
-1.25118
0.412689
1.66078
3.60706
5.44072
7.75858
10.2738
13.1621
16.3281
20.1759
23.8508
29.0777
33.1409
40.2522
44.5908
54.0589
58.5592
71.0416
74.8625
92.546
93.2502
117.842
115.926
144.378
144.285
171.306
11.2877
19.0652
15.6016
19.308
18.0641
19.2731
18.4257
18.6
17.2496
16.5045
14.5546
12.7545
10.1152
7.07521
3.5071
-0.871168
-5.65639
-11.3111
-17.2858
-23.7911
-30.1145
-36.2335
-40.8902
-44.3853
-45.2602
-44.2604
-40.4638
-34.9518
-27.837
-20.5328
-13.3481
-6.15946
-0.254275
5.5705
9.83052
14.2702
16.9991
19.6833
21.4523
23.2147
24.1659
25.1698
25.8939
26.3548
26.7467
26.7922
27.1982
26.8004
27.2207
26.5866
27.0155
26.3249
26.586
26.0816
26.1113
25.788
25.6481
25.4042
25.1461
25.0404
24.6249
24.6851
24.1106
24.3009
23.5755
23.8876
23.015
23.4053
22.4729
22.7411
21.9393
21.9271
21.2158
20.9711
20.2571
19.7789
19.0419
18.2887
17.4974
16.4186
15.5299
14.0589
13.0206
11.1033
9.8287
7.46499
5.81315
3.0755
0.925828
-2.11958
-4.75572
-8.00231
-11.0246
-14.278
-17.4636
-20.449
-23.4555
-25.8205
-28.2587
-29.6414
-31.1896
-31.3229
-31.8522
-30.7386
-30.1811
-27.8735
-26.5937
-23.7571
-22.2602
-19.6836
-18.4367
-16.5535
-15.7125
-14.5372
-13.8759
-13.2589
-12.5915
-12.3811
-11.5624
-11.713
-10.7718
-11.1662
-10.3852
-10.6424
-10.4194
-10.3185
-10.4037
-10.1535
-10.3671
-10.0002
-10.2826
-9.8266
-10.1917
-9.67683
-10.1358
-9.47995
-10.1084
-9.29239
-9.97921
-9.33099
-9.6504
-9.52167
-9.41245
-9.54014
-9.29027
-9.50463
-9.13966
-9.40233
-8.98066
-9.24971
-8.76414
-9.0543
-8.44994
-8.81786
-8.02179
-8.44648
-7.5691
-7.83773
-7.01715
-7.06653
-6.18085
-6.06957
-5.05863
-4.75137
-3.56034
-3.03382
-1.58382
-0.782159
0.951182
2.1863
4.22966
6.01009
8.47851
10.8755
13.9834
16.999
21.0738
24.5939
30.1201
33.9955
41.3781
45.5115
55.1563
59.3344
71.9361
75.1531
92.0746
92.405
114.087
111.727
134.509
133.357
154.785
11.6977
19.2992
15.7916
19.5929
18.2927
19.7584
19.0225
19.4696
18.329
17.9131
16.2158
14.7539
12.3484
9.64229
6.204
2.04534
-2.80756
-8.59794
-14.9804
-22.2118
-29.5327
-37.1488
-43.852
-49.3417
-52.2867
-52.3001
-49.0919
-43.6343
-35.8846
-27.1562
-18.8605
-10.4658
-3.58467
3.21316
7.95928
13.4599
16.2912
19.2467
21.0404
23.0222
23.8697
24.8627
25.527
25.9382
26.3112
26.2397
26.7276
26.2763
26.7446
26.1482
26.6328
25.933
26.4316
25.8298
25.9818
25.6661
25.624
25.4456
25.212
25.2105
24.7735
24.9539
24.3384
24.6461
23.8955
24.2966
23.416
23.858
22.9368
23.222
22.4827
22.4692
21.8477
21.6007
21.0011
20.5258
19.9164
19.178
18.5199
17.4729
16.7139
15.2925
14.3658
12.5273
11.3291
9.05888
7.45386
4.75131
2.64859
-0.456548
-3.10397
-6.52877
-9.66447
-13.2474
-16.6736
-20.1412
-23.5222
-26.4734
-29.3366
-31.2623
-33.1105
-33.5647
-34.0644
-32.8958
-32.1859
-29.8297
-28.1463
-25.2329
-23.2085
-20.4993
-18.7371
-16.8104
-15.5865
-14.6202
-13.7525
-13.4434
-12.7665
-12.8232
-12.1388
-12.3583
-11.6779
-11.902
-11.3281
-11.3628
-11.1266
-10.9728
-10.96
-10.6587
-10.8124
-10.3734
-10.6567
-10.0823
-10.5177
-9.82936
-10.4132
-9.61765
-10.3451
-9.46131
-10.1707
-9.54177
-9.83395
-9.75502
-9.61121
-9.82262
-9.5035
-9.82133
-9.37445
-9.80143
-9.24741
-9.7025
-9.12005
-9.57667
-8.90659
-9.42117
-8.64925
-9.12029
-8.41982
-8.62594
-8.06835
-8.12057
-7.5152
-7.46055
-6.76567
-6.57751
-5.73919
-5.39147
-4.35584
-3.78955
-2.52846
-1.64863
-0.109058
1.17008
3.09432
4.81141
7.31767
9.44727
12.8445
15.3088
19.9547
22.6749
28.9842
31.8715
40.2892
43.1685
54.4027
56.5631
72.0892
71.8894
91.3754
91.7922
112.202
112.695
132.738
13.9388
21.2945
17.7526
21.2005
19.7459
21.2008
20.4707
20.8077
19.9654
19.5664
18.2692
17.0011
15.0279
12.6555
9.61878
5.81171
1.17547
-4.45224
-11.1631
-18.9155
-27.6809
-36.9348
-46.0165
-53.9617
-59.3935
-61.6877
-59.6717
-53.9625
-44.807
-34.6046
-24.0863
-14.436
-5.89453
1.67708
7.31981
13.5442
16.682
20.0345
21.9644
24.1121
25.1878
25.898
26.9338
27.1507
27.628
27.6137
27.8846
27.5147
27.7875
27.1883
27.4441
26.7493
26.927
26.3836
26.3694
26.0993
25.8495
25.74
25.329
25.3771
24.8269
25.0221
24.3561
24.6605
23.8905
24.2949
23.434
23.8427
23.0543
23.2397
22.7019
22.5891
22.1488
21.8568
21.4244
20.9457
20.5008
19.7914
19.2997
18.3221
17.7291
16.4295
15.6413
13.9786
12.8738
10.8081
9.24137
6.75673
4.61054
1.69046
-1.08352
-4.40958
-7.77807
-11.3867
-15.163
-18.8071
-22.6611
-25.9481
-29.4086
-31.8156
-34.3416
-35.327
-36.4995
-35.7989
-35.4575
-32.9659
-31.1888
-27.5643
-25.1373
-21.6525
-19.5177
-17.1276
-15.657
-14.5151
-13.4512
-13.0735
-12.1489
-12.1707
-11.1877
-11.4382
-10.4592
-10.8806
-10.1904
-10.4319
-10.3042
-10.1843
-10.3862
-10.0978
-10.4588
-9.97184
-10.4362
-9.79778
-10.3117
-9.66956
-10.2399
-9.50062
-10.1635
-9.37111
-9.98777
-9.43597
-9.67223
-9.63754
-9.4516
-9.68218
-9.3437
-9.69706
-9.23581
-9.67121
-9.11265
-9.58705
-8.95489
-9.45792
-8.78881
-9.29728
-8.56136
-9.00636
-8.33475
-8.51189
-7.98434
-7.99402
-7.43194
-7.32264
-6.692
-6.44649
-5.68635
-5.29161
-4.3353
-3.75103
-2.56221
-1.70224
-0.232787
0.979154
2.84929
4.4345
6.91391
8.8388
12.2218
14.3764
19.0386
21.368
27.6361
30.0567
38.3179
40.5906
51.5644
52.6562
67.1629
67.0068
83.3391
83.2929
100.473
100.617
117.62
14.8551
21.3817
18.0344
21.7103
20.0633
21.829
21.058
21.5529
20.8675
20.7051
19.6
18.6464
16.9192
14.9417
12.193
8.81837
4.41443
-0.970657
-7.62736
-15.5541
-24.7962
-35.5258
-46.9315
-58.0423
-67.2189
-72.6245
-72.8012
-67.4436
-57.2006
-45.3172
-32.8648
-21.0718
-10.7963
-1.51342
5.0415
12.3869
16.1673
20.039
21.8553
24.1653
24.874
25.692
26.4222
26.6186
27.0387
26.9807
27.205
26.8672
27.2289
26.6229
27.0822
26.336
26.8047
26.1362
26.2594
25.9976
25.8371
25.8044
25.4113
25.5601
24.9937
25.2815
24.5869
24.9745
24.1776
24.6352
23.789
24.1918
23.4532
23.6137
23.1461
23.0243
22.6378
22.3548
21.9981
21.5303
21.1815
20.4943
20.1014
19.1722
18.6723
17.4598
16.7595
15.2219
14.2091
12.299
10.8213
8.48414
6.4338
3.59608
0.880272
-2.47215
-5.8629
-9.67782
-13.6298
-17.6994
-21.9242
-25.8454
-29.8389
-32.9688
-36.0493
-37.6142
-39.0413
-38.4543
-37.8626
-35.3735
-33.0919
-29.3522
-26.1287
-22.3335
-19.3317
-16.6731
-14.7311
-13.8729
-12.7256
-12.7832
-12.1735
-12.5762
-11.9467
-12.2979
-11.5623
-11.7834
-11.1859
-11.2408
-10.9967
-10.8435
-10.8455
-10.5531
-10.774
-10.3292
-10.6535
-10.0468
-10.5
-9.78723
-10.3708
-9.6165
-10.2847
-9.4908
-10.1156
-9.56712
-9.80042
-9.78253
-9.59456
-9.86469
-9.50582
-9.90508
-9.40565
-9.93113
-9.31021
-9.90874
-9.22872
-9.80376
-9.1351
-9.70868
-9.01406
-9.50525
-8.94899
-9.13227
-8.71647
-8.80053
-8.34762
-8.37498
-7.84494
-7.80718
-7.16548
-7.02754
-6.23062
-5.95306
-4.96552
-4.46648
-3.25583
-2.48471
-0.927678
0.099356
2.19485
3.46167
6.31232
7.75578
11.7201
13.2354
18.674
20.1816
27.4932
28.845
38.7534
39.2928
51.7321
52.851
67.046
68.5558
83.7096
84.8244
100.697
16.998
23.8753
19.6771
23.6131
21.4359
23.3492
22.3756
22.9175
22.3573
22.2051
21.4449
20.6896
19.4233
17.8271
15.6498
12.7967
9.04815
4.19084
-2.23223
-10.2498
-20.404
-32.1236
-46.0921
-60.7928
-74.9132
-85.1008
-89.4649
-86.5673
-74.1657
-58.6545
-42.3207
-28.3845
-15.5906
-4.71525
3.00364
11.4203
16.2352
21.3357
22.7226
26.0256
26.1603
27.1029
28.0287
28.256
28.7969
28.5508
28.8951
28.2063
28.5385
27.7154
27.9779
27.1243
27.3784
26.6508
26.6551
26.335
26.0088
26.0327
25.4812
25.6748
25.0054
25.3192
24.5741
24.9809
24.1525
24.6303
23.7963
24.2115
23.5236
23.6806
23.3107
23.158
22.919
22.6033
22.4091
21.9341
21.7509
21.0961
20.8727
20.0163
19.6903
18.6002
18.0683
16.6952
15.8286
14.1062
12.7461
10.5812
8.59605
5.90247
3.15996
-0.147915
-3.71024
-7.61201
-11.8975
-16.206
-20.9493
-25.3043
-30.0144
-33.7618
-37.7322
-40.0487
-42.4901
-42.6337
-43.0282
-40.666
-38.5892
-33.9893
-30.1915
-25.0728
-21.3037
-17.6081
-15.0818
-13.8461
-12.3463
-12.1724
-11.1267
-11.526
-10.5152
-10.8924
-9.99634
-10.4365
-9.85424
-10.2036
-10.0782
-10.0006
-10.2563
-10.0424
-10.5645
-9.97078
-10.5992
-9.79031
-10.4321
-9.65665
-10.2897
-9.52588
-10.19
-9.38205
-10.0201
-9.45284
-9.70231
-9.68824
-9.4831
-9.78954
-9.38571
-9.83608
-9.31234
-9.87576
-9.22047
-9.87841
-9.10755
-9.79807
-9.04499
-9.70034
-8.96245
-9.52686
-8.92511
-9.10949
-8.79009
-8.77827
-8.4606
-8.36699
-8.04536
-7.85586
-7.45185
-7.1849
-6.61738
-6.26726
-5.51197
-5.00996
-4.02608
-3.31854
-1.97002
-1.07784
0.810747
1.8412
4.56801
5.53858
9.37987
10.3864
15.5399
16.5575
23.2656
24.1426
32.872
33.8288
44.2159
45.4004
57.1551
58.5981
71.6767
72.7638
86.8852
16.9747
24.8021
20.0847
24.2977
21.9859
24.0263
23.008
23.7348
23.2047
23.2021
22.5641
22.0303
20.9711
19.7058
17.8627
15.4913
12.2209
8.04498
2.32656
-4.98433
-14.7608
-27.1834
-42.971
-61.2379
-80.2049
-96.171
-107.204
-109.128
-97.2474
-79.4287
-57.8042
-39.2012
-23.6261
-9.31394
-0.386347
9.52292
15.6106
21.2343
23.6469
25.8846
25.9817
26.7445
27.4563
27.4366
27.7326
27.7453
28.069
27.5246
27.9065
27.1768
27.6491
26.7846
27.2136
26.5195
26.5673
26.3884
26.0433
26.1733
25.5843
25.8987
25.191
25.5992
24.7909
25.3074
24.3966
24.9709
24.0648
24.5456
23.8206
24.0218
23.6515
23.4924
23.3122
22.9866
22.8706
22.392
22.306
21.6633
21.5336
20.7277
20.4888
19.4984
19.0635
17.8401
17.0918
15.565
14.3454
12.4229
10.5828
8.11228
5.50522
2.36147
-1.10605
-4.98953
-9.32986
-13.8705
-18.8804
-23.7522
-29.038
-33.599
-38.3973
-41.6233
-44.8063
-45.5424
-45.9455
-43.6899
-41.1186
-36.5297
-31.6312
-26.2107
-20.7653
-16.7507
-13.0148
-12.2361
-10.7824
-11.3565
-11.2212
-12.1674
-11.9187
-12.3579
-11.4325
-11.5364
-10.9241
-11.0469
-10.8379
-10.5494
-10.5762
-10.2882
-10.6965
-10.3213
-10.7282
-10.0463
-10.4734
-9.75733
-10.3174
-9.63212
-10.2785
-9.47116
-10.106
-9.53055
-9.77358
-9.76875
-9.55553
-9.89681
-9.47758
-9.95782
-9.42312
-10.0254
-9.34753
-10.0777
-9.28812
-10.0044
-9.27417
-9.94843
-9.24542
-9.86538
-9.32646
-9.53258
-9.26633
-9.31805
-9.03832
-9.06278
-8.78601
-8.71492
-8.44241
-8.2839
-7.88813
-7.69196
-7.07909
-6.84259
-6.01286
-5.68002
-4.51014
-4.12403
-2.41007
-2.07672
0.390079
0.748925
3.97963
4.38271
8.77175
9.16578
15.0627
15.4268
23.0281
23.6764
32.8668
34.0216
44.6024
46.1095
58.0891
59.2533
72.7691
18.8066
26.796
21.6199
25.8811
23.2183
25.3402
24.0949
24.8522
24.3441
24.3365
23.9363
23.5356
22.8437
21.8718
20.5303
18.6521
16.0479
12.5969
7.6958
1.3225
-7.74695
-19.6147
-36.4629
-56.8235
-80.5182
-103.476
-123.843
-135.754
-123.729
-101.441
-74.8598
-51.9061
-32.8703
-16.114
-5.20525
6.28792
13.0448
22.2103
24.4333
28.0016
28.074
28.3581
29.4647
29.5253
30.0706
29.6849
29.9519
29.0767
29.3439
28.2712
28.5072
27.5456
27.7298
26.9608
26.8472
26.6238
26.128
26.3066
25.606
25.917
25.1486
25.6123
24.7041
25.3292
24.2984
25.0031
23.9829
24.579
23.8089
24.0943
23.7221
23.5817
23.5138
23.1595
23.1854
22.6975
22.7449
22.1463
22.1461
21.4243
21.324
20.4565
20.1755
19.1198
18.5293
17.2132
16.1516
14.458
12.7763
10.5277
8.03684
5.02215
1.5527
-2.3755
-6.95006
-11.7809
-17.3557
-22.8275
-28.9699
-34.3246
-40.2688
-44.4861
-49.062
-50.9452
-52.9383
-51.4342
-49.6765
-44.2885
-39.0197
-31.4388
-24.8492
-18.6139
-13.5449
-12.0778
-10.0447
-9.83985
-8.87469
-10.1376
-9.2514
-10.5058
-9.56472
-9.95587
-9.24139
-10.0673
-9.85015
-9.79169
-10.03
-9.76449
-10.6497
-9.98156
-10.8597
-9.88451
-10.5466
-9.63969
-10.3134
-9.46649
-10.2199
-9.33412
-10.0543
-9.40443
-9.72062
-9.67501
-9.48819
-9.8202
-9.41277
-9.90731
-9.3505
-10.0096
-9.29554
-10.087
-9.23605
-10.0673
-9.21331
-9.98767
-9.19964
-9.97126
-9.34054
-9.62314
-9.37933
-9.38071
-9.21817
-9.11535
-9.05756
-8.88151
-8.80352
-8.58055
-8.37502
-8.13013
-7.78872
-7.51583
-6.99268
-6.66593
-5.7741
-5.41475
-4.03063
-3.73199
-1.65918
-1.50412
1.45407
1.49079
5.43285
5.49755
10.5893
10.506
17.2525
17.1867
25.4255
25.633
35.0601
35.6278
46.5473
47.0352
59.7894
18.627
27.732
21.9093
26.5438
23.7533
25.9925
24.6488
25.5786
25.0007
25.0838
24.7104
24.403
23.8492
23.0826
22.0164
20.5483
18.4551
15.7454
11.7068
6.45998
-1.42079
-12.0213
-27.8091
-48.3659
-73.8038
-101.268
-130.486
-153.434
-157.493
-129.387
-98.5703
-65.9652
-44.115
-21.2393
-9.90584
3.62515
10.8641
19.4039
25.4138
25.4012
28.6516
27.404
27.8612
27.6885
28.4816
28.4562
29.1017
28.3134
28.7103
27.8156
28.2678
27.3601
27.5998
27.0222
26.8572
26.7857
26.1975
26.5166
25.7141
26.203
25.3129
25.9197
24.916
25.6435
24.5209
25.3125
24.2084
24.8725
24.0251
24.3703
23.9873
23.8005
23.8138
23.4238
23.529
23.0253
23.1707
22.5643
22.6531
21.9731
21.9443
21.1709
20.976
20.0679
19.5972
18.4775
17.5711
16.1296
14.644
12.6785
10.4172
7.6779
4.41539
0.709925
-3.73776
-8.55512
-14.1412
-19.8509
-26.3864
-32.4497
-39.2452
-44.5839
-50.3387
-53.313
-56.2503
-55.6497
-53.9633
-49.2611
-42.4951
-35.0238
-25.1091
-18.0683
-9.95267
-8.46908
-7.49896
-8.5849
-9.37715
-11.6158
-12.2704
-12.9264
-11.3986
-11.0905
-10.1855
-10.8433
-10.954
-10.1703
-9.95387
-9.59615
-10.4472
-10.5736
-10.9936
-10.1653
-10.4822
-9.66475
-10.3301
-9.62611
-10.3593
-9.44121
-10.1443
-9.44224
-9.74378
-9.74203
-9.50874
-9.90298
-9.42317
-10.0141
-9.37833
-10.1118
-9.34594
-10.218
-9.3071
-10.2233
-9.31729
-10.162
-9.37402
-10.1333
-9.58906
-9.94563
-9.67411
-9.73614
-9.60256
-9.53967
-9.53539
-9.3482
-9.50162
-9.24495
-9.25193
-9.04069
-8.84212
-8.65788
-8.39144
-8.15978
-7.64084
-7.43092
-6.42527
-6.40864
-4.66917
-4.8828
-2.53928
-2.9383
0.224756
0.00337885
4.00579
3.64991
9.19267
8.95796
15.9506
16.3477
24.2783
24.9583
34.5752
35.0787
47.1204
20.3868
29.4101
23.1269
27.7333
24.6079
26.9096
25.4203
26.2057
25.7192
25.7235
25.5368
25.2428
24.9303
24.3153
23.5569
22.4224
20.7799
18.6948
15.4434
11.3009
4.83731
-3.95893
-17.4166
-36.0653
-60.529
-88.8112
-121.775
-151.62
-164.872
-146.253
-117.554
-82.5869
-57.3211
-32.1539
-16.6113
-3.93367
7.3479
16.4661
25.4221
27.2398
29.6437
29.8647
30.3854
30.5056
30.9067
30.4578
30.7895
29.9805
30.0385
28.7433
28.7882
28.0791
27.9718
27.3696
26.9987
26.9846
26.247
26.5665
25.7023
26.1547
25.2363
25.9085
24.8183
25.667
24.4225
25.3458
24.1421
24.9095
24.0139
24.4298
24.035
23.9076
23.9993
23.5328
23.7779
23.2242
23.5419
22.88
23.165
22.4688
22.6188
21.9068
21.8679
21.0988
20.7761
19.8698
19.1267
17.9449
16.6627
14.9886
12.9584
10.4856
7.41472
3.85942
-0.543777
-5.42057
-11.3624
-17.3954
-24.7552
-31.5416
-39.7096
-46.0508
-53.5424
-57.9439
-63.0624
-64.0592
-64.0431
-59.6836
-53.6928
-44.2643
-34.0084
-23.4269
-11.9379
-8.41995
-5.8547
-4.91166
-3.9866
-6.63475
-7.23323
-12.0149
-9.90783
-10.008
-8.14568
-9.26476
-10.1595
-10.1754
-10.0581
-8.96928
-10.0381
-9.79685
-11.5562
-10.2931
-10.8504
-9.52841
-10.1912
-9.32975
-10.2092
-9.33568
-10.1149
-9.36358
-9.68393
-9.60663
-9.48763
-9.79313
-9.39527
-9.93024
-9.3467
-10.0634
-9.33119
-10.2054
-9.33575
-10.2382
-9.33761
-10.1886
-9.36447
-10.1838
-9.5372
-10.092
-9.7708
-9.82194
-9.78831
-9.57494
-9.72943
-9.4961
-9.7409
-9.47554
-9.63291
-9.36576
-9.42207
-9.18049
-9.22268
-8.99389
-8.73126
-8.50953
-7.84753
-7.73453
-6.53854
-6.79998
-4.65917
-5.47901
-2.7456
-3.23279
0.147539
-0.880728
4.09464
2.8281
9.09143
8.36469
15.404
14.7218
23.4009
22.5208
34.4299
19.9883
30.523
23.4462
28.4264
25.1166
27.5565
25.8383
26.9268
26.223
26.2713
26.0727
25.7539
25.5145
24.9808
24.3559
23.4682
22.1195
20.5178
17.8686
14.6428
9.40829
2.5097
-8.28837
-22.9697
-43.5262
-67.3804
-95.6763
-124.48
-145.814
-144.326
-119.044
-91.1661
-63.3757
-37.5138
-19.6823
-7.76732
3.27286
12.7164
21.7556
26.5894
25.3968
27.4353
27.413
27.7778
28.8214
28.7735
29.9085
29.1257
29.6309
28.4955
28.6073
27.9502
28.0326
27.4646
27.1309
27.1398
26.3124
26.8326
25.7967
26.4825
25.3726
26.2231
24.9639
25.9484
24.6164
25.6
24.3251
25.1276
24.1649
24.6156
24.1926
24.0734
24.1159
23.7066
23.9996
23.4282
23.8241
23.1498
23.5328
22.7944
23.0667
22.3702
22.442
21.7756
21.562
20.8418
20.2327
19.3017
18.2215
16.8566
15.1013
12.9698
10.1987
7.01077
2.88855
-1.76205
-7.49672
-13.5805
-20.9483
-28.0262
-36.6438
-43.8077
-52.1884
-57.166
-63.3623
-66.2872
-67.7483
-65.3538
-59.2464
-51.2303
-36.3759
-25.936
-6.80544
-2.52587
-3.54828
-5.90732
-6.61079
-9.57707
-11.8011
-14.2206
-12.6523
-10.8146
-8.94533
-9.77294
-11.5316
-10.093
-9.39661
-8.26304
-9.72324
-10.7124
-11.5912
-10.7152
-10.6208
-9.59065
-10.3057
-9.62403
-10.4469
-9.4402
-10.157
-9.39081
-9.68871
-9.65355
-9.48569
-9.88554
-9.348
-10.0374
-9.29231
-10.151
-9.30961
-10.2457
-9.34583
-10.2852
-9.36859
-10.2518
-9.41776
-10.2382
-9.67267
-10.1613
-9.97295
-9.99375
-10.0398
-9.80365
-9.91202
-9.67499
-10.0597
-9.85067
-10.0712
-9.81076
-9.91226
-9.69183
-9.86439
-9.71165
-9.73492
-9.61342
-9.18708
-9.3222
-8.21372
-8.58494