/*--------------------------------*- C++ -*----------------------------------*\
| =========                 |                                                 |
| \\      /  F ield         | OpenFOAM: The Open Source CFD Toolbox           |
|  \\    /   O peration     | Version:  4.1                                   |
|   \\  /    A nd           | Web:      www.OpenFOAM.org                      |
|    \\/     M anipulation  |                                                 |
\*---------------------------------------------------------------------------*/
FoamFile
{
    version     2.0;
    format      ascii;
    class       volScalarField;
    location    "26.5";
    object      p;
}
// * * * * * * * * * * * * * * * * * * * * * * * * * * * * * * * * * * * * * //

dimensions      [0 2 -2 0 0 0 0];

internalField   nonuniform List<scalar> 
204246
(
157.674
10.329
60.2919
36.7668
29.0525
40.7785
19.6503
39.9804
16.0957
38.9094
14.5071
38.4485
13.0052
37.0698
15.459
31.8592
24.9484
16.6493
33.9543
12.207
36.2334
11.7704
35.1781
12.1743
35.2228
11.6389
36.2858
9.6485
37.0763
9.57295
36.3546
10.8809
33.9242
15.0845
27.4287
24.4718
14.1349
32.1726
11.1946
32.7608
10.8267
33.3465
10.0994
34.6046
8.20773
35.4186
8.56109
34.4208
11.0243
30.7492
15.322
25.9373
24.1565
13.2524
31.7791
10.6301
32.4252
10.4307
33.0683
9.76077
34.3366
7.8258
35.1061
8.04491
34.0271
10.2783
30.2899
14.2094
25.5776
22.3617
13.6251
28.3179
10.7069
30.3158
9.36413
31.2681
8.2621
32.5923
6.14159
33.3768
6.31129
32.3256
8.59293
28.634
12.6525
23.9794
21.0206
12.0297
27.2661
9.05602
29.7433
7.32797
31.8168
4.73599
33.2448
4.1179
33.2545
4.43551
32.2406
6.1121
29.2701
8.25208
27.0625
10.7868
23.3924
17.1023
11.0581
24.5947
6.25569
27.6145
2.37056
28.3158
1.45778
26.817
0.424341
25.0359
-0.772195
22.4555
-1.5653
18.282
-0.750789
11.3342
4.26628
-5.04165
8.60174
-12.6287
6.8859
-17.7936
2.87149
-22.5355
-1.72288
-27.2993
-6.34826
-31.4863
-10.8352
-33.8886
-15.6885
-33.4571
-22.0319
-26.7091
-36.4619
-18.4916
-40.1287
-15.0717
-40.0978
-12.4796
-38.6664
-10.2202
-36.3681
-8.28984
-33.5351
-6.90003
-29.9491
-6.61159
-24.3936
-9.11629
-13.0894
-20.3292
-2.00394
-22.0786
3.45105
-20.639
7.47227
-17.6484
11.3933
-13.4042
15.6946
-7.36907
20.0641
0.805852
25.3678
10.985
31.523
24.5985
38.1036
42.917
44.431
59.4896
63.9019
75.6238
86.8563
98.0819
117.561
128.347
156.207
164.129
202.681
211.669
274.309
277.081
396.175
385.073
610.225
75.926
34.6044
36.3784
41.8747
26.893
38.6466
23.0778
35.36
21.1004
33.3529
20.2279
31.7368
20.6429
28.6531
23.5546
23.7023
28.9472
18.8552
29.5144
18.1854
29.4075
18.3776
29.1183
17.9804
29.4089
17.4098
29.8679
17.0568
29.2828
17.7001
27.9419
19.3473
25.2361
22.7226
20.8624
27.3387
16.9804
27.5257
16.8051
27.3797
16.3092
27.7258
15.7585
28.1756
15.5756
27.5032
16.6005
25.9832
18.791
23.438
21.758
19.7437
26.5367
16.1988
26.914
16.259
26.9424
15.9245
27.4171
15.4532
27.9323
15.2582
27.2611
16.171
25.6994
18.1367
23.1173
20.7326
19.4725
24.9768
16.0581
25.1096
15.2001
25.4912
14.5788
25.8482
13.9017
26.2528
13.5744
25.5109
14.4376
23.9257
16.4376
21.3607
19.1484
17.7553
23.5916
14.3606
24.0087
13.4374
24.8303
12.5915
25.7401
11.9414
25.6562
12.0878
25.1287
12.705
23.9864
13.9492
22.3615
15.0456
20.4212
17.2353
16.9639
21.3766
12.4319
22.1167
10.8245
22.5675
9.65311
21.6308
9.17598
20.3417
8.32456
18.6601
7.40646
16.0603
6.95686
11.8996
7.3732
5.78066
9.68818
-0.813897
6.23403
-5.06849
2.55071
-9.48559
-1.65273
-14.1298
-6.36175
-18.6445
-11.5738
-22.5775
-17.1056
-25.2319
-22.7472
-25.6294
-28.7989
-23.0301
-34.3742
-23.3299
-35.0361
-22.5486
-34.2774
-20.9203
-32.4886
-19.045
-29.9625
-17.3019
-26.9097
-16.1002
-23.1266
-16.0191
-17.8763
-17.7678
-10.6199
-19.6287
-7.3383
-17.9695
-4.37081
-15.599
-1.37915
-12.5638
1.90888
-8.59904
5.51131
-3.15365
9.63874
3.76493
14.9547
12.4453
20.3868
23.5274
27.9345
35.6078
40.674
46.4939
55.8849
62.4792
75.2703
80.5901
101.294
105.855
133.108
135.636
171.724
166.176
225.625
199.417
301.804
248.236
384.056
29.4582
51.7247
33.6324
43.5213
29.6196
38.5147
24.9519
35.7445
22.0723
33.7687
21.0754
31.8642
21.3393
29.1788
23.3296
25.3244
26.5999
21.2792
28.4312
19.2014
29.2899
18.4168
29.4448
17.9705
29.5663
17.5859
29.6642
17.3742
29.251
17.8368
28.1037
19.2327
25.8367
21.8231
22.3748
24.9885
18.9611
26.5816
17.3207
27.3307
16.4563
27.7238
15.9674
27.9082
15.8691
27.4826
16.6259
26.2825
18.3671
24.1423
20.9897
21.1315
24.2954
18.07
26.0386
16.7011
26.9354
16.0183
27.4426
15.6136
27.684
15.4993
27.2548
16.141
26.0059
17.6646
23.8088
19.9585
20.7679
22.8474
17.6342
24.3302
15.8221
25.2766
14.7969
25.7768
14.1158
25.978
13.836
25.5107
14.4144
24.2502
15.9671
22.0698
18.3769
19.0607
21.4731
15.9294
23.2417
14.0699
24.5535
12.9152
25.3995
12.1916
25.6111
12.0748
25.2771
12.4978
24.3426
13.4379
22.8601
14.6939
20.8536
16.6654
17.8508
19.3909
14.1728
21.0561
11.6824
21.935
10.0295
21.6413
9.08375
20.574
8.21712
18.9416
7.39465
16.3773
7.07911
12.4637
7.29031
7.07916
7.50115
1.0429
5.78328
-3.9989
2.88271
-8.52667
-1.36183
-13.0052
-6.31388
-17.4812
-11.5572
-21.5468
-16.8655
-24.4083
-22.2919
-25.3873
-27.7161
-25.1583
-32.0579
-24.2611
-34.0185
-22.6232
-33.9904
-20.6712
-32.4796
-18.7055
-30.0047
-16.9519
-26.964
-15.7537
-23.2667
-15.5106
-18.4662
-16.4443
-12.7784
-17.5879
-8.40297
-17.1752
-4.6255
-15.4723
-1.2893
-12.673
1.97169
-8.67429
5.45284
-3.27626
9.00085
3.81629
13.7891
12.387
20.5295
22.0502
29.7589
33.5282
40.6598
47.4866
55.8932
63.1812
76.4147
83.0744
102.7
109.546
137.458
141.325
181.931
178.702
244.223
222.642
320.661
295.169
388.985
13.9921
32.8658
24.0726
36.5972
24.8708
35.2476
23.671
32.7284
23.1068
30.3239
23.1621
28.1425
24.0537
25.4608
25.8693
22.6328
27.6885
21.0715
27.3128
20.8776
26.7948
20.9656
26.5216
20.7814
26.4764
20.631
26.3103
20.846
25.5311
21.5944
24.2202
22.9265
22.2908
24.7641
20.1897
26.1708
19.1373
25.6394
19.0792
25.1982
18.9089
24.9754
18.8373
24.6656
19.2072
23.7879
20.1864
22.4882
21.7054
20.8614
23.4827
19.11
25.1368
18.3339
24.8812
18.5177
24.6911
18.5337
24.666
18.5725
24.4806
18.9601
23.6494
19.8546
22.3306
21.1844
20.6393
22.6798
18.7823
24.0387
17.7662
23.6892
17.3863
23.4184
17.14
23.2052
16.9863
22.8441
17.242
21.8849
18.0766
20.4973
19.4286
18.792
21.0323
16.962
22.5838
15.9834
22.4955
15.6324
22.535
15.4279
22.5483
15.481
22.1336
15.8422
21.4761
16.4505
20.5365
17.278
19.3922
18.176
17.8759
19.5655
15.8916
21.0661
14.3117
20.8193
13.617
20.2578
13.2467
19.1422
12.9421
17.8452
12.3911
16.2012
11.7759
13.7491
11.4736
10.3391
11.0725
6.33246
10.2195
3.37256
6.05056
-0.0734913
1.71221
-3.8382
-3.03865
-8.12159
-8.22182
-12.6653
-13.7996
-17.1031
-19.5169
-20.9335
-24.8255
-23.5574
-29.1334
-25.2605
-32.6069
-26.8536
-33.2481
-26.914
-32.4505
-25.8267
-30.3944
-24.1798
-27.5028
-22.4564
-24.2225
-21.1335
-20.6178
-20.5726
-16.579
-20.2058
-12.9409
-18.8103
-10.831
-16.7574
-8.77326
-14.3208
-6.59729
-11.457
-3.9449
-8.03493
-0.998543
-3.58566
2.8104
1.81607
7.41875
8.69562
13.6939
16.6963
21.5926
26.274
32.1119
36.4422
45.2435
49.1428
62.0547
63.3981
82.7885
81.8715
108.188
103.453
140.842
124.239
184.618
147.975
223.468
199.184
271.399
12.6553
35.5138
23.5545
35.654
25.942
34.8494
25.4001
33.0375
24.4041
30.796
24.2129
28.6756
24.6765
26.3801
25.63
24.2154
26.4227
22.9587
26.4288
22.0776
26.5116
21.4733
26.5964
21.0534
26.5547
20.9104
26.2781
21.1359
25.6141
21.7081
24.5612
22.6752
23.0868
23.8602
21.5654
24.6467
20.6775
24.6878
19.9636
24.8291
19.3978
24.8081
19.2069
24.5153
19.5003
23.8429
20.2216
22.8696
21.3259
21.6589
22.6231
20.3804
23.6911
19.7447
23.9901
19.2857
24.3615
18.9254
24.5205
18.8554
24.3362
19.1721
23.6969
19.8168
22.6872
20.7541
21.3867
21.819
19.9516
22.6373
19.06
22.8098
18.2422
22.9836
17.6574
22.9723
17.3748
22.655
17.5339
21.918
18.0956
20.8553
19.0341
19.5453
20.1816
18.1399
21.1803
17.2794
21.5852
16.5002
22.0086
15.977
22.18
15.8337
21.9927
15.9605
21.5429
16.3419
20.8036
16.9377
19.8204
17.7192
18.4515
18.7687
16.8405
19.6551
15.6334
19.7218
14.592
19.5758
13.815
18.9546
13.1704
17.9527
12.5828
16.4361
12.0166
14.154
11.817
11.0971
11.1165
7.85965
9.09323
4.76078
6.52667
1.42184
2.66698
-2.33399
-1.95683
-6.50022
-7.21071
-11.0657
-12.7684
-15.6555
-18.2622
-19.8841
-23.1773
-23.7809
-27.2292
-26.5468
-30.2435
-27.7216
-31.7402
-27.1631
-31.7811
-25.716
-30.1388
-23.9934
-27.3195
-22.1263
-24.141
-20.6341
-20.7049
-19.7574
-17.4822
-18.405
-14.4034
-16.971
-11.9091
-15.5452
-9.20282
-13.7002
-6.4892
-11.3615
-3.78343
-8.12673
-0.569123
-3.98178
3.32015
1.30826
8.19476
7.69164
14.628
15.4801
22.8517
25.0108
33.4169
36.8801
46.9856
50.7439
65.4855
67.9026
87.8798
89.6619
117.729
114.641
156.52
142.361
201.463
180.209
240.521
229.064
274.583
8.5306
25.2787
17.5624
29.1497
21.5367
30.2225
23.1668
29.503
23.841
27.9368
24.4066
26.1987
25.216
24.3715
26.0902
22.9217
26.4544
22.4119
25.9131
22.353
25.4046
22.381
25.069
22.3732
24.7919
22.4901
24.3763
22.8716
23.6525
23.4993
22.6732
24.3142
21.5415
25.0478
20.6685
25.1767
20.4456
24.5203
20.4435
23.9542
20.4335
23.4134
20.5839
22.7847
21.0487
21.9495
21.7933
21.0198
22.7069
20.144
23.5506
19.5138
23.9702
19.5668
23.6359
19.8421
23.3835
20.0623
23.1141
20.371
22.6727
20.8956
21.9276
21.597
20.9883
22.374
20.0013
23.015
19.1756
23.212
18.8974
22.7215
18.7614
22.2342
18.7058
21.7133
18.7883
21.0492
19.1487
20.131
19.7614
19.0829
20.5373
18.058
21.2667
17.2505
21.6412
17.0496
21.3785
17.0323
21.1333
17.1371
20.8005
17.4257
20.2898
17.8366
19.6723
18.3459
18.9392
18.9182
18.1241
19.5211
17.1571
20.1736
16.2043
20.4771
15.7124
19.9343
15.4934
19.1571
15.3963
18.0986
15.2391
16.88
14.9087
15.4197
14.4348
13.4206
13.8449
10.9438
12.858
8.56272
10.7706
5.99334
7.61509
2.93484
3.59314
-0.569554
-1.13169
-4.72779
-6.48977
-9.45585
-12.3578
-14.5807
-18.3088
-19.687
-23.795
-24.2495
-28.3167
-28.1262
-31.552
-30.3062
-33.1401
-30.5593
-32.6869
-29.7059
-30.3421
-28.0425
-26.9927
-25.8726
-23.6553
-23.7838
-20.6264
-22.1687
-17.713
-20.6105
-15.4902
-18.5015
-13.5911
-16.5199
-11.8583
-14.4807
-9.82472
-12.4094
-7.39857
-9.97498
-4.75409
-6.51011
-1.67217
-2.09962
2.43527
3.14431
7.77708
9.50995
14.5102
17.0637
23.0457
25.7076
34.2986
35.176
48.2626
46.8749
65.5931
60.8145
87.3085
76.7665
115.662
93.7166
143.287
122.231
170.949
162.085
204.386
12.1365
29.5154
19.1576
30.3995
23.0764
30.5344
24.6712
29.9226
25.0777
28.6289
25.3166
26.9511
25.7622
25.3659
26.0752
24.2027
25.969
23.7555
25.4581
23.403
25.1688
23.0613
25.0184
22.825
24.8121
22.8367
24.4336
23.1283
23.8384
23.5849
23.0924
24.1054
22.3006
24.4705
21.6996
24.345
21.5568
23.8785
21.3292
23.5645
21.073
23.2095
21.0538
22.7135
21.3592
22.0715
21.8756
21.4077
22.4671
20.8219
22.9732
20.442
23.1807
20.5132
23.0256
20.552
23.0222
20.5383
22.9208
20.691
22.5945
21.0737
22.0257
21.5696
21.3297
22.0682
20.6315
22.426
20.0338
22.4209
19.8381
22.0997
19.5559
21.8346
19.3148
21.4814
19.2539
20.9454
19.4632
20.2144
19.8434
19.4184
20.3063
18.6774
20.69
18.1181
20.8394
17.9746
20.7034
17.8002
20.6433
17.7004
20.4723
17.797
20.1338
18.0164
19.6825
18.3318
19.1122
18.7104
18.4522
19.1192
17.6662
19.5212
16.9336
19.5899
16.5992
19.1482
16.2798
18.6232
15.9675
17.9024
15.588
16.9933
15.2802
15.6505
14.9532
13.8955
14.3134
11.911
12.9942
9.89754
11.0125
7.47615
8.52177
4.77621
4.91777
1.38418
0.584555
-2.70948
-4.49143
-7.45482
-10.1134
-12.7151
-15.9733
-18.1148
-21.5663
-23.2455
-26.293
-27.5688
-29.8723
-30.0562
-31.8236
-30.7438
-32.0402
-29.9843
-30.2584
-28.0949
-27.16
-25.6014
-23.8054
-23.0738
-20.9125
-20.9352
-18.3497
-19.1952
-15.8233
-17.6602
-13.7624
-15.881
-11.5537
-14.117
-9.17212
-12.2475
-6.77033
-9.72649
-4.15545
-6.31013
-0.836502
-2.26724
3.49521
2.69416
9.00594
8.98688
16.0986
16.794
25.3168
26.3025
37.3685
37.5782
52.9277
51.3703
72.2284
68.573
97.5297
87.6028
126.915
112.353
154.947
143.69
180.431
175.724
203.742
7.24431
23.9646
15.1028
25.0303
19.5558
26.3258
22.1003
26.5577
23.6514
26.0336
24.5839
24.9951
25.3001
23.949
25.7073
23.2852
25.5679
23.1751
24.9811
23.2156
24.4908
23.2644
24.1135
23.35
23.7522
23.5694
23.3132
23.9463
22.749
24.3912
22.125
24.7986
21.5226
24.9624
21.2787
24.5757
21.2909
23.8438
21.3633
23.1793
21.4158
22.4746
21.5908
21.7563
21.9734
21.0315
22.4531
20.4285
22.9277
20.0617
23.2227
19.9664
23.1936
20.3117
22.817
20.6963
22.5306
21.034
22.1932
21.4352
21.7343
21.9305
21.1477
22.4248
20.5387
22.8104
20.0001
22.9718
19.725
22.6821
19.6928
22.0912
19.7011
21.4943
19.7389
20.8443
19.8748
20.1127
20.161
19.3097
20.52
18.5459
20.8748
17.9705
21.0732
17.6566
20.9717
17.7656
20.576
17.9545
20.2132
18.2101
19.784
18.5699
19.2753
18.9651
18.7451
19.3683
18.1959
19.7459
17.6605
20.059
17.1225
20.2583
16.7593
20.0634
16.7069
19.4166
16.756
18.6472
16.8069
17.7188
16.7651
16.6783
16.4898
15.4563
16.1228
13.9426
15.4059
12.2915
14.1614
10.5278
12.21
8.37343
9.37667
5.80523
5.82279
2.53572
1.47488
-1.52227
-3.71582
-6.43289
-9.63309
-12.097
-15.989
-18.2152
-22.3298
-24.2258
-28
-29.51
-32.2495
-33.1319
-34.4744
-34.2289
-34.3331
-33.3587
-32.0946
-31.0389
-28.6355
-27.9509
-25.0065
-24.9483
-21.7121
-22.673
-18.8674
-20.8736
-16.9365
-18.898
-15.3115
-17.1037
-13.7621
-15.4215
-11.9956
-13.9062
-10.0638
-12.0844
-8.03908
-9.46317
-5.41564
-6.2594
-2.06153
-2.24703
2.21418
2.65096
7.65346
8.535
14.664
15.3074
24.3722
22.6468
36.3342
31.7985
50.8888
42.4427
69.524
55.3852
89.3492
74.1883
109.35
100.189
132.339
129.67
158.034
12.5403
27.2248
17.9577
27.4846
21.4669
27.6453
23.6711
27.3291
24.8602
26.7671
25.3999
25.8138
25.8464
24.8705
25.8758
24.3036
25.4963
24.1854
24.8359
24.0854
24.3691
23.9414
24.0516
23.8576
23.7492
23.9435
23.3926
24.2011
22.9651
24.5062
22.5161
24.7454
22.183
24.6162
22.0691
24.2065
22.1751
23.4976
22.18
22.8841
22.1166
22.3216
22.1375
21.7249
22.3524
21.167
22.647
20.7602
22.8461
20.5636
22.9461
20.5956
22.7971
20.9413
22.4525
21.2439
22.2531
21.4568
22.0202
21.7316
21.6786
22.0951
21.2442
22.4426
20.8107
22.6703
20.4973
22.6037
20.3405
22.3127
20.407
21.747
20.386
21.2399
20.3449
20.6938
20.3767
20.0733
20.5337
19.4046
20.7206
18.8115
20.8517
18.4139
20.796
18.2628
20.5485
18.4291
20.1478
18.5602
19.844
18.7017
19.5093
18.9246
19.1154
19.1769
18.7047
19.4284
18.281
19.6473
17.8778
19.7897
17.4919
19.8032
17.2618
19.5399
17.3118
18.9175
17.3573
18.2767
17.3361
17.5654
17.2257
16.7679
17.0543
15.7321
16.6712
14.5518
15.9132
13.3281
14.6449
11.9269
12.9333
10.1759
10.6211
7.91314
7.53867
4.94132
3.64363
1.12592
-1.12917
-3.64502
-6.72387
-9.37378
-12.9695
-15.7349
-19.4753
-22.182
-25.5342
-27.9512
-30.4728
-32.1433
-33.5362
-34.3048
-34.4094
-34.088
-33.0487
-31.7875
-29.7282
-28.1773
-25.6587
-24.6269
-21.9716
-22.0119
-19.1977
-20.1356
-16.9697
-18.4834
-15.1109
-16.6779
-13.2088
-14.9244
-11.139
-13.3922
-9.18119
-11.492
-7.05344
-9.05701
-4.39538
-6.08707
-0.99636
-2.31489
3.3918
2.50242
9.06571
8.4746
16.8621
15.285
27.2352
23.8799
40.1749
34.6877
56.3449
47.7611
75.3957
64.9077
95.1814
86.631
114.954
110.236
134.699
133.035
153.336
8.60559
22.8735
14.3037
23.5227
18.55
24.0879
21.3901
24.4425
23.1995
24.4252
24.3145
24.1552
24.9542
23.755
25.1594
23.5196
24.9149
23.6205
24.314
23.7576
23.8121
23.8499
23.4084
23.9733
23.0509
24.2007
22.6926
24.5095
22.3206
24.8114
21.9859
24.9357
21.7792
24.8678
21.7102
24.3441
21.9016
23.5524
22.008
22.7303
22.1014
21.8993
22.201
21.1555
22.4568
20.5228
22.6797
20.254
22.8159
20.1524
22.8687
20.3043
22.6752
20.7909
22.2706
21.2671
21.9655
21.6748
21.6369
22.0913
21.2469
22.5166
20.8231
22.8559
20.4703
22.9604
20.2672
22.8775
20.1533
22.4397
20.2959
21.7378
20.3924
21.0484
20.4676
20.3447
20.5774
19.6253
20.7436
18.9477
20.8707
18.4156
20.8844
18.0989
20.8313
17.982
20.5062
18.2545
20.0198
18.5702
19.6012
18.9092
19.1591
19.292
18.6908
19.6528
18.2546
19.9624
17.8622
20.1871
17.5526
20.2811
17.3139
20.2233
17.2287
19.8551
17.4109
19.1648
17.6265
18.4416
17.7822
17.6441
17.8285
16.7426
17.6991
15.8224
17.2917
14.8444
16.5348
13.7727
15.3835
12.4297
13.7324
10.6973
11.4204
8.56597
8.38163
5.76505
4.49228
2.0498
-0.306498
-2.79781
-6.02614
-8.79133
-12.6925
-15.6893
-19.9624
-23.005
-27.1526
-29.8632
-33.2678
-35.1809
-37.0512
-37.7807
-37.8004
-37.2743
-35.6846
-34.407
-31.6044
-30.2339
-26.8076
-26.0441
-22.5462
-22.9143
-19.456
-20.9345
-17.728
-19.1927
-16.4188
-17.7004
-15.1694
-16.3295
-13.6387
-15.2441
-12.0792
-14.0392
-10.4707
-12.2033
-8.46266
-9.8756
-5.83913
-6.89213
-2.49221
-3.19557
1.87642
1.0013
7.96839
5.84318
15.9036
11.3123
25.724
18.2018
37.7546
27.114
50.5056
40.5528
64.9831
57.9019
81.9567
78.5601
101.484
100.822
122.058
13.1834
26.5043
17.5135
26.1725
20.7739
25.8982
22.9437
25.5908
24.3124
25.2684
25.0721
24.8639
25.4599
24.5008
25.4722
24.2743
25.0312
24.378
24.3459
24.4417
23.7998
24.4313
23.3804
24.4387
23.0432
24.5444
22.7703
24.7424
22.5253
24.9258
22.3448
24.9525
22.2817
24.7755
22.3987
24.1526
22.6804
23.366
22.7542
22.6522
22.7424
21.8554
22.7798
21.1183
22.9102
20.6797
22.945
20.5088
22.8899
20.4905
22.7592
20.6904
22.4861
21.1707
22.0633
21.6278
21.7742
21.977
21.4965
22.3131
21.1917
22.6402
20.8894
22.8708
20.6856
22.9036
20.5857
22.764
20.6357
22.2758
20.8649
21.5927
20.9732
20.9533
21.0212
20.2944
21.0695
19.6432
21.1382
19.0465
21.1724
18.6413
21.0415
18.3927
20.7176
18.4114
20.2884
18.7221
19.7623
19.0112
19.3397
19.2889
18.9321
19.5856
18.528
19.8511
18.1694
20.0502
17.8683
20.1505
17.665
20.1337
17.5205
19.9594
17.5535
19.5341
17.8209
18.8573
18.0744
18.1949
18.2639
17.5042
18.3066
16.8725
18.1497
16.2002
17.7525
15.5108
17.0583
14.7206
16.0823
13.7143
14.7039
12.4515
12.7427
10.7639
10.0988
8.35915
6.72395
4.9245
2.49082
0.279686
-2.83777
-5.59322
-9.34751
-12.647
-16.7773
-20.4558
-24.4823
-28.1035
-31.4076
-34.3059
-36.4551
-38.2489
-38.8208
-39.2916
-38.0558
-37.0361
-34.0764
-32.0995
-28.482
-26.7839
-23.2787
-23.0796
-19.9327
-20.8793
-17.8539
-19.1904
-16.1804
-17.3732
-14.4639
-15.6456
-12.663
-14.4046
-11.0928
-13.1799
-9.56553
-11.6179
-7.65541
-9.7559
-5.2523
-7.16929
-2.05029
-3.80881
2.44284
0.0209489
8.88011
4.55714
17.4322
10.5112
27.6429
18.7319
39.0346
30.604
51.8236
45.2178
66.418
62.0039
82.1112
79.8858
98.3292
97.668
114.016
9.45254
22.858
14.5879
22.7033
18.3744
23.0245
20.9947
23.3244
22.8197
23.4515
23.9014
23.5632
24.5038
23.594
24.7032
23.6689
24.4331
23.9088
23.8271
24.1147
23.2839
24.2618
22.8474
24.3784
22.5275
24.5535
22.2938
24.7611
22.1218
24.9432
22.0247
24.9962
21.9995
24.8532
22.1494
24.2773
22.444
23.437
22.555
22.6291
22.5567
21.7847
22.4973
20.9844
22.5162
20.3698
22.5605
20.2021
22.5904
20.1894
22.5796
20.4961
22.3178
21.0932
21.8941
21.6539
21.581
22.111
21.2846
22.5187
20.9791
22.8731
20.6926
23.0871
20.5219
23.1004
20.4843
22.8825
20.58
22.3555
20.8111
21.5919
20.9499
20.8743
20.9817
20.1636
21.0093
19.4725
21.0443
18.8519
21.0326
18.4123
20.8998
18.1764
20.6134
18.2256
20.1776
18.5849
19.6253
18.9903
19.173
19.3916
18.7371
19.7913
18.3132
20.1226
17.9624
20.356
17.6977
20.4599
17.5471
20.4164
17.521
20.2169
17.6142
19.7729
17.9239
19.0635
18.2639
18.3677
18.5268
17.6524
18.6753
16.9796
18.5427
16.408
18.1544
15.8238
17.547
15.0964
16.6772
14.1954
15.3583
13.0446
13.4253
11.5435
10.9548
9.27594
7.83217
5.97234
3.77526
1.49373
-1.52012
-4.37659
-8.19207
-11.7063
-16.1815
-20.2058
-24.9906
-29.0468
-33.4862
-36.8432
-39.7827
-41.6501
-42.4799
-42.5072
-41.0454
-39.5571
-36.2904
-33.8226
-29.4352
-27.424
-23.1013
-22.6648
-19.2044
-20.5663
-17.8295
-19.3184
-17.0215
-18.3744
-16.1061
-17.2144
-14.7758
-16.2423
-13.5847
-15.4792
-12.417
-14.2786
-10.7887
-12.7408
-8.79247
-10.6738
-6.22647
-8.19941
-2.48814
-5.69443
2.65985
-2.60763
8.8525
1.43765
15.9594
7.47014
23.6113
16.0626
33.0066
27.3231
44.6273
41.2594
58.7549
57.5055
74.8985
75.0572
91.9825
14.7767
26.118
18.1631
25.1678
20.6897
24.7214
22.5034
24.4685
23.8151
24.2404
24.5905
24.1532
24.9736
24.1458
24.9756
24.2085
24.5869
24.4678
23.9361
24.6494
23.3404
24.724
22.8462
24.7583
22.5064
24.8361
22.3777
24.9146
22.301
25.0575
22.2765
25.1031
22.4107
24.8242
22.7124
24.1359
23.1748
23.2605
23.297
22.568
23.2375
21.7702
23.1186
20.9745
23.0659
20.5438
22.8979
20.3674
22.7907
20.3579
22.5662
20.6987
22.2162
21.2749
21.756
21.8433
21.4314
22.2838
21.157
22.6525
20.9079
22.9503
20.7155
23.0919
20.6456
23.0962
20.7121
22.8542
20.9254
22.3121
21.2685
21.5745
21.4611
20.8606
21.4934
20.1773
21.4889
19.52
21.46
18.9789
21.3422
18.6434
21.0761
18.4147
20.6192
18.528
20.0766
18.9068
19.4733
19.286
18.9826
19.6544
18.5426
20.0051
18.1487
20.2777
17.8424
20.4395
17.6381
20.4683
17.5618
20.3436
17.5925
20.0711
17.7847
19.5753
18.1893
18.8778
18.574
18.2158
18.8835
17.5769
18.9871
17.1167
18.8399
16.7517
18.4845
16.3595
17.9714
15.8627
17.2372
15.2946
16.1083
14.6008
14.5017
13.4132
12.5038
11.459
9.92954
8.55301
6.37677
4.43981
1.53298
-1.20583
-4.91363
-8.58361
-13.0357
-17.5277
-22.418
-27.3312
-31.9886
-36.4363
-39.8933
-43.0032
-44.6959
-46.0591
-45.4745
-44.7426
-41.2912
-38.5925
-33.263
-30.2129
-25.1453
-23.7586
-20.0731
-20.8252
-18.0855
-19.4845
-16.7023
-17.7282
-15.1509
-16.0235
-13.9527
-14.9152
-12.7017
-14.3885
-11.8818
-13.5997
-10.7486
-12.7731
-9.17336
-11.5271
-6.89924
-9.87606
-3.44196
-7.88928
1.35565
-5.03426
7.23272
-0.483965
13.747
6.33677
21.5654
15.1575
30.8869
25.9841
41.887
38.6591
54.3297
52.6936
67.7633
67.3539
81.5356
11.2247
23.1349
15.6955
22.4813
18.8976
22.4771
21.1468
22.6914
22.6733
22.936
23.5651
23.2526
24.0926
23.5211
24.3155
23.8152
24.0932
24.1421
23.5412
24.3415
22.9973
24.5054
22.4221
24.6222
22.1229
24.6921
22.0375
24.7963
21.9974
24.9704
22.0097
25.055
22.1895
24.8577
22.5344
24.2803
22.9731
23.4036
23.2127
22.6042
23.0944
21.7847
22.8467
20.9211
22.591
20.2477
22.4113
20.0919
22.3771
20.1567
22.339
20.5688
22.0534
21.2887
21.6059
21.9407
21.2866
22.4361
21.0284
22.8279
20.8
23.1268
20.6183
23.2623
20.5776
23.2266
20.6905
22.9259
20.9391
22.3616
21.2884
21.5546
21.5002
20.7885
21.4736
20.0844
21.414
19.4189
21.3278
18.8584
21.1803
18.4548
20.9079
18.2559
20.4626
18.392
19.9386
18.8092
19.3262
19.2923
18.837
19.755
18.4029
20.1778
18.017
20.4912
17.7374
20.6674
17.5739
20.6912
17.5456
20.555
17.6408
20.2624
17.8748
19.7654
18.2982
19.0388
18.7486
18.3581
19.0986
17.7278
19.2781
17.2696
19.1318
16.9764
18.8489
16.6492
18.4234
16.2653
17.7343
15.8724
16.6282
15.3286
15.1708
14.2403
13.4871
12.469
11.2298
9.89384
8.04253
6.16807
3.57472
0.900101
-2.6031
-6.29645
-10.813
-15.5387
-20.9224
-26.3233
-32.0555
-37.2607
-42.0346
-45.5967
-47.9415
-49.2287
-48.6508
-47.4203
-43.7786
-40.4149
-34.1981
-30.0414
-23.7244
-21.8237
-17.7919
-19.1029
-17.3391
-19.091
-17.7557
-19.1525
-17.1242
-17.7877
-15.6732
-16.7689
-14.8629
-16.2235
-14.1389
-15.4845
-12.9939
-14.5337
-11.4941
-13.3861
-9.52824
-12.0577
-6.58218
-10.6699
-2.79626
-8.41317
1.27126
-4.99335
5.90163
-0.28619
11.3218
6.12813
18.1192
14.6196
26.7875
25.1328
37.7916
37.5431
50.9308
51.2099
65.3744
16.689
25.8862
19.2827
24.5445
21.0907
23.9029
22.4374
23.6175
23.4327
23.5426
24.1219
23.6233
24.4744
23.82
24.522
24.0973
24.2061
24.5252
23.5977
24.7591
23.0595
24.8398
22.5345
24.7926
22.1278
24.8778
22.0612
24.9182
22.0861
25.0753
22.1779
25.1686
22.4627
24.8535
22.9326
24.1516
23.5951
23.2377
23.776
22.5567
23.7317
21.7827
23.4941
20.979
23.175
20.4286
22.8374
20.1737
22.6231
20.1624
22.3636
20.6082
21.9408
21.3167
21.447
21.9996
21.1226
22.5107
20.8861
22.8973
20.6934
23.1692
20.5744
23.2679
20.6076
23.2305
20.8268
22.9384
21.1868
22.3816
21.6655
21.5998
21.9649
20.8072
21.9314
20.1191
21.8313
19.4752
21.6907
18.9891
21.4638
18.6388
21.1045
18.4218
20.5459
18.5704
19.8952
18.9998
19.2066
19.4728
18.6604
19.9295
18.208
20.3339
17.8336
20.6143
17.5779
20.7457
17.4534
20.7201
17.4775
20.5289
17.6296
20.1854
17.9398
19.6376
18.4571
18.901
18.9573
18.235
19.3339
17.6647
19.4268
17.3614
19.3126
17.1498
19.0808
16.9439
18.7121
16.7338
18.1268
16.5898
17.1855
16.3257
16.0034
15.4966
14.7263
14.1013
12.9051
11.9524
10.2232
8.67193
6.2615
3.79395
0.438459
-3.25837
-7.80754
-12.8642
-18.5695
-24.6765
-30.9731
-37.235
-42.9852
-48.1489
-51.6578
-54.6033
-55.2289
-55.8073
-52.5415
-49.8057
-42.3974
-36.6831
-28.4331
-23.9909
-18.8186
-19.0553
-16.9005
-18.9174
-16.2581
-17.5861
-15.7269
-15.9905
-14.7821
-14.7869
-13.895
-14.7396
-13.5254
-14.7562
-13.2922
-14.8895
-12.6323
-14.6657
-11.3313
-14.015
-9.16548
-12.9055
-6.2509
-11.0959
-2.76346
-8.28988
1.50055
-4.25437
6.83543
1.30505
13.2316
8.46568
21.1209
17.187
30.4734
27.8341
41.2142
40.2669
53.4076
13.4084
23.6992
17.5217
22.4965
19.9567
22.264
21.6531
22.4027
22.7868
22.6817
23.3555
23.1337
23.7797
23.5167
23.9906
23.9527
23.7865
24.4148
23.2575
24.6993
22.7801
24.7278
22.3023
24.6925
21.9282
24.5912
21.8127
24.6682
21.8748
24.8624
21.9422
25.0485
22.3087
24.858
22.8541
24.2791
23.4965
23.4313
23.9319
22.587
23.7569
21.8667
23.3062
20.9832
22.7353
20.1604
22.2966
19.9424
22.1621
20.0259
22.1413
20.5664
21.7921
21.4554
21.3118
22.1985
20.9959
22.7199
20.7877
23.0904
20.6349
23.3366
20.5417
23.4223
20.5778
23.3313
20.8169
22.9849
21.2468
22.3772
21.7885
21.5481
22.1332
20.7412
22.0002
20.0773
21.8
19.4418
21.586
18.9124
21.3325
18.5244
20.9575
18.3452
20.3804
18.5156
19.7418
18.9853
19.041
19.5446
18.5036
20.0724
18.0704
20.5299
17.7226
20.8284
17.5107
20.9484
17.4363
20.8997
17.5055
20.6872
17.7043
20.3217
18.0533
19.7651
18.5935
19.0092
19.1465
18.3338
19.5522
17.7836
19.7368
17.4384
19.6542
17.298
19.4494
17.1781
19.1361
17.1113
18.6209
17.0511
17.7966
16.946
16.7008
16.2994
15.6719
15.1729
14.2159
13.4115
12.0143
10.651
8.64696
6.42744
3.50502
0.0592672
-4.18506
-9.17566
-14.9903
-21.474
-28.5685
-35.6434
-42.5865
-48.5426
-53.2754
-56.6831
-58.3041
-58.9833
-56.0951
-52.8646
-44.7972
-37.6591
-26.6892
-21.0839
-14.0571
-15.0209
-14.205
-18.7698
-19.3899
-20.3631
-18.5358
-18.0929
-16.0821
-16.7614
-15.487
-16.7442
-15.3013
-16.373
-14.6034
-15.8925
-13.9708
-15.5431
-12.9141
-14.9899
-11.2302
-14.3145
-8.92432
-13.0614
-6.39383
-11.1619
-3.49733
-8.48202
-0.0814194
-4.57301
4.47799
1.14922
10.2141
8.79879
17.8503
17.706
27.938
28.0792
40.3328
19.4056
25.1528
20.9564
24.1603
21.6721
23.4399
22.5277
23.1175
23.2316
23.0867
23.7233
23.2584
24.0461
23.565
24.1321
24.0167
23.8708
24.6063
23.3111
24.9241
22.7892
24.9532
22.325
24.8591
21.966
24.755
21.8604
24.7528
21.8949
25.0301
21.9974
25.1675
22.348
24.8522
23.0209
24.133
23.9565
23.1467
24.2924
22.5799
24.2793
21.9475
23.9617
21.1806
23.3673
20.4126
22.7413
19.9261
22.394
19.8905
22.087
20.4651
21.5705
21.3823
21.0714
22.1619
20.7979
22.706
20.6282
23.1069
20.4822
23.3676
20.41
23.4434
20.5218
23.3265
20.8917
22.9776
21.4342
22.4025
22.0929
21.6039
22.5487
20.81
22.3688
20.1357
22.1142
19.4818
21.8789
19.0444
21.5581
18.6866
21.1382
18.4521
20.4961
18.5768
19.7182
19.0598
18.9063
19.6441
18.3002
20.2002
17.8491
20.6621
17.5138
20.9401
17.3184
21.0347
17.2672
20.9638
17.3714
20.7191
17.6172
20.3074
18.0394
19.6883
18.688
18.8696
19.3226
18.1847
19.7471
17.6724
19.884
17.3981
19.7927
17.2792
19.6174
17.2228
19.3329
17.2026
18.9463
17.3405
18.1907
17.4659
17.2437
17.0589
16.4756
16.237
15.3946
14.8816
13.7072
12.6608
10.9671
9.07759
6.50339
3.34879
-0.655506
-5.58887
-11.6111
-18.6003
-26.6944
-34.9421
-43.6796
-51.3164
-57.426
-62.3732
-65.0791
-68.0891
-66.4521
-65.8141
-57.6316
-49.7792
-36.8534
-26.021
-15.671
-13.7532
-11.6054
-15.4468
-13.5306
-18.5327
-17.6927
-16.5701
-15.3018
-14.0554
-13.7827
-14.3729
-14.3342
-15.5566
-14.8675
-16.3394
-15.1035
-16.8124
-14.6112
-16.5749
-13.4024
-16.0233
-11.6915
-15.367
-9.76573
-14.0599
-7.21646
-12.0924
-3.99681
-9.14217
-0.155586
-5.11919
4.66708
0.0178538
10.886
6.60031
17.9605
15.2258
27.6536
17.4312
23.8438
19.8244
22.816
21.5632
22.1722
22.479
22.3095
22.9498
22.65
23.3488
23.0214
23.5774
23.5289
23.6477
24.0742
23.4086
24.7061
22.9568
25.0305
22.6594
24.9935
22.2485
24.7404
21.8578
24.4981
21.627
24.5073
21.5673
24.8635
21.7182
25.0877
22.2752
24.7657
23.1226
24.0913
24.0736
23.2733
24.6647
22.5685
24.4525
22.005
23.8165
21.2306
23.0392
20.1699
22.3578
19.627
22.1863
19.816
21.949
20.6089
21.4036
21.6736
20.935
22.4869
20.6341
23.0089
20.503
23.3674
20.4265
23.5669
20.3883
23.5948
20.4763
23.4216
20.8522
22.9957
21.5179
22.303
22.3533
21.4727
22.8279
20.8348
22.5714
20.2166
22.1877
19.5173
21.8163
18.987
21.5021
18.6144
21.1122
18.4422
20.4175
18.6401
19.5662
19.1834
18.6827
19.819
18.0745
20.4062
17.659
20.9121
17.3632
21.1926
17.2317
21.2398
17.2466
21.1199
17.4096
20.8317
17.7163
20.3754
18.1937
19.7251
18.8901
18.8807
19.5607
18.2107
19.9975
17.7409
20.1268
17.5089
20.0704
17.4333
19.9437
17.4274
19.7244
17.549
19.3147
17.7844
18.7235
17.9883
17.8889
17.7618
17.2879
17.1921
16.5338
16.1767
15.2873
14.449
13.158
11.5661
9.5054
6.74023
3.29072
-1.25961
-6.92478
-13.8592
-22.2635
-31.1003
-40.8638
-49.4653
-56.5311
-61.5685
-65.1725
-69.2283
-69.246
-69.9629
-63.9509
-54.3588
-37.8906
-25.3224
-9.16257
-7.60623
-7.50583
-18.1062
-20.0418
-22.1114
-20.9548
-19.0029
-16.561
-15.7846
-15.5676
-16.7783
-15.6311
-16.5852
-15.0682
-16.4483
-15.507
-17.1043
-15.4181
-17.2705
-14.4462
-16.9977
-12.9819
-16.5071
-11.813
-15.6765
-10.5528
-14.8018
-8.69516
-13.7375
-6.25862
-10.7103
-3.53825
-5.78281
-0.109602
-0.222715
5.70089
6.05318
15.0457
21.9501
24.7936
22.5881
23.745
22.5277
23.3417
22.535
23.0604
23.072
22.8156
23.5472
23.1135
23.6445
23.5578
23.6805
24.0357
23.5143
24.6579
22.9912
25.0142
22.6447
25.1512
22.306
25.0236
21.9512
24.815
21.6187
24.9023
21.5439
25.097
21.7529
25.0691
22.1151
24.7238
23.0072
23.9508
24.26
22.9578
24.7197
22.6047
24.6972
22.3365
24.4193
21.5651
23.8143
20.5398
22.7316
19.6956
22.1084
19.7275
21.6931
20.4528
21.0537
21.5899
20.6116
22.3578
20.4845
22.8525
20.4043
23.2762
20.28
23.5677
20.232
23.6146
20.4014
23.375
20.9597
22.8643
21.7446
22.2438
22.5518
21.5294
23.0497
20.9799
22.7701
20.2777
22.391
19.533
22.0811
19.0595
21.7385
18.6486
21.3166
18.5012
20.5234
18.6417
19.5472
19.213
18.5349
19.8882
17.8615
20.5187
17.4205
21.0363
17.1791
21.2676
17.0786
21.3024
17.0923
21.1967
17.2562
20.9001
17.5915
20.402
18.1431
19.6729
18.9831
18.7056
19.7617
18.0211
20.2058
17.5928
20.292