/*--------------------------------*- C++ -*----------------------------------*\
| =========                 |                                                 |
| \\      /  F ield         | OpenFOAM: The Open Source CFD Toolbox           |
|  \\    /   O peration     | Version:  4.1                                   |
|   \\  /    A nd           | Web:      www.OpenFOAM.org                      |
|    \\/     M anipulation  |                                                 |
\*---------------------------------------------------------------------------*/
FoamFile
{
    version     2.0;
    format      ascii;
    class       volScalarField;
    location    "1288";
    object      p;
}
// * * * * * * * * * * * * * * * * * * * * * * * * * * * * * * * * * * * * * //

dimensions      [0 2 -2 0 0 0 0];

internalField   nonuniform List<scalar> 
204246
(
141.425
-8.08271
46.9811
25.5618
24.3171
30.5725
19.7057
31.1709
18.2974
30.9613
17.2669
31.0598
15.0277
30.208
15.4265
26.2504
19.3361
12.714
21.853
9.55062
18.329
6.04559
12.4928
1.45336
6.29214
-4.61668
0.736332
-13.1513
-4.63419
-20.2223
-9.85419
-25.9171
-13.965
-26.9976
-18.9637
-20.0622
-25.9829
-13.1827
-21.0538
-8.7102
-13.2494
-1.337
-5.56274
7.33409
0.306964
14.8941
6.11509
20.4204
11.7378
22.8601
16.8296
24.0792
24.3833
17.5164
31.1743
17.5336
31.4914
18.702
32.0357
18.7536
33.1488
16.997
33.9661
16.7149
33.4017
17.7013
30.6891
19.412
27.7796
24.103
17.9123
27.3541
15.6995
27.2874
14.1095
26.3479
12.1789
25.646
8.68597
24.2752
7.14032
20.8622
6.41197
16.0186
4.74891
10.8905
6.27912
-1.88404
5.14071
-5.65789
1.90139
-11.2014
-0.997904
-17.6454
-3.7951
-21.7554
-7.07709
-25.0276
-10.1247
-26.1445
-13.6197
-27.0457
-14.6311
-25.9395
-16.001
-21.0689
-24.3082
-13.7552
-25.2182
-9.78136
-25.7301
-7.11936
-23.5662
-6.08438
-21.8855
-4.84281
-20.6664
-3.85859
-19.4038
-3.51851
-17.0818
-5.4202
-10.5502
-15.1818
-3.64539
-17.2667
-1.72309
-17.4887
-1.02366
-17.323
-0.660545
-17.0927
-0.411377
-16.8642
-0.216766
-16.2296
-0.59575
-14.4774
-2.98147
-8.24248
-13.226
-1.72422
-15.4163
-0.0398982
-15.6189
0.708106
-15.478
1.18498
-15.0738
1.66727
-14.4442
2.19328
-13.3725
2.49587
-10.8476
0.968722
-3.66418
-7.78987
4.22291
-8.35419
7.68366
-6.31514
10.1038
-2.66726
12.7625
1.99234
16.6354
7.7457
21.7417
14.7301
28.0486
23.7094
36.0318
35.2665
45.523
52.0475
54.2845
68.1455
72.6765
85.9901
95.7314
109.109
123.443
138.351
158.284
176.119
204.402
227.064
270.963
299.909
387.639
403.565
610.604
48.1468
24.0711
25.2468
29.2978
23.136
27.8774
22.7562
27.1765
22.4456
26.7869
21.8711
26.4921
21.2397
24.7867
21.5244
21.6502
23.246
17.819
18.9421
14.767
16.3965
11.7251
11.8523
7.44462
5.96819
1.25162
-0.0985629
-6.09994
-6.836
-12.7132
-13.6091
-18.3903
-19.5485
-20.8139
-23.9526
-19.3721
-24.9386
-18.3042
-20.3577
-14.8758
-13.0328
-8.02908
-5.3743
0.345736
1.84598
7.48296
8.31405
13.0456
14.0947
16.8112
18.8057
18.5016
23.9118
19.7324
26.0588
22.1208
26.5329
22.9362
27.3426
23.0018
28.1235
22.7279
27.906
22.878
27.1583
23.3853
25.8676
23.9435
23.7878
25.9766
21.0904
24.6222
20.1848
23.7003
19.0535
22.6569
17.4367
21.5364
15.4866
19.2422
13.759
16.6743
12.1572
13.3523
10.339
8.27991
9.86923
3.6812
3.61845
-1.00238
0.527551
-5.70166
-3.25907
-10.4231
-7.79905
-14.4921
-11.7436
-17.8853
-15.3914
-20.2359
-17.8549
-21.8403
-19.7967
-21.5771
-21.1441
-18.922
-23.1466
-17.6407
-21.9699
-15.5333
-20.4078
-14.1226
-18.273
-12.6587
-16.7059
-11.2368
-15.4391
-10.2156
-14.0672
-9.97274
-11.9422
-11.1109
-8.42738
-13.2078
-7.7853
-12.7404
-7.30863
-12.2981
-6.92321
-11.9456
-6.62008
-11.6399
-6.39498
-11.3071
-6.36574
-10.6438
-6.83141
-9.11336
-8.53292
-5.98464
-10.9917
-5.73248
-10.7539
-5.47363
-10.4524
-5.12269
-10.1188
-4.79779
-9.71392
-4.43308
-9.13726
-4.08745
-8.13183
-4.06492
-5.99397
-4.98091
-2.15491
-6.33672
-0.674585
-4.67501
1.12608
-2.36156
3.40315
0.364954
6.30646
3.7844
10.0025
8.29378
14.7368
14.1003
20.1341
21.8443
27.0777
31.6145
35.2505
44.0035
47.689
56.7682
63.3248
72.8509
82.5298
92.9934
106.026
117.614
134.788
147.607
170.811
184.239
219.491
226.136
300.856
266.297
400.977
21.413
30.8273
27.2325
28.6376
25.1376
27.5728
23.6893
27.1795
22.922
26.7892
22.296
26.2044
21.8254
24.6405
21.9285
22.0649
21.4998
18.8378
19.7818
16.0296
16.0418
12.7954
11.6306
8.19683
6.49494
2.37626
0.140398
-4.3517
-7.15805
-11.1799
-14.2444
-17.279
-20.3394
-20.9231
-24.1415
-22.0726
-25.0094
-20.6021
-20.7582
-16.0098
-14.3129
-8.70802
-6.31332
-0.773153
2.12592
6.64101
9.24537
12.6227
14.9152
17.0013
19.3645
19.7535
23.2551
21.5421
25.2648
22.6601
26.6251
23.2236
27.5182
23.3978
28.0655
23.2353
28.0364
23.2125
27.4723
23.4541
26.2545
23.903
24.3908
24.7269
22.1555
24.3811
20.649
23.7209
19.2861
22.7186
17.7076
21.429
15.8478
19.5432
14.1637
16.7615
12.7858
13.0268
11.0506
8.80845
8.18797
4.45576
4.50864
0.189803
-0.0202382
-4.40935
-4.10534
-9.14123
-8.17829
-13.4202
-12.1413
-17.0783
-15.588
-19.8015
-18.357
-21.5941
-20.0199
-21.729
-21.4129
-20.1302
-22.2304
-18.3891
-21.6193
-16.2373
-20.238
-14.3388
-18.3383
-12.669
-16.685
-11.1731
-15.3589
-10.1255
-13.9451
-9.79896
-12.0695
-10.4195
-9.62644
-11.7311
-8.21565
-12.0483
-7.2776
-11.9352
-6.73978
-11.6884
-6.40931
-11.4216
-6.20686
-11.0969
-6.1899
-10.5061
-6.60079
-9.31361
-7.8588
-7.31656
-9.64523
-6.26029
-10.2343
-5.54845
-10.2593
-5.08429
-10.0303
-4.71002
-9.64968
-4.33535
-9.06494
-3.99368
-8.08005
-3.91176
-6.24638
-4.43488
-3.36599
-5.10308
-1.1887
-4.27911
1.08271
-2.43193
3.32604
0.467394
5.88719
4.34983
9.36249
9.12445
14.0052
15.0853
20.0329
22.5435
27.536
32.06
37.1498
43.6718
48.6893
57.698
64.3044
74.5433
84.2086
95.4701
109.013
121.541
140.118
153.998
179.653
194.333
234.037
241.961
318.121
296.849
385.63
6.71464
21.7035
18.7189
25.3831
22.1697
25.9137
23.3709
25.6805
23.8756
25.4471
23.8729
25.0066
23.7678
23.8943
23.7461
22.2039
23.2657
20.3889
20.7884
18.1464
17.7631
15.0596
13.9215
10.719
8.87848
5.18135
2.57517
-1.42481
-4.87965
-8.67301
-12.7319
-15.6978
-19.9777
-21.0549
-24.9503
-23.8574
-26.2838
-23.7405
-23.5623
-19.5701
-17.5042
-12.5619
-9.38319
-4.34978
-0.844148
3.44963
6.98076
10.0353
13.3277
14.9528
18.1086
18.296
21.739
21.3775
23.7861
23.566
24.9025
24.3728
25.7156
24.6597
26.2095
24.8026
26.0584
24.9485
25.5539
25.1329
24.809
25.2173
23.711
25.3737
23.0601
24.055
22.2465
23.0448
21.3059
21.9366
20.0833
20.5801
18.6565
18.6728
16.9372
16.4339
15.0987
13.6461
12.9201
10.2114
10.1327
6.57598
5.76865
2.53973
1.29134
-1.75625
-3.46448
-6.23509
-8.34202
-10.6616
-12.8343
-14.695
-16.7733
-17.998
-19.7348
-20.3238
-21.7267
-21.1506
-22.6319
-20.5761
-22.5848
-20.0338
-21.1007
-18.473
-19.1234
-16.9006
-17.0456
-15.2209
-15.3342
-13.6469
-13.9415
-12.5551
-12.5644
-12.0652
-11.0844
-12.0105
-9.61633
-11.812
-9.43824
-11.2354
-9.20737
-10.7311
-8.93415
-10.3188
-8.67042
-9.96024
-8.47139
-9.5731
-8.43193
-8.99986
-8.67426
-8.07804
-9.29172
-7.0484
-9.49745
-7.24443
-9.19535
-7.26991
-8.87458
-7.13216
-8.5485
-6.91925
-8.18289
-6.66068
-7.68317
-6.41102
-6.87835
-6.34865
-5.4732
-6.32201
-3.97721
-5.62466
-3.20463
-4.21903
-1.93762
-2.37739
-0.0672039
-0.166946
2.26926
2.66339
5.37902
6.28895
9.40699
10.9441
14.3295
17.1241
20.5898
24.8467
28.4201
34.6306
38.7656
45.7039
51.8166
59.1547
67.8143
75.6458
87.2284
95.5397
110.747
119.533
140.097
147.19
180.236
175.119
232.609
219.473
290.569
8.72297
22.1435
19.3042
24.2361
22.7995
25.3021
23.898
25.482
24.2946
25.3929
24.1956
24.9539
24.2137
23.9198
23.7581
22.6611
22.7227
21.1341
21.1524
18.9341
18.3367
15.9143
14.7743
11.8745
10.0702
6.59056
4.0047
0.0837313
-3.34619
-7.35557
-11.4499
-14.9749
-19.3606
-21.5605
-25.4417
-25.6745
-28.0229
-25.976
-25.9143
-21.9
-19.6499
-14.2705
-10.8555
-5.29779
-1.51915
3.23134
6.83159
10.2723
13.5569
15.6215
18.4597
19.4437
21.8315
22.1964
23.9556
23.9857
25.2159
24.8353
26.0769
25.2263
26.5047
25.3914
26.3786
25.4052
25.9509
25.399
25.2442
25.3166
24.276
24.8842
23.6039
24.1353
22.6914
23.1321
21.6301
22.0543
20.4177
20.7108
19.0498
18.988
17.4992
16.6951
15.5585
13.9856
13.1355
10.8926
10.1104
7.44855
6.46486
3.40709
2.04635
-0.907629
-2.62748
-5.41444
-7.42802
-9.94939
-12.0871
-14.1445
-16.2688
-17.7061
-19.5993
-20.2958
-21.8123
-21.5983
-22.7909
-21.7233
-22.5856
-20.9202
-21.271
-19.2758
-19.154
-17.3881
-16.9736
-15.4156
-15.1516
-13.6634
-13.6875
-12.4258
-12.3338
-11.7794
-11.0379
-11.264
-9.9281
-10.7472
-9.4976
-10.3939
-9.00476
-10.0796
-8.62308
-9.78573
-8.35016
-9.51382
-8.18491
-9.20815
-8.17188
-8.76667
-8.35948
-8.13412
-8.71064
-7.58634
-8.7106
-7.54695
-8.65423
-7.3325
-8.53734
-7.0835
-8.31212
-6.81682
-7.98875
-6.53348
-7.50378
-6.26535
-6.73471
-6.18329
-5.63058
-5.79071
-4.37202
-5.07381
-3.36545
-3.84666
-1.95077
-2.16292
-0.0679637
0.120971
2.45321
3.02388
5.72041
6.758
9.88003
11.6305
15.0989
17.8411
21.72
25.74
30.0556
35.4955
40.7163
47.4502
54.3216
62.0686
71.3502
79.986
92.4331
101.804
118.242
127.893
150.402
158.15
192.504
189.442
238.732
227.369
272.467
6.32706
17.7474
15.8964
21.1845
20.613
23.5448
22.957
24.6077
24.1687
24.8993
24.7387
24.8061
24.8148
24.3916
24.6243
23.5902
23.8987
22.3416
22.2654
20.5769
20.0061
17.8965
16.7859
14.1607
12.3329
9.16013
6.41633
2.74945
-1.03555
-4.99376
-9.69189
-13.4757
-18.6434
-21.5078
-26.2053
-27.4098
-30.3872
-29.4644
-29.6138
-26.368
-23.9597
-18.9694
-14.9276
-9.44172
-4.88895
0.0158031
4.35803
8.03264
11.8091
14.1552
17.2481
18.5088
20.9955
21.7515
23.1972
23.9525
24.6391
24.9815
25.3775
25.4775
25.6599
25.6966
25.6043
25.788
25.3208
25.7577
24.8796
25.5894
24.407
25.1371
23.9359
24.3705
23.3501
23.424
22.5893
22.3258
21.561
21.0888
20.3
19.5371
18.756
17.685
16.9222
15.3111
14.6375
12.3985
11.7317
8.99712
7.97912
5.16653
3.62137
0.775683
-1.20558
-3.94967
-6.27894
-8.82598
-11.3092
-13.5142
-15.9466
-17.6131
-19.7849
-20.7313
-22.4861
-22.5025
-23.7738
-22.9291
-23.4739
-22.1836
-21.9733
-20.4661
-19.7915
-18.3479
-17.5008
-16.2587
-15.4445
-14.4629
-13.8325
-13.1769
-12.5224
-12.3907
-11.4035
-11.9228
-10.6145
-11.2011
-10.2777
-10.66
-10.0312
-10.1899
-9.76025
-9.76948
-9.49395
-9.39013
-9.28458
-9.00858
-9.18026
-8.58878
-9.15454
-8.13332
-9.21415
-7.83287
-8.87154
-8.00637
-8.57925
-8.04859
-8.32437
-7.98171
-8.06583
-7.8468
-7.77401
-7.67074
-7.40791
-7.40766
-6.87652
-7.20784
-6.13029
-6.82088
-5.4557
-5.92392
-4.73779
-4.9215
-3.7045
-3.58609
-2.30062
-1.88499
-0.383131
0.274228
2.1165
3.11317
5.31129
6.873
9.37695
11.7407
14.5378
17.932
21.1653
25.618
29.7551
34.8809
40.5766
46.1599
54.0041
59.9524
70.4253
76.6847
90.4741
96.4409
115.277
118.504
148.927
142.48
183.66
181.155
221.745
9.42194
19.8844
17.054
21.4753
21.1025
23.3273
23.1298
24.4762
24.2394
24.871
24.7738
24.864
24.8461
24.5197
24.6229
23.8676
23.9638
22.9046
22.74
21.2759
20.7729
18.9247
17.9183
15.6133
13.8927
11.033
8.3911
4.93131
1.21223
-2.80199
-7.56957
-11.8564
-17.2986
-21.2359
-26.3786
-28.9699
-32.3598
-32.4728
-32.9685
-30.0205
-27.3619
-21.8803
-17.2849
-11.1877
-6.2004
-0.689427
3.86668
8.08059
11.9088
14.7512
17.6204
19.3401
21.3815
22.5256
23.7637
24.5339
25.307
25.6479
26.0523
26.2563
26.3262
26.4237
26.2353
26.3636
25.9104
26.1666
25.4174
25.8166
24.879
25.2798
24.3587
24.5497
23.6986
23.6384
22.883
22.6058
21.8785
21.3945
20.6847
19.9266
19.2015
18.1084
17.398
15.8976
15.1717
13.2389
12.348
10.1111
8.86065
6.34587
4.70887
2.04977
-0.0009025
-2.70191
-5.062
-7.70726
-10.2375
-12.6293
-15.1583
-17.081
-19.3823
-20.6148
-22.5024
-22.8751
-24.1742
-23.7172
-24.3047
-23.1138
-22.9777
-21.2487
-20.607
-18.784
-17.9057
-16.3467
-15.5092
-14.3593
-13.6556
-12.9865
-12.1826
-12.0187
-11.0367
-11.1893
-10.1436
-10.4462
-9.7972
-9.81273
-9.52609
-9.38861
-9.26825
-9.07399
-9.04887
-8.83031
-8.89569
-8.59351
-8.83357
-8.32094
-8.82971
-8.02125
-8.76493
-7.88141
-8.45556
-8.0125
-8.195
-7.97575
-8.01385
-7.85165
-7.80948
-7.66649
-7.56954
-7.43137
-7.2774
-7.20583
-6.74176
-6.90368
-6.08059
-6.4353
-5.33654
-5.77675
-4.54923
-4.72768
-3.47746
-3.33541
-1.96949
-1.55618
0.0783077
0.718644
2.72831
3.69169
6.06323
7.61099
10.3179
12.644
15.7644
19.0074
22.7339
26.9365
31.6832
36.7032
43.0416
48.7037
57.151
63.3502
74.4446
80.946
95.403
101.505
121.141
123.356
151.3
147.954
179.162
175.329
204.126
8.54138
18.4922
15.6971
20.2895
19.9061
22.4719
22.4478
23.9547
24.014
24.7269
24.897
25.0262
25.279
25.0006
25.2915
24.6456
24.8301
23.8874
23.8365
22.6232
22.199
20.6232
19.6816
17.6652
16.0014
13.4355
10.8047
7.57726
3.75729
-0.202264
-5.27426
-9.83818
-15.8807
-20.5585
-26.6649
-30.452
-35.1446
-36.5498
-37.9309
-35.8706
-33.5214
-28.3832
-23.1423
-16.528
-10.5542
-4.37101
1.1299
5.82703
10.2881
13.5625
16.7435
18.7241
20.8858
22.21
23.3788
24.37
24.9647
25.4783
25.6322
26.0887
25.867
26.2877
25.7937
26.3266
25.5628
26.1931
25.2663
25.9247
24.8988
25.4669
24.5591
24.7981
24.096
24.0423
23.4272
23.1538
22.5787
22.087
21.5309
20.7812
20.2246
19.1619
18.5796
17.1216
16.4768
14.6092
13.7747
11.5454
10.3724
7.89792
6.24378
3.59324
1.46238
-1.30174
-3.83287
-6.60049
-9.3954
-11.9954
-14.84
-17.0501
-19.6899
-21.2469
-23.408
-24.0722
-25.5093
-25.1809
-25.7357
-24.5891
-24.231
-22.573
-21.5984
-19.8166
-18.6202
-17.0644
-15.9596
-14.8534
-13.9414
-13.3535
-12.5527
-12.4194
-11.6097
-11.7614
-11.0127
-11.081
-10.6823
-10.5502
-10.3764
-10.0608
-10.0785
-9.62181
-9.7842
-9.23769
-9.54616
-8.89285
-9.37764
-8.58207
-9.26933
-8.27409
-9.11174
-8.18583
-8.67978
-8.37088
-8.37506
-8.41162
-8.16558
-8.3673
-7.97957
-8.26702
-7.78229
-8.09175
-7.58335
-7.91262
-7.2164
-7.70394
-6.76806
-7.34425
-6.31061
-6.6408
-5.86153
-5.86684
-5.09489
-4.92677
-3.99706
-3.71682
-2.5495
-2.08208
-0.670882
0.119707
1.7782
3.02622
4.97035
6.80536
9.11994
11.6371
14.5228
17.6947
21.5403
25.2224
30.4433
34.5127
41.6202
45.9647
55.4291
59.9323
72.4141
76.2272
93.9103
94.6105
119.199
117.296
145.739
145.658
172.675
11.9794
20.0264
17.1919
21.2068
20.5805
22.7303
22.7457
23.9658
24.1157
24.69
24.9021
25.0211
25.2642
25.0551
25.3178
24.8379
25.0225
24.3025
24.2762
23.2852
22.956
21.6606
20.8639
19.1897
17.7079
15.518
13.0981
10.2069
6.58331
2.77389
-2.24448
-7.07459
-13.4105
-19.0215
-25.9497
-31.2919
-37.0156
-40.0757
-42.4031
-41.3462
-39.0976
-33.6367
-27.5564
-20.0661
-13.3073
-6.25614
-0.150923
5.32642
10.0223
14.002
17.1128
19.5547
21.3822
23.1956
24.0914
25.1788
25.772
26.4683
26.5579
27.0669
26.8011
27.2001
26.6303
27.0794
26.3051
26.7394
25.8673
26.2782
25.436
25.6712
25.0064
25.0044
24.4373
24.2596
23.7392
23.399
22.9168
22.389
21.9315
21.1797
20.7135
19.6947
19.1949
17.8621
17.2446
15.6095
14.7306
12.8158
11.545
9.36046
7.63457
5.1959
2.9901
0.340011
-2.28425
-5.06274
-7.98171
-10.7127
-13.7296
-16.1783
-19.0281
-20.9178
-23.3248
-24.4048
-26.0762
-26.2182
-26.9239
-26.0971
-25.8497
-24.0859
-22.9973
-20.8508
-19.4055
-17.5235
-16.1658
-14.8942
-13.8024
-13.1276
-12.1472
-11.9635
-10.9378
-11.0638
-10.0986
-10.2737
-9.73829
-9.65476
-9.50157
-9.21109
-9.33423
-8.87209
-9.20257
-8.67038
-9.09417
-8.49023
-8.99767
-8.30294
-8.93231
-8.08996
-8.77699
-8.08657
-8.40924
-8.23476
-8.13278
-8.23478
-7.9499
-8.17788
-7.77412
-8.06426
-7.59414
-7.87811
-7.40433
-7.6764
-7.07035
-7.44096
-6.63762
-7.06686
-6.1871
-6.46216
-5.63347
-5.69652
-4.80064
-4.69606
-3.68354
-3.37471
-2.18
-1.66581
-0.208865
0.580341
2.31402
3.54428
5.5875
7.37178
9.83723
12.2394
15.3443
18.3698
22.443
25.9742
31.4923
35.3708
42.7483
46.8839
56.5246
60.7028
73.3079
76.5191
93.4356
93.7785
115.451
113.11
135.876
134.75
156.156
11.9251
20.0606
16.7041
21.1964
20.1164
22.6182
22.4472
23.8861
24.0432
24.7348
25.0628
25.2239
25.6182
25.4533
25.8254
25.4237
25.6812
25.0806
25.1523
24.3361
24.094
23.0284
22.3249
20.9328
19.5723
17.6963
15.421
12.8246
9.32639
5.69683
0.674871
-4.26455
-10.9235
-17.1587
-24.9594
-31.7173
-39.2892
-44.4284
-48.7159
-49.1394
-47.4986
-42.4253
-35.985
-27.3053
-19.2069
-10.8519
-3.53415
2.85214
8.36485
13.0079
16.6805
19.2751
21.2171
23.0088
24.1008
25.0087
25.5811
26.1943
26.2052
26.6849
26.426
26.8378
26.2677
26.7343
26.0389
26.5754
25.7415
26.262
25.4248
25.84
25.1427
25.2528
24.7436
24.6255
24.197
23.8866
23.509
23.0043
22.6542
21.932
21.5732
20.5997
20.1818
18.919
18.3613
16.8095
15.9974
14.1474
12.9665
10.8257
9.16351
6.7395
4.55008
1.84324
-0.845947
-3.76495
-6.86507
-9.84412
-13.1521
-15.9562
-19.1892
-21.4874
-24.2816
-25.7254
-27.6936
-27.9761
-28.8446
-27.872
-27.4947
-25.6278
-24.2924
-21.9731
-20.2005
-18.0797
-16.4625
-15.0356
-13.8266
-13.1799
-12.3368
-12.2056
-11.5805
-11.6261
-11.0935
-11.1003
-10.7657
-10.5725
-10.4702
-10.0644
-10.1407
-9.5954
-9.80331
-9.20662
-9.5527
-8.87757
-9.38073
-8.58531
-9.25314
-8.34958
-9.02795
-8.35118
-8.61925
-8.50347
-8.34256
-8.53325
-8.15623
-8.51758
-8.01116
-8.45708
-7.87538
-8.3314
-7.75803
-8.20757
-7.5325
-8.04263
-7.27329
-7.73762
-7.03983
-7.25143
-6.6881
-6.74661
-6.13832
-6.08401
-5.38304
-5.20654
-4.34947
-4.02538
-2.9759
-2.42211
-1.16298
-0.280902
1.25196
2.53494
4.45376
6.17319
8.67489
10.8135
14.2075
16.6836
21.3218
24.0448
30.3525
33.2497
41.6602
44.5432
55.7863
57.9413
73.4685
73.2597
92.7225
93.1472
113.576
114.056
134.132
13.9917
21.903
18.2733
22.3972
20.9679
23.2971
22.8562
24.1788
24.1968
24.8308
25.0996
25.2461
25.6317
25.4978
25.8862
25.5854
25.8861
25.4294
25.5579
24.9468
24.7999
24.0104
23.4511
22.4036
21.2548
19.7879
17.8027
15.6481
12.4968
9.25048
4.52982
-0.300927
-7.0237
-13.8711
-22.656
-31.0969
-40.515
-48.1409
-54.5954
-57.3468
-57.1983
-52.2603
-44.7443
-34.4966
-24.7875
-14.8701
-6.27167
1.29513
7.36671
12.9931
16.9501
20.4583
21.6967
24.2528
25.0706
25.9831
26.8707
27.2494
27.484
27.933
27.662
27.9554
27.4119
27.6387
26.9159
27.1976
26.4179
26.6784
25.9162
26.099
25.5279
25.4628
25.0724
24.8104
24.497
24.0996
23.842
23.2915
23.067
22.3438
22.1105
21.1922
20.8907
19.7554
19.2825
17.9248
17.1648
15.5563
14.3835
12.4962
10.8186
8.60713
6.37671
3.80976
1.02742
-1.85896
-5.11813
-8.18746
-11.7304
-14.762
-18.2969
-20.9767
-24.1508
-26.1204
-28.5168
-29.4515
-30.6569
-30.308
-30.21
-28.4447
-26.8933
-24.2346
-21.8711
-19.3675
-17.1222
-15.5431
-13.8401
-13.0683
-11.8675
-11.652
-10.6273
-10.8095
-9.79034
-9.96375
-9.5719
-9.45577
-9.46281
-9.0683
-9.35594
-8.77048
-9.27143
-8.5974
-9.1888
-8.45856
-9.09929
-8.30498
-9.00176
-8.17566
-8.80687
-8.21403
-8.44681
-8.37066
-8.16487
-8.40273
-7.98943
-8.38077
-7.84533
-8.32846
-7.70428
-8.1887
-7.59756
-8.07167
-7.4072
-7.91166
-7.1662
-7.6201
-6.93534
-7.14399
-6.59935
-6.6299
-6.05332
-5.95375
-5.30906
-5.07166
-4.29763
-3.91876
-2.95642
-2.38071
-1.19875
-0.336768
1.12074
2.33759
4.19672
5.78759
8.2593
10.199
13.5807
15.7525
20.4169
22.7464
29.0105
31.4393
39.7141
41.9469
52.9438
54.0177
68.5168
68.3465
84.8125
84.5456
101.926
101.936
119.001
14.434
22.2834
18.1613
22.8922
20.917
23.6481
22.9234
24.4296
24.3516
25.0671
25.335
25.513
25.9413
25.8197
26.2552
25.9969
26.343
25.9713
26.1501
25.6744
25.5814
24.9805
24.5022
23.699
22.687
21.5173
19.7491
17.9316
15.0785
12.1614
7.73185
3.11907
-3.4533
-10.3991
-19.5033
-29.263
-40.727
-51.3188
-61.2834
-67.3497
-69.7412
-65.771
-58.0142
-45.7694
-33.8203
-21.6658
-11.1212
-1.83783
5.3263
11.8905
16.8746
20.7546
22.0912
24.1327
25.2685
25.8369
26.5448
26.9424
26.9593
27.4289
27.0813
27.438
26.8798
27.2773
26.5876
27.0051
26.2398
26.6916
25.8681
26.2397
25.6861
25.6716
25.353
25.1285
24.8887
24.508
24.3281
23.7967
23.6407
22.9554
22.7823
21.9223
21.6682
20.6155
20.1947
18.9361
18.243
16.7533
15.6773
13.8984
12.3257
10.208
8.05802
5.52933
2.77721
-0.168221
-3.50341
-6.77083
-10.5268
-13.9096
-17.8044
-20.9345
-24.5835
-27.0057
-29.9151
-31.1208
-32.8029
-32.3608
-32.245
-30.2778
-28.5703
-25.5361
-22.7697
-19.6677
-17.0304
-15.0125
-13.3302
-12.548
-11.6933
-11.7701
-11.2108
-11.5119
-10.9463
-11.0842
-10.6945
-10.5539
-10.5013
-10.0491
-10.1452
-9.4613
-9.72946
-9.08423
-9.49978
-8.8136
-9.33639
-8.56569
-9.1975
-8.36256
-8.97583
-8.39517
-8.59726
-8.54895
-8.31463
-8.58928
-8.14279
-8.58575
-8.03001
-8.55922
-7.93924
-8.49612
-7.87045
-8.4341
-7.75374
-8.32716
-7.62136
-8.11891
-7.54988
-7.74798
-7.33558
-7.4264
-6.97322
-7.0025
-6.4643
-6.42759
-5.78241
-5.64132
-4.85965
-4.56482
-3.60936
-3.08804
-1.89659
-1.125
0.428616
1.45232
3.54651
4.82784
7.67045
9.12892
13.0844
14.6069
20.0311
21.5366
28.8788
30.2197
40.0902
40.7098
53.1427
54.1557
68.4848
69.8506
85.1018
86.1685
102.062
16.3045
24.366
19.5915
24.2561
21.8091
24.5079
23.3764
24.8854
24.5553
25.265
25.4203
25.575
25.9769
25.8535
26.3079
26.0945
26.4781
26.2007
26.4324
26.1237
26.1093
25.7535
25.3933
24.9164
24.1058
23.3566
21.9142
20.6206
18.2347
15.9451
12.0962
8.01886
1.79817
-5.2685
-14.9179
-25.6358
-39.0217
-52.9333
-67.0917
-77.8864
-84.4118
-83.4937
-75.2504
-59.7672
-44.5271
-29.5726
-16.6573
-5.55422
2.97609
10.3485
17.1142
21.6774
22.7537
25.6065
26.3114
27.3352
28.0609
28.5387
28.7408
29.0326
28.7562
28.8244
28.2015
28.3248
27.513
27.7373
26.8588
27.1437
26.2979
26.492
25.9584
25.8542
25.6112
25.267
25.1405
24.6807
24.6156
24.0497
24.0242
23.342
23.3072
22.5013
22.3817
21.4435
21.1357
20.0557
19.449
18.1751
17.1727
15.6176
14.0943
12.1729
10.0505
7.64525
4.84144
1.91136
-1.58135
-4.97201
-8.99713
-12.634
-16.9248
-20.4599
-24.6067
-27.6196
-31.1343
-33.1523
-35.4176
-35.87
-36.3478
-34.9332
-33.1366
-29.9323
-26.1954
-22.5241
-18.611
-16.2542
-13.5628
-12.39
-10.9493
-10.7066
-9.75477
-10.159
-9.13202
-9.47101
-9.16059
-9.24249
-9.38433
-8.94215
-9.41647
-8.66026
-9.3158
-8.51802
-9.26791
-8.42349
-9.15542
-8.29282
-9.03267
-8.20179
-8.85645
-8.261
-8.49224
-8.45566
-8.19351
-8.51463
-8.03979
-8.49481
-7.91974
-8.49816
-7.79849
-8.45003
-7.73592
-8.3813
-7.66115
-8.3245
-7.55179
-8.13393
-7.49511
-7.73328
-7.39244
-7.425
-7.08869
-7.0168
-6.66889
-6.48189
-6.06552
-5.80084
-5.24662
-4.88786
-4.14398
-3.63452
-2.65562
-1.94904
-0.618556
0.275854
2.13618
3.19457
5.92018
6.9176
10.7662
11.7712
16.9303
17.8969
24.6801
25.5615
34.1625
35.2755
45.4691
46.8216
58.5042
59.9437
73.0924
74.0423
88.2228
16.4335
25.329
20.0142
24.9808
22.2441
25.1753
23.7788
25.4645
24.9251
25.7286
25.7606
25.9751
26.3126
26.1802
26.6295
26.4323
26.8275
26.6154
26.8452
26.662
26.6471
26.4648
26.143
25.871
25.1629
24.6529
23.4114
22.4132
20.3696
18.467
15.1613
11.6575
6.21058
-0.192124
-9.36556
-20.6686
-35.5322
-52.6386
-71.0837
-87.4281
-100.145
-105.263
-98.8018
-81.6139
-61.2407
-41.1327
-24.5445
-9.91723
0.189374
8.42166
17.5936
20.6803
24.7009
25.169
26.646
26.8052
27.5319
27.8339
27.88
28.3581
27.9175
28.2963
27.5473
28.0069
27.1378
27.6017
26.7044
27.2113
26.2988
26.6419
26.1853
26.0491
25.9466
25.5611
25.5181
25.0374
25.0541
24.4726
24.5095
23.854
23.8647
23.1188
23.0383
22.1895
21.9349
20.9604
20.4505
19.3207
18.4204
17.0532
15.6609
13.918
11.9294
9.70158
7.01182
4.18535
0.734019
-2.69671
-6.83682
-10.7104
-15.2765
-19.2222
-23.8849
-27.3694
-31.5755
-34.0524
-37.174
-37.8877
-38.817
-37.1689
-35.411
-31.7948
-27.5733
-22.8993
-18.179
-14.9451
-12.413
-11.1962
-10.3344
-10.8601
-10.5746
-11.3377
-10.8465
-10.9618
-10.4221
-10.4095
-10.5744
-10.046
-10.1791
-9.22984
-9.47046
-8.85243
-9.41008
-8.75015
-9.32255
-8.526
-9.14413
-8.31939
-8.9583
-8.38993
-8.59575
-8.56671
-8.28931
-8.60821
-8.143
-8.59516
-8.03555
-8.62868
-7.94477
-8.63783
-7.91556
-8.58654
-7.89682
-8.58214
-7.84435
-8.48009
-7.88487
-8.12878
-7.86837
-7.93339
-7.68602
-7.69506
-7.41935
-7.33763
-7.04051
-6.89226
-6.50569
-6.30888
-5.72379
-5.47614
-4.63961
-4.32186
-3.1479
-2.7683
-1.08934
-0.729579
1.73521
2.09349
5.3607
5.75024
10.1637
10.4883
16.4567
16.8728
24.3598
25.1137
34.2362
35.3186
46.0561
47.3736
59.5957
60.6192
74.1664
18.3355
27.089
21.3335
26.2728
23.0402
26.0487
24.1989
25.9915
25.1302
25.9879
25.8663
26.0651
26.3864
26.228
26.6824
26.4689
26.8885
26.7126
26.9619
26.9037
26.9266
26.9326
26.6763
26.665
26.0979
25.9208
24.9463
24.3786
22.7672
21.4236
18.7239
15.9324
11.301
5.78247
-2.56359
-13.3432
-28.8992
-47.8539
-70.1791
-92.4773
-113.413
-127.867
-126.296
-105.921
-81.2702
-56.761
-35.6804
-18.3815
-4.60936
4.09602
14.4022
22.1323
25.1188
27.9812
28.5516
28.3505
29.57
29.8044
30.0601
30.3935
29.8379
30.0058
28.8969
29.0854
28.0053
28.2929
27.1705
27.5882
26.5596
26.8061
26.3017
26.1412
26.0628
25.6434
25.6509
25.1325
25.2133
24.6394
24.7604
24.1272
24.2506
23.5547
23.6053
22.8643
22.7008
21.9156
21.4495
20.5721
19.7547
18.6313
17.3441
15.8493
13.9808
11.9494
9.31204
6.56536
3.03417
-0.490095
-4.87989
-9.06074
-14.1561
-18.545
-23.8668
-28.0435
-33.0284
-36.4507
-40.4469
-42.2796
-44.2578
-43.8249
-42.4401
-39.2448
-34.0633
-28.4104
-21.5584
-17.2658
-12.9086
-10.6108
-8.69331
-8.43622
-7.96449
-8.97541
-8.29878
-8.7946
-8.45537
-8.66093
-9.39653
-8.90936
-9.74981
-8.59836
-9.40796
-8.20601
-9.38328
-8.35045
-9.20946
-8.28138
-9.06607
-8.13773
-8.89352
-8.23622
-8.5419
-8.48421
-8.23326
-8.56202
-8.0774
-8.56918
-7.93451
-8.5958
-7.83981
-8.61332
-7.82693
-8.57776
-7.82903
-8.61979
-7.81607
-8.56292
-7.88135
-8.21551
-7.94323
-8.02897
-7.84917
-7.80928
-7.69948
-7.52116
-7.39648
-7.19104
-6.98609
-6.77851
-6.42035
-6.15141
-5.58026
-5.264
-4.39195
-4.04541
-2.74644
-2.43444
-0.307595
-0.138331
2.83359
2.89295
6.88608
6.73689
12.0486
11.9624
18.4489
18.7485
26.6252
27.0466
36.4199
36.9254
47.92
48.398
61.132
18.4201
28.4217
21.8136
27.2877
23.7407
26.8523
24.9075
26.6129
25.7088
26.4917
26.2709
26.467
26.6806
26.5091
26.964
26.7239
27.134
27.0298
27.1882
27.2629
27.2
27.3769
27.096
27.2342
26.7294
26.6929
25.8693
25.4906
24.1798
23.1749
21.0261
18.8389
15.1036
10.5532
3.45213
-6.19617
-20.5727
-39.7489
-63.2115
-89.3437
-117.092
-142.945
-155.133
-138.464
-107.364
-73.3393
-46.7333
-23.7159
-8.97412
2.2527
11.7368
20.6152
26.0878
26.4601
29.3726
27.7944
28.0598
28.1996
28.4544
29.3178
28.9205
29.4457
28.3603
28.7927
27.7863
28.2457
27.1798
27.6244
26.7459
26.9741
26.5542
26.358
26.3816
25.9032
26.0214
25.4347
25.6168
24.9575
25.2209
24.4517
24.7692
23.9462
24.1807
23.374
23.3734
22.6194
22.2864
21.5328
20.8439
19.9165
18.7881
17.4851
15.7974
14.0059
11.5871
9.05829
5.71324
2.27319
-2.07184
-6.31935
-11.4426
-16.1607
-21.7952
-26.3052
-31.9418
-35.8778
-41.055
-43.5534
-46.6862
-46.8152
-45.9379
-42.9892
-37.3317
-30.5333
-21.0088
-14.9165
-11.2815
-8.81042
-7.67853
-9.06095
-8.8828
-11.6487
-11.0743
-10.7924
-10.0216
-9.41418
-10.61
-10.4436
-10.2893
-9.08203
-8.93468
-8.50056
-9.19274
-8.90075
-9.41066
-8.47426
-9.11716
-8.20388
-8.97241
-8.35449
-8.62401
-8.59214
-8.26823
-8.64604
-8.08207
-8.66984
-7.96333
-8.70961
-7.89797
-8.73878
-7.90416
-8.75015
-7.93063
-8.78374
-7.96946
-8.78707
-8.09528
-8.47618
-8.25639
-8.31543
-8.27408
-8.21335
-8.22944
-7.99851
-8.09973
-7.79114
-7.87921
-7.637
-7.51389
-7.31029
-6.99739
-6.79006
-6.21974
-6.06248
-5.09815
-5.07908
-3.37359
-3.59475
-1.16589
-1.54717
1.78096
1.10766
5.52038
5.10558
10.3165
10.6104
17.0574
17.8317
25.5479
26.4238
35.7515
36.6781
48.4798
20.1031
29.9981
23.0357
28.3854
24.4588
27.6001
25.3209
27.0968
25.9568
26.7466
26.4693
26.5534
26.8317
26.5511
27.0066
26.6989
27.1249
27.0007
27.1387
27.2881
27.227
27.5051
27.2445
27.5475
27.1084
27.31
26.6634
26.5766
25.5653
24.9496
23.2708
21.6542
18.6914
15.0882
9.36639
1.321
-10.8945
-28.2274
-50.611
-77.7671
-108.077
-140.01
-160.596
-156.779
-128.673
-96.5925
-63.9833
-34.6397
-19.3252
-6.03887
7.12297
17.1992
27.1971
27.3355
30.9224
30.4407
30.6075
30.9943
30.9155
31.45
30.8531
30.9117
29.7573
29.6087
28.425
28.7777
27.4793
27.8952
26.8537
27.0848
26.5798
26.3789
26.4446
25.9279
26.1002
25.4658
25.7599
25.0171
25.4226
24.5989
25.102
24.1993
24.696
23.8486
24.0227
23.3223
23.1138
22.5044
21.9425
21.2474
20.2857
19.2677
17.7707
16.2429
13.9967
11.674
8.44143
5.12062
0.68993
-3.6789
-9.43745
-14.3623
-20.9637
-26.1545
-32.6456
-37.3947
-43.5808
-47.1633
-51.7996
-53.7068
-54.0115
-52.9252
-47.9066
-41.1269
-29.2939
-19.563
-12.0604
-7.63766
-3.917
-3.75238
-3.94742
-6.22066
-8.47435
-8.88312
-8.26484
-7.13133
-8.77715
-9.1515
-11.1604
-9.14173
-9.46862
-7.42892
-9.01305
-8.11122
-9.55725
-8.36248
-9.16097
-8.03732
-8.82077
-8.17932
-8.57766
-8.51718
-8.30118
-8.57356
-8.08695
-8.60617
-7.92801
-8.63202
-7.86228
-8.64151
-7.86634
-8.6898
-7.90559
-8.79664
-7.95384
-8.86719
-8.14523
-8.54672
-8.27451
-8.42892
-8.38316
-8.34395
-8.43353
-8.18261
-8.33812
-8.02152
-8.26321
-7.98826
-8.11467
-7.86068
-7.74353
-7.54341
-7.2807
-7.04291
-6.62416
-6.59768
-5.14826
-5.45121
-3.46328
-3.94487
-1.00766
-2.26654
1.66965
0.741305
5.03738
4.51986
10.3048
9.59224
16.8675
15.9273
24.8071
23.8474
35.7931
20.1156
31.42
23.7758
29.4698
25.3995
28.3897
26.2901
27.5871
26.8327
27.0582
27.1505
26.7901
27.3096
26.7268
27.4093
26.8495
27.3333
27.288
27.2533
27.5527
27.3023
27.7882
27.4301
27.8266
27.4408
27.6472
27.1077
27.0659
26.2534
25.8076
24.5233
23.2907
21.0073
18.1579
13.6828
7.31145
-2.32708
-16.295
-35.2922
-58.4479
-85.2586
-115.371
-141.31
-151.051
-129.418
-100.369
-70.1728
-40.3431
-21.7078
-11.4831
3.09996
13.2376
23.4413
27.8514
26.2338
28.8134
27.7159
28.449
28.464
30.0395
29.9479
30.4904
29.3484
29.7605
28.2203
28.7783
27.6533
28.0381
27.0266
27.2156
26.8312
26.5774
26.7004
26.1253
26.4698
25.6774
26.1448
25.1793
25.7611
24.7915
25.4158
24.4658
25.0522
24.1716
24.5058
23.8007
23.7225
23.2151
22.7442
22.236
21.397
20.5812
19.2815
18.0423
16.0733
14.0616
11.0783
7.95974
3.71857
-0.557321
-6.10984
-11.3561
-17.8293
-23.1135
-29.9019
-34.8649
-42.1839
-46.205
-51.8604
-54.976
-56.2898
-56.885
-53.2362
-46.1799
-29.9806
-17.0848
-11.3983
-6.63144
-4.27708
-5.98667
-6.11537
-10.6465
-11.5688
-11.7486
-9.27271
-7.81069
-9.30375
-11.04
-11.2054
-9.60751
-8.2813
-7.74744
-8.72164
-9.21787
-9.66371
-8.55761
-9.0527
-8.10807
-8.89648
-8.33313
-8.64429
-8.60449
-8.27177
-8.65894
-8.01597
-8.71093
-7.90871
-8.74345
-7.85804
-8.74997
-7.8627
-8.77841
-7.91835
-8.84966
-8.02048
-8.89346
-8.22065
-8.67626
-8.47508
-8.47959
-8.66908
-8.47407
-8.76859
-8.39825
-8.65421
-8.28897
-8.61274
-8.37076
-8.68876
-8.45001
-8.50886
-8.37499
-8.1161
-8.12119
-7.87728
-7.97638
-6.95777
-7.46882
-6.01673
-6.57834
-4.01728
-5.98244
-2.85458
-3.94685
-1.06445
-1.73153
2.67359
3.10435
7.35278
8.36762
13.4091
13.7784
22.9398
21.5741
32.4216
24.6077
30.102