/*--------------------------------*- C++ -*----------------------------------*\
| =========                 |                                                 |
| \\      /  F ield         | OpenFOAM: The Open Source CFD Toolbox           |
|  \\    /   O peration     | Version:  4.1                                   |
|   \\  /    A nd           | Web:      www.OpenFOAM.org                      |
|    \\/     M anipulation  |                                                 |
\*---------------------------------------------------------------------------*/
FoamFile
{
    version     2.0;
    format      ascii;
    class       volScalarField;
    location    "423";
    object      p;
}
// * * * * * * * * * * * * * * * * * * * * * * * * * * * * * * * * * * * * * //

dimensions      [0 2 -2 0 0 0 0];

internalField   nonuniform List<scalar> 
204246
(
127.499
-3.96562
40.1769
23.3009
18.8014
25.8295
14.1061
25.6268
12.5632
25.4607
11.8484
26.1076
10.3171
26.4538
11.6464
23.8753
18.1383
12.7058
24.9649
10.3169
26.2978
10.7717
25.0224
11.6148
24.9763
11.4942
25.9176
9.7815
26.87
9.54598
26.886
9.99741
25.9751
12.4987
22.1268
18.6787
11.8932
24.3333
10.5596
23.9687
10.8929
24.0452
10.5662
24.9417
8.75905
25.7995
8.60932
25.5311
9.79924
23.3237
12.0766
20.7526
17.8925
10.7341
23.3876
9.43904
22.9467
9.7671
22.9477
9.37264
23.7053
7.41581
24.3006
7.06746
23.5103
8.17415
20.5811
9.55304
17.7307
13.7915
7.70757
16.3044
5.89067
14.827
4.10612
12.7104
1.0332
10.2808
-3.81667
6.61534
-8.08207
1.22209
-12.3996
-6.56348
-17.4593
-15.113
-20.3646
-29.3061
-27.3305
-37.3997
-32.3074
-45.4282
-35.5484
-52.7028
-36.2187
-52.9174
-36.0561
-48.4045
-33.3384
-41.5108
-28.4018
-31.8649
-20.4945
-22.1676
-12.1951
-11.3378
-11.1447
-1.05296
-6.94956
7.44075
-4.44077
11.5871
-1.35255
13.9435
-0.130754
15.0054
0.267742
15.1824
0.272351
14.1724
0.888199
10.7132
5.05604
-0.979448
8.7268
-5.24333
7.2274
-7.64409
4.0617
-10.7487
0.78912
-14.1989
-2.48346
-17.7132
-5.59378
-20.4054
-8.80323
-21.6447
-13.0293
-18.1563
-24.815
-13.4171
-27.6755
-12.5418
-28.2242
-11.9864
-28.1013
-11.3377
-27.4722
-10.52
-26.4812
-9.6069
-24.9861
-8.93688
-22.043
-10.1474
-14.5552
-18.5161
-6.38471
-18.8234
-2.72857
-16.5481
-0.233949
-12.6964
2.64552
-7.95736
6.64639
-2.13206
11.8358
4.91902
18.1985
13.9534
26.2342
25.5444
35.7687
42.3464
44.5652
58.4597
62.9803
76.3216
86.0492
99.4512
113.77
128.699
148.618
166.472
194.738
217.422
261.297
290.264
377.979
393.912
600.948
44.7601
24.2299
21.6408
25.9365
18.8172
22.8718
17.4443
21.5588
16.5729
21.0504
16.0781
21.0502
16.0268
20.1297
17.4856
18.0403
20.7068
15.2566
20.6923
15.5515
20.4776
16.1852
20.1974
16.1353
20.4708
15.8521
21.0276
15.4964
20.9095
15.6442
20.5825
16.1737
19.563
17.6845
17.5575
20.5136
15.0706
19.9845
15.5008
19.526
15.3478
19.6614
14.9606
20.0912
14.5442
19.8221
14.767
19.2395
15.5926
18.1377
16.6835
16.3206
19.5127
13.9888
18.9892
14.4703
18.5215
14.3156
18.6215
13.8846
18.9526
13.3569
18.4751
13.3658
17.5557
13.6801
16.3336
14.0638
14.0549
16.0769
11.2918
13.8888
9.85176
12.7769
7.97889
11.1807
5.39919
8.83343
2.11876
4.89821
-1.48134
-0.246436
-5.36667
-7.05676
-10.5305
-15.3171
-15.264
-24.1153
-25.0712
-32.1844
-33.9332
-39.7138
-39.2031
-45.2279
-43.2058
-46.8821
-43.3112
-45.6871
-39.8183
-41.1106
-35.7528
-32.1636
-28.0564
-22.8766
-20.0397
-12.8634
-13.6501
-5.3439
-6.06147
1.53492
-1.03125
5.08006
2.34954
7.57868
4.61824
9.17253
5.52075
9.6682
5.87583
8.81942
6.38545
6.18395
8.18126
2.51001
5.83816
0.531906
3.34767
-2.05727
0.884897
-5.10581
-2.20616
-8.38813
-5.65211
-11.6592
-9.32351
-14.4277
-13.0327
-15.8993
-17.3238
-15.1963
-21.6814
-17.3103
-22.6974
-18.0168
-23.0305
-17.963
-22.8626
-17.5233
-22.2865
-16.8504
-21.3615
-16.1136
-19.9273
-15.6862
-17.3993
-16.2309
-13.2299
-17.223
-11.4528
-15.279
-9.43555
-12.7428
-6.96083
-9.90244
-3.91003
-6.32231
-0.0792213
-1.7095
4.74344
4.20051
10.2176
12.0154
17.2394
21.8335
25.4695
34.262
37.9492
47.061
53.6124
63.1676
72.8373
83.3262
96.3483
107.956
125.115
137.959
161.141
174.599
209.826
216.488
291.2
256.641
391.321
18.4439
29.9321
23.6033
25.7481
20.6857
22.9068
18.2295
21.6623
16.9161
21.1444
16.4158
20.8361
16.3799
20.155
17.2992
18.6578
19.1621
16.7102
19.9862
16.0695
20.3503
16.0934
20.3532
16.0984
20.4753
15.967
20.7252
15.749
20.7704
15.8014
20.5516
16.244
19.7688
17.3381
18.0913
18.9044
16.3263
19.4224
15.7145
19.5358
15.3993
19.6134
15.0921
19.7528
14.7854
19.6513
14.8502
19.2571
15.3769
18.3857
16.3499
16.9044
17.937
15.1862
18.3898
14.6339
18.4868
14.3316
18.5356
13.9961
18.5922
13.5924
18.3238
13.4848
17.6211
13.6575
16.2775
14.0255
14.3318
14.5497
12.1059
13.8749
10.4991
12.4171
8.73473
10.5376
6.40305
7.93086
3.52244
4.10744
-0.016067
-0.836116
-4.36639
-7.06897
-9.92335
-14.4692
-16.718
-22.4125
-24.5927
-30.6613
-32.8757
-38.4403
-40.2169
-44.5559
-44.1887
-47.2673
-44.6
-46.5472
-42.194
-41.3073
-36.9089
-33.4347
-28.6361
-23.8653
-19.8336
-14.168
-12.1906
-6.0969
-5.59245
0.429871
0.0932553
4.55773
3.51279
7.52357
5.23603
9.39254
5.92467
10.0162
6.32686
9.31193
6.73456
7.07857
7.01655
3.98451
5.90887
1.40379
3.87698
-1.10597
0.940984
-3.98926
-2.38328
-7.19361
-5.94341
-10.5212
-9.53884
-13.4764
-13.1799
-15.3246
-16.9228
-16.5525
-20.437
-17.6233
-22.0965
-17.9931
-22.7848
-17.877
-22.7662
-17.4146
-22.2285
-16.7417
-21.2982
-16.0332
-19.8497
-15.5558
-17.5602
-15.7425
-14.3477
-15.9033
-11.876
-14.7787
-9.35128
-12.7052
-6.97649
-9.56857
-4.23513
-5.5876
-0.627945
-0.739678
4.10181
5.27965
10.2002
12.7714
17.7523
22.3191
27.4015
33.9601
38.9676
48.0098
54.6044
64.8726
74.5238
85.8109
99.3386
111.891
130.449
144.35
169.988
184.692
224.375
232.311
308.465
287.195
375.975
5.93914
19.4761
15.9224
21.644
17.4312
21.0771
17.5811
20.1823
17.452
19.4482
17.5214
19.0168
17.852
18.3023
18.6794
17.3979
19.6058
17.0479
19.1678
17.3396
18.872
17.6401
18.8131
17.6195
18.9457
17.5243
19.0856
17.5242
18.9214
17.6824
18.6115
18.0674
18.0234
18.7383
17.3069
19.2706
16.8833
18.6786
17.0084
18.311
16.8862
18.2213
16.6965
18.1968
16.6308
17.8997
16.7735
17.4558
17.1749
16.8808
17.7135
16.1068
18.3233
15.8686
17.6897
16.0286
17.3367
15.9086
17.2326
15.7068
17.1427
15.5731
16.6925
15.553
16.0811
15.6076
15.2809
15.5378
14.2389
15.5283
13.353
13.964
12.31
12.592
10.8807
11.0292
8.91869
8.81628
6.32594
5.59315
3.02754
1.22312
-1.2054
-4.36499
-6.719
-11.3522
-13.3294
-19.5719
-22.0134
-28.0614
-31.1801
-36.2817
-39.3966
-43.226
-46.0017
-47.2813
-47.9427
-47.9474
-46.2986
-44.4499
-41.2678
-37.1961
-33.2608
-27.5103
-24.1097
-17.2467
-15.2412
-8.67914
-7.09035
-2.40016
-0.544402
2.47438
3.62784
5.56838
6.16876
7.50152
7.47058
8.14921
8.00351
7.77132
8.24151
6.45598
8.03294
5.184
5.95494
3.54831
3.34278
1.24449
0.600014
-1.57454
-2.61652
-4.80891
-6.21374
-8.25998
-10.0046
-11.6155
-13.6889
-14.3036
-17.0774
-16.333
-19.7288
-19.1166
-21.0146
-20.1383
-21.6208
-20.2765
-21.5976
-19.9286
-21.0353
-19.3542
-20.1338
-18.7173
-18.8326
-18.1801
-17.0373
-17.7284
-15.3007
-16.6085
-14.1435
-14.9278
-12.6521
-12.868
-10.5925
-10.4946
-8.06331
-7.51777
-4.7935
-3.78017
-0.640648
0.972183
4.38491
7.24012
10.7246
15.0304
18.6154
24.8683
29.0085
35.9822
42.0938
49.462
58.1155
65.973
77.5453
85.8804
101.075
109.878
130.423
137.555
170.576
165.465
222.953
209.817
280.914
6.48235
20.8721
15.7682
20.9349
18.0068
20.5636
18.2224
19.94
18.0211
19.4043
17.8788
18.9651
18.0581
18.4321
18.4597
17.8936
18.8468
17.7593
18.688
17.7316
18.6996
17.7226
18.8056
17.6532
18.9061
17.612
18.9486
17.6725
18.838
17.7959
18.5918
18.0602
18.155
18.4179
17.5887
18.5999
17.44
18.2825
17.2633
18.1911
17.006
18.1264
16.807
18.0162
16.7603
17.7588
16.8388
17.4472
17.0304
17.027
17.3794
16.53
17.5336
16.3626
17.2438
16.2107
17.1738
15.9771
17.0963
15.7742
16.9426
15.6392
16.618
15.575
16.0555
15.5559
15.2596
15.3747
14.3385
14.861
13.594
14.0498
12.5856
12.6499
11.1426
11.0579
9.26909
8.93701
6.91268
5.88898
3.75363
1.89592
-0.414843
-3.26418
-5.7047
-9.8288
-12.4137
-17.3637
-20.6356
-26.0399
-29.7187
-35.1062
-38.6124
-43.0493
-45.8383
-48.4653
-49.4582
-49.9068
-48.747
-46.843
-43.7161
-39.5832
-35.0819
-29.3744
-24.9087
-18.6503
-15.0692
-9.40568
-6.70753
-2.0976
-0.387116
2.90138
4.04098
6.08969
6.70627
7.95811
8.149
8.73918
8.74319
8.55629
8.76107
7.63451
8.07991
6.45864
6.5416
4.68538
4.31278
2.29582
1.55647
-0.570565
-1.65307
-3.81425
-5.27328
-7.29766
-9.1022
-10.7787
-12.8774
-13.9468
-16.1932
-16.674
-18.7945
-18.9814
-20.3355
-19.9963
-21.2727
-20.1597
-21.422
-19.8586
-20.8871
-19.2369
-20.0151
-18.6376
-18.6906
-18.0382
-17.1828
-17.0689
-15.4912
-15.9298
-14.161
-14.3263
-12.4277
-12.4158
-10.3214
-9.95421
-7.63763
-6.92621
-4.24628
-3.11544
-0.00186175
1.80455
5.2729
8.05954
11.9362
15.9926
20.303
25.7761
30.9907
37.7582
44.618
52.396
61.6623
70.3269
82.7566
92.1518
108.577
118.249
140.723
148.513
182.845
179.793
229.078
217.714
262.812
4.01585
14.8808
12.1382
17.0997
15.5691
18.1868
16.9453
18.4512
17.4908
18.3218
17.8337
18.1013
18.2329
17.8036
18.6311
17.5713
18.8478
17.7823
18.4813
18.0407
18.3101
18.1887
18.3077
18.2007
18.3517
18.2112
18.3365
18.2964
18.2051
18.409
18.0171
18.5813
17.7692
18.825
17.4861
18.7153
17.539
18.2191
17.6803
17.8414
17.5663
17.6808
17.4589
17.5082
17.4621
17.3065
17.441
16.9982
17.5742
16.7
17.7737
16.4788
17.7487
16.6685
17.1862
16.7109
16.9046
16.6096
16.7221
16.5305
16.534
16.4879
16.2329
16.3895
15.8738
16.2478
15.4915
16.0205
14.9201
15.5281
14.2992
14.6527
13.5659
13.6309
12.4429
12.3193
10.955
10.4699
8.93734
7.88019
6.12234
4.27898
2.30311
-0.620156
-2.83433
-6.95203
-9.60154
-14.7612
-18.0613
-23.7426
-27.7137
-33.3578
-37.6499
-42.5618
-46.4477
-49.7684
-51.9804
-53.1389
-52.8828
-51.3877
-48.7661
-44.5514
-40.3012
-34.0159
-29.4455
-22.348
-18.3631
-11.8459
-8.73555
-3.79146
-1.31435
1.85631
3.69538
5.52993
6.74392
7.681
8.34686
8.59634
9.09726
8.61497
9.149
8.047
8.46606
6.99506
7.03237
5.39324
5.01459
3.21127
2.42552
0.461212
-0.753655
-2.8
-4.4503
-6.44916
-8.49084
-10.2244
-12.5903
-13.79
-16.3442
-16.9372
-19.2747
-19.8584
-20.9831
-21.3692
-21.7905
-21.6931
-21.7752
-21.3946
-21.1541
-20.6966
-20.2302
-19.9722
-19.1144
-19.1926
-17.9655
-18.3664
-16.8556
-17.0899
-15.8105
-15.7863
-14.5286
-14.2019
-12.8804
-12.3358
-10.7671
-10.0085
-8.10094
-7.0229
-4.76847
-3.14256
-0.595749
1.82766
4.65179
8.09714
11.3448
15.8418
19.9849
25.1496
30.8462
36.4618
44.3014
50.2771
60.7409
67.0251
80.7923
86.8068
105.598
108.862
139.271
132.826
174.005
171.501
212.091
6.77289
17.0969
13.074
17.2806
16.0366
17.9619
17.189
18.3231
17.7055
18.2722
17.9651
18.1345
18.2045
17.9622
18.4593
17.7991
18.4934
18.0502
18.2455
18.2124
18.1936
18.2551
18.2641
18.2299
18.3254
18.2452
18.3153
18.335
18.2198
18.431
18.0566
18.5155
17.8315
18.5711
17.7156
18.4324
17.8265
18.0108
17.7771
17.7941
17.6283
17.6331
17.5045
17.4557
17.4384
17.2407
17.4557
17.0046
17.5195
16.7815
17.526
16.6228
17.3217
16.7716
17.0382
16.7433
16.8395
16.6388
16.6127
16.5058
16.4274
16.4267
16.1766
16.3299
15.8306
16.1026
15.389
15.816
14.9015
15.3438
14.4138
14.6254
13.6554
13.6691
12.6335
12.4081
11.281
10.7399
9.44832
8.43321
6.94554
5.22662
3.50106
0.906786
-1.1958
-4.78915
-7.51867
-12.027
-15.7063
-20.9657
-25.5005
-31.1889
-36.1383
-41.587
-46.158
-50.471
-53.4355
-55.5594
-56.0622
-55.2117
-52.8854
-48.6697
-43.8754
-37.1744
-31.4694
-24.2936
-19.1386
-12.7774
-8.66894
-3.86822
-0.959926
2.30942
4.21461
6.18149
7.41333
8.40033
9.19477
9.46987
9.98703
9.63202
10.072
9.19535
9.48164
8.24563
8.21266
6.71086
6.28553
4.56815
3.7396
1.85807
0.606704
-1.37607
-3.07526
-5.05916
-7.15591
-8.98521
-11.3625
-12.8778
-15.2296
-16.4326
-18.3311
-19.3379
-20.4503
-21.0457
-21.5212
-21.5703
-21.683
-21.3099
-21.1498
-20.6519
-20.2139
-19.774
-19.1631
-18.8767
-17.9215
-17.8383
-16.5937
-16.6599
-15.3404
-15.2203
-13.8793
-13.6063
-12.119
-11.6487
-9.93235
-9.2416
-7.1887
-6.18371
-3.79339
-2.21278
0.500837
2.85732
5.98481
9.25317
12.9837
17.2081
21.9581
27.0006
33.3399
39.0239
47.4628
53.6881
64.7646
71.3013
85.7212
91.8702
111.476
113.704
141.648
138.3
169.51
165.672
194.472
5.00767
14.454
11.2582
14.9931
14.3771
16.2134
15.9494
17.0617
16.937
17.4362
17.5334
17.5602
17.971
17.579
18.2983
17.69
18.3912
18.0104
18.1638
18.2511
18.1122
18.3702
18.1348
18.4077
18.1605
18.4621
18.1172
18.5511
18.0211
18.6306
17.9258
18.7086
17.775
18.7653
17.6724
18.4825
17.8712
18.0363
17.9595
17.7384
17.8935
17.5121
17.7877
17.3852
17.7164
17.1608
17.6899
16.9518
17.6859
16.7759
17.7195
16.7451
17.5287
16.9416
17.1484
16.9577
16.9444
16.934
16.7184
16.8981
16.4741
16.8482
16.2842
16.7351
16.0985
16.5826
15.8204
16.31
15.4262
15.8902
15.0268
15.2745
14.4906
14.5362
13.7278
13.5612
12.6689
12.1992
11.182
10.2274
9.02042
7.38029
5.86338
3.34461
1.35391
-2.16581
-4.90095
-9.41093
-13.0729
-18.4821
-23.1246
-29.1814
-34.5721
-40.7123
-46.1782
-51.5465
-55.8643
-59.111
-60.8037
-60.531
-58.9138
-55.0292
-50.565
-43.7161
-37.5218
-29.269
-23.0987
-15.5942
-10.69
-5.05878
-1.67687
1.94378
4.13247
6.13128
7.57817
8.46886
9.39411
9.5586
10.2039
9.75191
10.2957
9.38062
9.76985
8.57643
8.60631
7.23866
6.87247
5.32801
4.50086
2.76981
1.45746
-0.430511
-2.24774
-4.24519
-6.50995
-8.47256
-11.0728
-12.8377
-15.4948
-16.8999
-19.2781
-20.337
-21.7958
-22.3863
-23.0121
-23.0275
-22.9243
-22.6187
-22.0744
-21.7424
-20.9853
-20.796
-19.8888
-19.9543
-18.8548
-19.07
-17.8957
-17.9578
-17.0047
-16.917
-15.9354
-15.714
-14.6235
-14.2659
-12.9747
-12.4407
-10.9152
-10.0642
-8.32304
-7.01182
-5.01739
-3.12138
-0.776571
1.79529
4.69458
7.91461
11.7635
15.4908
20.7075
24.8184
31.9105
36.2944
45.7373
50.2821
62.7283
66.5919
84.2508
84.958
109.549
107.641
136.088
136.002
163.018
7.90332
16.2547
12.5404
16.0622
15.0074
16.5531
16.3233
17.0724
17.0754
17.4041
17.5689
17.5489
17.9307
17.5927
18.1526
17.732
18.2245
18.0571
18.0773
18.2599
18.0635
18.3809
18.1184
18.4148
18.1488
18.478
18.1161
18.5541
18.0414
18.614
17.9287
18.6601
17.8044
18.6624
17.8316
18.3584
18
17.9327
17.9677
17.7463
17.8625
17.5567
17.7538
17.3604
17.7182
17.1422
17.6909
16.9462
17.6545
16.7639
17.5132
16.7457
17.2498
16.9545
17.0143
16.9063
16.8248
16.8535
16.6063
16.7982
16.3741
16.7321
16.1451
16.6119
15.9561
16.4098
15.685
16.1821
15.3812
15.7767
15.0287
15.2167
14.5298
14.5197
13.844
13.6262
12.9302
12.4361
11.6674
10.7789
9.86252
8.42792
7.24373
5.10437
3.4247
0.418936
-2.0986
-6.10936
-9.81905
-14.92
-19.9204
-25.9971
-32.0775
-38.7159
-45.207
-51.5276
-57.1288
-61.6632
-64.7869
-65.9644
-65.3695
-61.9606
-57.1809
-49.6419
-42.0481
-33.1162
-25.6658
-17.498
-11.5629
-5.59716
-1.5027
2.31031
4.81747
6.88702
8.50709
9.481
10.4661
10.6652
11.4017
10.9767
11.5451
10.7723
11.0286
10.0768
10.0262
8.79882
8.35391
6.96312
6.06442
4.46725
3.11435
1.34022
-0.514232
-2.46813
-4.77561
-6.79939
-9.43784
-11.4397
-14.0619
-15.9333
-18.1133
-19.6972
-21.1498
-22.1246
-22.778
-23.0876
-23.0274
-22.7529
-22.3746
-21.8368
-21.196
-20.7917
-19.9906
-19.7831
-18.7581
-18.6654
-17.5078
-17.4483
-16.3066
-16.206
-15.113
-14.9038
-13.7656
-13.399
-12.1278
-11.5831
-10.0932
-9.2663
-7.53112
-6.26623
-4.22977
-2.41485
0.0496469
2.48056
5.58538
8.63591
12.7088
16.2678
21.7857
25.695
33.0602
37.2275
46.8419
51.0696
63.623
66.8853
83.7809
84.1316
105.805
103.461
126.228
125.095
146.506
6.86425
15.1534
11.19
15.019
13.8633
15.4797
15.442
16.1717
16.3919
16.7389
17.1083
17.1036
17.6103
17.3725
17.9409
17.6151
18.1257
17.9784
18.0352
18.2354
18.0431
18.3929
18.0865
18.4836
18.0985
18.5657
18.0772
18.6402
18.0235
18.7072
17.937
18.7542
17.8333
18.6953
17.8587
18.4004
18.0415
18.0152
18.0761
17.7907
17.9907
17.5801
17.8925
17.384
17.8186
17.1914
17.7757
17.0229
17.7395
16.924
17.6371
16.9596
17.4265
17.0496
17.2232
17.1358
16.9988
17.1298
16.7939
17.0876
16.606
17.0179
16.4596
16.9259
16.2913
16.7905
16.0734
16.5882
15.8048
16.2667
15.5577
15.7723
15.2583
15.2308
14.7601
14.578
14.0914
13.6726
13.1138
12.3203
11.5896
10.2525
9.19641
7.16378
5.56867
2.6843
0.230987
-3.58965
-7.13399
-12.1244
-17.0434
-23.285
-29.5712
-36.7157
-43.908
-51.431
-58.4928
-64.774
-69.6578
-72.2542
-72.5491
-69.8305
-65.3534
-58.1237
-50.122
-39.708
-30.8027
-21.1387
-13.5912
-6.53775
-1.71789
2.54776
5.32047
7.33548
8.95464
9.84008
10.7537
10.8336
11.5405
11.0413
11.5417
10.8537
11.0629
10.1453
10.2716
9.1322
8.79811
7.57418
6.75963
5.29713
3.97299
2.30608
0.4273
-1.53908
-3.93911
-6.09932
-8.93268
-11.211
-14.1846
-16.3398
-19.1191
-20.8369
-22.8496
-23.8268
-24.7974
-24.8661
-24.8134
-24.2219
-23.4692
-22.8363
-21.9225
-21.5904
-20.6025
-20.6505
-19.6181
-19.7653
-18.737
-18.7731
-17.9016
-17.8856
-17.0623
-16.9274
-16.0629
-15.8018
-14.8069
-14.3917
-13.2307
-12.5986
-11.2514
-10.3069
-8.71859
-7.38347
-5.42769
-3.66313
-1.14024
1.03595
4.43829
6.95261
11.5907
14.3587
20.643
23.5896
31.9615
34.9074
46.1024
48.281
63.8094
63.6038
83.076
83.5021
103.924
104.409
124.468
9.15301
17.0096
12.5979
16.2316
14.7197
16.1604
15.8625
16.4204
16.6222
16.7207
17.1431
17.0251
17.5513
17.2669
17.856
17.5146
18.0281
17.9218
17.9749
18.2064
17.9758
18.3845
18.0451
18.4861
18.0741
18.569
18.0607
18.645
18.0134
18.7035
17.9386
18.7443
17.8764
18.6754
17.9282
18.3695
18.0893
17.9844
18.0969
17.7715
18.0135
17.5806
17.9231
17.3818
17.8529
17.1785
17.7833
16.99
17.6886
16.871
17.5179
16.8755
17.2716
16.9856
16.9748
17.0642
16.791
17.0118
16.5984
16.9681
16.406
16.9042
16.2485
16.8013
16.1287
16.6798
15.9312
16.5165
15.76
16.1371
15.6422
15.5837
15.2899
15.1535
14.8304
14.5813
14.2659
13.8325
13.5073
12.803
12.3962
11.3106
10.6738
9.07351
7.94385
5.62641
3.56423
0.155351
-3.24141
-7.93951
-12.9473
-19.106
-25.8698
-33.5252
-41.8544
-50.4867
-59.3289
-67.2882
-74.4066
-79.2116
-82.0449
-81.0409
-77.3781
-69.3907
-60.2224
-47.5838
-36.5274
-25.4427
-16.4758
-7.97542
-2.15852
2.86478
6.14014
8.42429
10.1662
11.192
12.2194
12.2472
13.0852
12.5556
13.0919
12.4304
12.7101
11.783
11.8577
10.9119
10.4282
9.40006
8.49045
7.2119
5.82934
4.3408
2.44809
0.577944
-1.84931
-4.01099
-6.91426
-9.36206
-12.4235
-14.9996
-17.8039
-20.1303
-22.2663
-23.8353
-24.9096
-25.4975
-25.4254
-25.1777
-24.2644
-23.5857
-22.3686
-22.0265
-20.8778
-20.7699
-19.5934
-19.5323
-18.2907
-18.2038
-17.1286
-17.0112
-16.2253
-16.0465
-15.2803
-15.0072
-14.1649
-13.7776
-12.7958
-12.205
-11.038
-10.1372
-8.696
-7.44963
-5.598
-3.97812
-1.51081
0.457879
3.83686
6.03806
10.6964
13.071
19.3157
21.784
30.028
32.326
43.2872
44.3724
58.8759
58.7045
75.1398
74.944
92.2539
92.3262
109.346
8.42819
16.3418
11.7616
15.6532
13.8594
15.7073
15.2654
15.8927
16.1428
16.2952
16.7955
16.733
17.2919
17.1004
17.6757
17.4087
17.9278
17.8337
17.9353
18.1738
17.971
18.3768
18.0339
18.5192
18.0571
18.6291
18.0543
18.7081
18.0127
18.7701
17.9374
18.7922
17.8977
18.6886
17.9535
18.4079
18.1272
18.0516
18.173
17.8305
18.1052
17.6245
18.0126
17.4403
17.919
17.2635
17.8665
17.1027
17.793
17.0257
17.6679
17.0185
17.4099
17.1881
17.1691
17.2788
16.983
17.2779
16.8027
17.2347
16.6409
17.1603
16.523
17.0817
16.4217
16.9613
16.2698
16.792
16.1342
16.5081
16.0547
16.1013
15.8311
15.739
15.548
15.3534
15.1729
14.8051
14.6004
13.958
13.6278
12.6093
12.0264
10.5437
9.51731
7.42208
5.61925
2.61606
-0.454154
-4.80518
-9.57535
-15.6167
-22.4061
-30.204
-38.8565
-48.1104
-58.2762
-68.3347
-77.7604
-85.328
-90.3696
-91.237
-88.1002
-81.1648
-71.2116
-58.3622
-44.7261
-30.5282
-19.0418
-9.06564
-1.66956
3.53738
7.59489
9.31182
11.0594
11.6949
12.6965
12.4464
12.9902
12.5299
12.8383
12.1873
12.5443
11.6611
11.803
11.0691
10.6905
9.86034
9.09371
7.97465
6.71052
5.32382
3.53333
1.72329
-0.694611
-2.91921
-5.88396
-8.55588
-11.8974
-14.7831
-18.204
-20.8549
-23.7013
-25.5417
-27.1351
-27.6355
-27.6462
-26.8417
-25.6793
-24.4268
-23.016
-22.3052
-21.1803
-21.2393
-20.3163
-20.5041
-19.5677
-19.4634
-18.6677
-18.5408
-17.9563
-17.8234
-17.1909
-17.0163
-16.236
-15.9665
-15.0592
-14.6788
-13.639
-13.0657
-11.8142
-11.0057
-9.41921
-8.36194
-6.24988
-4.9416
-2.08795
-0.595188
3.36373
4.93116
10.3426
11.89
19.1864
20.5941
30.4153
31.0562
43.4832
44.5367
58.801
60.2357
75.4301
76.55
92.4164
10.8259
18.292
13.2413
16.9885
14.7433
16.4456
15.7316
16.2633
16.4186
16.2946
16.8292
16.6301
17.2226
16.9556
17.5819
17.2845
17.832
17.7199
17.8894
18.1127
17.8976
18.3508
17.9768
18.5218
18.0252
18.6257
18.0331
18.7107
18.0068
18.7783
17.9609
18.8055
17.9341
18.713
17.9926
18.4248
18.1572
18.0552
18.208
17.8254
18.1592
17.6207
18.0947
17.4213
17.9958
17.2251
17.8982
17.0547
17.7711
16.9396
17.584
16.9323
17.2882
17.0702
16.9652
17.1513
16.7864
17.108
16.5899
17.0804
16.4257
17.0413
16.3075
16.9476
16.2245
16.8949
16.1324
16.7149
16.071
16.3862
16.0307
16.0079
15.8231
15.663
15.563
15.3062
15.2824
14.8914
14.9252
14.3822
14.3933
13.6114
13.444
12.3246
11.74
10.1094
8.71177
6.20788
3.50394
-0.330809
-4.81607
-10.3876
-17.125
-25.1082
-34.7275
-45.4509
-57.3135
-69.3565
-82.0803
-93.0414
-102.013
-106.338
-106.733
-100.681
-91.4697
-75.7116
-58.5661
-40.6346
-26.1842
-12.7787
-3.4106
3.99213
8.28179
11.4257
12.6126
13.6146
14.5907
14.3145
15.0628
14.3275
14.826
13.9668
14.2941
13.5448
13.3949
12.815
12.3478
11.6596
10.8291
9.91072
8.59157
7.40674
5.6217
3.98181
1.52769
-0.670054
-3.71949
-6.51483
-10.0929
-13.3262
-16.9919
-20.2518
-23.4718
-26.014
-27.9933
-29.2076
-29.3675
-29.091
-27.5713
-26.3562
-24.0266
-23.3997
-21.7034
-21.5555
-20.267
-20.2801
-18.9522
-18.8386
-17.6376
-17.4986
-16.9827
-16.897
-16.5101
-16.2512
-15.8755
-15.5553
-15.0651
-14.6581
-13.9932
-13.4164
-12.472
-11.7268
-10.412
-9.48252
-7.63471
-6.54228
-3.8292
-2.79281
1.02885
2.11479
7.22592
8.27898
14.9685
15.9563
24.5098
25.6348
35.8498
37.1828
48.9048
50.3
63.4503
64.4612
78.5638
10.2016
18.0695
12.7386
16.7792
14.3131
16.2529
15.3617
16.094
16.1586
16.1597
16.6548
16.4785
17.068
16.8426
17.4593
17.2016
17.7429
17.7031
17.7725
18.1231
17.8619
18.3907
17.9525
18.5724
18.0001
18.6956
18.0028
18.7761
17.9736
18.8349
17.9236
18.8595
17.914
18.7407
17.9921
18.4584
18.1838
18.0984
18.2621
17.8675
18.2423
17.669
18.1739
17.4807
18.1038
17.3246
18.018
17.1972
17.9301
17.0996
17.7655
17.075
17.4739
17.2472
17.1517
17.3622
16.945
17.3606
16.7607
17.3164
16.6152
17.2768
16.5051
17.2166
16.5021
17.0716
16.383
16.9709
16.2935
16.7065
16.3312
16.3722
16.2762
16.1091
16.123
15.886
15.9292
15.5644
15.6204
15.0978
15.1237
14.4142
14.293
13.3469
12.9153
11.6116
10.5263
8.47369
6.1516
2.77927
-1.32052
-6.48508
-12.8315
-20.3758
-29.8019
-40.6802
-53.6831
-67.2449
-81.8294
-96.0806
-108.923
-117.664
-120.371
-116.63
-107.973
-91.7398
-72.2178
-49.8646
-31.3768
-16.0564
-2.91363
4.55336
11.112
12.2937
14.427
14.1184
14.9363
14.145
15.103
13.7871
14.2366
13.3537
13.677
13.2033
13.2202
12.8683
12.532
12.0896
11.4225
10.7192
9.57227
8.53355
6.93299
5.43921
3.18124
1.06144
-1.89557
-4.69612
-8.33717
-11.8818
-16.0338
-19.7846
-23.8906
-27.1112
-29.9477
-31.5293
-32.1018
-31.2868
-29.5005
-27.1835
-24.5547
-22.8672
-21.392
-21.6004
-20.9091
-21.3941
-20.7115
-20.2439
-19.4065
-18.8309
-18.4914
-18.373
-18.1484
-17.9304
-17.4313
-17.1078
-16.5358
-16.2855
-15.6544
-15.3782
-14.4741
-14.1552
-12.9443
-12.5481
-10.8608
-10.4784
-8.02395
-7.60789
-4.37715
-3.91794
0.481224
0.860951
6.7909
7.23623
14.7108
15.4344
24.6066
25.6829
36.3861
37.7708
49.8459
51.0603
64.5449
12.3731
20.0695
14.1452
18.1361
15.1922
17.0324
15.8245
16.4509
16.3019
16.2423
16.708
16.3959
16.9961
16.6807
17.3683
17.0446
17.5998
17.6142
17.6614
18.0374
17.7722
18.339
17.9059
18.5414
17.9857
18.6758
17.992
18.7896
17.9661
18.8666
17.9458
18.8816
17.9515
18.8014
18.0369
18.5056
18.2183
18.1217
18.3114
17.8521
18.3203
17.6437
18.2669
17.4467
18.1784
17.2558
18.0531
17.1127
17.9036
17.0283
17.6918
17.022
17.3823
17.1568
17.0244
17.2479
16.7922
17.2057
16.586
17.1437
16.42
17.1014
16.3226
17.0964
16.1992
17.073
16.2174
16.9111
16.253
16.5643
16.2939
16.2425
16.197
15.9996
16.118
15.7566
15.9999
15.5795
15.8619
15.3781
15.6548
15.0665
15.2494
14.5167
14.3972
13.4263
12.7113
11.1971
9.38202
6.71655
3.16374
-1.28427
-7.20472
-14.2741
-23.6007
-34.5908
-48.1944
-63.353
-80.4941
-98.0163
-116.229
-130.425
-139.243
-138.997
-136.382
-120.877
-98.297
-71.3437
-47.1888
-26.1951
-9.196
4.38027
11.0433
16.5902
16.0708
17.1572
17.0558
16.8261
17.1097
16.4647
16.3867
15.524
15.385
14.7553
14.7323
14.3001
13.9915
13.6051
12.9106
12.3833
11.2634
10.4589
8.90991
7.69943
5.4844
3.43292
0.428773
-2.4287
-6.31649
-10.1142
-14.6256
-18.934
-23.6371
-27.7605
-31.4549
-34.211
-35.4278
-35.6333
-33.5114
-31.4467
-26.7553
-25.0466
-21.81
-21.864
-20.2434
-20.8435
-19.2889
-19.5493
-17.9708
-17.652
-17.1588
-17.252
-17.274
-17.091
-17.1885
-16.8947
-16.7919
-16.4426
-16.2606
-15.8962
-15.3585
-15.0381
-14.1537
-13.7979
-12.4575
-12.1737
-10.0467
-9.85355
-6.91598
-6.78667
-2.79427
-2.84926
2.32724
2.39324
8.80856
9.10041
17.0365
17.4066
26.851
27.306
38.3287
38.7081
51.4538
11.9889
20.066
13.9058
18.1917
15.0749
17.0858
15.7664
16.4542
16.2678
16.2141
16.6472
16.343
16.9383
16.6201
17.3164
16.9641
17.5904
17.5394
17.6506
18.0804
17.7414
18.423
17.8714
18.6147
17.9713
18.7336
17.9855
18.831
17.9548
18.8857
17.9315
18.9038
17.9343
18.8228
18.0272
18.5357
18.2437
18.1441
18.3783
17.8657
18.4126
17.6528
18.3856
17.4682
18.3362
17.3047
18.2555
17.1986
18.1162
17.1494
17.8929
17.1691
17.5683
17.3331
17.1488
17.4524
16.9123
17.4404
16.722
17.3813
16.5519
17.3395
16.4735
17.3119
16.4134
17.2118
16.343
17.1059
16.3782
16.9165
16.5053
16.4844
16.5668
16.2978
16.5251
16.2188
16.376
16.0205
16.2405
15.7834
16.0662
15.5577
15.7619
15.218
15.1898
14.5131
13.9982
12.8824
11.4042
9.27197
6.2321
2.43568
-2.81641
-9.12403
-17.7516
-28.1867
-41.5561
-56.6209
-74.2086
-93.3144
-114.005
-132.068
-143.739
-148.076
-151.133
-145.932
-118.551
-87.3789
-57.6737
-35.1221
-12.8851
0.771531
14.7952
15.0397
19.7647
16.6352
17.5554
16.0286
16.4351
15.4659
15.6021
14.2883
14.7783
14.2644
14.3322
14.352
14.0675
14.0271
13.4461
13.1437
12.1512
11.5013
10.1539
9.11953
7.25592
5.46402
2.75212
0.134566
-3.54606
-7.42345
-12.147
-16.875
-22.4003
-27.362
-32.285
-35.9829
-38.4627
-38.8076
-36.8496
-33.2059
-27.4958
-23.1254
-20.7815
-21.1672
-20.8384
-22.4804
-22.4596
-21.4047
-20.3616
-18.7122
-18.4269
-18.1995
-19.0126
-18.6679
-18.3547
-17.8437
-17.5721
-17.3591
-17.3865
-17.1181
-16.7352
-16.5424
-15.9628
-15.7961
-14.8352
-14.8402
-13.0638
-13.3024
-10.9025
-11.2557
-7.88935
-8.44517
-4.24795
-4.42722
0.645455
0.936498
7.45453
8.24179
15.7722
16.9823
26.0882
27.1566
38.8601
13.8178
22.1377
15.1275
19.4857
15.8784
17.7793
16.2194
16.7465
16.4144
16.2063
16.684
16.1913
16.8653
16.4361
17.2361
16.8052
17.4793
17.4175
17.5248
17.9891
17.6205
18.4124
17.7732
18.666
17.8394
18.7868
17.8398
18.9104
17.8469
18.9771
17.8708
18.9674
17.8874
18.8856
18.0099
18.5839
18.2773
18.1473
18.4416
17.8482
18.4894
17.6272
18.473
17.4107
18.4193
17.2228
18.3148
17.1052
18.1513
17.0681
17.9011
17.106
17.5379
17.2874
17.065
17.3726
16.7995
17.3242
16.5452
17.2835
16.3329
17.2653
16.1906
17.2402
16.184
17.1673
16.2622
16.9665
16.2454
16.81
16.4042
16.4304
16.5057
16.1803
16.5423
16.0548
16.4924
15.9815
16.4341
15.9297
16.3467
15.852
16.2585
15.799
15.9782
15.5419
15.3118
14.6797
13.6581
12.2354
9.79142
6.83986
2.2595
-3.16246
-10.9765
-20.4668
-33.1221
-47.8066
-65.3998
-84.8861
-107.333
-127.962
-143.783
-150.328
-158.075
-159.056
-148.846
-116.274
-76.9205
-51.6083
-25.7439
-6.0274
11.1185
18.2679
20.1229
21.6403
19.9182
18.7078
19.2904
18.0395
18.502
16.45
15.8329
15.4454
15.2767
15.3742
15.1192
15.1524
14.5865
14.448
13.5278
13.1493
11.9678
11.2367
9.49422
7.89778
5.26682
2.75746
-0.937414
-4.84106
-9.88268
-15.0342
-21.3167
-27.4233
-33.696
-39.1274
-43.014
-45.5453
-44.1493
-42.0225
-33.4242
-27.4845
-20.6506
-19.9051
-18.4015
-19.9906
-19.6686
-21.2353
-19.188
-17.8963
-16.3151
-16.5374
-17.2775
-17.6683
-18.5665
-17.9205
-17.9324
-17.4371
-17.8414
-17.575
-17.4856
-17.3125
-17.0227
-16.7959
-16.208
-16.278
-14.8967
-15.1693
-13.2083
-13.7644
-10.6639
-11.7214
-8.11934
-8.78771
-4.5876
-5.0953
0.664349
0.0295467
7.29573
6.31197
15.2087
14.1938
26.2509
13.4577
22.3158
15.1585
19.6884
16.0809
17.9649
16.4754
16.8439
16.6357
16.2819
16.685
16.1961
16.8303
16.4029
17.2393
16.781
17.463
17.4411
17.4349
18.0535
17.5462
18.4913
17.7394
18.7413
17.8106
18.8776
17.7565
18.9858
17.7241
19.0234
17.7719
19.0091
17.8421
18.8932
18.0081
18.5815
18.3186
18.1327
18.525
17.8387
18.5748
17.6336
18.582
17.439
18.5601
17.2632
18.4909
17.1796
18.318
17.1755
18.0544
17.2466
17.6744
17.4646
17.1645
17.6142
16.8627
17.5898
16.6171
17.533
16.4062
17.4931
16.257
17.4432
16.2083
17.3387
16.2543
17.1661
16.4291
16.8818
16.6821
16.4715
16.7677
16.3116
16.8222
16.1875
16.8052
16.1222
16.7606
16.1147
16.6408
16.1592
16.4985
16.2139
16.3328
16.1034
15.8891
15.5198
14.6823
13.7069
11.7318
9.43902
5.63286
1.11562
-5.58329
-13.817
-25.044
-38.401
-54.6421
-72.8701
-93.6189
-114.684
-131.082
-142.251
-151.074
-159.288
-148.185
-120.325
-84.6307
-56.3155
-35.8934
-12.2328
5.91061
17.4514
16.5633
19.331
19.8827
16.7247
16.9194
16.9288
16.5465
15.7005
15.632
14.5016
14.8614
15.1742
15.1062
15.5089
15.0623
15.0591
14.1704
13.8383
12.7908
12.3005
11.0467
9.84487
7.62546
5.50382
2.2605
-1.45319
-6.32661
-11.5374
-18.2489
-24.9001
-32.3612
-38.8864
-44.8723
-48.7208
-49.2316
-45.9871
-36.5843
-25.1889
-18.6291
-19.1769
-19.6382
-22.3182
-23.9557
-24.132
-22.4295
-18.9024
-16.7869
-17.0648
-19.2007
-19.1474
-18.9872
-18.1435
-17.9134
-17.7154
-18.4171
-18.1827
-18.0923
-17.9982
-17.9398
-17.8771
-17.5156
-17.7454
-16.5303
-17.0984
-15.728
-16.5281
-13.7594
-15.2768
-12.6874
-13.5043
-10.5746
-11.5365
-6.68614
-6.70446
-1.97538
-1.46274
4.00085
3.95333
13.3054
15.1091
24.1179
16.1472
20.7268
16.738
18.4866
16.8577
17.0557
16.7512
16.2668
16.6766
16.0094
16.7173
16.1709
17.1312
16.6076
17.3752
17.3153
17.3257
18.0078
17.4303
18.5169
17.6236
18.809
17.6954
18.9747
17.6287
19.0706
17.6425
19.1079
17.6876
19.0931
17.7574
18.9745
17.9544
18.6128
18.3619
18.0735
18.6421
17.7646
18.6932
17.5617
18.6601
17.3747
18.6195
17.1926
18.5436
17.0901
18.3929
17.0961
18.1112
17.1905
17.6818
17.463
17.0868
17.616
16.7347
17.5687
16.4589
17.5141
16.228