/*--------------------------------*- C++ -*----------------------------------*\
| =========                 |                                                 |
| \\      /  F ield         | OpenFOAM: The Open Source CFD Toolbox           |
|  \\    /   O peration     | Version:  4.1                                   |
|   \\  /    A nd           | Web:      www.OpenFOAM.org                      |
|    \\/     M anipulation  |                                                 |
\*---------------------------------------------------------------------------*/
FoamFile
{
    version     2.0;
    format      ascii;
    class       volScalarField;
    location    "17";
    object      p;
}
// * * * * * * * * * * * * * * * * * * * * * * * * * * * * * * * * * * * * * //

dimensions      [0 2 -2 0 0 0 0];

internalField   nonuniform List<scalar> 
6750
(
-143.366
-65.0204
-132.727
-122.284
-153.397
-158.861
-192.894
-229.966
-234.99
-262.466
-318.802
-300.131
-312.061
-203.051
-308.666
-142.863
-63.7026
-132.201
-121.931
-152.994
-158.171
-195.444
-224.616
-236.895
-271.489
-319.551
-301.078
-311.663
-200.76
-308.618
-142.417
-62.744
-131.761
-121.607
-152.43
-157.545
-197.754
-222.45
-241.291
-277.877
-318.613
-302.759
-311.822
-198.998
-308.755
-141.828
-61.4355
-131.131
-121.132
-151.316
-156.525
-194.242
-220.662
-243.83
-285.355
-318.118
-305.08
-312.484
-198.408
-308.52
-141.291
-60.2782
-130.563
-120.71
-150.163
-155.521
-188.897
-216.055
-237.212
-286.666
-317.554
-306.136
-313.135
-198.087
-308.455
-140.812
-59.1714
-130.023
-120.336
-149.234
-154.698
-186.595
-213.074
-233.128
-285.876
-317.181
-306.311
-313.639
-197.455
-308.362
-140.504
-58.3749
-129.649
-120.118
-148.973
-154.397
-189.984
-211.608
-231.947
-287.81
-317.059
-305.402
-313.454
-196.686
-308.304
-140.385
-58.1116
-129.459
-119.988
-148.694
-154.449
-190.029
-212.127
-231.125
-289.285
-316.928
-305.398
-313.286
-195.532
-308.4
-140.467
-58.4497
-129.576
-120.003
-148.855
-154.231
-190.78
-211.353
-230.609
-287.369
-316.973
-305.007
-313.233
-196.567
-308.258
-140.749
-59.2613
-129.869
-120.106
-149.019
-154.224
-188.418
-211.367
-232.488
-284.693
-317.207
-305.288
-313.143
-197.321
-308.317
-141.2
-60.3613
-130.319
-120.357
-149.567
-154.676
-187.56
-213.287
-233.236
-284.011
-317.432
-305.141
-312.615
-197.727
-308.441
-141.715
-61.4975
-130.814
-120.685
-150.506
-155.444
-191.718
-217.125
-240.594
-284.498
-317.946
-304.153
-311.847
-197.949
-308.567
-142.282
-62.777
-131.383
-121.089
-151.482
-156.356
-195.37
-219.692
-239.793
-277.564
-318.336
-302.054
-311.11
-198.423
-308.87
-142.715
-63.7136
-131.787
-121.374
-152.013
-156.958
-193.653
-221.686
-234.81
-270.562
-319.124
-300.249
-310.842
-200.081
-308.816
-143.203
-65.0034
-132.278
-121.695
-152.352
-157.638
-190.737
-227.177
-231.543
-260.202
-318.379
-299.114
-311.163
-202.266
-308.944
-192.1
-56.5693
-137.881
-116.361
-144.408
-145.652
-155.554
-177.124
-183.921
-246.365
-317.731
-308.145
-308.569
-136.682
-431.628
-191.565
-54.9519
-136.882
-115.622
-143.114
-144.091
-151.903
-175.369
-191.778
-256.438
-320.046
-310.018
-307.625
-134.738
-432.497
-191.127
-53.9196
-136.173
-115.072
-141.721
-142.724
-145.857
-177.71
-205.496
-264.409
-321.49
-311.622
-307.4
-133.012
-434.006
-190.505
-52.3743
-135.115
-114.289
-139.688
-140.646
-136.163
-173.776
-213.483
-274.968
-322.02
-313.462
-308.83
-132.483
-433.801
-189.96
-51.0523
-134.198
-113.656
-137.888
-138.509
-127.445
-163.33
-207.073
-279.729
-320.959
-314.377
-310.165
-132.074
-434.321
-189.454
-49.7612
-133.301
-113.101
-136.54
-136.705
-123.958
-155.447
-201.849
-279.831
-320.204
-315.339
-311.452
-131.364
-434.696
-189.126
-48.8716
-132.683
-112.795
-136.212
-135.879
-127.782
-152.253
-199.506
-282.34
-320.346
-314.686
-311.114
-130.802
-435.087
-188.962
-48.6165
-132.398
-112.637
-135.958
-135.788
-130.445
-153.995
-198.359
-283.217
-320.46
-314.125
-310.015
-129.815
-435.926
-189.021
-49.0328
-132.629
-112.684
-136.165
-135.79
-130.053
-152.541
-197.112
-281.828
-320.438
-314.257
-310.748
-131.029
-435.027
-189.286
-49.9872
-133.165
-112.873
-136.387
-136.311
-126.149
-153.754
-200.536
-279.08
-320.622
-315.274
-311.377
-131.86
-434.677
-189.735
-51.3088
-133.961
-113.3
-137.278
-137.602
-126.213
-158.961
-202.584
-278.227
-321.145
-314.358
-310.254
-132.504
-434.407
-190.239
-52.632
-134.802
-113.842
-138.817
-139.55
-132.907
-169.279
-211.273
-275.914
-322.221
-313.219
-308.867
-132.954
-434.002
-190.828
-54.1617
-135.798
-114.559
-140.714
-141.615
-142.643
-175.859
-207.342
-265.706
-321.985
-311.398
-307.371
-133.427
-434.357
-191.245
-55.1808
-136.476
-115.08
-142.118
-143.045
-149.634
-174.587
-193.022
-256.26
-320.456
-309.597
-307.445
-135.097
-433.047
-191.761
-56.7702
-137.441
-115.792
-143.415
-144.65
-153.867
-176.108
-182.213
-244.775
-318.211
-307.622
-308.343
-137.014
-432.337
-289.473
-14.1377
-139.754
-116.347
-137.76
-135.087
-131.646
-131.49
-136.4
-204.565
-267.815
-280.616
-258.465
-48.7626
-575.708
-288.227
-12.9469
-138.508
-115
-135.579
-133.544
-126.746
-134.618
-145.918
-211.835
-270.252
-282.706
-257.31
-49.2439
-577.141
-287.314
-12.5215
-137.796
-114.193
-133.724
-132.562
-120.423
-141.697
-158.925
-218.313
-271.549
-284.241
-255.837
-49.8402
-579.178
-286.032
-11.5493
-136.511
-112.913
-130.92
-130.198
-109.845
-141.836
-170.123
-227.058
-272.645
-285.992
-256.293
-50.0464
-579.505
-284.978
-10.8136
-135.42
-111.916
-128.66
-127.313
-101.834
-132.611
-170.443
-231.547
-272.267
-286.686
-256.286
-50.4521
-580.49
-284.039
-9.9431
-134.222
-110.982
-126.954
-124.806
-99.2135
-123.905
-168.654
-231.973
-271.393
-287.357
-256.424
-50.5694
-581.235
-283.523
-9.29113
-133.331
-110.517
-126.562
-124.654
-100.928
-121.388
-168.195
-234.059
-271.75
-287.627
-256.202
-51.0174
-581.777
-283.292
-9.11263
-132.907
-110.289
-126.329
-124.525
-104.353
-121.502
-165.878
-233.753
-271.223
-287.245
-254.946
-51.5676
-582.69
-283.347
-9.52305
-133.355
-110.431
-126.585
-124.734
-103.346
-121.017
-165.716
-233.598
-271.65
-287.253
-256.251
-51.3685
-581.959
-283.794
-10.2485
-134.165
-110.813
-126.854
-125.118
-100.083
-123.096
-168.064
-232.135
-271.918
-287.486
-257.043
-51.1156
-581.789
-284.673
-11.158
-135.245
-111.601
-128.062
-126.365
-100.791
-128.057
-168.504
-231.209
-272.719
-286.695
-257.023
-50.9597
-581.459
-285.694
-11.8933
-136.248
-112.534
-130.043
-129.228
-106.355
-139.744
-171.215
-228.735
-273.64
-286.02
-257.295
-50.5181
-580.933
-286.948
-12.8468
-137.463
-113.774
-132.753
-131.794
-117.052
-142.86
-163.103
-220.104
-272.619
-284.152
-256.902
-50.1394
-581.072
-287.849
-13.257
-138.149
-114.581
-134.698
-132.996
-124.846
-137.275
-149.195
-212.218
-271.157
-282.447
-258.307
-49.353
-579.523
-289.078
-14.4138
-139.362
-115.914
-136.975
-134.599
-130.81
-132.994
-136.657
-204.112
-268.638
-280.295
-259.498
-48.8676
-578.489
-396.414
38.8549
-128.996
-120.618
-135.409
-135.383
-125.045
-114.524
-115.992
-175.637
-216.486
-245.947
-197.462
-53.6185
-669.506
-395.052
39.8569
-127.544
-119.071
-132.914
-133.714
-121.536
-119.239
-123.514
-180.932
-219.117
-248.256
-196.737
-56.5098
-672.345
-394.136
39.9858
-126.748
-118.273
-131.087
-132.299
-118.702
-125.708
-132.598
-184.858
-219.852
-249.292
-194.935
-58.8264
-675.456
-392.705
40.4348
-125.267
-116.679
-127.969
-128.458
-111.39
-125.049
-144.69
-190.19
-221.371
-250.529
-194.634
-60.0004
-677.17
-391.505
40.3762
-124.021
-115.435
-125.531
-123.707
-104.551
-117.112
-150.302
-193.109
-222.304
-250.897
-194.191
-61.5014
-678.87
-390.336
40.3353
-122.632
-114.245
-123.604
-120.43
-100.276
-111.14
-149.88
-193.4
-222.408
-251.059
-193.822
-62.8771
-680.589
-389.617
40.121
-121.599
-113.78
-122.924
-121.468
-98.6855
-109.184
-149.747
-194.778
-223.357
-251.681
-193.484
-64.0424
-681.403
-389.323
40.0879
-121.066
-113.487
-122.601
-122.17
-100.76
-109.145
-147.034
-194.044
-223.124
-251.53
-192.611
-65.9659
-682.81
-389.487
40.1923
-121.613
-113.69
-122.919
-122.332
-99.9648
-108.826
-147.704
-194.319
-223.525
-251.535
-193.263
-64.7888
-682.497
-390.119
40.4045
-122.563
-114.059
-123.389
-121.47
-99.2737
-110.084
-149.35
-193.636
-223.091
-251.066
-194.097
-63.639
-682.453
-391.229
40.4614
-123.828
-114.988
-124.89
-122.612
-102.213
-113.701
-149.398
-193.036
-222.95
-250.43
-194.738
-62.2994
-681.867
-392.397
40.5314
-124.992
-116.147
-127.014
-127.067
-108.222
-123
-147.679
-191.452
-222.618
-250.061
-195.613
-60.4164
-681.016
-393.806
40.0967
-126.419
-117.732
-130.11
-131.427
-115.997
-126.632
-137.007
-185.945
-220.654
-248.342
-196.076
-58.8618
-680.239
-394.714
39.9722
-127.21
-118.582
-132.129
-133.373
-120.734
-122.149
-126.259
-181.426
-219.769
-247.152
-197.989
-55.8091
-677.958
-396.064
38.9818
-128.653
-120.154
-134.811
-135.233
-125.276
-116.175
-117.142
-175.406
-216.84
-244.489
-198.812
-52.6911
-675.721
-512.025
31.9036
-117.403
-139.819
-135.462
-139.448
-130.406
-127.856
-126.139
-152.022
-180.234
-217.927
-185.44
-97.504
-772.265
-510.968
33.6248
-116.347
-137.704
-132.809
-138.311
-127.782
-129.732
-129.308
-155.959
-183.826
-220.546
-184.391
-100.775
-777.275
-510.282
34.2665
-115.887
-136.436
-131.305
-137.201
-128.471
-133.534
-134.419
-158.397
-184.43
-221.688
-182.162
-101.1
-781.887
-509.146
35.3018
-114.751
-134.135
-128.182
-133.173
-126.741
-134.027
-141.509
-162.324
-185.789
-222.981
-181.465
-102.522
-785.055
-508.184
35.4844
-113.814
-132.168
-125.433
-128.047
-124.857
-127.507
-144.928
-165.142
-187.135
-224.331
-181.084
-103.712
-787.592
-507.171
35.424
-112.651
-130.27
-122.871
-124.291
-121.166
-121.832
-143.95
-165.733
-188.276
-225.226
-180.733
-104.867
-790.95
-506.392
34.7688
-111.853
-129.465
-121.997
-125.797
-118.393
-121.149
-143.962
-167.592
-189.63
-226.396
-181.152
-105.844
-792.15
-506.037
34.643
-111.379
-128.983
-121.496
-126.832
-118.116
-121.354
-142.66
-167.236
-190.279
-226.354
-180.493
-106.828
-794.012
-506.278
35.1639
-111.812
-129.327
-121.829
-126.829
-118.19
-121.459
-142.951
-167.425
-190.207
-226.167
-180.65
-105.967
-793.236
-506.861
35.7767
-112.568
-130.021
-122.378
-125.179
-119.757
-121.596
-143.809
-166.584
-188.997
-224.977
-180.855
-104.898
-793.502
-507.804
35.8649
-113.616
-131.569
-124.3
-126.412
-122.79
-124.213
-144.123
-165.367
-187.832
-223.196
-181.673
-103.334
-791.536
-508.723
35.6965
-114.506
-133.51
-127.044
-131.509
-125.834
-132.533
-143.443
-164.091
-186.82
-221.497
-182.315
-101.722
-790.265
-509.85
34.6723
-115.611
-135.861
-130.333
-136.205
-127.748
-134.91
-137.305
-159.541
-184.553
-218.851
-182.729
-99.5793
-788.259
-510.536
34.0355
-116.069
-137.237
-132.131
-138.06
-128.407
-131.626
-131.779
-156.824
-184.076
-217.363
-184.587
-98.1978
-785.125
-511.595
32.3053
-117.129
-139.42
-135.012
-139.502
-131.543
-128.713
-128.09
-152.126
-179.588
-213.612
-185.259
-94.5851
-781.005
-643.969
-21.0314
-115.333
-177.671
-157.444
-159.73
-151.308
-152.672
-168.673
-165.419
-188.473
-207.623
-234.351
-105.324
-875.564
-643.17
-19.3183
-114.494
-175.756
-154.733
-157.828
-147.995
-152.997
-168.631
-167.209
-191.868
-211.499
-228.246
-108.878
-888.035
-642.664
-18.5689
-114.219
-174.625
-153.32
-156.443
-147.471
-156.129
-170.029
-167.628
-192.052
-211.763
-219.944
-107.725
-904.013
-641.796
-17.2394
-113.416
-172.572
-150.483
-152.606
-144.33
-158.745
-172.051
-168.382
-190.004
-212.466
-215.441
-110.593
-907.855
-641.066
-16.6315
-112.914
-170.878
-147.998
-147.785
-139.593
-155.512
-169.927
-169.159
-189.333
-215.661
-214.685
-113.438
-910.129
-640.205
-16.2057
-112.234
-169.122
-145.391
-143.409
-136.229
-151.226
-166.707
-166.93
-188.477
-216.785
-212.187
-115.567
-918.239
-639.342
-16.5249
-111.91
-168.298
-144.323
-143.456
-136.708
-150.648
-167.167
-167.786
-189.983
-218.699
-214.985
-115.239
-917.569
-638.949
-16.5091
-111.597
-167.837
-143.742
-143.582
-137.904
-150.877
-167.162
-167.225
-190.503
-217.572
-210.226
-112.231
-932.125
-639.275
-16.1822
-111.749
-168.223
-144.219
-143.85
-137.252
-150.568
-167.439
-167.854
-190.589
-217.607
-209.355
-109.729
-931.298
-639.79
-16.0085
-112.054
-168.967
-145.122
-143.608
-136.135
-150.338
-166.947
-167.482
-189.656
-215.847
-210.926
-109.92
-929.217
-640.562
-16.4409
-112.658
-170.459
-147.198
-145.97
-137.172
-151.867
-167.637
-168.538
-189.754
-212.377
-214.227
-108.57
-926.328
-641.26
-16.988
-113.133
-172.123
-149.77
-151.137
-142.637
-156.27
-171.484
-170.245
-191.799
-208.258
-216.816
-105.283
-924.155
-642.131
-18.265
-113.915
-174.181
-152.718
-155.527
-146.821
-156.15
-171.352
-169.484
-193.709
-203.602
-220.532
-102.566
-922.649
-642.638
-18.9701
-114.178
-175.357
-154.311
-157.505
-148.474
-152.988
-170.591
-169.615
-195.456
-201.486
-228.994
-103.022
-907.601
-643.451
-20.6712
-115.016
-177.313
-157.17
-159.668
-152.242
-152.52
-171.368
-168.532
-192.016
-194.091
-235.149
-99.1409
-895.419
-781.589
-75.3899
-128.916
-222.241
-192.589
-199.804
-202.44
-190.482
-205.889
-182.42
-233.174
-178.79
-327.675
-68.9862
-1016.74
-780.975
-74.1343
-128.2
-220.812
-190.512
-197.743
-199.022
-189.238
-202.582
-182.114
-234.676
-185.912
-304.103
-86.5599
-1040.53
-780.635
-73.5769
-127.946
-220.013
-189.472
-196.545
-197.431
-189.862
-201.194
-184.489
-233.662
-192.75
-277.717
-88.3314
-1062.9
-779.995
-72.4876
-127.277
-218.524
-187.428
-193.917
-193.887
-187.748
-197.564
-186.893
-235.083
-194.803
-268.071
-92.8869
-1067.48
-779.467
-71.9377
-126.91
-217.406
-185.863
-191.292
-189.49
-181.966
-191.908
-182.786
-230.211
-200.367
-267.016
-94.1694
-1070.73
-778.707
-71.4781
-126.404
-216.167
-184.155
-188.578
-185.218
-176.977
-187.981
-178.475
-222.315
-201.287
-263.75
-93.2719
-1089.4
-777.903
-71.5797
-126.181
-215.562
-183.418
-187.845
-185.145
-179.33
-187.53
-179.731
-225.994
-201.69
-273.4
-92.4746
-1091.03
-777.537
-71.4937
-125.924
-215.202
-182.992
-187.489
-185.789
-181.697
-188.595
-179.893
-229.585
-197.198
-261.301
-90.6367
-1106.56
-777.82
-71.4033
-125.992
-215.485
-183.353
-187.901
-185.797
-180.898
-187.772
-179.975
-228.997
-201.438
-262.39
-88.3667
-1104.1
-778.198
-71.4447
-126.147
-215.992
-183.995
-188.494
-185.89
-177.842
-186.661
-177.622
-224.302
-200.954
-263.13
-83.1539
-1108.55
-778.784
-71.9451
-126.598
-217.054
-185.42
-190.339
-188.202
-178.326
-188.25
-178.132
-228.193
-196.875
-273.596
-85.2187
-1089.53
-779.276
-72.4073
-126.933
-218.095
-186.981
-193.085
-193.368
-185.127
-194.35
-184.558
-239.673
-191.878
-274.423
-84.3323
-1087.01
-779.937
-73.3991
-127.574
-219.542
-189.051
-195.877
-197.653
-189.261
-201.19
-185.09
-242.255
-185.209
-281.311
-79.071
-1083.08
-780.283
-73.8734
-127.799
-220.323
-190.153
-197.311
-199.927
-189.612
-205.099
-183.154
-244.705
-178.719
-303.697
-74.0603
-1064.14
-780.918
-75.0978
-128.502
-221.765
-192.332
-199.544
-203.8
-190.981
-209.71
-184.485
-248.187
-169.674
-324.597
-57.0484
-1040.47
-926.93
-128.093
-148.315
-269.629
-236.864
-246.329
-261.862
-241.076
-274.93
-210.063
-315.927
-187.567
-600.894
-95.2772
-1025
-926.427
-127.13
-147.749
-268.568
-235.257
-244.481
-258.935
-238.445
-270.017
-206.241
-304.783
-191.386
-543.668
-119.803
-1091.16
-926.168
-126.693
-147.554
-267.984
-234.406
-243.424
-257.137
-236.857
-265.836
-203.777
-297.315
-194.467
-395.683
-76.9754
-1283.22
-925.62
-125.858
-147.034
-266.875
-232.807
-241.377
-253.959
-233.124
-258.045
-196.157
-292.655
-195.389
-342.612
-45.0568
-1282.97
-925.131
-125.48
-146.755
-266.093
-231.668
-239.69
-251.079
-228.551
-246.604
-186.509
-278.422
-197.991
-356.6
-64.187
-1254.9
-924.447
-125.143
-146.313
-265.181
-230.403
-237.905
-248.29
-224.463
-238.595
-180.005
-263.228
-191.681
-335.006
-71.7623
-1293.37
-923.809
-125.23
-146.087
-264.72
-229.82
-237.169
-247.591
-225.402
-242.195
-181.156
-262.127
-190.177
-452.231
-121.713
-1200.64
-923.399
-125.209
-145.87
-264.418
-229.447
-236.73
-247.392
-226.2
-246.572
-184.247
-261.979
-196.872
-349.032
-57.0309
-1403.71
-923.48
-125.247
-145.923
-264.608
-229.716
-237.014
-247.785
-225.834
-245.497
-181.891
-260.485
-189.445
-326.808
-13.8147
-1407.62
-923.714
-125.276
-146.007
-264.921
-230.167
-237.503
-248.44
-224.417
-240.194
-176.863
-259.356
-192.349
-325.841
-20.3154
-1374.23
-924.17
-125.645
-146.337
-265.667
-231.249
-238.833
-250.525
-225.807
-242.617
-178.634
-270.53
-186.634
-339.877
-21.705
-1357.7
-924.543
-125.935
-146.551
-266.321
-232.303
-240.397
-253.704
-230.677
-256.034
-188.101
-292.432
-187.834
-345.098
-12.7966
-1360.02
-925.092
-126.657
-147.029
-267.346
-233.889
-242.431
-257.311
-234.992
-266.99
-198.934
-308.243
-187.331
-385.272
-55.1241
-1360.9
-925.359
-126.969
-147.178
-267.863
-234.726
-243.507
-259.505
-237.192
-273.571
-205.74
-317.495
-180.158
-538.793
-100.39
-1153.9
-925.897
-127.871
-147.709
-268.907
-236.415
-245.484
-262.997
-240.373
-280.829
-212.038
-333.386
-175.873
-604.209
-76.3837
-1079.41
-1078.24
-185.021
-170.962
-320.485
-288.243
-299.813
-329.254
-301.326
-355.638
-254.572
-420.397
-168.746
-663.265
30.5318
-1287.37
-1077.86
-184.245
-170.498
-319.645
-286.958
-298.22
-326.605
-298.069
-349.33
-248.411
-405.497
-174.222
-640.856
-50.0314
-1386.9
-1077.64
-183.882
-170.343
-319.192
-286.268
-297.298
-324.92
-295.884
-344.222
-242.154
-385.066
-177.488
-445.596
-18.2243
-1639.65
-1077.17
-183.215
-169.908
-318.319
-284.982
-295.61
-322.13
-292.056
-336.663
-229.977
-366.159
-180.614
-401.396
52.5686
-1600.37
-1076.76
-182.905
-169.657
-317.733
-284.105
-294.334
-319.939
-288.803
-330.121
-221.853
-353.637
-186.568
-466.418
2.44282
-1540.14
-1076.23
-182.607
-169.264
-317.031
-283.096
-292.923
-317.7
-285.688
-323.545
-215.358
-333.766
-174.167
-421.79
-0.0520696
-1610.37
-1075.75
-182.678
-169.054
-316.669
-282.607
-292.207
-316.853
-285.083
-325.385
-221.426
-346.792
-167.451
-564.284
-66.3276
-1466.92
-1075.25
-182.762
-168.855
-316.39
-282.244
-291.695
-316.285
-284.558
-324.891
-223.62
-345.918
-174.864
-505.831
-30.5436
-1645.19
-1075.08
-182.929
-168.875
-316.489
-282.431
-291.844
-316.733
-284.447
-325.517
-220.794
-341.881
-168.527
-431.134
38.0814
-1815.17
-1075.17
-182.969
-168.893
-316.631
-282.714
-292.134
-317.4
-284.131
-323.548
-211.643
-323.459
-163.399
-401.365
92.4476
-1767.61
-1075.45
-183.266
-169.121
-317.132
-283.536
-293.116
-319.334
-285.746
-327.776
-211.777
-341.519
-169.467
-473.566
53.437
-1665.63
-1075.68
-183.467
-169.238
-317.521
-284.249
-294.074
-321.579
-288.51
-335.851
-218.262
-359.186
-172.126
-418.836
110.915
-1710.71
-1076.07
-184.02
-169.592
-318.259
-285.474
-295.621
-324.682
-292.349
-345.444
-231.53
-389.358
-174.236
-460.4
23.2962
-1742.48
-1076.24
-184.242
-169.674
-318.592
-286.082
-296.401
-326.548
-294.648
-352.109
-240.671
-414.789
-162.24
-669.174
-11.7996
-1466.24
-1076.65
-184.938
-170.084
-319.381
-287.42
-298.056
-329.746
-298.463
-360.763
-249.46
-434.027
-158.056
-686.911
81.4419
-1362.77
-1230.88
-248.634
-197.138
-376.021
-344.918
-356.771
-403.042
-371.083
-456.605
-321.033
-561.713
-161.842
-836.213
194.665
-1650.44
-1230.59
-248.01
-196.729
-375.313
-343.819
-355.423
-400.603
-368.07
-449.477
-314.813
-543.896
-165.377
-876.973
85.9387
-1740.45
-1230.39
-247.683
-196.572
-374.93
-343.229
-354.652
-399.11
-366.152
-444.58
-309.213
-517.14
-148.996
-621.517
114.229
-2009.23
-1230.03
-247.112
-196.174
-374.194
-342.134
-353.255
-396.668
-363.028
-437.563
-301.397
-495.208
-167.901
-573.8
156.228
-2030.66
-1229.71
-246.792
-195.93
-373.707
-341.414
-352.244
-394.944
-360.648
-433.528
-295.756
-498.771
-183.465
-729.946
23.6499
-1844.6
-1229.32
-246.466
-195.581
-373.115
-340.56
-351.078
-393.033
-358.198
-427.809
-290.308
-474.844
-183.047
-643.545
58.8663
-1941.9
-1228.96
-246.435
-195.381
-372.789
-340.13
-350.406
-392.206
-357.095
-428.092
-293.233
-493.936
-174.639
-745.791
-11.7139
-1745.3
-1228.56
-246.49
-195.171
-372.491
-339.759
-349.829
-391.518
-356.02
-425.97
-291.663
-481.877
-169.091
-701.264
10.7811
-1931.4
-1228.23
-246.761
-195.14
-372.499
-339.862
-349.806
-391.955
-355.72
-427.777
-289.681
-487.967
-162.941
-697.483
32.6085
-2117.36
-1227.92
-246.966
-195.093
-372.508
-339.998
-349.839
-392.509
-355.378
-427.334
-282.114
-462.42
-141.984
-549.437
88.2325
-2251.95
-1227.86
-247.29
-195.227
-372.822
-340.62
-350.462
-394.296
-356.524
-433.501
-283.037
-496.283
-153.634
-758.977
54.786
-1950.34
-1227.9
-247.463
-195.267
-373.026
-341.105
-350.971
-395.986
-357.979
-438.955
-286.953
-502.039
-150.697
-609.084
198.538
-2139.79
-1228.09
-247.888
-195.519
-373.555
-342.089
-352.097
-398.734
-360.844
-448.147
-295.409
-531.234
-131.602
-672.596
148.294
-2135.95
-1228.16
-248.053
-195.557
-373.757
-342.539
-352.587
-400.303
-362.423
-454.314
-301.185
-563.484
-135.771
-943.095
138.463
-1838.24
-1228.4
-248.564
-195.874
-374.362
-343.663
-353.921
-403.343
-365.881
-464.106
-309.383
-587.458
-135.099
-885.323
255.61
-1750.6
-1381.21
-317.265
-226.341
-435.739
-408.147
-418.16
-483.39
-444.961
-570.736
-397.269
-741.266
-186.672
-1196.76
301.598
-2234.67
-1380.98
-316.747
-225.957
-435.112
-407.117
-416.952
-481.037
-442.409
-563.583
-392.146
-712.187
-183.051
-1016.96
259.201
-2432.54
-1380.8
-316.433
-225.78
-434.754
-406.548
-416.269
-479.681
-440.935
-559.81
-388.932
-696.898
-170.081
-916.959
313.367
-2541.5
-1380.49
-315.928
-225.396
-434.089
-405.515
-415.02
-477.373
-438.449
-553.501
-384.958
-679.348
-192.027
-921.786
200.389
-2546.45
-1380.21
-315.596
-225.14
-433.623
-404.824
-414.118
-475.831
-436.592
-550.48
-381.453
-681.101
-196.184
-1022.17
84.9625
-2275.51
-1379.85
-315.253
-224.799
-433.05
-403.998
-413.034
-474.029
-434.525
-545.443
-377.768
-661.84
-199.834
-964.962
107.923
-2351.11
-1379.51
-315.121
-224.579
-432.686
-403.545
-412.333
-473.194
-433.192
-545.012
-377.032
-671.168
-198.98
-1009.14
63.1931
-2147.17
-1379.13
-315.07
-224.335
-432.323
-403.114
-411.63
-472.434
-431.74
-542.728
-373.381
-656.998
-190.661
-944.602
68.5607
-2385.27
-1378.81
-315.224
-224.231
-432.212
-403.103
-411.381
-472.797
-431.001
-545.159
-370.847
-668.428
-180.434
-977.604
56.5391
-2611.73
-1378.48
-315.396
-224.121
-432.093
-403.113
-411.124
-473.232
-430.187
-545.526
-364.833
-646.94
-141.506
-741.672
78.6948
-2939.15
-1378.25
-315.742
-224.17
-432.238
-403.581
-411.401
-474.936
-430.596
-553.035
-364.98
-693.603
-155.17
-1058.41
161.966
-2457.42
-1377.99
-316.016
-224.151
-432.288
-403.914
-411.526
-476.368
-430.929
-557.803
-364.786
-696.437
-141.077
-951.351
248.609
-2594.57
-1377.85
-316.452
-224.319
-432.632
-404.743
-412.289
-479.017
-432.786
-567.625
-369.057
-733.869
-133.833
-1035.05
350.056
-2664.03
-1377.68
-316.655
-224.326
-432.724
-405.092
-412.505
-480.403
-433.47
-573.005
-370.746
-755.788
-134.05
-1170.54
319.355
-2515.23
-1377.71
-317.046
-224.569
-433.167
-406.09
-413.561
-483.441
-436.241
-583.951
-377.322
-795.973
-142.765
-1318.81
391.937
-2340.13
-1528.4
-392.881
-258.943
-499.414
-477.815
-483.844
-570.738
-521.328
-701.85
-481.965
-976.181
-247.584
-1581.07
490.962
-3035.29
-1528.18
-392.377
-258.527
-498.777
-476.661
-482.528
-567.763
-518.443
-692.424
-476.234
-946.049
-248.265
-1524.04
438.088
-3130.27
-1527.99
-392.023
-258.309
-498.383
-475.986
-481.767
-566.041
-516.831
-687.389
-473.479
-930.435
-248.929
-1494.23
387.057
-3109.1
-1527.67
-391.5
-257.89
-497.69
-474.822
-480.407
-563.147
-514.002
-678.576
-468.11
-899.807
-248.811
-1403.05
294.574
-3201.73
-1527.34
-391.094
-257.579
-497.155
-473.995
-479.4
-561.205
-511.916
-673.851
-464.1
-890.868
-245.833
-1419.43
166.432
-3075.45
-1526.93
-390.679
-257.193
-496.513
-473.046
-478.188
-559.04
-509.521
-667.617
-459.689
-865.492
-249.061
-1294.07
109.2
-3400.07
-1526.51
-390.421
-256.907
-496.041
-472.465
-477.337
-557.967
-507.768
-666.438
-456.255
-870.694
-244.952
-1339.16
94.9822
-3063.99
-1526.06
-390.231
-256.613
-495.559
-471.93
-476.438
-557.084
-505.778
-664.444
-450.622
-861.303
-232.224
-1321.5
-6.03033
-3309.38
-1525.62
-390.227
-256.431
-495.296
-471.805
-475.966
-557.422
-504.569
-667.39
-446.693
-872.818
-215.772
-1291.88
42.4747
-3687.16
-1525.17
-390.291
-256.241
-495.042
-471.733
-475.46
-557.973
-503.074
-669.434
-437.496
-866.335
-130.336
-1166.28
165.534
-4026.25
-1524.79
-390.512
-256.192
-495.026
-472.121
-475.507
-559.948
-503.118
-679.11
-438.134
-929.976
-168.559
-1742.96
130.23
-3438.46
-1524.4
-390.717
-256.118
-494.954
-472.414
-475.398
-561.63
-502.782
-685.225
-434.979
-932.311
-141.031
-1494.04
419.839
-3492.92
-1524.12
-391.072
-256.207
-495.146
-473.214
-475.978
-564.788
-504.377
-697.624
-438.882
-978.689
-149.821
-1634.86
522.663
-3364.12
-1523.79
-391.331
-256.197
-495.162
-473.563
-476.051
-566.453
-504.631
-704.286
-438.45
-1001.08
-142.174
-1689.27
578.248
-3300.01
-1523.63
-391.667
-256.386
-495.478
-474.569
-477.011
-570.166
-507.448
-718.201
-445.523
-1043.28
-150.491
-1744.58
635.356
-3100.04
-1661.98
-474.034
-294.901
-565.753
-557.366
-559.089
-674.688
-606.217
-851.584
-562.201
-1210.34
-282.971
-2055.96
768.912
-4067.69
-1661.75
-473.501
-294.415
-565.046
-555.961
-557.609
-671.019
-603.138
-841.139
-557.043
-1179.74
-291.241
-1966.24
634.93
-4231.1
-1661.51
-473.087
-294.128
-564.573
-555.085
-556.757
-668.929
-601.696
-836.441
-556.092
-1174.51
-304.3
-1995.36
501.226
-4436.58
-1661.14
-472.507
-293.626
-563.775
-553.634
-555.207
-665.319
-598.72
-826.542
-551.414
-1146.1
-308.169
-2008.55
258.986
-4747.9
-1660.73
-472.002
-293.212
-563.097
-552.517
-554.005
-662.815
-596.549
-821.147
-548.221
-1133.22
-318.324
-1884.28
302.903
-4850.65
-1660.23
-471.488
-292.729
-562.297
-551.267
-552.517
-659.985
-593.627
-813.433
-541.048
-1100.12
-291.265
-1591.42
298.128
-5338.83
-1659.7
-471.094
-292.329
-561.628
-550.385
-551.36
-658.428
-591.414
-812.119
-536.534
-1111.85
-279.873
-1762.21
293.746
-4823.91
-1659.12
-470.771
-291.931
-560.943
-549.589
-550.094
-657.153
-588.566
-809.933
-527.26
-1101.03
-241.567
-1735.02
102.274
-4846.42
-1658.54
-470.604
-291.645
-560.434
-549.221
-549.23
-657.27
-586.586
-813.396
-521.162
-1113.91
-212.533
-1696.45
278.788
-5630.13
-1657.94
-470.526
-291.376
-559.949
-548.968
-548.293
-657.861
-583.954
-817.434
-506.229
-1107.73
-70.6917
-1523.11
648.59
-5800.17
-1657.39
-470.616
-291.228
-559.695
-549.19
-547.914
-660.039
-583.195
-829.956
-506.633
-1194.28
-157.579
-2088.4
291.568
-5366.18
-1656.82
-470.76
-291.073
-559.427
-549.38
-547.365
-662.133
-581.688
-841.125
-501.136
-1245.58
-122.896
-2487
218.861
-5042.03
-1656.35
-471.046
-291.067
-559.407
-550.094
-547.531
-665.744
-582.261
-855.939
-502.451
-1288.36
-134.731
-2309.07
642.389
-4719.44
-1655.86
-471.315
-291.019
-559.291
-550.396
-547.266
-667.621
-581.353
-863.65
-498.116
-1308.58
-118.428
-2324.17
858.883
-4425.55
-1655.58
-471.57
-291.148
-559.434
-551.37
-547.899
-671.883
-583.336
-880.384
-502.361
-1364.15
-115.868
-2477.37
1154.1
-4217.68
-1787.84
-567.807
-336.703
-638.247
-643.654
-636.195
-781.368
-686.318
-1008.02
-629.969
-1488.36
-348.058
-2690.46
607.448
-6110.64
-1787.54
-567.124
-336.054
-637.354
-641.703
-634.205
-775.725
-681.434
-990.789
-617.414
-1450.26
-350.747
-2767.66
409.402
-6587.4
-1787.23
-566.573
-335.661
-636.75
-640.442
-633.086
-772.225
-679.177
-979.261
-612.746
-1412.88
-334.221
-3038.84
152.356
-6929.41
-1786.74
-565.813
-334.993
-635.74
-638.424
-631.049
-766.514
-674.477
-959.352
-599.035
-1329.01
-299.511
-2517.34
205.523
-7945.02
-1786.18
-565.114
-334.421
-634.852
-636.822
-629.494
-762.538
-671.511
-947.355
-591.789
-1260.61
-263.433
-2116.66
831.279
-7993.8
-1785.5
-564.4
-333.772
-633.817
-635.096
-627.59
-758.442
-667.446
-935.675
-577.299
-1199.91
-162.127
-1785.7
567.849
-8667.23
-1784.75
-563.791
-333.205
-632.902
-633.805
-626.102
-756.208
-665.011
-936.57
-576.762
-1278.86
-196.321
-2269.88
92.8887
-7920.2
-1783.95
-563.254
-332.652
-631.974
-632.667
-624.494
-754.392
-661.661
-934.474
-568.465
-1274.43
-197.393
-2172.6
82.466
-7224.71
-1783.13
-562.86
-332.207
-631.21
-632.015
-623.318
-754.203
-659.262
-938.13
-562.469
-1291.6
-187.093
-2284.11
97.0782
-7980.6
-1782.3
-562.564
-331.815
-630.487
-631.588
-622.082
-754.8
-655.989
-942.478
-546.594
-1269.72
-91.9187
-1850.1
402.451
-9198.59
-1781.51
-562.426
-331.557
-629.978
-631.706
-621.416
-757.239
-654.262
-953.271
-535.572
-1273.04
-53.9843
-2150.96
1181.74
-8600.83
-1780.74
-562.381
-331.348
-629.511
-631.911
-620.642
-760.311
-652.337
-973.025
-529.813
-1424.33
-4.14778
-2916.93
502.118
-8445.94
-1780.05
-562.49
-331.264
-629.284
-632.703
-620.627
-765.47
-652.796
-997.646
-531.113
-1536.59
-28.9637
-3647.42
601.105
-7417.85
-1779.34
-562.716
-331.2
-629.074
-633.108
-620.249
-768.64
-651.828
-1014.41
-528.021
-1594.15
-43.4702
-3165.05
1338.92
-6626.83
-1778.86
-562.824
-331.247
-629.065
-634.229
-620.814
-774.799
-654.537
-1041.62
-537.819
-1685.21
-48.3574
-3199.38
1701.74
-5733.44
-1857.65
-681.795
-386.793
-700.277
-753.342
-733.239
-935.92
-791.912
-1250.63
-711.101
-1833.95
-332.793
-2782.98
1759.89
-10533.8
-1857.31
-680.989
-385.869
-699.142
-750.561
-730.731
-927.828
-786.125
-1226.93
-697.739
-1788.61
-325.289
-3114.4
1524.64
-10342.2
-1856.93
-680.289
-385.248
-698.345
-748.588
-729.331
-922.039
-784.25
-1207.55
-700.061
-1750.05
-441.454
-3098.5
1649.45
-11048.7
-1856.36
-679.344
-384.265
-697.029
-745.605
-726.765
-913.692
-779.605
-1180.75
-690.385
-1626.69
-424.579
-2674.28
2163.66
-11430.1
-1855.68
-678.417
-383.369
-695.803
-743.057
-724.616
-907.282
-775.469
-1162.33
-674.912
-1542.95
-372.386
-2459.9
2253.27
-11749.7
-1854.87
-677.453
-382.381
-694.37
-740.378
-721.961
-901.238
-769.977
-1150.72
-656.589
-1530.43
-213.808
-2438.55
1248.04
-12649.4
-1853.98
-676.559
-381.47
-693.018
-738.158
-719.69
-897.257
-765.967
-1151.75
-649.368
-1649.84
-167.415
-3134.6
358.689
-11073.2
-1853.03
-675.727
-380.59
-691.63
-736.156
-717.257
-893.959
-761.221
-1150.05
-640.387
-1662.78
-172.784
-2998.52
669.199
-9623.64
-1852.05
-675.02
-379.83
-690.382
-734.685
-715.226
-892.377
-757.509
-1153.01
-633.19
-1684.58
-162.184
-3134.7
648.916
-10083.1
-1851.07
-674.424
-379.156
-689.179
-733.576
-713.084
-892.098