/*--------------------------------*- C++ -*----------------------------------*\
| =========                 |                                                 |
| \\      /  F ield         | OpenFOAM: The Open Source CFD Toolbox           |
|  \\    /   O peration     | Version:  4.1                                   |
|   \\  /    A nd           | Web:      www.OpenFOAM.org                      |
|    \\/     M anipulation  |                                                 |
\*---------------------------------------------------------------------------*/
FoamFile
{
    version     2.0;
    format      ascii;
    class       surfaceScalarField;
    location    "17";
    object      phi;
}
// * * * * * * * * * * * * * * * * * * * * * * * * * * * * * * * * * * * * * //

dimensions      [0 3 -1 0 0 0 0];

internalField   nonuniform List<scalar> 
19125
(
70.8658
-3.13037
1707.09
69.041
-14.3028
1289.56
62.8589
-5.21993
1040.51
69.8515
-2.5319
1028.41
80.8219
-6.82654
895.655
117.937
-6.71132
747.947
209.174
22.8909
856.992
411.186
-231.206
213.401
420.05
-150.304
-689.494
157.024
371.981
-1239.9
-45.6198
214.96
-473.064
-106.067
33.5848
472.637
-173.777
-0.834204
836.113
-225.157
-22.0036
1404.95
-1.01934
1735.51
70.4777
-4.08282
1702.84
68.1644
-16.6284
1304.34
61.5825
-6.23241
1077.75
68.226
-3.56341
1056.81
82.5284
-11.7862
904.743
120.647
-9.66205
744.762
245.245
10.3012
821.49
490.402
-403.875
137.927
483.456
-175.938
-699.034
188.894
497.043
-1228.36
-41.3881
261.657
-432.848
-103.108
51.5211
515.337
-170.165
8.4434
872.812
-227.071
-20.2661
1408.96
-0.885215
1705.83
70.2752
-4.72356
1699.62
67.6161
-17.3278
1319.36
60.5981
-6.84431
1104.18
67.0133
-4.64792
1072.06
83.3671
-16.9937
907.468
123.987
-13.689
745.611
293.826
-38.5858
786.932
501.069
-540.098
-99.6406
411.069
-155.449
-900.572
139.881
591.191
-1280.81
-51.7761
264.61
-402.923
-103.049
54.9018
528.357
-171.993
18.3563
885.469
-233.628
-8.07378
1408.51
-1.30741
1651.36
69.9358
-4.73197
1691.77
67.391
-16.5335
1332.85
59.7001
-6.4451
1129.28
65.277
-4.6922
1086.08
80.3537
-18.1562
908.715
121.843
-14.9883
745.412
280.067
-62.4829
746.278
343.724
-521.387
-476.66
189.853
-91.7215
-1211.13
38.8072
552.55
-1250.59
-69.3442
202.526
-308.556
-107.657
34.9879
502.257
-177.04
21.9794
883.702
-231.528
-2.96953
1426.84
-0.875484
1667.01
69.9688
-4.10657
1680.06
66.9436
-14.19
1350.75
58.6401
-5.43646
1155.57
63.48
-4.01855
1099.89
75.8884
-14.3024
909.748
117.456
-12.3739
745.186
244.572
-30.9183
674.247
168.058
-334.109
-770.844
5.82015
-51.6512
-1255.87
4.76512
363.202
-1052.17
-58.7518
115.565
-206.719
-111.846
11.7142
448.255
-182.697
17.4827
873.526
-231.429
-5.2682
1432.7
-0.747109
1672.25
70.2791
-2.76219
1662.87
66.3293
-9.79266
1369.42
57.6887
-3.84361
1182.94
62.0046
-2.79113
1114.72
73.5455
-7.88474
910.691
115.461
-6.32878
746.452
251.472
11.4296
614.584
183.149
-125.446
-797.73
38.4954
-48.2357
-1149.51
70.0573
152.675
-857.012
-24.7549
58.0625
-173.702
-112.017
3.25396
409.662
-186.565
7.41585
870.328
-231.919
-9.75466
1445.14
-0.553491
1670.82
70.9799
-0.944323
1639.75
65.6918
-3.2455
1381.33
57.1636
-1.81948
1205.82
61.3845
-1.52788
1130.79
75.3272
-3.79044
914.702
119.907
-2.21221
752.294
296.067
3.43211
603.242
358.401
-7.89725
-622.828
206.301
-11.6643
-1148.15
122.747
19.9952
-873.42
-16.4735
12.8862
-144.512
-107.395
6.80645
436.606
-184.618
0.989678
879.39
-233.834
-7.72668
1449.91
-0.0328315
1653.71
71.1906
0.993357
1630.17
65.5549
3.91392
1380.76
56.969
0.669045
1210.04
61.0857
-0.0463108
1135.96
74.1052
1.377
916.177
122.913
-2.15016
758.134
286.02
4.22944
567.573
402.713
-4.30561
-600.193
301.357
-5.74086
-1193.38
110.364
-43.6966
-1018.29
-61.5286
-34.7367
-121.872
-111.401
-18.5672
488.026
-182.612
-6.31539
894.666
-238.712
5.95306
1445.71
-0.00631538
1616.34
70.6501
2.75219
1645.64
65.6995
10.128
1378.14
57.087
2.74126
1202.19
61.2943
1.24796
1128.75
75.554
5.07916
914.348
121.065
0.992678
750.916
297.57
-10.2676
604.646
412.673
59.6319
-538.59
279.526
40.8102
-1165.71
115.917
-116.039
-966.484
-39.6829
-77.3828
-148.277
-109.648
-27.7471
459.78
-182.763
-13.9195
885.81
-232.94
8.57238
1452.18
0.817618
1658.34
69.919
4.02533
1668.09
66.182
14.2809
1365.04
57.5225
4.40127
1178.54
61.7919
2.54974
1112.51
74.6105
10.0886
909.941
116.474
6.81256
743.781
272.663
5.53534
627.793
261.331
237.968
-718.909
110.847
55.63
-1136.91
105.427
-291.88
-847.592
-8.30081
-127.139
-186.304
-107.476
-24.7675
410.941
-183.861
-20.4647
875.102
-230.222
3.60867
1445.36
1.36546
1678.33
69.5668
4.61818
1684.92
66.6267
16.4842
1346.49
58.2191
5.58173
1150.89
62.813
3.49768
1097.27
74.5328
14.9086
907.631
115.322
11.0257
740.996
238.882
47.2716
661.579
152.49
442.978
-789.738
8.3382
68.4861
-1210.49
43.1326
-514.024
-977.221
-37.8671
-198.79
-202.195
-108.701
-35.698
440.388
-180.334
-23.8932
880.562
-229.838
1.51043
1436.61
1.7154
1678.08
69.5067
4.59932
1696.07
66.9695
17.2032
1328.7
59.1584
6.17778
1124.19
64.4091
3.775
1083.04
78.4511
15.1523
905.811
118.55
11.6256
740.818
266.807
39.7064
734.532
288.156
522.229
-575.198
133.276
124.542
-1240.09
38.3213
-610.18
-1191.19
-60.2196
-264.602
-274.625
-105.276
-51.6957
498.133
-174.611
-20.0682
891.37
-229.616
6.74203
1432.35
2.2141
1673.65
69.8229
3.97001
1703.46
67.1144
16.4916
1315.56
59.9794
5.76744
1098.93
66.0447
2.99599
1068.74
81.7103
10.8874
904.216
121.156
8.81076
741.444
290.071
-6.82829
781.68
476.323
418.693
-184.626
374.806
157.393
-966.6
128.267
-540.925
-1275.3
-50.8946
-269.86
-384.432
-100.862
-50.5414
533.251
-169.606
-9.62631
893.984
-231.478
18.9012
1414.44
1.81293
1658.38
70.0105
3.04295
1706.29
67.6232
14.1683
1300.78
60.9536
4.91239
1072.3
67.2816
2.18919
1053.16
81.3577
6.19073
901.374
118.469
6.36871
741.061
248.278
-24.6837
816.111
498.303
246.945
113.258
487.461
128.54
-692.852
188.407
-408.603
-1233.49
-42.4597
-221.962
-435.173
-101.483
-35.081
526.653
-167.718
-0.0945121
881.563
-224.908
20.9254
1414.45
1.72051
1712.59
70.3885
1710.25
68.4508
1286.56
62.1877
1035.3
68.8744
1024.67
79.3873
892.325
115.618
744.865
205.943
850.452
412.795
217.954
425.408
-665.411
159.151
-1242.26
-44.0082
-476.219
-104.249
484.293
-171.108
844.915
-222.836
1410.75
1742.7
222.33
-6.60451
1719.65
150.771
-44.6414
1376.04
151.694
-27.9334
1049.41
172.156
-13.3353
1013.87
192.459
-32.255
890.7
229.749
-38.376
728.425
376.957
-48.6676
747.058
538.123
-360.793
178.266
380.189
55.1476
-605.561
-91.8434
398.787
-884.643
-413.218
180.348
-201.979
-535.342
59.0845
564.629
-691.204
-33.4189
997.314
-772.606
-42.9367
1500.44
12.5083
1419.52
218.885
-8.67622
1717.55
148.735
-52.4769
1382.32
150.869
-32.6649
1080.35
167.428
-16.2793
1043.19
188.234
-48.8743
900.557
221.127
-52.9692
726.463
404.986
-126.751
715.714
614.734
-545.965
113.351
423.604
149.852
-602.608
-84.6815
550.535
-871.824
-407.162
228.117
-158.137
-528.564
97.9926
597.831
-695.519
-9.0418
1015.39
-780.299
-42.0579
1492.86
15.8493
1391.38
217.033
-10.2107
1715.36
147.533
-55.4616
1391.85
149.456
-34.6635
1104.25
163.091
-18.3443
1060.49
180.291
-62.1515
903.547
212.261
-66.9983
727.669
410.049
-230.598
692.991
557.242
-651.535
-141.264
312.945
242.425
-748.848
-151.569
643.346
-909.107
-423.129
226.626
-129.872
-538.377
124.356
617.241
-719.953
37.5628
1020.44
-804.041
-20.8112
1471.35
6.08571
1336.82
214.514
-10.1535
1708.61
147.276
-54.0131
1398.64
148.233
-32.876
1126.54
157.516
-16.9926
1075.45
163.193
-61.8812
902.767
190.306
-71.4667
722.767
324.537
-255.464
636.912
262.179
-546.22
-519.617
0.129434
263.637
-970.288
-284.024
549.913
-873.006
-455.689
166.968
-77.2325
-558.332
120.159
609.096
-720.783
55.1384
1028.58
-794.272
-11.7571
1491.28
6.35932
1350.92
214.005
-8.85512
1696.96
147.39
-46.7523
1410.11
146.268
-27.7675
1151.58
151.795
-13.6414
1091.01
144.318
-46.9041
902.247
163.353
-60.8974
715.581
193.007
-132.597
521.726
-56.1368
-311.16
-756.76
-254.893
157.25
-950.727
-365.942
313.019
-704.229
-481.928
101.904
-25.6701
-587.827
89.8766
584.437
-729.746
39.1961
1031.39
-794.357
-14.2932
1499.84
7.32555
1354.84
214.846
-6.19834
1679.16
147.78
-32.0207
1421.75
144.446
-19.1805
1177.69
147.065
-8.9922
1107.45
133.958
-25.2183
902.112
145.104
-35.7977
710.206
172.515
27.7557
426.819
-85.9382
-95.0663
-755.37
-264.509
4.32324
-818.009
-363.605
113.15
-558.047
-496.466
67.7713
-6.70994
-608.773
40.8987
570.946
-736.993
-0.00287281
1037.75
-795.807
-19.1296
1508.79
8.46407
1352.25
217.423
-2.58941
1655.08
148.345
-9.90655
1428.29
143.475
-7.7804
1199.29
145.112
-4.7751
1124.94
138.564
-10.9152
906.947
149.34
-12.8618
718.581
279.222
40.6841
460.432
158.586
43.5267
-640.786
-122.941
-25.4259
-836.875
-334.732
0.891938
-549.371
-473.931
25.8254
36.6334
-593.435
8.40511
588.603
-741.514
-13.7432
1041.21
-802.956
-12.3467
1504.57
6.40829
1334.49
217.987
1.62271
1645.49
148.437
13.8976
1426.51
142.891
5.19581
1202.61
144.505
-0.326591
1129.9
137.456
4.13004
908.18
158.531
0.0158822
724.18
323.632
-3.7751
446.93
315.516
-5.77405
-542.776
15.6108
-1.79909
-917.102
-336.071
-25.989
-639.723
-485.183
-32.4678
85.5326
-587.55
-25.0913
623.889
-753.121
4.05793
1042.44
-819.739
14.1798
1485.8
-6.50986
1298.11
215.799
5.42632
1661.72
147.463
34.4145
1425.96
143.203
16.4107
1195.24
144.984
4.19314
1122.45
140.306
16.6366
906.52
153.462
19.5815
718.194
318.002
-41.0869
477.418
282.31
48.2115
-556.883
-25.6391
29.8229
-889.387
-330.403
-77.8433
-609.867
-480.477
-79.4677
48.7972
-586.756
-60.3355
601.303
-736.187
-4.42608
1043.73
-800.251
21.5023
1508.92
-7.53875
1340.1
213.201
8.19277
1685.23
146.404
47.8948
1418.36
143.726
24.9358
1172.69
146.382
9.30511
1104.74
137.117
34.5404
901.302
146.067
44.0923
710.32
217.76
52.5927
462.42
17.6348
238.047
-708.619
-200.03
-78.5122
-810.906
-333.937
-238.526
-553.002
-480.532
-110.082
-9.09437
-598.873
-101.099
570.046
-729.782
-39.1319
1040.72
-791.369
14.4484
1514
-5.12877
1361.96
212.343
9.60183
1702.66
145.578
54.3862
1406.77
144.626
30.4746
1146.31
149.731
13.5889
1087.88
140.066
52.313
899.524
154.161
60.9449
710.05
169.734
205.488
493.11
-93.2767
470.488
-759.168
-262.943
-227.848
-891.487
-341.004
-489.828
-647.859
-467.518
-158.555
-27.2077
-582.5
-125.895
580.167
-722.131
-57.0215
1038.08
-789.881
11.6492
1507.16
-3.57841
1364.09
212.87
9.75965
1713.75
145.213
55.3691
1395.38
146.134
32.8402
1120.9
154.821
15.9413
1072
156.529
57.2197
899.196
178.431
62.2953
717.565
274.417
232.296
611.739
147.281
635.604
-613.178
-89.0844
-255.218
-976.353
-293.858
-655.286
-820.962
-442.915
-221.781
-62.3418
-550.434
-126.353
606.111
-711.466
-41.0407
1036.42
-788.481
20.6734
1500.34
-2.81722
1362.42
215.401
8.3376
1720.02
145.287
52.1739
1388.87
147.1
31.421
1098.54
160.091
14.7763
1056.92
174.427
47.1438
899.956
202.31
51.7015
724.157
385.22
144.535
686.531
493.747
585.66
-243.208
249.18
-176.635
-800.614
-169.381
-605.003
-907.023
-416.674
-234.867
-124.052
-528.625
-100.906
619.756
-709.913
5.74554
1028.49
-797.521
41.7071
1481.01
-12.2048
1349.67
217.288
6.37569
1721.8
146.415
44.2535
1379.58
148.479
27.099
1074.56
164.52
12.461
1039.44
184.175
31.5777
897.287
214.068
38.3375
724.533
401.616
58.0992
715.001
619.073
401.104
80.3583
427.166
-88.423
-589.155
-83.2935
-442.579
-885.451
-402.581
-186.397
-164.355
-518.835
-62.853
604.855
-685.254
31.1335
1022.6
-773.643
42.7574
1501.79
-9.83191
1405.5
220.76
1723.56
148.372
1373.76
149.221
1043.94
169.278
1010.14
188.918
887.875
224.155
727.544
374.228
745.437
540.196
189.822
383.047
-578.499
-89.7681
-896.524
-406.812
-210.772
-525.163
571.244
-680.177
1004.26
-765.325
1509.85
1435.05
540.929
-15.6605
1514.05
358.03
-56.8399
1574.64
233.229
-59.2685
1190.29
199.564
-37.8515
1059.87
223.064
-67.312
894.837
228.709
-67.5123
747.625
331.539
-155.925
727.99
318.692
-282.191
247.498
-17.397
305.714
-408.026
-539.719
317.423
-447.619
-927.865
83.8009
157.585
-1155.3
16.8953
776.226
-1318.76
-43.4086
1169.96
-1223.62
-7.54599
1403.37
27.4626
835.181
528.573
-19.44
1519.9
346.315
-67.5074
1575.25
231.728
-69.2148
1204.88
196.427
-42.883
1083.52
214.774
-93.297
908.195
214.186
-91.5625
751.102
354.449
-298.473
717.999
363.601
-369.613
191.621
-10.4424
497.319
-420.171
-561.859
423.876
-426.86
-934.585
110.84
187.549
-1161.49
49.769
791.867
-1329.66
-28.0147
1168.16
-1227.14
-3.60178
1386.39
33.5653
818.938
521.071
-21.4561
1522.57
338.385
-72.035
1579.06
228.824
-74.0153
1218.61
192.264
-45.1285
1099.3
199.311
-110.863
914.066
200.66
-119.082
753.841
317.044
-434.804
712.938
261.869
-387.122
-68.5799
-95.4619
607.579
-501.777
-617.227
493.615
-457.081
-973.155
133.679
203.217
-1196.24
90.69
799.407
-1367.56
15.1132
1148.63
-1241.61
-0.553784
1342.35
18.9435
784.311
511.076
-19.9644
1522.17
330.632
-72.0022
1579.06
226.859
-73.8181
1230.11
186.75
-41.7146
1112.14
169.565
-105.514
914.602
160.826
-133.363
745.787
144.926
-417.23
635.238
-91.602
-274.826
-395.386
-351.232
516.802
-619.881
-713.988
416.574
-433.208
-1003.68
117.617
228.517
-1205.91
101.302
800.72
-1357.2
31.3534
1163.62
-1232.49
2.86174
1363.16
17.1834
795.048
504.891
-15.7417
1515.11
325.638
-63.5604
1580.92
224.033
-66.061
1245.43
180.148
-33.8131
1126.99
139.362
-77.5487
915.067
102.413
-113.03
732.198
-57.5389
-206.977
471.425
-441.091
-142.819
-505.214
-580.843
280.647
-574.819
-792.63
230.655
-306.523
-1037.76
83.848
253.231
-1229.36
82.2507
795.086
-1359.94
20.0803
1173.24
-1232.13
2.91863
1371.98
17.3141
797.786
501.643
-9.39798
1500.88
323.467
-44.222
1580.59
221.696
-48.1136
1261.51
174.564
-22.2101
1142.98
124.062
-40.8751
915.94
58.1868
-58.903
721.953
-106.952
27.94
357.04
-494.536
-54.0332
-456.573
-624.135
42.396
-450.159
-818.368
67.2335
-200.393
-1062.02
50.3836
270.403
-1246.68
41.9504
795.905
-1363.2
-6.49481
1180.85
-1231.86
2.68864
1377.68
16.7098
797.535
504.632
-3.67838
1478.13
326.27
-13.1696
1575.6
220.22
-17.59
1274.81
172.878
-10.013
1160.09
132.886
-16.368
922.431
80.2947
-22.2184
734.487
47.0208
88.3504
433.295
-271.072
31.8281
-408.554
-556.982
-45.7104
-462.859
-827.369
-23.2369
-188.514
-1057.59
6.58172
310.656
-1244.81
9.54751
808.226
-1372.99
-11.6518
1174.55
-1235.29
3.8047
1365.76
11.075
786.487
506.139
1.63836
1469.06
327.752
20.7062
1571.02
218.559
18.3942
1275.82
171.675
2.82111
1163.95
134.313
6.22207
922.951
89.5988
6.12061
740.555
186.642
-19.175
457.411
4.14334
6.27942
-334.729
-416.517
10.5419
-552.694
-828.625
2.07912
-252.932
-1070.52
-9.37787
343.386
-1251.44
-10.2728
824.627
-1392.06
14.8221
1156.59
-1243.4
4.92288
1336.02
-7.82027
764.837
502.039
8.32226
1485.5
323.446
48.8644
1576.4
218.994
46.4768
1271.61
172.157
15.2873
1156.82
136.703
27.5293
920.667
86.0508
39.1002
735.865
143.787
-69.421
469.927
-85.8288
44.7729
-365.761
-465.365
20.9016
-520.211
-814.841
-27.3436
-230.967
-1051.08
-45.5907
321.248
-1232.64
-43.9793
816.573
-1365.37
13.9218
1177.36
-1232.83
7.07462
1374.22
-11.1188
792.449
499.613
15.108
1507.54
320.57
65.9519
1580.31
219.425
62.9543
1257.36
172.869
27.2822
1139.31
128.925
59.1927
913.583
72.001
82.3526
723.991
-39.3678
95.3357
409.032
-405.574
134.923
-432.563
-587.658
-163.438
-444.482
-802.455
-167.598
-197.95
-1046.79
-82.2669
271.922
-1233.81
-83.2961
796.374
-1354.53
-11.8458
1187.2
-1229.04
4.70784
1390.88
-9.56317
807.944
503.128
19.536
1521.32
322.497
72.9811
1580.37
220.014
70.8001
1240.94
175.665
36.7844
1122.73
132.411
91.5746
910.395
81.0058
118.978
724.83
-98.024
338.282
429.193
-486.266
247.619
-483.622
-594.708
-428.277
-518.207
-776.251
-366.403
-267.51
-1024.24
-110.315
248.829
-1218.67
-102.583
793.884
-1350.14
-25.9208
1183.63
-1229.04
3.72904
1387.04
-8.25788
809.739
509.521
21.152
1527.72
327.429
72.1163
1578.33
222.103
71.5956
1225.43
181.39
41.8009
1107.7
157.986
104.756
909.421
140.085
116.09
738.356
66.097
434.085
589.924
-229.788
379.007
-448.679
-432.6
-589.231
-612.586
-720.176
-506.341
-393.447
-988.244
-136.027
231.44
-1191.62
-92.2985
799.199
-1345.03
-12.5021
1176.42
-1228.72
6.42118
1381.34
-9.19723
810.31
519.646
19.2457
1527.55
335.127
67.1278
1578.37
223.727
67.5034
1214.03
186.632
40.8306
1094.99
189.376
92.5212
909.448
187.797
91.9167
749.91
269.722
335.499
703.192
175
407.563
-177.04
-147.975
-538.026
-528.843
-622.659
-476.851
-461.829
-959.482
-121.932
198.677
-1179.34
-51.7278
799.047
-1354.4
29.6984
1161.34
-1237.65
8.98525
1361.7
-23.7382
801.912
527.303
15.5284
1524.39
343.132
56.2759
1574.6
226.703
58.0689
1200.43
191.051
36.6094
1079.31
208.396
68.0849
904.379
207.227
67.6805
749.941
349.147
184.318
724.262
367.496
312.893
156.682
3.33818
-352.545
-410.477
-552.465
-356.937
-449.56
-921.778
-92.5042
175.531
-1143.73
-18.4338
793.512
-1315.77
44.8538
1179.48
-1223.19
12.0712
1406.12
-20.5653
840.184
539.713
1518.16
354.821
1574.23
228.188
1186.27
194.322
1055.94
218.616
891.756
223.573
748.067
334.682
733.049
326.811
263.785
-9.39089
-390.082
-530.654
-472.967
-913.644
140.575
-1136.1
776.354
-1303.42
1181.11
-1219
1424.8
858.915
911.406
-20.4869
1076.99
852.78
-53.631
1646.83
597.61
-79.1579
1464.56
359.613
-71.5585
1314.77
218.234
-93.5745
1067.5
136.707
-88.8839
859.546
169.36
-237.054
799.811
-50.7977
-85.4363
431.679
-522.453
366.016
-63.0216
-1002.72
207.044
-16.4358
-1348.98
46.1653
491.922
-1546
12.8773
964.529
-1588.02
3.0259
1209.33
-1274.14
52.929
1065.39
38.739
442.598
899.78
-25.3312
1087.69
830.883
-62.3358
1652.85
579.745
-92.541
1469.4
346.857
-80.3108
1325.16
206.726
-121.566
1076.32
131.506
-127.265
864.703
210.715
-404.574
806.309
-26.4996
-51.797
395.196
-540.7
537.67
-77.624
-1034.13
263.873
9.73843
-1370.02
57.8115
511.795
-1557.06
26.3314
965.454
-1591.73
11.5476
1194.31
-1272.03
64.9831
1054.63
46.993
447.596
892.85
-28.4796
1093.61
815.994
-63.8675
1657.45
565.038
-98.2032
1475.23
334.505
-83.9205
1333.44
185.749
-139.646
1080.9
122.967
-178.994
868.352
148.268
-529.692
812.755
-112.846
-68.5764
209.313
-566.209
617.317
-128.061
-1072.49
337.199
-24.1275
-1415.19
96.6522
507.077
-1588.86
50.4577
948.952
-1606.55
25.8267
1152.04
-1266.95
49.0232
1018.71
34.1576
451.029
881.169
-27.299
1099.43
797.375
-60.6615
1659.64
549.874
-98.9927
1478.4
320.653
-81.4449
1338.89
146.821
-131.67
1080.46
58.541
-206.647
861.72
-96.0544
-472.015
732.156
-430.057
-60.6479
-69.3127
-725.627
505.47
-212.464
-1122.79
320.229
-19.079
-1423.65
108.632
517.402
-1587.64
60.3396
954.823
-1597.67
32.8086
1166.68
-1264.94
43.6016
1035.85
28.9667
458.278
871.369
-22.2373
1099.34
782.156
-49.7419
1659.21
534.772
-89.0522
1482.87
303.522
-69.6427
1346.44
105.701
-97.7383
1078.96
-56.7063
-159.048
847.005
-361.569
-254.426
558.698
-748.785
-37.3627
-141.283
-919.34
270.645
-169.439
-1175.47
190.887
78.9449
-1436.51
87.8883
535.021
-1596.73
57.1338
958.506
-1596.65
28.0567
1177.92
-1265.64
41.4327
1043.14
26.4424
460.002
861.98
-13.224
1093.78
770.256
-31.5845
1654.16
522.022
-64.9847
1485.68
289.377
-48.2975
1354.28
85.0835
-54.6484
1077.14
-124.929
-59.5956
832.512
-454.074
-27.0531
458.812
-829.715
-25.0213
-93.2731
-982.142
34.2793
-61.3662
-1202.04
43.7186
166.672
-1449.93
51.9686
554.214
-1603.67
43.2288
963.55
-1595.86
17.0651
1184.03
-1265.75
38.5086
1050.5
20.3196
465.779
858.265
-4.06874
1080
768.925
-8.68436
1642.04
515.603
-22.3871
1485.54
283.467
-18.9174
1362.84
91.4738
-21.4344
1081.21
-63.4447
-11.0492
840.859
-268.396
77.8002
533.392
-650.13
20.7865
-72.6278
-943.607
-52.6616
-82.4415
-1228.71
-35.6182
175.921
-1463.83
8.03365
589.714
-1606.62
20.6552
973.587
-1598.76
11.2904
1172.46
-1262
29.6779
1037.83
16.2712
463.084
858.169
3.94851
1074.33
770.918
14.1262
1635.46
513.47
27.8487
1483.03
280.249
14.513
1363.74
92.4573
9.11486
1080.19
-28.2045
7.36213
842.805
-58.4251
-14.336
579.767
-338.457
12.7591
-46.6707
-805.627
24.4525
-162.638
-1234.71
16.4153
124.12
-1490.35
2.82289
604.231
-1614.09
-0.531366
969.554
-1602.06
11.4102
1144.44
-1255.94
-0.0700983
1019.65
1.39161
468.63
858.569
13.051
1085.45
767.666
36.0037
1645.42
514.348
67.2357
1485.54
281.911
42.8914
1360.88
94.2729
38.5532
1078.87
-37.3096
34.3834
840.426
-131.397
-26.9572
576.635
-455.287
36.3283
-65.4409
-852.033
34.7678
-133.78
-1216.24
4.5787
145.079
-1461.58
-30.6245
600.029
-1596.66
-29.429
980.558
-1592.5
6.40317
1178.21
-1259.47
-13.5329
1054.65
-3.82712
476.87
862.515
21.9628
1098.47
769.485
52.7123
1656.64
520.162
88.9822
1484.94
286.917
63.5843
1351.86
87.0649
77.6727
1074.32
-96.4749
109.531
832.384
-370.325
154.888
501.037
-754.773
66.4791
-78.2654
-957.553
-146.209
-60.726
-1195.31
-125.227
169.608
-1440.28
-75.2389
561.511
-1592.8
-49.5632
969.025
-1590.14
-6.36687
1197.32
-1264.18
-20.4609
1071.85
-7.88371
480.169
871.765
27.1038
1103.64
781.115
62.4452
1661.29
531.02
98.2779
1481.74
296.614
77.2698
1343.45
94.0712
116.952
1073.66
-94.4402
185.468
837.404
-424.192
396.345
517.487
-806.361
83.1378
-118.111
-941.835
-412.44
-116.502
-1165.8
-281.127
112.359
-1424.11
-100.178
532.076
-1585.61
-54.4865
960.308
-1589.86
-15.4179
1196.93
-1265.01
-26.3651
1068.09
-10.4732
477.557
881.534
28.3758
1103.19
796.288
64.7837
1661.24
545.467
97.4556
1477.07
312.858
81.6903
1335.89
128.842
134.72
1075.67
15.5151
182.955
854.195
-203.083
525.502
679.365
-566.244
106.082
-108.464
-798.644
-588.522
-204.106
-1126.98
-360.459
14.2247
-1408.28
-105.1
517.653
-1573.79
-46.9335
957.164
-1590.26
-13.0024
1190.47
-1265.09
-34.4877
1064.3
-15.0136
477.433
893.199
25.3034
1096.91
814.919
62.6992
1658.74
560.467
91.9979
1473.94
327.156
79.2804
1330.71
171.167
122.984
1077.17
104.262
134.999
864.77
73.7938
455.055
804.106
-203.352
97.4744
108.713
-595.767
-574.999
-149.95
-1068.86
-315.894
-33.3038
-1399.89
-71.8459
496.458
-1573.21
-22.5136
947.948
-1599.55
-1.57463
1176.25
-1268.35
-53.6686
1049.68
-29.3821
472.914
900.162
20.4663
1090.6
829.947
53.6395
1653.88
575.535
78.6933
1468.14
340.507
70.9734
1322.65
198.058
96.3259
1073.49
126.982
92.1427
863.874
208.119
281.303
816.878
-17.397
105.669
374.004
-515.503
-409
-78.3692
-1020.38
-247.305
-13.2679
-1357.28
-56.383
496.966
-1541.04
-9.55175
964.307
-1584.91
3.89822
1217.88
-1275.85
-44.2525
1087.65
-27.2483
472.64
911.732
1079.62
851.791
1647.8
593.487
1463.59
353.587
1312.67
212.625
1065.29
133.9
860.122
181.181
808.359
-28.7934
450.15
-503.572
-59.5585
-988.929
-45.2168
-1334.73
471.116
-1527.91
960.299
-1580.21
1233.01
-1278.22
1100.75
469.207
1061.76
-14.429
703.196
1257.89
-48.3704
1463.55
1168.19
-73.4356
1570.58
895.018
-93.1975
1608.39
543.189
-112.896
1447.65
212.189
-90.4174
1213.68
27.3357
-217.422
1067.25
-350.795
-2.97372
761.466
-823.474
240.646
335.729
-1142.36
169.357
266.542
-1374.45
57.9175
711.88
-1481.36
37.49
1058.43
-1457.95
52.6649
1172.68
-1148.8
89.6384
724.795
56.376
397.716
1057.97
-17.9891
710.035
1241.96
-54.0195
1474.51
1143.54
-84.6767
1579.07
864.922
-105.269
1615.85
511.219
-134.896
1452.02
197.956
-124.613
1212.16
55.001
-339.25
1071.09
-337.831
56.0145
729.039
-834.347
352.776
306.763
-1161.69
218.302
288.139
-1396.31
70.3482
733.983
-1489.9
43.6412
1052.89
-1454.46
61.9689
1149.57
-1150.82
101.196
739.435
66.6425
421.01
1056.96
-21.9306
713.994
1232.35
-52.4319
1480.48
1125.07
-87.0039
1584.84
840.741
-109.167
1621.67
479.457
-147.669
1454.96
186.96
-175.006
1211.24
12.7915
-428.509
1076.18
-365.871
17.5019
626.488
-805.852
412.487
252.209
-1170
318.461
239.863
-1425.23
132.171
700.484
-1501.83
53.0002
1016.19
-1445.09
60.0334
1097.24
-1147.07
91.3374
730.543
55.3086
448.144
1051.39
-22.8635
719.414
1216.09
-44.7319
1487.24
1101.53
-84.1366
1590.1
812.485
-107.419
1626.18
433.233
-143.361
1455.4
119.714
-205.053
1205.28
-220.738
-383.102
1027.2
-625.953
-55.5547
408.958
-906.883
364.174
116.779
-1198.12
352
238.622
-1428.58
170.285
709.74
-1506.42
64.6488
1021.02
-1446.39
60.7257
1105.95
-1150.04
84.6319
746.205
47.6486
452.734
1045.55
-21.4013
722.174
1201.24
-30.9304
1489.72
1078.03
-71.1383
1593.08
779.305
-92.8521
1630.6
374.909
-114.768
1454.76
-18.1263
-159.493
1194.48
-519.852
-225.601
902.923
-943.774
-35.7372
262.82
-1085.62
207.059
129.517
-1241.22
218.723
367.828
-1431.32
132.71
762.692
-1512.53
70.4629
1033.9
-1447.48
59.2218
1114.37
-1149.76
78.0091
752.04
46.1708
453.139
1036.47
-15.1007
723.037
1185.29
-14.492
1488.9
1055.15
-48.3294
1593
747.979
-64.6753
1633.27
329.313
-71.4249
1452.47
-118.207
-60.1325
1180.67
-659.584
-45.6829
820.27
-1057.69
10.6418
258.454
-1158.43
14.7511
231.676
-1268.93
14.0217
481.876
-1439.44
53.6326
803.808
-1514.49
69.1864
1039.87
-1446.13
56.4617
1118.43
-1152.56
66.1039
768.844
30.4108
471.46
1027.09
-4.21787
720.026
1176.52
-2.83071
1480.95
1042.18
-15.5645
1587.11
730.377
-23.1475
1633.11
315.528
-27.1319
1451.76
-70.9367
-10.1116
1177.3
-487.958
43.7333
860.996
-886.266
54.4234
281.898
-1100.68
-44.3394
191.066
-1292.21
-70.6878
452.156
-1465.83
-1.90241
818.871
-1518.13
43.2379
1051.84
-1442.76
38.8295
1114.73
-1144.86
41.9331
764.101
19.25
480.252
1024.65
6.86968
718.8
1176.7
4.71002
1475.88
1040.79
20.8182
1582.56
725.91
24.4404
1631.03
310.221
18.85
1449.9
-39.4179
7.91516
1174.42
-301.002
-1.9926
887.076
-614.09
18.0064
302.834
-950.805
27.7498
101.987
-1281.56
30.7107
353.472
-1488.1
12.5091
796.365
-1514.25
1.16844
1037.77
-1427.59
8.71239
1087.9
-1134.74
1.91377
766.822
0.978986
506.973
1030.87
14.8571
722.004
1180.33
17.6722
1483.01
1045.3
53.04
1588.35
732.238
65.1271
1633.26
317.766
60.6778
1451.51
-45.0772
34.9705
1176.21
-362.756
5.73516
886.586
-710.906
9.57864
291.136
-1003.8
55.1211
131.739
-1277.57
54.2945
395.272
-1469.32
-13.7739
818.06
-1509.89
-41.165
1063.46
-1433.03
-12.2782
1122.34
-1137
-24.584
785.113
-4.19657
501.437
1038.67
20.418
724.639
1188.21
33.8063
1490.97
1057.68
74.6053
1593.89
749.337
92.2451
1633.09
330.383
101.722
1452.23
-95.118
113.222
1179.63
-585.584
150.373
846.864
-986.319
55.8645
276.183
-1130.68
-83.835
222.596
-1268.24
-114.196
475.658
-1438.88
-96.4694
814.843
-1507.12
-59.1461
1055.24
-1440.64
-22.2684
1140.83
-1145.96
-43.2158
795.801
-18.4263
498.489
1046.78
22.2624
723.542
1202.86
46.9733
1492.03
1078.4
86.6638
1594.14
775.7
107.96
1630.44
360.781
136.737
1453.56
-67.589
189.721
1189.28
-605.299
334.093
871.477
-1020.56
89.3708
263.642
-1120.71
-287.78
187.595
-1239.44
-308.617
425.508
-1422.16
-160.986
779.312
-1504.74
-58.6704
1042.42
-1444.81
-32.706
1147.44
-1145.76
-56.2342
782.05
-20.3319
482.444
1052.34
21.665
720.585
1217.35
54.0893
1489.11
1101.36
88.8298
1590.91
808.771
110.501
1625.93
418.575
147.951
1454.65
75.8873
184.058
1202.55
-336.463
430.942
994.867
-765.256
56.3814
353.32
-985.005
-384.325
112.189
-1210.1
-362.609
293.313
-1418.82
-170.576
735.966
-1498.2
-55.5892
1033.46
-1444.89
-40.5519
1145.01
-1146.9
-69.6167
779.696
-26.9411
482.045
1057.77
17.9181
715.015
1233.45
55.2337
1481.91
1124.73
86.0532
1585.45
837.748
106.744
1621.44
469.355
138.765
1454.75
171.748
135.981
1210.45
-52.2158
384.178
1074.83
-441.352
-9.20295
563.434
-826.875
-364.098
215.347
-1165.16
-291.112
233.481
-1411.65
-125.015
697.39
-1489.57
-47.1518
1017.44
-1441.96
-48.0067
1136.1
-1144.5
-84.9861
767.592
-38.1024
480.328
1058.68
14.4255
710.937
1243.02
49.1584
1475.61
1143.41
74.3317
1579.48
862.997
94.2095
1615.59
506.483
116.7
1452.07
197.862
95.8978
1212.58
63.797
254.925
1080.2
-315.242
16.6891
727.152
-807.868
-260.846
311.006
-1147.93
-225.92
261.604
-1387.96
-99.0765
711.063
-1478.68
-39.2768
1047.15
-1453.67
-43.3331
1188.21
-1154.19
-76.9813
780.164
-38.1267
456.563
1062.4
704.004
1258.84
1464.49
1168.01
1571.04
893.156
1608.39
540.257
1447.98
212.541
1214.76
43.5868
1074.5
-318.538
777.88
-799.456
345.172
-1130.44
238.511
-1366.4
681.32
-1467.5
1043.73
-1456.29
1211.12
-1152.8
768.791
433.276
1083.01
-6.98626
551.553
1346.93
-38.0696
1210.15
1490.12
-56.4745
1439.37
1454.97
-84.9978
1661.59
1216.83
-113.516
1710.32
831.928
-105.847
1619.76
449.266
-161.813
1499.28
-73.1952
-60.2357
1268.91
-684.205
144.815
892.414
-999.108
274.615
527.687
-1141.61
167.982
839.537
-1147.29
41.74
1061.86
-1246.78
56.3871
1275.42
-1093.52
170.233
515.772
145.029
432.19
1082.04
-8.45288
553.422
1341.17
-41.6816
1218.99
1476.35
-63.3392
1450.75
1428.91
-95.5596
1673.85
1176.23
-129.377
1720.56
786.159
-125.704
1622.09
421.351
-226.467
1500.55
-108.409
-46.6441
1245.21
-724.144
223.843
843.47
-1023.93
352.458
510.085
-1164.52
194.813
847.736
-1167.66
38.5019
1059.27
-1249.92
54.4696
1233.74
-1105.25
198.622
566.375
184.424
478.834
1083.61
-11.6894
554.588
1340.08
-40.6694
1223
1467.59
-62.4251
1456.41
1409.72
-96.9545
1680.93
1143.12
-134.864
1727.05
754.744
-149.294
1623.2
388.756
-288.028
1503.73
-119.794
-114.978
1203.37
-672.85
236.67
792.437
-970.715
435.567
454.619
-1153.44
294.458
783.568
-1180.42
102.144
979.529
-1258.53
61.6386
1168.18
-1128.32
176.198
622.749
100.432
592.902
1082.17
-13.6017
556.737
1333.18
-34.0198
1229.58
1452.29
-56.1104
1464.67
1383.97
-92.5046
1690.06
1100.5
-130.598
1734.6
696.379
-164.324
1624.44
231.007
-292.24
1496.78
-383.366
-175.264
1083.62
-829.992
192.995
607.079
-987.257
442.643
388.809
-1142.34
359.934
799.349
-1179.01
165.778
994.055
-1235.4
82.5908
1141.39
-1096.27
150.203
633.071
61.5855
617.567
1081
-15.7222
558.432
1326.61
-23.088
1233.17
1436.58
-42.3545
1469.36
1354.9
-76.7479
1696.53
1047.14
-108.258
1740.18
589.322
-137.185
1625.16
-70.1438
-191.036
1461.18
-821.282
-88.4326
927.126
-1127.2
128.481
499.952
-1098.05
260.662
520.655
-1159.88
243.372
941.084
-1181.69
148.477
1073.01
-1218.49
92.0068
1141.75
-1073.37
121.443
635.685
70.6364
610.488
1075.47
-13.5344
560.209
1314.53
-9.67334
1236.43
1417.25
-24.5517
1472.48
1323.68
-50.9207
1701.02
995.547
-71.1844
1743.52
490.213
-74.4336
1623.25
-253.464
-49.7292
1422.64
-1002.98
53.2141
866.326
-1246.71
74.4095
529.47
-1173.26
9.41038
659.676
-1186.29
21.5278
1038.68
-1186.25
82.6253
1105.69
-1214.59
100.477
1138.3
-1080.87
81.804
674.767
54.7833
641.773
1067.15
-3.57296
561.503
1304.1
-1.05376
1235.39
1404.3
-6.78798
1469.15
1303.85
-16.5804
1699.22
966.615
-24.8344
1742.65
473.434
-22.489
1618.54
-158.282
16.0139
1426.97
-816.023
101.07
891.783
-1121.08
60.1943
510.333
-1143.04
-87.263
570.795
-1194.86
-94.3272
986.541
-1169.96
-2.7854
1112.35
-1174.01
40.4542
1178.79