/*--------------------------------*- C++ -*----------------------------------*\
| =========                 |                                                 |
| \\      /  F ield         | OpenFOAM: The Open Source CFD Toolbox           |
|  \\    /   O peration     | Version:  4.1                                   |
|   \\  /    A nd           | Web:      www.OpenFOAM.org                      |
|    \\/     M anipulation  |                                                 |
\*---------------------------------------------------------------------------*/
FoamFile
{
    version     2.0;
    format      ascii;
    class       volVectorField;
    location    "17";
    object      U;
}
// * * * * * * * * * * * * * * * * * * * * * * * * * * * * * * * * * * * * * //

dimensions      [0 1 -1 0 0 0 0];

internalField   nonuniform List<vector> 
6750
(
(2.92978 -0.0112902 19.0267)
(-0.31881 -0.0563239 14.4057)
(1.28832 -0.020075 11.6268)
(0.481351 -0.00861848 11.6153)
(0.879782 -0.0225453 10.132)
(1.13305 -0.0230431 8.74113)
(1.42008 0.0910441 10.6594)
(3.06582 -0.743852 3.08768)
(6.5088 -0.75997 -8.05925)
(2.9163 1.5979 -15.8579)
(0.0348661 0.964992 -7.09964)
(-0.35635 0.116564 4.85858)
(-2.68165 -0.0149668 8.64638)
(-0.312101 -0.0867696 14.9891)
(-6.45087 -0.00483846 20.1612)
(2.91114 -0.0218561 18.9819)
(-0.30892 -0.0966441 14.6008)
(1.26614 -0.0350004 12.0528)
(0.464707 -0.0175617 11.934)
(0.863978 -0.0527092 10.2506)
(1.20052 -0.04652 8.72018)
(1.36501 0.148998 10.3646)
(4.06438 -1.74693 2.05425)
(7.18397 -0.9288 -8.45116)
(3.63499 2.51541 -15.7738)
(0.0656812 1.41769 -6.92959)
(-0.303267 0.257903 5.35874)
(-2.62335 0.0124953 9.1551)
(-0.303348 -0.148664 15.0871)
(-6.53206 -0.0058367 19.8243)
(2.89654 -0.0247847 18.9484)
(-0.300416 -0.0938232 14.7842)
(1.25141 -0.0366511 12.3485)
(0.450456 -0.0235559 12.102)
(0.854661 -0.0825959 10.2989)
(1.23841 -0.0656564 8.74314)
(1.36694 -0.069864 10.0482)
(5.24407 -2.82996 -0.646578)
(6.14672 -1.0913 -11.0675)
(3.04389 3.09839 -16.4416)
(-0.342806 1.55959 -6.63196)
(-0.229398 0.319692 5.45686)
(-2.65979 0.0820443 9.28223)
(-0.307312 -0.0767027 15.1466)
(-6.72286 -0.00609788 19.2249)
(2.88349 -0.0276236 18.8635)
(-0.293414 -0.0988515 14.9537)
(1.24332 -0.0389118 12.6333)
(0.431231 -0.0275598 12.2613)
(0.841207 -0.1053 10.3412)
(1.17106 -0.0852472 8.77753)
(1.40924 -0.338707 9.71787)
(4.90436 -3.28601 -4.68493)
(2.92028 -0.719242 -14.7631)
(1.25227 3.50302 -16.2371)
(-0.779099 1.40889 -5.34748)
(-0.207461 0.273435 5.04741)
(-2.76623 0.120855 9.1893)
(-0.316415 -0.0180972 15.3551)
(-6.65405 -0.00670875 19.4053)
(2.87979 -0.0255627 18.7371)
(-0.287057 -0.0876743 15.1672)
(1.23229 -0.0337731 12.928)
(0.411118 -0.0252661 12.4162)
(0.827585 -0.0973089 10.3773)
(1.0641 -0.0822024 8.81577)
(1.44994 -0.330938 9.15676)
(4.03647 -2.53333 -7.6913)
(-0.0970783 -0.212817 -15.6391)
(0.0287122 2.73703 -14.0069)
(-0.396571 0.872544 -3.97122)
(-0.215839 0.12155 4.24439)
(-2.86985 0.125275 8.96929)
(-0.32971 -0.0178534 15.403)
(-6.63615 -0.00385363 19.467)
(2.88742 -0.0201914 18.5489)
(-0.283232 -0.0708356 15.3896)
(1.22007 -0.0266462 13.2374)
(0.394883 -0.0193785 12.5829)
(0.815953 -0.0608124 10.4054)
(1.01472 -0.0545978 8.86876)
(1.46162 0.00313962 8.68826)
(4.17032 -1.22715 -7.72829)
(0.148494 -0.363283 -14.6739)
(0.450718 1.39894 -11.6858)
(0.527298 0.425156 -3.613)
(-0.187225 0.00409109 3.61048)
(-2.93741 0.0674073 8.8316)
(-0.338826 -0.0407188 15.5575)
(-6.63775 -0.00433995 19.4571)
(2.91259 -0.0107921 18.2907)
(-0.283718 -0.0383662 15.5326)
(1.20976 -0.0165152 13.5001)
(0.388316 -0.0124178 12.7632)
(0.810585 -0.0325676 10.4513)
(1.07353 -0.0179541 8.94122)
(1.4559 0.056273 8.44319)
(5.24116 -0.169355 -5.41492)
(2.98946 -0.205048 -14.3607)
(1.35802 0.285159 -12.2872)
(0.746638 0.214801 -3.63105)
(-0.130032 0.0661474 4.00336)
(-2.89294 0.0208396 8.94389)
(-0.336533 -0.070085 15.6421)
(-6.69601 -0.00147251 19.2735)
(2.92446 0.000225698 18.182)
(-0.285979 0.00215498 15.5294)
(1.20866 -0.00332676 13.5521)
(0.383497 -0.00447724 12.8227)
(0.811173 -0.00718087 10.4698)
(1.04198 -0.0117477 9.0089)
(1.5554 0.0116295 7.99202)
(4.90416 0.0315926 -5.83522)
(4.34386 0.0724846 -14.6375)
(2.13197 -0.0907012 -14.3495)
(-0.244966 -0.0615847 -3.76832)
(-0.236419 -0.00766433 4.70259)
(-2.84285 -0.00903675 9.17056)
(-0.343669 -0.00612248 15.649)
(-6.83208 -0.000289396 18.864)
(2.90289 0.0109434 18.3561)
(-0.284009 0.0413049 15.497)
(1.20962 0.0101774 13.459)
(0.387539 0.00366122 12.7404)
(0.808662 0.0198468 10.4466)
(1.08503 -0.00871231 8.92533)
(1.45811 0.0074874 8.39474)
(5.27998 -0.046757 -4.51682)
(4.1746 -0.118771 -14.2316)
(1.82881 -0.374574 -13.5537)
(0.193149 -0.330161 -3.83395)
(-0.194871 -0.187004 4.34889)
(-2.86104 -0.0630911 9.04868)
(-0.332587 0.0628374 15.6642)
(-6.67643 0.00180141 19.324)
(2.87925 0.019887 18.6059)
(-0.285498 0.071834 15.3402)
(1.2184 0.0205756 13.1885)
(0.393775 0.0107288 12.5584)
(0.810624 0.0399616 10.3956)
(1.05552 0.0218789 8.83549)
(1.41158 -0.0866397 8.7685)
(4.7443 0.726782 -6.57996)
(1.29374 0.547815 -14.4664)
(0.957097 -0.898871 -11.6036)
(0.83211 -0.545082 -3.87892)
(-0.137932 -0.143266 3.62664)
(-2.89328 -0.0962738 8.90582)
(-0.324508 0.0333587 15.5443)
(-6.60942 0.0069407 19.534)
(2.8722 0.0249812 18.79)
(-0.291011 0.0877303 15.119)
(1.22876 0.0283382 12.8762)
(0.405494 0.0175979 12.387)
(0.817875 0.0737681 10.3564)
(1.04358 0.0538369 8.77711)
(1.41856 0.174967 9.08459)
(3.94267 1.94812 -7.84134)
(-0.335245 0.151844 -15.2394)
(0.306849 -2.3988 -13.1264)
(0.126931 -0.87452 -3.93957)
(-0.19315 -0.140006 4.10463)
(-2.83473 -0.1324 9.05391)
(-0.314013 0.00797939 15.4424)
(-6.61284 0.00823966 19.5228)
(2.87662 0.0269199 18.9097)
(-0.29866 0.0982727 14.9066)
(1.23884 0.034605 12.5769)
(0.423627 0.0217533 12.227)
(0.82949 0.0917415 10.3123)
(1.13655 0.0690121 8.73102)
(1.37414 0.318207 9.65226)
(4.64709 3.00209 -5.59237)
(1.93174 0.485826 -15.1862)
(0.950038 -3.44719 -15.5803)
(-0.531059 -1.37004 -4.89302)
(-0.190564 -0.26212 4.97452)
(-2.73574 -0.134398 9.28083)
(-0.295587 0.0109436 15.415)
(-6.62854 0.0117046 19.4651)
(2.89008 0.0241114 18.9893)
(-0.306585 0.0930694 14.7411)
(1.2462 0.0335256 12.2905)
(0.441716 0.0196058 12.064)
(0.842263 0.0756333 10.2648)
(1.21055 0.0583028 8.69658)
(1.33626 0.097102 10.0015)
(5.2016 2.8821 -1.44504)
(5.61795 0.949791 -11.7855)
(2.75443 -3.36492 -16.3774)
(-0.329439 -1.59652 -6.36903)
(-0.202824 -0.300664 5.50415)
(-2.63475 -0.0883074 9.38874)
(-0.283015 0.0689895 15.2128)
(-6.69623 0.0113572 19.2858)
(2.90503 0.0212391 19.0184)
(-0.315726 0.0958121 14.5606)
(1.26073 0.032777 11.9925)
(0.456027 0.0149933 11.892)
(0.852025 0.0486693 10.2129)
(1.18531 0.0437945 8.67327)
(1.32994 -0.146027 10.3013)
(4.1802 1.88072 1.84955)
(7.23828 0.875264 -8.4477)
(3.66504 -2.73965 -15.7971)
(0.0250471 -1.46936 -6.9427)
(-0.28561 -0.262609 5.48983)
(-2.59882 -0.0190657 9.2681)
(-0.276978 0.14097 15.1516)
(-6.50888 0.0109565 19.8782)
(2.92382 0.0109805 19.0597)
(-0.326058 0.0557895 14.3718)
(1.28241 0.0190246 11.569)
(0.472071 0.00747653 11.5716)
(0.868071 0.0200996 10.0925)
(1.1096 0.0218335 8.69857)
(1.39473 -0.105691 10.5718)
(3.01949 0.780783 3.10296)
(6.604 0.592036 -7.80529)
(2.92653 -1.7752 -15.8473)
(0.062907 -0.995027 -7.11667)
(-0.338428 -0.125647 4.99666)
(-2.65412 0.0115094 8.76226)
(-0.283152 0.0828461 15.0584)
(-6.42764 0.00736658 20.2166)
(8.89472 -0.0238649 19.4603)
(-1.20837 -0.181011 14.486)
(3.11468 -0.112828 11.7541)
(1.13346 -0.0500149 11.5753)
(2.30133 -0.11082 10.0655)
(2.24575 -0.137233 8.15834)
(2.93426 -0.107038 8.8184)
(5.36888 -1.34486 2.11161)
(7.17104 -0.0126348 -7.15536)
(1.0775 1.65578 -12.0861)
(-3.75273 0.764647 -3.89703)
(-4.88802 0.1861 5.49323)
(-7.95444 -0.166097 9.9786)
(-5.46236 -0.173943 16.6985)
(-16.8157 0.0375664 18.7425)
(8.83041 -0.046143 19.4075)
(-1.22321 -0.302493 14.6288)
(3.10394 -0.187368 12.1696)
(1.09826 -0.0896179 11.8941)
(2.24644 -0.237265 10.154)
(2.18813 -0.270038 8.11704)
(2.83254 -0.423455 8.3638)
(6.13955 -2.64062 1.42251)
(7.99308 0.59988 -7.05636)
(1.26846 2.74624 -11.9331)
(-3.78019 1.21956 -3.24414)
(-4.70584 0.453245 5.95657)
(-7.95259 -0.195296 10.3008)
(-5.57247 -0.296195 16.6957)
(-16.9338 0.101802 18.4065)
(8.78441 -0.0533686 19.3664)
(-1.22355 -0.297107 14.7874)
(3.09351 -0.186812 12.4709)
(1.05728 -0.098064 12.069)
(2.20554 -0.318645 10.1716)
(2.01122 -0.337986 8.12295)
(2.91081 -1.01203 7.9719)
(6.12563 -3.62681 -1.21617)
(6.578 0.96184 -9.09148)
(0.307531 3.4793 -12.4539)
(-4.23577 1.34748 -2.88499)
(-4.7095 0.655784 6.16637)
(-8.14058 0.10159 10.4598)
(-5.93677 -0.171219 16.6322)
(-17.2027 0.0619596 17.7699)
(8.73775 -0.0597248 19.2729)
(-1.22718 -0.320773 14.9259)
(3.09946 -0.198093 12.7536)
(1.00484 -0.104173 12.2244)
(2.14983 -0.369951 10.1614)
(1.62399 -0.406918 8.09362)
(2.93679 -1.52932 7.44593)
(4.12607 -3.70028 -5.71373)
(1.85764 1.68143 -12.4247)
(-2.00618 3.69918 -12.0087)
(-4.77469 1.19143 -2.07435)
(-4.99473 0.730677 5.99516)
(-8.28315 0.307079 10.5083)
(-5.81709 -0.0695064 16.8368)
(-17.1011 0.0217611 17.945)
(8.71766 -0.0547105 19.1351)
(-1.20925 -0.288564 15.1196)
(3.09304 -0.17304 13.0529)
(0.949805 -0.0877757 12.3798)
(2.08817 -0.323446 10.1525)
(1.21372 -0.391203 8.05878)
(2.86922 -1.28413 6.47811)
(1.18021 -2.35201 -9.26944)
(-2.35682 1.42942 -12.514)
(-3.63757 2.49019 -9.81263)
(-4.89454 0.715895 -1.2119)
(-5.4882 0.631989 5.5697)
(-8.44682 0.313639 10.4915)
(-5.85144 -0.0653973 16.9236)
(-17.0688 0.0444842 18.0009)
(8.72758 -0.0438995 18.9353)
(-1.1819 -0.234468 15.3197)
(3.07943 -0.136865 13.3606)
(0.907722 -0.0638857 12.5455)
(2.03005 -0.197355 10.1476)
(1.02825 -0.284459 8.04134)
(2.71913 -0.155229 5.70849)
(0.853869 -1.11744 -9.72178)
(-2.71423 0.36322 -11.0473)
(-3.60535 1.09486 -7.79543)
(-4.83277 0.436692 -0.895246)
(-5.85287 0.357934 5.30066)
(-8.55971 0.114674 10.5451)
(-5.89005 -0.0928934 17.0504)
(-17.0654 0.0389649 17.9768)
(8.78698 -0.0258556 18.6734)
(-1.15287 -0.123938 15.4454)
(3.05992 -0.0785144 13.6133)
(0.897036 -0.0383782 12.7264)
(1.99569 -0.0982534 10.1924)
(1.20795 -0.121195 8.11164)
(2.49241 0.320334 5.67617)
(3.66503 0.0659207 -7.94724)
(-0.0678501 -0.334048 -11.3225)
(-3.18974 0.134522 -7.62033)
(-4.5705 0.298345 -0.326758)
(-5.53939 0.121984 5.51498)
(-8.54379 -0.108491 10.6364)
(-5.99934 -0.125662 17.0745)
(-17.1441 0.0589573 17.772)
(8.81583 -0.00281318 18.5676)
(-1.15328 0.0127965 15.4358)
(3.05588 -0.00724568 13.6567)
(0.887356 -0.0147702 12.7832)
(1.99293 -0.0200645 10.2074)
(1.20497 -0.0331245 8.17714)
(2.65301 0.0965627 5.316)
(4.51899 0.302038 -7.03524)
(2.64037 0.0333503 -12.0746)
(-2.80966 -0.132035 -8.81568)
(-4.96463 -0.013191 0.309904)
(-5.40108 -0.01849 6.0018)
(-8.54318 -0.0252369 10.7616)
(-6.26448 0.00220352 16.9773)
(-17.3181 -0.000638681 17.3341)
(8.76222 0.0209106 18.7406)
(-1.1721 0.142485 15.4092)
(3.05897 0.0636718 13.573)
(0.895608 0.0104215 12.7035)
(1.99048 0.0610372 10.189)
(1.27163 0.0398521 8.09798)
(2.4592 -0.141895 5.73243)
(4.61893 -0.276556 -6.90851)
(1.77609 -0.000583403 -11.8425)
(-2.86356 -0.148902 -8.44225)
(-4.79453 -0.342228 -0.187083)
(-5.46301 -0.262516 5.70679)
(-8.47304 0.0550924 10.6782)
(-5.95402 0.142203 17.1019)
(-17.119 -0.0581217 17.827)
(8.7081 0.0399357 18.996)
(-1.2067 0.243379 15.2699)
(3.07238 0.120629 13.3106)
(0.902774 0.0378013 12.5209)
(2.0139 0.134567 10.1405)
(1.13827 0.183612 8.02015)
(2.54872 -0.190234 5.90196)
(2.1479 0.83099 -9.02783)
(-1.70482 0.271004 -10.967)
(-3.19535 -0.688036 -7.68626)
(-4.58742 -0.542783 -0.926057)
(-5.71075 -0.450608 5.30171)
(-8.48088 -0.117607 10.5774)
(-5.80971 0.100839 17.0657)
(-17.0349 -0.0295228 18.0711)
(8.70076 0.0512995 19.1921)
(-1.23761 0.292551 15.0709)
(3.08015 0.157868 12.9997)
(0.928405 0.0656018 12.3507)
(2.05977 0.253887 10.1264)
(1.14663 0.310584 8.00523)
(2.74466 0.816658 6.29665)
(0.786165 1.84712 -9.50518)
(-2.7939 -1.07649 -11.8707)
(-3.42236 -2.03244 -9.02671)
(-4.56756 -0.686651 -1.16638)
(-5.45205 -0.664768 5.51529)
(-8.36384 -0.310512 10.5632)
(-5.7662 0.0617847 16.9683)
(-17.0466 -0.0294658 18.0789)
(8.72336 0.0568869 19.324)
(-1.25773 0.321092 14.8783)
(3.08339 0.186151 12.6955)
(0.975404 0.087907 12.1909)
(2.11779 0.331078 10.1258)
(1.4925 0.366878 8.03914)
(2.83544 1.43326 7.26619)
(3.09788 3.35093 -7.00025)
(0.286459 -1.6702 -12.6437)
(-2.46155 -3.52189 -11.3407)
(-4.54508 -1.12686 -1.78836)
(-4.9124 -0.756332 5.96564)
(-8.19122 -0.329854 10.5882)
(-5.70234 0.0707329 16.8957)
(-17.079 -0.00525494 18.0381)
(8.77156 0.0511751 19.4125)
(-1.25553 0.295893 14.7435)
(3.07522 0.178422 12.411)
(1.02365 0.0874257 12.0329)
(2.17285 0.302271 10.1336)
(1.89745 0.32337 8.07805)
(2.83545 1.1118 7.90935)
(5.63438 3.75402 -2.34781)
(5.60506 -1.17912 -9.87979)
(-0.132043 -3.78715 -12.4027)
(-4.20085 -1.36629 -2.74283)
(-4.58937 -0.657507 6.22433)
(-8.04665 -0.11839 10.5439)
(-5.80608 0.16902 16.6937)
(-17.1822 -0.0415223 17.8713)
(8.81883 0.0444587 19.4495)
(-1.25574 0.300186 14.5877)
(3.08478 0.181422 12.1075)
(1.06479 0.0830064 11.855)
(2.21597 0.232388 10.117)
(2.11819 0.2693 8.08287)
(2.76681 0.510015 8.31296)
(6.11753 2.95829 1.07121)
(8.0863 -0.664709 -6.94224)
(1.28632 -3.03797 -12.0258)
(-3.77991 -1.26686 -3.28666)
(-4.59131 -0.480434 6.07861)
(-7.85581 0.176603 10.3841)
(-5.43751 0.294609 16.7484)
(-16.9163 -0.0817254 18.5093)
(8.88371 0.0231074 19.4989)
(-1.24109 0.179261 14.4508)
(3.09438 0.109724 11.6945)
(1.09915 0.0470075 11.5354)
(2.27246 0.10804 10.031)
(2.18895 0.136951 8.133)
(2.87795 0.123299 8.76051)
(5.34975 1.50105 2.18604)
(7.25258 -0.232566 -6.86596)
(1.05596 -1.85085 -12.1478)
(-3.70396 -0.789829 -3.95501)
(-4.77078 -0.201305 5.61519)
(-7.85178 0.158559 10.0601)
(-5.31526 0.173511 16.7525)
(-16.798 -0.0281942 18.8535)
(15.034 -0.0582921 19.1054)
(1.19024 -0.239362 16.5777)
(4.8628 -0.254228 11.8159)
(1.28804 -0.157452 11.2282)
(2.8307 -0.248369 9.98746)
(2.31824 -0.260134 8.28501)
(2.85086 -0.46362 8.01195)
(4.62465 -1.21644 2.08113)
(2.90608 1.06285 -6.32284)
(-3.73316 1.37075 -7.67425)
(-8.70114 0.341387 -0.306487)
(-11.9888 0.0221276 7.40119)
(-14.3991 -0.199046 12.6262)
(-12.9388 -0.050928 17.3508)
(-21.7417 0.0891537 12.9679)
(14.9632 -0.107889 19.1153)
(0.971318 -0.386963 16.571)
(4.83396 -0.396419 12.0962)
(1.26107 -0.248889 11.5729)
(2.80888 -0.479635 10.1236)
(2.11552 -0.472084 8.27404)
(2.81393 -1.2479 7.7416)
(5.09745 -1.95655 1.26628)
(3.3939 2.29233 -6.35933)
(-4.01109 2.12945 -7.50736)
(-8.88414 0.556637 0.0962515)
(-11.9857 0.148132 7.68246)
(-14.5183 -0.284359 12.7093)
(-13.0784 -0.0358081 17.1774)
(-21.7518 0.214492 12.6724)
(14.9165 -0.115396 19.1096)
(0.836459 -0.381163 16.6214)
(4.80666 -0.391881 12.3313)
(1.20571 -0.243699 11.7886)
(2.79056 -0.583907 10.1733)
(1.73413 -0.583207 8.28128)
(3.01908 -2.13839 7.59232)
(3.896 -2.39121 -1.84557)
(2.24217 3.2371 -7.60821)
(-4.63142 2.66631 -7.83514)
(-9.46998 0.70266 0.369432)
(-12.3239 0.417505 7.89683)
(-14.9388 -0.0182442 12.6661)
(-13.5227 -0.00722883 16.7491)
(-21.7489 0.148002 12.0814)
(14.8554 -0.122278 19.0544)
(0.674781 -0.423945 16.6314)
(4.80097 -0.433982 12.5495)
(1.15064 -0.256435 11.9716)
(2.74084 -0.646358 10.1678)
(1.04715 -0.745142 8.18817)
(2.98564 -2.68169 6.85396)
(-0.054606 -1.98463 -5.94462)
(-1.85719 3.52297 -9.27047)
(-6.21311 2.83615 -7.45412)
(-9.98896 0.786888 0.755249)
(-12.5556 0.593517 7.87737)
(-14.9149 0.174867 12.8034)
(-13.3261 0.00369298 16.9906)
(-21.7365 0.0807617 12.2248)
(14.8187 -0.103148 18.9328)
(0.584382 -0.388471 16.693)
(4.78596 -0.398976 12.8136)
(1.08764 -0.214965 12.1682)
(2.6635 -0.540213 10.1665)
(0.406942 -0.741774 8.0537)
(2.47375 -1.96109 5.21727)
(-4.15041 -0.956397 -7.78016)
(-5.72598 2.36959 -8.78148)
(-7.52528 1.84894 -5.82347)
(-10.3676 0.546722 1.09889)
(-12.9863 0.55279 7.75253)
(-14.9991 0.180958 12.8923)
(-13.319 0.0260038 17.0938)
(-21.7302 0.106742 12.2591)
(14.8058 -0.072018 18.7325)
(0.553428 -0.324152 16.7531)
(4.76653 -0.340654 13.0933)
(1.04402 -0.161453 12.3738)
(2.58292 -0.323046 10.1695)
(0.139681 -0.499224 7.95049)
(1.87925 -0.355685 3.83413)
(-4.70413 -0.569782 -7.30843)
(-6.46901 0.819903 -7.27717)
(-7.79188 0.798471 -4.49033)
(-10.6289 0.414552 1.27301)
(-13.2926 0.369352 7.732)
(-15.0713 0.0419765 12.9924)
(-13.3259 0.00976174 17.1652)
(-21.7233 0.0883468 12.2267)
(14.8447 -0.0346127 18.4516)
(0.629072 -0.171587 16.7755)
(4.73967 -0.199282 13.327)
(1.0352 -0.0907474 12.5877)
(2.55513 -0.150511 10.2328)
(0.374169 -0.199606 8.06348)
(2.10633 0.623592 4.65803)
(-1.32972 -0.0727919 -6.51119)
(-4.90723 -0.381986 -7.4378)
(-7.90121 -0.0843099 -4.41119)
(-10.6785 0.12595 1.76966)
(-13.1523 0.100786 7.91566)
(-15.1641 -0.119242 12.9789)
(-13.456 0.019495 17.0432)
(-21.7106 0.103478 12.0318)
(14.8667 -0.00670077 18.3416)
(0.663469 0.0241975 16.7461)
(4.72721 0.00486539 13.3587)
(1.01371 -0.0206214 12.6433)
(2.5485 -0.0298859 10.2455)
(0.437643 -0.0454029 8.1309)
(2.10585 0.233747 4.67794)
(2.01972 0.369226 -5.12586)
(-2.10472 -0.0785453 -8.46969)
(-7.60398 -0.147088 -5.24463)
(-10.9862 -0.0332267 2.24326)
(-13.1406 0.0143509 8.21074)
(-15.315 0.00780763 12.8785)
(-13.7408 0.0192268 16.715)
(-21.6886 0.00767209 11.6523)
(14.8257 0.025889 18.5346)
(0.577335 0.206836 16.7582)
(4.73004 0.197676 13.2754)
(1.02183 0.0511058 12.5545)
(2.54804 0.0941263 10.2262)
(0.4836 0.111683 8.07272)
(2.01008 -0.40184 4.96443)
(1.10665 -0.225704 -5.618)
(-3.19991 0.19806 -8.09355)
(-7.59942 0.152755 -4.95625)
(-10.6887 -0.0829003 1.89062)
(-12.9884 -0.131075 8.00244)
(-15.0581 0.142037 12.9901)
(-13.3936 0.039616 17.1146)
(-21.7145 -0.0807763 12.1043)
(14.7938 0.0680284 18.809)
(0.507541 0.341959 16.7254)
(4.74736 0.324462 13.0299)
(1.01734 0.122529 12.3369)
(2.56946 0.226949 10.1579)
(0.25905 0.338645 7.96938)
(2.06807 -0.246487 4.46681)
(-3.33437 0.713278 -6.9721)
(-5.85814 -0.0118683 -7.20097)
(-7.60469 -0.439846 -4.46926)
(-10.4551 -0.419931 1.26265)
(-13.1147 -0.372714 7.71391)
(-14.9649 0.0134761 13.0234)
(-13.2378 0.0406507 17.2689)
(-21.7429 -0.0489372 12.3519)
(14.8104 0.100161 19.0046)
(0.540763 0.397531 16.6653)
(4.75831 0.380752 12.7472)
(1.02914 0.181871 12.126)
(2.61714 0.436768 10.1315)
(0.294095 0.598832 7.98321)
(2.13966 1.31069 4.74414)
(-4.71962 0.841087 -7.60397)
(-6.20766 -1.78855 -8.10671)
(-7.36942 -1.46844 -5.32634)
(-10.1549 -0.509 1.03785)
(-12.8811 -0.555948 7.71612)
(-14.8712 -0.140442 12.9687)
(-13.2236 0.010549 17.2161)
(-21.7594 -0.0587473 12.3909)
(14.85 0.120323 19.1193)
(0.633497 0.426039 16.6044)
(4.7695 0.418192 12.4799)
(1.0779 0.233518 11.9262)
(2.6933 0.592697 10.1228)
(0.813564 0.710921 8.12187)
(2.8274 2.47864 6.47291)
(-1.70952 1.74076 -6.8067)
(-3.34161 -3.14074 -9.20681)
(-6.5498 -2.6877 -6.94856)
(-9.79024 -0.755096 0.817835)
(-12.3972 -0.606743 7.84097)
(-14.763 -0.156217 12.8959)
(-13.2005 0.0332261 17.1377)
(-21.7807 -0.0284426 12.3916)
(14.9128 0.114012 19.1686)
(0.796793 0.380118 16.5972)
(4.77268 0.380636 12.2619)
(1.12683 0.229257 11.7427)
(2.74607 0.568609 10.13)
(1.53263 0.580512 8.24294)
(2.99011 2.31237 7.51025)
(2.81035 2.4965 -3.05288)
(1.35094 -3.4576 -7.99261)
(-4.88013 -2.95525 -7.84281)
(-9.35559 -0.758074 0.35786)
(-12.1198 -0.421638 7.89412)
(-14.7766 0.0294609 12.7587)
(-13.3843 0.0368738 16.9072)
(-21.8029 -0.0903743 12.2701)
(14.9608 0.106965 19.1692)
(0.934237 0.38361 16.5496)
(4.79943 0.388016 12.0276)
(1.18421 0.239784 11.5261)
(2.76857 0.484289 10.0864)
(1.99732 0.476688 8.26093)
(2.81702 1.4724 7.77353)
(4.91296 2.25654 0.841724)
(3.66902 -2.51725 -6.18284)
(-3.92888 -2.4183 -7.7289)
(-8.7853 -0.622058 -0.00834109)
(-11.7757 -0.164759 7.71507)
(-14.3444 0.293361 12.7839)
(-12.9318 0.0676692 17.3274)
(-21.8127 -0.162188 12.8883)
(15.0319 0.0578932 19.155)
(1.1541 0.2367 16.5607)
(4.82713 0.24941 11.7517)
(1.212 0.152711 11.1827)
(2.79153 0.250973 9.95738)
(2.24989 0.25844 8.2874)
(2.8233 0.550648 8.03015)
(4.67583 1.319 2.23203)
(3.05387 -1.30535 -6.02005)
(-3.67458 -1.52749 -7.89124)
(-8.58178 -0.374137 -0.452943)
(-11.7629 -0.0229549 7.42316)
(-14.2099 0.205518 12.6963)
(-12.7722 0.069074 17.5098)
(-21.8104 -0.0657272 13.2066)
(18.5037 -0.0778003 14.9637)
(7.62029 -0.230593 19.0427)
(9.46086 -0.346841 15.0192)
(4.62019 -0.319191 12.6526)
(3.30813 -0.374835 10.1317)
(1.61204 -0.350051 8.49407)
(1.52406 -0.787663 8.34162)
(2.42126 -0.573509 3.60448)
(-3.33351 1.44359 -2.83106)
(-8.89589 0.93967 -2.42649)
(-13.6222 0.215328 3.92322)
(-16.9082 0.0366902 10.1058)
(-17.8778 -0.00150254 13.8469)
(-15.7571 0.17625 14.0936)
(-22.1663 0.132708 6.01089)
(18.5108 -0.140615 15.0851)
(7.32524 -0.363162 19.0615)
(9.26684 -0.53051 15.0678)
(4.40589 -0.46837 12.837)
(3.24946 -0.646541 10.2944)
(1.38754 -0.62529 8.5891)
(1.69842 -1.83211 8.36741)
(3.06863 -0.463327 3.18791)
(-3.3888 2.59465 -3.04108)
(-9.25075 1.32646 -2.13008)
(-13.9552 0.265242 4.19602)
(-17.0635 0.0882411 10.176)
(-17.9508 0.0341975 13.7197)
(-15.777 0.402089 13.8804)
(-22.1656 0.28357 5.94297)
(18.5221 -0.150691 15.1499)
(7.13827 -0.344359 19.0955)
(9.12456 -0.518789 15.1424)
(4.21005 -0.446613 12.9731)
(3.17863 -0.739604 10.3756)
(0.971442 -0.837386 8.65383)
(1.97546 -2.77637 8.38468)
(1.25914 -0.418628 0.581882)
(-3.55891 3.46464 -3.62318)
(-9.51613 1.67045 -2.46686)
(-14.5574 0.406593 4.27569)
(-17.496 0.216467 10.133)
(-18.2127 0.10835 13.3199)
(-15.8476 0.325914 13.31)
(-22.0878 0.232151 5.75743)
(18.5156 -0.164724 15.1959)
(6.87795 -0.369881 19.0833)
(8.96339 -0.580225 15.1839)
(4.02381 -0.488649 13.0771)
(3.06128 -0.812034 10.3922)
(0.193454 -1.15548 8.58211)
(1.38018 -3.13285 7.35886)
(-3.63275 -0.264607 -2.74806)
(-6.01106 3.38951 -4.65324)
(-10.4899 2.09155 -2.29377)
(-14.7217 0.670039 4.45433)
(-17.5377 0.34544 10.1847)
(-18.1337 0.17444 13.5194)
(-15.7406 0.232692 13.5351)
(-22.1582 0.163023 5.85309)
(18.5079 -0.14369 15.1593)
(6.67983 -0.315263 19.062)
(8.81581 -0.535725 15.2657)
(3.82635 -0.429611 13.2132)
(2.86961 -0.670586 10.4015)
(-0.53428 -1.13645 8.42823)
(-0.451195 -2.1461 5.29255)
(-7.73393 -0.223659 -3.49024)
(-9.22408 2.30451 -4.1528)
(-11.5626 1.5093 -1.06489)
(-14.8311 0.550966 4.65866)
(-17.7233 0.337127 10.1872)
(-18.146 0.195756 13.6453)
(-15.7211 0.255448 13.6275)
(-22.2007 0.163261 5.88015)
(18.4874 -0.103629 15.0396)
(6.52784 -0.243229 18.9918)
(8.68905 -0.462986 15.3481)
(3.66329 -0.348629 13.3651)
(2.71135 -0.420955 10.4144)
(-0.837365 -0.613387 8.30223)
(-1.63146 -0.704444 4.08306)
(-8.63697 -0.170627 -2.92155)
(-10.2061 0.794229 -2.85365)
(-11.9871 0.671015 -0.0107517)
(-14.994 0.450248 4.86522)
(-17.8639 0.309348 10.2305)
(-18.1546 0.119727 13.7155)
(-15.7056 0.210136 13.6799)
(-22.2285 0.127233 5.90736)
(18.4584 -0.0452895 14.8094)
(6.53429 -0.11386 18.8562)
(8.636 -0.267164 15.4146)
(3.57177 -0.199031 13.5346)
(2.6812 -0.202622 10.499)
(-0.715655 -0.122131 8.4657)
(-0.258136 0.431405 5.01811)
(-5.81927 -0.12846 -2.62395)
(-9.0678 -0.444582 -2.97322)
(-12.2724 -0.2087 0.183028)
(-15.2954 0.11927 5.27138)
(-17.8762 0.170709 10.3272)
(-18.2026 0.0693742 13.5907)
(-15.7189 0.228064 13.5326)
(-22.1899 0.113167 5.85506)
(18.4436 -0.000140404 14.7158)
(6.57221 0.0163467 18.7833)
(8.6348 0.0190247 15.4069)
(3.52709 -0.0113657 13.5661)
(2.65872 -0.0354901 10.4983)
(-0.680749 -0.00739056 8.52504)
(0.514085 0.317353 5.61184)
(-1.68298 0.320111 -2.24325)
(-6.35787 -0.0708498 -3.95545)
(-11.9261 -0.158712 -0.429158)
(-15.7667 -0.0167133 5.53107)
(-18.0017 0.0668017 10.4004)
(-18.237 0.0675849 13.2864)
(-15.7425 0.0860655 13.187)
(-22.1319 0.0519202 5.74839)
(18.4644 0.044744 14.8917)
(6.51627 0.142561 18.8921)
(8.6301 0.289931 15.3946)
(3.55057 0.172021 13.4944)
(2.67002 0.132757 10.4655)
(-0.653873 0.0833196 8.4781)
(0.29022 -0.415412 5.59541)
(-3.19706 -0.126903 -2.50609)
(-7.3894 0.310292 -3.60852)
(-11.9231 0.321474 -0.222373)
(-15.3582 0.0383654 5.38669)
(-17.7596 -0.0761298 10.4268)
(-18.093 0.0541995 13.6451)
(-15.6773 -0.0707757 13.6492)
(-22.218 -0.0203164 5.91111)
(18.4906 0.102133 15.1123)
(6.51971 0.263762 19.0147)
(8.68284 0.465933 15.3188)
(3.62909 0.313573 13.3195)
(2.69548 0.309979 10.3729)
(-0.812277 0.349296 8.32452)
(-0.951645 0.165682 4.64152)
(-7.4438 0.528206 -2.7006)
(-9.73504 0.0549174 -2.79841)
(-11.9122 -0.259852 0.0298248)
(-14.9175 -0.373759 4.90977)
(-17.7177 -0.253611 10.2603)
(-18.0577 0.0162116 13.8315)
(-15.6646 -0.0824729 13.8713)
(-22.2769 -0.0289171 6.01173)
(18.5104 0.142157 15.2265)
(6.67099 0.328279 19.0791)
(8.80263 0.532506 15.232)
(3.75741 0.399175 13.1602)
(2.77967 0.558955 10.329)
(-0.711445 0.89907 8.33033)
(-1.09845 1.55466 4.81872)
(-8.49812 0.257245 -3.20739)
(-9.77452 -1.69959 -3.55217)
(-11.5166 -1.16045 -0.681546)
(-14.6638 -0.476347 4.6217)
(-17.6006 -0.301875 10.1981)
(-18.0256 -0.0857649 13.8063)
(-15.6788 -0.149454 13.8404)
(-22.2741 -0.0576326 6.00957)
(18.5181 0.16396 15.2551)
(6.87 0.376914 19.0961)
(8.94759 0.575355 15.149)
(3.94191 0.471426 13.0239)
(2.9669 0.760152 10.3202)
(-0.128083 1.14083 8.48627)
(0.769874 2.87959 6.71583)
(-5.43899 0.508767 -3.13479)
(-7.31503 -3.00111 -4.5597)
(-10.7896 -2.02649 -1.89648)
(-14.5304 -0.662199 4.45933)
(-17.3695 -0.320066 10.1885)
(-18.0027 -0.0908139 13.7177)
(-15.692 -0.142595 13.7951)
(-22.2559 -0.0575033 6.02176)
(18.5245 0.150333 15.2023)
(7.1313 0.347723 19.1061)
(9.10788 0.515359 15.1094)
(4.1248 0.438534 12.9233)
(3.10094 0.734865 10.315)
(0.706431 0.886134 8.60637)
(1.86243 2.98016 8.24982)
(-0.335572 0.529412 -0.659765)
(-4.05338 -3.54663 -3.85555)
(-9.61484 -1.98806 -2.55707)
(-14.4007 -0.499294 4.18888)
(-17.2936 -0.197833 10.1286)
(-18.0798 -0.0466557 13.5148)
(-15.807 -0.254366 13.5851)
(-22.2033 -0.123606 5.95507)
(18.513 0.140537 15.1318)
(7.32027 0.363808 19.0706)
(9.25131 0.527526 15.037)
(4.32768 0.46427 12.7904)
(3.18817 0.665199 10.2458)
(1.24501 0.659113 8.57709)
(1.76384 2.17096 8.47377)
(2.87582 0.776395 2.83557)
(-2.96075 -2.89633 -2.98204)
(-9.07613 -1.5915 -2.41483)
(-13.8456 -0.334542 4.03509)
(-16.8679 -0.0669491 10.1808)
(-17.8065 0.0165063 13.8993)
(-15.7476 -0.34215 14.1735)
(-22.3077 -0.194805 6.19625)
(18.5055 0.0777822 15.0058)
(7.61493 0.230163 19.0522)
(9.44434 0.344639 14.9931)
(4.54511 0.316609 12.6109)
(3.24972 0.385027 10.0921)
(1.54126 0.354371 8.5017)
(1.53753 0.945239 8.43344)
(2.64123 0.594553 3.82711)
(-3.04283 -1.60479 -2.71981)
(-8.73459 -1.12217 -2.77438)
(-13.4986 -0.256837 3.69053)
(-16.689 -0.0172217 10.0871)
(-17.713 0.028215 14.0257)
(-15.7195 -0.140073 14.4164)
(-22.3262 -0.095072 6.29761)
(19.5957 -0.0538795 9.30495)
(11.8359 -0.208068 17.974)
(14.4909 -0.326303 17.9577)
(12.0322 -0.420044 16.9255)
(8.1955 -0.492409 13.947)
(3.94197 -0.388489 10.8915)
(0.925843 -0.785812 9.66887)
(-0.342863 -0.259055 5.86307)
(-7.387 0.976014 1.42314)
(-11.3107 0.788057 2.20957)
(-14.3757 0.282328 7.2305)
(-16.7757 0.151783 11.623)
(-16.4935 0.216482 13.3916)
(-13.9735 0.346357 9.67757)
(-23.2211 0.199932 3.90916)
(19.6345 -0.097601 9.4225)
(11.6741 -0.322717 18.0946)
(14.2925 -0.491826 18.0159)
(11.6814 -0.613169 16.9789)
(7.87437 -0.753717 13.9824)
(3.5251 -0.618033 10.9037)
(1.05993 -1.60166 9.78614)
(0.0946995 0.225296 5.49507)
(-7.49989 1.71385 1.33096)
(-11.4567 1.06435 2.50207)
(-14.6617 0.324778 7.39876)
(-16.9869 0.248721 11.5764)
(-16.4494 0.376312 13.1741)
(-13.9303 0.624878 9.65078)
(-23.3459 0.389271 4.10799)
(19.6682 -0.110844 9.48954)
(11.5899 -0.292114 18.1666)
(14.1588 -0.466696 18.0706)
(11.4031 -0.580587 17.0324)
(7.60883 -0.781623 14.0019)
(3.08247 -0.807608 10.9145)
(1.24457 -2.27659 9.89089)
(-1.05268 0.313068 3.86981)
(-7.0071 2.24855 0.799838)
(-11.2638 1.4213 2.0641)
(-15.0383 0.491845 7.21046)
(-17.2784 0.250801 11.2436)
(-16.4016 0.3353 12.611)
(-13.7475 0.536483 9.42037)
(-23.4649 0.351651 4.40869)
(19.6984 -0.131106 9.57298)
(11.4188 -0.291828 18.2312)
(13.9542 -0.507752 18.099)
(11.0828 -0.640196 17.0552)
(7.29285 -0.866811 13.9755)
(2.37357 -1.14266 10.8318)
(0.419599 -2.52917 9.05059)
(-5.42544 -0.17576 1.06753)
(-8.61073 2.32215 -0.0413077)
(-11.856 2.13864 1.97445)
(-15.0747 0.990053 7.25297)
(-17.3272 0.344808 11.3202)
(-16.4414 0.334506 12.7318)
(-13.7608 0.482177 9.58652)
(-23.5335 0.278012 4.47288)
(19.7212 -0.127679 9.60646)
(11.269 -0.214387 18.2454)
(13.759 -0.440625 18.1173)
(10.753 -0.569311 17.0943)
(6.87189 -0.746789 13.937)
(1.51093 -1.13892 10.6518)
(-1.87729 -1.79619 7.13966)
(-9.73071 -0.301188 0.267672)
(-11.6093 1.76985 0.424438)
(-12.8244 1.81444 2.92513)
(-15.0683 0.925586 7.43937)
(-17.4018 0.380484 11.3995)
(-16.4933 0.347949 12.8574)
(-13.7447 0.470547 9.66768)
(-23.5757 0.270118 4.47994)
(19.7227 -0.110874 9.59921)
(11.0946 -0.131873 18.202)
(13.5581 -0.356628 18.0973)
(10.4408 -0.469661 17.1228)
(6.47887 -0.534307 13.8891)
(0.883525 -0.616152 10.4498)
(-3.51218 -0.707962 6.0509)
(-11.2014 -0.0541133 0.795067)
(-12.7494 0.610222 1.55247)
(-13.3127 0.672316 3.82728)
(-15.1995 0.570679 7.65642)
(-17.4526 0.416745 11.4647)
(-16.4776 0.322299 12.9177)
(-13.7379 0.405767 9.7879)
(-23.6496 0.225482 4.59262)
(19.6799 -0.057527 9.51925)
(10.989 -0.0367177 18.0637)
(13.4516 -0.187126 18.0274)
(10.2552 -0.262101 17.1488)
(6.27955 -0.277832 13.8976)
(0.72504 -0.118894 10.4697)
(-2.20631 0.219363 6.76999)
(-8.67562 0.127634 0.91974)
(-11.43 -0.469259 1.21721)
(-13.3487 -0.542598 3.83429)
(-15.6764 0.0273105 8.05045)
(-17.5714 0.354047 11.5936)
(-16.4378 0.303905 12.7846)
(-13.6736 0.338547 9.64686)
(-23.6361 0.140359 4.57501)
(19.6521 0.0115999 9.48582)
(10.9856 0.00414323 17.9886)
(13.4543 0.0149626 17.9791)
(10.2215 0.00438585 17.1391)
(6.22004 -0.0240499 13.8778)
(0.639837 -0.00371498 10.4508)
(-1.37135 0.250298 7.22937)
(-5.29381 0.468118 1.00286)
(-8.70444 0.00950769 0.41246)
(-12.723 -0.228691 3.28398)
(-16.0669 -0.0486882 8.11453)
(-17.6801 0.138518 11.428)
(-16.2357 0.142424 12.4497)
(-13.4865 0.12175 9.57683)
(-23.6774 0.0494466 4.85658)
(19.6908 0.0639079 9.55958)
(11.0379 0.0514924 18.105)
(13.4932 0.216298 18.0474)
(10.284 0.267971 17.1452)
(6.29708 0.231756 13.8801)
(0.737688 0.0867276 10.4471)
(-1.60257 -0.259005 7.16278)
(-6.45971 -0.260912 0.900773)
(-9.70914 0.286707 0.711879)
(-12.9063 0.559223 3.54889)
(-15.7925 0.186898 8.16715)