/*--------------------------------*- C++ -*----------------------------------*\
| =========                 |                                                 |
| \\      /  F ield         | OpenFOAM: The Open Source CFD Toolbox           |
|  \\    /   O peration     | Version:  4.1                                   |
|   \\  /    A nd           | Web:      www.OpenFOAM.org                      |
|    \\/     M anipulation  |                                                 |
\*---------------------------------------------------------------------------*/
FoamFile
{
    version     2.0;
    format      ascii;
    class       volScalarField;
    location    "10.5";
    object      p;
}
// * * * * * * * * * * * * * * * * * * * * * * * * * * * * * * * * * * * * * //

dimensions      [0 2 -2 0 0 0 0];

internalField   nonuniform List<scalar> 
204246
(
14.1228
-8.99622
-7.80216
-5.86984
-6.49492
-6.50089
-7.2889
-7.4698
-8.43574
-8.67916
-9.7703
-10.2729
-10.7322
-11.0722
-11.3036
-11.388
-13.2812
-14.1711
-13.9144
-14.6064
-14.2638
-15.24
-15.4739
-15.7723
-16.0783
-16.4192
-16.7355
-17.0365
-17.2705
-17.5116
-17.6989
-17.8754
-17.9756
-18.0529
-18.065
-19.3943
-20.1143
-19.4598
-20.1555
-20.1476
-20.2986
-20.5265
-20.7906
-20.9565
-20.9919
-20.7697
-21.455
-20.9742
-21.7538
-21.5697
-21.3816
-21.2049
-22.595
-23.4987
-22.393
-22.9442
-23.1458
-23.1933
-23.2196
-23.2295
-23.166
-23.8952
-23.3729
-24.0087
-23.467
-24.2151
-24.0093
-23.7778
-23.5006
-24.6937
-25.5493
-25.4288
-25.2264
-24.8904
-25.3063
-24.9361
-25.5952
-25.6765
-25.5581
-25.1509
-25.8941
-25.7851
-25.7805
-25.7885
-25.8448
-25.0349
-26.3399
-27.1907
-27.0582
-26.8488
-26.5118
-26.9686
-26.694
-27.3169
-26.7915
-27.7135
-26.5321
-27.5273
-27.5562
-27.4544
-27.0894
-27.5162
-27.3007
-27.3185
-26.6249
-28.1124
-28.6249
-28.0664
-28.1557
-28.0303
-28.6901
-28.0873
-28.7025
-28.3333
-28.9692
-28.5978
-29.2366
-28.8488
-29.5661
-29.403
-29.2619
-29.0992
-30.5798
-31.2831
-30.9366
-31.5827
-31.2972
-32.062
-31.9046
-33.0111
-33.4523
-33.8516
-34.1197
-35.3466
-35.5858
-37.0479
-37.744
-38.5571
-39.4543
-42.0064
-43.9367
-45.1358
-47.0813
-48.2577
-50.5926
-52.3803
-54.286
-56.2673
-58.3449
-60.2597
-61.8792
-62.9349
-63.5971
-63.9894
-64.3961
-64.961
-65.9082
-66.1261
-64.4103
-63.6414
-61.6916
-60.5065
-58.1941
-56.556
-53.8199
-51.663
-48.4095
-45.7289
-41.9356
-38.4491
-34.0028
-29.4565
-24.3997
-18.8716
-12.7646
-6.14792
1.24485
9.48727
18.4506
28.6704
40.156
53.254
67.9947
84.7109
103.39
124.267
147.323
173.171
202.588
241.606
300.564
393.818
518.776
5.66505
1.58528
-2.05496
-4.15215
-5.42871
-6.16373
-6.66549
-7.21025
-7.79397
-8.43836
-9.17324
-9.85424
-10.388
-10.9
-11.1631
-11.5885
-12.3513
-13.0767
-13.6087
-14.0062
-14.2815
-14.6668
-15.1564
-15.4602
-15.829
-16.1274
-16.4937
-16.7769
-17.1266
-17.346
-17.6503
-17.815
-18.0202
-18.0802
-18.2921
-18.7718
-19.3105
-19.459
-19.7008
-19.9955
-20.1299
-20.3813
-20.5787
-20.8288
-20.8964
-20.9844
-21.1318
-21.2907
-21.4991
-21.6524
-21.5208
-21.5945
-22.0104
-22.5098
-22.6169
-22.7259
-23.0019
-23.0742
-23.202
-23.1952
-23.3199
-23.4962
-23.6024
-23.7058
-23.8301
-24.005
-24.1169
-23.9201
-23.9333
-24.3218
-24.8185
-25.1079
-25.1168
-25.1032
-25.1126
-25.1698
-25.3492
-25.5651
-25.5017
-25.5191
-25.642
-25.8315
-25.8212
-25.9251
-25.8164
-25.7242
-26.0318
-26.506
-26.7746
-26.7553
-26.7429
-26.7835
-26.8901
-27.0059
-27.1024
-27.2033
-27.1963
-27.315
-27.5343
-27.4553
-27.5024
-27.5051
-27.5303
-27.3788
-27.3325
-27.6567
-28.0334
-28.1094
-28.0848
-28.2074
-28.336
-28.3989
-28.4693
-28.6071
-28.7267
-28.901
-29.0391
-29.2392
-29.4266
-29.5821
-29.4616
-29.6283
-30.0839
-30.5859
-30.8726
-31.1568
-31.4258
-31.6898
-32.0534
-32.5417
-33.1268
-33.5144
-34.0909
-34.6893
-35.4442
-36.2998
-37.2581
-38.0326
-39.1381
-40.6176
-42.2434
-43.886
-45.5676
-47.3185
-49.1753
-51.1392
-53.1045
-55.192
-57.2757
-59.3614
-61.1871
-62.7953
-63.8952
-64.9548
-65.4987
-66.1508
-66.7107
-66.8926
-66.5197
-65.8894
-64.7432
-63.426
-61.8239
-60.0779
-58.04
-55.8383
-53.3527
-50.6682
-47.6641
-44.3683
-40.6795
-36.6221
-32.1362
-27.2362
-21.8473
-15.934
-9.33079
-2.05189
5.94961
14.856
24.7315
35.8744
48.3833
62.5542
78.3988
96.002
115.132
135.755
157.802
183.333
219.172
285.361
383.304
-5.96551
-1.30211
-1.83607
-2.89597
-4.15147
-5.14807
-6.00445
-6.75783
-7.45058
-8.18762
-8.91135
-9.60067
-10.213
-10.774
-11.2648
-11.8347
-12.3603
-12.875
-13.3619
-13.7978
-14.1951
-14.5695
-14.9872
-15.3495
-15.7139
-16.0398
-16.3671
-16.6545
-16.9804
-17.2242
-17.5479
-17.7515
-18.0188
-18.1653
-18.4645
-18.7641
-19.0642
-19.3241
-19.546
-19.832
-19.9986
-20.2345
-20.4046
-20.6391
-20.7598
-20.9427
-21.0379
-21.2576
-21.3897
-21.5952
-21.6507
-21.8018
-21.9716
-22.2101
-22.4352
-22.578
-22.7998
-22.9028
-23.056
-23.1153
-23.2537
-23.3459
-23.5161
-23.5855
-23.7745
-23.8787
-24.0375
-24.0363
-24.132
-24.2842
-24.5428
-24.7764
-24.8999
-25.0048
-25.0202
-25.1226
-25.2092
-25.3577
-25.386
-25.4851
-25.5298
-25.6931
-25.7425
-25.8474
-25.8176
-25.8776
-25.9887
-26.2227
-26.4292
-26.5199
-26.6169
-26.652
-26.7633
-26.8325
-26.971
-26.9889
-27.1013
-27.156
-27.3043
-27.3054
-27.3746
-27.3729
-27.4081
-27.3515
-27.393
-27.4762
-27.6588
-27.7897
-27.8369
-27.9449
-28.0157
-28.1473
-28.2045
-28.3555
-28.4292
-28.5824
-28.6944
-28.8765
-29.0304
-29.1979
-29.2873
-29.4819
-29.7273
-30.0396
-30.3508
-30.628
-30.9099
-31.1525
-31.4801
-31.8668
-32.2991
-32.7493
-33.2602
-33.8823
-34.56
-35.3396
-36.2022
-37.195
-38.341
-39.6454
-41.078
-42.605
-44.2304
-45.9831
-47.8423
-49.7655
-51.7747
-53.8359
-55.921
-57.9284
-59.8047
-61.4489
-62.8495
-63.9802
-64.9029
-65.48
-65.6211
-65.2963
-64.6736
-63.7642
-62.6151
-61.1899
-59.5534
-57.6619
-55.6147
-53.3169
-50.8166
-48.0448
-45.0218
-41.6929
-38.0578
-34.056
-29.6621
-24.8068
-19.4503
-13.521
-6.94455
0.253374
8.2441
17.0726
26.891
37.7765
49.9842
63.6237
78.9627
95.9616
114.598
134.188
154.703
176.556
205.605
249.035
306.655
-7.00803
-3.51879
-3.20538
-3.9797
-4.35168
-4.97585
-5.72425
-6.44723
-7.13925
-7.8645
-8.59649
-9.3301
-9.93411
-10.4671
-11.0179
-11.5612
-12.1078
-12.6299
-13.1063
-13.5507
-13.9766
-14.3654
-14.7627
-15.1489
-15.5317
-15.8789
-16.2218
-16.5346
-16.8468
-17.1305
-17.4292
-17.6572
-17.9251
-18.1365
-18.4389
-18.6973
-18.9571
-19.206
-19.466
-19.7645
-19.9662
-20.1867
-20.3733
-20.602
-20.735
-20.9347
-21.0482
-21.2501
-21.3743
-21.5783
-21.6941
-21.895
-22.0379
-22.2073
-22.3746
-22.5506
-22.7755
-22.8985
-23.0703
-23.1624
-23.3142
-23.3985
-23.5523
-23.6314
-23.7995
-23.8948
-24.0618
-24.1276
-24.2713
-24.396
-24.571
-24.7355
-24.8774
-25.0322
-25.098
-25.2238
-25.3082
-25.4379
-25.4748
-25.5824
-25.6287
-25.7575
-25.808
-25.9351
-25.9609
-26.0594
-26.1558
-26.3054
-26.4431
-26.5582
-26.7069
-26.784
-26.9148
-26.9802
-27.1128
-27.1546
-27.2725
-27.3219
-27.4473
-27.4694
-27.5724
-27.5898
-27.6361
-27.6255
-27.689
-27.7405
-27.8608
-27.9517
-28.0429
-28.1717
-28.2305
-28.3617
-28.4259
-28.5794
-28.6718
-28.8803
-29.0132
-29.2296
-29.3692
-29.5782
-29.6832
-29.9143
-30.091
-30.3485
-30.6288
-30.917
-31.2406
-31.5238
-31.9111
-32.285
-32.7395
-33.1875
-33.7341
-34.2928
-34.9744
-35.6677
-36.4922
-37.4033
-38.4725
-39.6497
-40.9766
-42.4243
-44.0066
-45.722
-47.5588
-49.5058
-51.5619
-53.7122
-55.9002
-58.061
-60.0801
-61.9345
-63.5813
-65.0596
-66.3038
-67.3478
-68.0867
-68.5444
-68.6092
-68.2924
-67.4965
-66.3462
-64.8694
-63.204
-61.3088
-59.254
-56.9752
-54.5022
-51.7645
-48.7802
-45.4866
-41.897
-37.9352
-33.5997
-28.7903
-23.4881
-17.5314
-10.9527
-3.65467
4.43438
13.3864
23.3111
34.3089
46.5094
59.9515
74.6592
90.5595
107.712
126.496
148.609
176.755
212.08
250.858
-5.73835
-4.13858
-3.49771
-3.5639
-3.89301
-4.40808
-5.11981
-5.82158
-6.58145
-7.33717
-8.09585
-8.869
-9.53596
-10.111
-10.7124
-11.3557
-11.8928
-12.4301
-12.8684
-13.2969
-13.6851
-14.0746
-14.4931
-14.8912
-15.2998
-15.6769
-16.0297
-16.3499
-16.639
-16.9258
-17.1989
-17.4624
-17.7189
-17.9711
-18.2326
-18.5155
-18.7963
-19.0436
-19.2684
-19.496
-19.7255
-19.9408
-20.138
-20.3325
-20.5149
-20.7084
-20.8635
-21.0552
-21.1969
-21.3613
-21.502
-21.6632
-21.8402
-22.0303
-22.2025
-22.3549
-22.5217
-22.6505
-22.8002
-22.9142
-23.0476
-23.1723
-23.3259
-23.4397
-23.5974
-23.7043
-23.8398
-23.9338
-24.0581
-24.1879
-24.3675
-24.5214
-24.6466
-24.7734
-24.8532
-24.9634
-25.0483
-25.1593
-25.242
-25.357
-25.4276
-25.5467
-25.6057
-25.6985
-25.7369
-25.8134
-25.8964
-26.0443
-26.1656
-26.2564
-26.3686
-26.4504
-26.5624
-26.6679
-26.8002
-26.8764
-26.9918
-27.0575
-27.1702
-27.214
-27.28
-27.2901
-27.317
-27.3008
-27.3407
-27.3816
-27.4628
-27.5303
-27.5759
-27.6609
-27.7448
-27.8666
-27.9538
-28.0853
-28.1768
-28.2901
-28.4181
-28.5565
-28.705
-28.8387
-28.9894
-29.1377
-29.3401
-29.5817
-29.7971
-30.0359
-30.2428
-30.5047
-30.7366
-31.0625
-31.2688
-31.6602
-32.0672
-32.58
-33.1578
-33.8362
-34.6002
-35.4804
-36.4842
-37.6192
-38.8961
-40.2922
-41.8162
-43.4708
-45.2579
-47.1814
-49.2353
-51.4078
-53.6544
-55.8939
-58.0588
-60.1021
-62.0012
-63.7024
-65.1432
-66.1533
-66.6339
-66.4611
-65.9109
-65.1657
-64.2896
-63.1949
-61.8864
-60.3448
-58.6127
-56.6745
-54.5564
-52.2197
-49.6746
-46.8748
-43.8148
-40.457
-36.783
-32.743
-28.3121
-23.4204
-18.0208
-12.0809
-5.47281
1.91843
10.1851
19.3983
29.5864
40.7151
52.7031
65.3932
78.7705
92.9257
108.642
127.455
151.02
179.369
207.524
-5.93323
-4.84914
-4.39471
-4.14422
-4.22537
-4.65199
-5.25272
-5.83196
-6.53055
-7.26859
-8.05248
-8.82772
-9.52552
-10.0868
-10.6276
-11.1819
-11.7237
-12.2864
-12.7728
-13.2434
-13.6322
-13.9898
-14.3896
-14.7904
-15.1983
-15.5738
-15.9448
-16.2873
-16.628
-16.9264
-17.2403
-17.5057
-17.7772
-18.0222
-18.2912
-18.5319
-18.7783
-19.0262
-19.2841
-19.5436
-19.7744
-20.0117
-20.2119
-20.4243
-20.6044
-20.8002
-20.9616
-21.1684
-21.3075
-21.5273
-21.6704
-21.8446
-21.9719
-22.1066
-22.2542
-22.4164
-22.6377
-22.7758
-22.9279
-23.0525
-23.2115
-23.309
-23.468
-23.5665
-23.7272
-23.8378
-24.0265
-24.1236
-24.2787
-24.3618
-24.4764
-24.6216
-24.7579
-24.9206
-25.0179
-25.1599
-25.2461
-25.3752
-25.4326
-25.5461
-25.606
-25.7246
-25.7918
-25.9248
-25.9872
-26.0912
-26.142
-26.23
-26.3399
-26.4503
-26.5981
-26.6957
-26.8385
-26.9155
-27.0505
-27.1257
-27.2578
-27.3222
-27.4366
-27.4863
-27.5988
-27.6388
-27.7068
-27.7234
-27.7623
-27.7674
-27.8304
-27.8985
-27.9724
-28.0768
-28.1287
-28.2431
-28.317
-28.4637
-28.5702
-28.7869
-28.9324
-29.1237
-29.301
-29.5153
-29.7
-29.9041
-29.9937
-30.1681
-30.43
-30.7026
-30.9945
-31.2889
-31.651
-31.9795
-32.3924
-32.7434
-33.2199
-33.6554
-34.1989
-34.766
-35.4362
-36.1905
-37.0702
-38.0697
-39.2176
-40.4972
-41.9277
-43.5072
-45.2377
-47.1263
-49.1648
-51.3411
-53.6278
-55.9887
-58.3557
-60.6986
-62.8859
-64.8578
-66.5285
-67.9812
-69.25
-70.296
-70.9018
-70.8159
-69.9853
-68.728
-67.1931
-65.4952
-63.6427
-61.6915
-59.5872
-57.3506
-54.9162
-52.2809
-49.3876
-46.2213
-42.746
-38.9403
-34.7625
-30.187
-25.1207
-19.5667
-13.4053
-6.49936
1.23614
9.84946
19.3237
29.6432
40.6844
52.3644
64.651
77.6419
91.8609
108.524
128.287
151.081
172.563
-5.07745
-4.2609
-4.00746
-3.75001
-3.91467
-4.18309
-4.76677
-5.41846
-5.92932
-6.59945
-7.32234
-8.05995
-8.86743
-9.5445
-10.1406
-10.7841
-11.3976
-11.9411
-12.4012
-12.8216
-13.2192
-13.5953
-13.9937
-14.4074
-14.8522
-15.2736
-15.6626
-15.9912
-16.2675
-16.5622
-16.8514
-17.1426
-17.4342
-17.7245
-18.0026
-18.2785
-18.5365
-18.7689
-19.0008
-19.2187
-19.4417
-19.6641
-19.8823
-20.0867
-20.2851
-20.4549
-20.6362
-20.8237
-21.003
-21.171
-21.343
-21.4965
-21.6891
-21.8778
-22.0369
-22.178
-22.3169
-22.4536
-22.5797
-22.7122
-22.8411
-22.987
-23.1323
-23.2777
-23.4206
-23.5432
-23.6524
-23.7945
-23.9374
-24.0854
-24.2332
-24.3673
-24.4911
-24.6061
-24.7106
-24.8115
-24.9087
-25.0046
-25.1109
-25.2231
-25.3152
-25.4241
-25.5023
-25.5861
-25.6573
-25.7339
-25.8147
-25.9232
-26.0023
-26.0832
-26.1736
-26.2778
-26.3852
-26.5169
-26.6488
-26.7632
-26.8828
-26.9838
-27.0921
-27.1576
-27.2154
-27.2445
-27.2751
-27.2833
-27.3122
-27.3321
-27.3657
-27.3874
-27.4085
-27.4646
-27.5442
-27.6427
-27.7354
-27.8445
-27.9509
-28.0343
-28.1796
-28.2712
-28.4388
-28.5191
-28.6877
-28.8559
-29.086
-29.2804
-29.4203
-29.61
-29.6884
-29.9015
-30.075
-30.3015
-30.5358
-30.853
-31.2211
-31.6664
-32.1662
-32.7426
-33.3926
-34.1451
-35.0112
-36.0033
-37.1274
-38.3779
-39.7721
-41.3181
-43.0185
-44.8834
-46.9079
-49.0811
-51.3975
-53.8274
-56.3177
-58.7841
-61.1659
-63.3912
-65.4253
-67.1736
-68.4484
-68.8532
-68.4794
-67.9008
-67.326
-66.5164
-65.401
-64.0076
-62.4245
-60.6901
-58.8281
-56.8206
-54.6631
-52.3214
-49.7744
-46.9857
-43.9234
-40.5571
-36.8542
-32.768
-28.2365
-23.2582
-17.7436
-11.6039
-4.76354
2.81242
11.1121
20.1424
29.8649
40.257
51.3133
63.1301
76.0931
90.9377
107.852
126.61
143.699
-6.52011
-5.01321
-4.09799
-4.28915
-4.19679
-4.37959
-4.77696
-5.46525
-6.12797
-6.81983
-7.61382
-8.35414
-8.94677
-9.58204
-10.0846
-10.7018
-11.3486
-11.9328
-12.4888
-12.9098
-13.3187
-13.6223
-14.0047
-14.4055
-14.7915
-15.2189
-15.6555
-16.03
-16.3904
-16.7067
-17.0245
-17.2872
-17.5261
-17.8001
-18.0924
-18.3496
-18.6105
-18.8905
-19.1343
-19.3688
-19.6052
-19.8432
-20.0465
-20.251
-20.4436
-20.65
-20.8313
-21.0337
-21.2063
-21.3952
-21.5506
-21.7199
-21.8608
-22.0137
-22.1744
-22.3429
-22.5147
-22.6551
-22.8038
-22.9346
-23.0793
-23.1906
-23.3428
-23.4712
-23.6439
-23.7649
-23.9438
-24.0535
-24.1894
-24.2961
-24.4118
-24.5323
-24.6621
-24.8008
-24.927
-25.0564
-25.1595
-25.2847
-25.3516
-25.4697
-25.5376
-25.6549
-25.7359
-25.8815
-25.9491
-26.0583
-26.0944
-26.1592
-26.2467
-26.3322
-26.4585
-26.5607
-26.6969
-26.7911
-26.9414
-27.0405
-27.1955
-27.2824
-27.4122
-27.4885
-27.5999
-27.655
-27.7168
-27.7396
-27.7684
-27.7565
-27.7797
-27.8207
-27.8742
-27.942
-27.9811
-28.068
-28.1349
-28.2815
-28.4138
-28.6111
-28.7794
-28.9915
-29.1528
-29.3834
-29.5309
-29.7366
-29.8109
-29.9744
-30.2155
-30.4641
-30.7346
-30.9352
-31.2456
-31.4726
-31.7971
-32.0358
-32.3708
-32.6945
-33.1054
-33.531
-34.0362
-34.6153
-35.3109
-36.1277
-37.09
-38.1924
-39.4522
-40.8724
-42.4628
-44.2395
-46.2087
-48.3701
-50.7143
-53.222
-55.8445
-58.5368
-61.2406
-63.9045
-66.371
-68.5419
-70.3523
-71.908
-73.0852
-73.4265
-72.6808
-71.354
-69.7576
-67.9541
-66.0707
-64.1177
-62.147
-60.122
-58.0249
-55.796
-53.398
-50.7954
-47.9276
-44.7953
-41.3329
-37.5211
-33.2623
-28.5795
-23.4051
-17.7065
-11.4378
-4.5632
2.89652
10.9511
19.5959
28.8502
38.7612
49.4763
61.2752
74.5173
89.2298
105.109
119.167
-8.01782
-6.26026
-5.32627
-4.98316
-4.59767
-4.62788
-4.79602
-5.185
-5.74704
-6.27912
-6.86808
-7.66583
-8.39164
-9.11359
-9.69233
-10.1783
-10.7702
-11.3198
-11.8681
-12.3445
-12.7687
-13.1497
-13.5654
-13.9705
-14.36
-14.7952
-15.2366
-15.5949
-15.8628
-16.1887
-16.536
-16.8426
-17.1335
-17.4255
-17.7357
-18.0196
-18.2607
-18.4989
-18.7468
-18.9612
-19.1833
-19.4129
-19.6352
-19.8465
-20.0485
-20.2377
-20.4339
-20.6294
-20.8276
-21.019
-21.2058
-21.3829
-21.5622
-21.7186
-21.8589
-22.0096
-22.1449
-22.2829
-22.4108
-22.5542
-22.6869
-22.8242
-22.9453
-23.0848
-23.2206
-23.3715
-23.5206
-23.6802
-23.825
-23.9911
-24.14
-24.2583
-24.3784
-24.4909
-24.6011
-24.6931
-24.7995
-24.8911
-25.0092
-25.1171
-25.2301
-25.3327
-25.4273
-25.5006
-25.5989
-25.6848
-25.7806
-25.8678
-25.9097
-25.9684
-26.0302
-26.1283
-26.2177
-26.3605
-26.5008
-26.6497
-26.7851
-26.9223
-27.0483
-27.1544
-27.2151
-27.2675
-27.3025
-27.322
-27.3375
-27.3424
-27.3431
-27.3312
-27.3193
-27.3425
-27.4058
-27.4711
-27.5573
-27.6432
-27.7466
-27.7813
-27.9133
-28.0323
-28.1911
-28.3392
-28.5141
-28.667
-28.8814
-29.0496
-29.1699
-29.3096
-29.441
-29.6035
-29.7379
-29.929
-30.1325
-30.3939
-30.6936
-31.0597
-31.4736
-31.9441
-32.466
-33.0587
-33.7414
-34.5375
-35.4659
-36.5343
-37.7485
-39.1166
-40.6456
-42.3616
-44.2794
-46.4093
-48.7464
-51.2802
-53.9803
-56.7991
-59.6684
-62.5002
-65.2276
-67.7695
-69.9845
-71.5917
-72.3122
-72.3373
-72.0474
-71.2355
-69.8812
-68.2622
-66.461
-64.6012
-62.7494
-60.8813
-58.9941
-57.0201
-54.9408
-52.6941
-50.2686
-47.5857
-44.62
-41.3051
-37.5645
-33.3946
-28.7374
-23.6014
-17.9695
-11.8215
-5.13358
2.06198
9.76296
18.0348
26.9369
36.6461
47.3302
59.1619
72.1371
85.8935
97.8433
-9.88352
-7.72338
-6.65776
-5.98359
-5.45877
-5.24823
-5.3168
-5.6152
-6.07747
-6.57264
-7.06894
-7.67166
-8.25668
-8.85053
-9.51889
-10.1466
-10.8656
-11.5124
-12.015
-12.4835
-12.8581
-13.1988
-13.5657
-13.9595
-14.3203
-14.7257
-15.2807
-15.8116
-16.1513
-16.3898
-16.7263
-16.9899
-17.2466
-17.5173
-17.8229
-18.1278
-18.4103
-18.6961
-18.9462
-19.1862
-19.4188
-19.6514
-19.861
-20.0659
-20.2539
-20.4461
-20.6259
-20.8143
-21.0028
-21.2056
-21.3922
-21.5781
-21.737
-21.9068
-22.0893
-22.2449
-22.402
-22.5331
-22.6676
-22.7867
-22.9278
-23.0464
-23.2002
-23.3308
-23.514
-23.6347
-23.7902
-23.9157
-24.0578
-24.1733
-24.3012
-24.4352
-24.5662
-24.7063
-24.8235
-24.9492
-25.0465
-25.1681
-25.2315
-25.36
-25.4299
-25.5755
-25.6517
-25.8059
-25.885
-25.9875
-26.0261
-26.0804
-26.1546
-26.2052
-26.3081
-26.388
-26.5117
-26.604
-26.7793
-26.8965
-27.0879
-27.1947
-27.3684
-27.4674
-27.5942
-27.6628
-27.7186
-27.743
-27.7701
-27.7553
-27.7638
-27.7708
-27.7769
-27.7977
-27.8052
-27.8625
-27.9243
-28.0747
-28.2014
-28.4131
-28.5514
-28.7666
-28.8974
-29.1197
-29.274
-29.4763
-29.5575
-29.709
-29.9216
-30.116
-30.3217
-30.4946
-30.7202
-30.8643
-31.1049
-31.2358
-31.4568
-31.6727
-31.9592
-32.2847
-32.6625
-33.1029
-33.6278
-34.2647
-35.0355
-35.9515
-37.0284
-38.2714
-39.6898
-41.3053
-43.1329
-45.1899
-47.491
-50.0484
-52.8478
-55.8359
-58.9379
-62.102
-65.2723
-68.3506
-71.1618
-73.5318
-75.2613
-76.2201
-76.2364
-75.2236
-73.5602
-71.5267
-69.3127
-67.1046
-64.9629
-62.9641
-61.0263
-59.1145
-57.1567
-55.0992
-52.8972
-50.4835
-47.844
-44.917
-41.6324
-37.9496
-33.8245
-29.2589
-24.268
-18.8304
-12.8937
-6.49598
0.367341
7.74982
15.7386
24.4869
34.1537
44.7833
56.3676
68.4656
78.9149
-11.7704
-9.47389
-8.16508
-7.15313
-6.46922
-6.09188
-5.93566
-5.89474
-6.13849
-6.52793
-6.9518
-7.46919
-8.03845
-8.62681
-9.19202
-9.74591
-10.289
-10.8767
-11.4257
-11.9502
-12.4168
-12.8157
-13.2121
-13.5804
-13.9417
-14.276
-14.6499
-15.0347
-15.4108
-15.862
-16.3092
-16.6068
-16.8579
-17.1315
-17.4197
-17.729
-18.0127
-18.2534
-18.4757
-18.713
-18.9489
-19.1913
-19.4274
-19.6503
-19.8673
-20.0697
-20.2687
-20.4586
-20.6587
-20.8582
-21.0489
-21.2305
-21.4094
-21.571
-21.7232
-21.8795
-22.0234
-22.1668
-22.2885
-22.4246
-22.5407
-22.6648
-22.7787
-22.9246
-23.0837
-23.2571
-23.4248
-23.5872
-23.7373
-23.8938
-24.0317
-24.1563
-24.2852
-24.4015
-24.5204
-24.6128
-24.7292
-24.8079
-24.9269
-25.0098
-25.1244
-25.2149
-25.3433
-25.4477
-25.5715
-25.6511
-25.775
-25.8609
-25.8841
-25.9142
-25.9456
-25.9975
-26.0531
-26.1974
-26.3172
-26.4875
-26.6517
-26.8329
-26.9988
-27.1589
-27.2459
-27.336
-27.3788
-27.4065
-27.4201
-27.4006
-27.3666
-27.3343
-27.3091
-27.2915
-27.2934
-27.317
-27.3743
-27.4223
-27.5064
-27.5656
-27.6944
-27.8489
-28.032
-28.2143
-28.4094
-28.5881
-28.7774
-28.9409
-29.0909
-29.2343
-29.3642
-29.5045
-29.624
-29.7831
-29.9391
-30.1344
-30.3513
-30.6114
-30.9029
-31.2389
-31.6185
-32.0495
-32.5444
-33.124
-33.816
-34.6352
-35.6006
-36.7304
-38.0371
-39.5456
-41.2736
-43.2408
-45.473
-47.9997
-50.8201
-53.9011
-57.1812
-60.6118
-64.1124
-67.5581
-70.8196
-73.7611
-76.1072
-77.5213
-77.7471
-77.1276
-75.6824
-73.683
-71.3374
-68.9205
-66.6363
-64.5575
-62.6542
-60.8811
-59.122
-57.2993
-55.3469
-53.2305
-50.9077
-48.3402
-45.47
-42.2624
-38.6624
-34.655
-30.2714
-25.503
-20.3162
-14.6743
-8.5901
-2.04446
5.07198
12.9249
21.6632
31.2752
41.6987
52.4966
61.7583
-13.5476
-11.1062
-9.6025
-8.3752
-7.6193
-7.00171
-6.71382
-6.59578
-6.73739
-6.99141
-7.24659
-7.6459
-8.0777
-8.57525
-9.09551
-9.64258
-10.1926
-10.7557
-11.3029
-11.8011
-12.2372
-12.6078
-12.9621
-13.3451
-13.7853
-14.3204
-14.8938
-15.3041
-15.6732
-16.0193
-16.2589
-16.5564
-16.8822
-17.2063
-17.5174
-17.8352
-18.2102
-18.517
-18.7254
-18.967
-19.1984
-19.4233
-19.6331
-19.8355
-20.0197
-20.2169
-20.3933
-20.5746
-20.777
-20.997
-21.1977
-21.4117
-21.5954
-21.7799
-21.9624
-22.127
-22.29
-22.4156
-22.5385
-22.64
-22.7859
-22.8713
-23.0103
-23.1151
-23.2865
-23.4298
-23.598
-23.7502
-23.906
-24.0406
-24.1803
-24.3276
-24.4651
-24.608
-24.7269
-24.8544
-24.9331
-25.0506
-25.1137
-25.2501
-25.3235
-25.4653
-25.5476
-25.7026
-25.8028
-25.9093
-25.9656
-26.0248
-26.0818
-26.1244
-26.1666
-26.2025
-26.3023
-26.4022
-26.5684
-26.7109
-26.9014
-27.0819
-27.2899
-27.4387
-27.5645
-27.6549
-27.7512
-27.7802
-27.7843
-27.7805
-27.7741
-27.7348
-27.7007
-27.6751
-27.6497
-27.6592
-27.6988
-27.8204
-27.9431
-28.1136
-28.2518
-28.437
-28.5956
-28.781
-28.945
-29.1185
-29.2577
-29.417
-29.5837
-29.7486
-29.9138
-30.059
-30.2128
-30.307
-30.475
-30.5328
-30.6767
-30.8025
-30.968
-31.179
-31.4376
-31.7555
-32.1366
-32.5956
-33.1556
-33.8313
-34.6517
-35.6363
-36.8003
-38.169
-39.7682
-41.6272
-43.7725
-46.2394
-49.0407
-52.1864
-55.645
-59.3635
-63.24
-67.1517
-70.9621
-74.5525
-77.6401
-79.9066
-81.0176
-80.7729
-79.2931
-76.9031
-74.0901
-71.21
-68.5061
-66.1453
-64.1485
-62.4374
-60.8452
-59.2389
-57.562
-55.7497
-53.7553
-51.5468
-49.0728
-46.3282
-43.2415
-39.7811
-35.9598
-31.8164
-27.3439
-22.4459
-17.1138
-11.3679
-5.07883
1.92137
9.76581
18.4678
27.9268
37.6903
46.0334
-15.1616
-12.7332
-11.0918
-9.70147
-8.72194
-7.95314
-7.50866
-7.25049
-7.18775
-7.29638
-7.47139
-7.77079
-8.10889
-8.51589
-8.95213
-9.41172
-9.90005
-10.3914
-10.8906
-11.3742
-11.8415
-12.2653
-12.6712
-13.0374
-13.3809
-13.7448
-14.1653
-14.6465
-15.1541
-15.6048
-15.9425
-16.242
-16.5341
-16.824
-17.0794
-17.3465
-17.6183
-17.9022
-18.1912
-18.4588
-18.7157
-18.9804
-19.2498
-19.5083
-19.7205
-19.9102
-20.0969
-20.2783
-20.4745
-20.687
-20.8665
-21.0268
-21.2195
-21.4067
-21.5675
-21.735
-21.8971
-22.0467
-22.1789
-22.3051
-22.4307
-22.5547
-22.657
-22.79
-22.9549
-23.1298
-23.3017
-23.4691
-23.6243
-23.7779
-23.92
-24.0495
-24.1791
-24.3067
-24.4285
-24.5356
-24.6494
-24.7497
-24.8471
-24.905
-25.0077
-25.0886
-25.2288
-25.3783
-25.5263
-25.6704
-25.8072
-25.9015
-25.9391
-25.9082
-25.8942
-25.8951
-25.8942
-25.9767
-26.1202
-26.2655
-26.4641
-26.6959
-26.9377
-27.1596
-27.3415
-27.4747
-27.4944
-27.529
-27.5556
-27.5295
-27.4777
-27.4265
-27.3636
-27.3035
-27.2488
-27.2094
-27.2083
-27.2156
-27.2873
-27.3715
-27.4955
-27.6817
-27.8988
-28.1184
-28.3314
-28.526
-28.7206
-28.9025
-29.0671
-29.219
-29.36
-29.4975
-29.6163
-29.7427
-29.858
-29.9861
-30.1325
-30.3026
-30.4842
-30.6751
-30.8979
-31.1696
-31.5032
-31.9036
-32.3879
-32.9711
-33.6702
-34.5105
-35.5182
-36.7226
-38.1589
-39.8701
-41.8807
-44.2255
-46.9353
-50.0615
-53.6129
-57.538
-61.7314
-66.0743
-70.4283
-74.6784
-78.5753
-81.8322
-83.9861
-84.531
-83.3281
-80.868
-77.6449
-74.0536
-70.6408
-67.7694
-65.5075
-63.7453
-62.2552
-60.8739
-59.4822
-57.993
-56.335
-54.4825
-52.4082
-50.1041
-47.5231
-44.5962
-41.3195
-37.7584
-33.9352
-29.7604
-25.1854
-20.2124
-14.7111
-8.55673
-1.62033
6.21799
14.8794
23.8289
31.4492
-16.3318
-14.1122
-12.316
-10.8614
-9.8246
-8.91572
-8.41714
-8.08792
-7.89123
-7.82721
-7.83078
-8.03354
-8.27149
-8.57854
-8.94756
-9.33564
-9.77365
-10.2135
-10.676
-11.1279
-11.5791
-11.9965
-12.4103
-12.817
-13.2198
-13.6367
-14.0578
-14.4857
-14.8971
-15.3101
-15.7059
-16.0802
-16.4293
-16.7981
-17.1842
-17.5199
-17.8442
-18.1469
-18.4263
-18.6836
-18.9139
-19.1309
-19.3489
-19.5456
-19.749
-19.9573
-20.1589
-20.352
-20.5576
-20.8174
-21.039
-21.2465
-21.4264
-21.6243
-21.8258
-21.9986
-22.1811
-22.308
-22.4451
-22.5169
-22.6122
-22.7042
-22.8076
-22.8851
-23.0298
-23.203
-23.3823
-23.5552
-23.7437
-23.9017
-24.0558
-24.2132
-24.3633
-24.5214
-24.6494
-24.7715
-24.8399
-24.9371
-25.0075
-25.1368
-25.1851
-25.2871
-25.3809
-25.5174
-25.6474
-25.7879
-25.9083
-26.0142
-26.1012
-26.1301
-26.1032
-26.0915
-26.1088
-26.1351
-26.2313
-26.4097
-26.6093
-26.8195
-27.0616
-27.3042
-27.5422
-27.7078
-27.8074
-27.8344
-27.8348
-27.8382
-27.8199
-27.7501
-27.6843
-27.6084
-27.5386
-27.4884
-27.4559
-27.5054
-27.5961
-27.7121
-27.8577
-28.0315
-28.2089
-28.4
-28.584
-28.7743
-28.9476
-29.1207
-29.2838
-29.4325
-29.5768
-29.7051
-29.8276
-29.8948
-29.974
-29.9987
-30.0641
-30.1324
-30.2093
-30.3206
-30.4678
-30.6553
-30.8957
-31.201
-31.5788
-32.0449
-32.6135
-33.3064
-34.1482
-35.168
-36.405
-37.9148
-39.7379
-41.911
-44.4766
-47.5062
-51.0542
-55.1164
-59.6088
-64.422
-69.3873
-74.3722
-79.1391
-83.432
-86.7272
-88.3391
-87.9262
-85.9002
-82.2897
-77.7248
-73.2199
-69.4351
-66.7003
-64.7311
-63.2787
-62.1355
-61.0639
-59.9198
-58.6169
-57.1139
-55.4259
-53.5621
-51.457
-49.0529
-46.3261
-43.3122
-40.0596
-36.5759
-32.7492
-28.5362
-23.8393
-18.526
-12.51
-5.52318
2.42457
10.7322
17.7603
-17.0558
-15.0785
-13.3045
-11.8452
-10.794
-9.82011
-9.17407
-8.73893
-8.42301
-8.26373
-8.16063
-8.29055
-8.45939
-8.68003
-8.97423
-9.29056
-9.66765
-10.0519
-10.4619
-10.8769
-11.2952
-11.7019
-12.109
-12.5032
-12.8877
-13.2854
-13.6857
-14.1117
-14.5324
-14.9684
-15.3697
-15.7502
-16.0911
-16.4118
-16.719
-17.0289
-17.3368
-17.6332
-17.9411
-18.2471
-18.5459
-18.8138
-19.0663
-19.2891
-19.4938
-19.6896
-19.881
-20.0702
-20.256
-20.4427
-20.6256
-20.7966
-20.9802
-21.1712
-21.3571
-21.5466
-21.7339
-21.9296
-22.0987
-22.2295
-22.3441
-22.4624
-22.5674
-22.6779
-22.8132
-22.9646
-23.1423
-23.3046
-23.4589
-23.6235
-23.7812
-23.9084
-24.0424
-24.1845
-24.3207
-24.4666
-24.5913
-24.6907
-24.7772
-24.842
-24.9262
-25.0028
-25.1264
-25.2727
-25.4402
-25.6185
-25.7803
-25.926
-26.0077
-26.0177
-25.9616
-25.8574
-25.794
-25.7933
-25.8046
-25.9712
-26.223
-26.4844
-26.7675
-27.0686
-27.3577
-27.581
-27.7186
-27.7812
-27.7629
-27.7047
-27.6462
-27.5922
-27.5128
-27.415
-27.3006
-27.1893
-27.103
-27.0486
-27.0783
-27.149
-27.2569
-27.4628
-27.7125
-27.9783
-28.2232
-28.444
-28.653
-28.8516
-29.0387
-29.2134
-29.3672
-29.5074
-29.6406
-29.7542
-29.8441
-29.9114
-29.9755
-30.0247
-30.0748
-30.1401
-30.2247
-30.344
-30.509
-30.7318
-31.0245
-31.3943
-31.8557
-32.4195
-33.1084
-33.9543
-34.9922
-36.2831
-37.8884
-39.8671
-42.2628
-45.1549
-48.6211
-52.7314
-57.4549
-62.6926
-68.2445
-73.9357
-79.5032
-84.7345
-89.2581
-92.548
-93.9069
-92.2834
-88.102
-82.5448
-76.5544
-71.3183
-67.7212
-65.3373
-63.8529
-62.953
-62.2431
-61.4975
-60.5649
-59.4285
-58.123
-56.6703
-55.0088
-53.0995
-50.9266
-48.4369
-45.7153
-42.8626
-39.7337
-36.2621
-32.3985
-27.9841
-22.8726
-16.7516
-9.55636
-1.846
4.73927
-17.6892
-15.8386
-14.163
-12.7072
-11.5968
-10.6422
-9.93011
-9.43545
-9.06719
-8.86106
-8.79376
-8.67207
-8.72094
-8.85055
-9.05967
-9.30906
-9.62298
-9.9552
-10.3164
-10.6996
-11.0783
-11.4672
-11.8609
-12.2469
-12.6386
-13.0288
-13.4186
-13.8206
-14.2188
-14.632
-15.0392
-15.4371
-15.8169
-16.1874
-16.5464
-16.8995
-17.2448
-17.5785
-17.8855
-18.1698
-18.4389
-18.7021
-18.9593
-19.2005
-19.4337
-19.6536
-19.8697
-20.0949
-20.3255
-20.5805
-20.8088
-21.0259
-21.2273
-21.425
-21.6319
-21.8209
-22.0048
-22.1631
-22.2626
-22.3625
-22.4488
-22.533
-22.6149
-22.7064
-22.8232
-22.973
-23.1938
-23.383
-23.5686
-23.7516
-23.9333
-24.106
-24.2559
-24.4163
-24.5565
-24.699
-24.7785
-24.8399
-24.9059
-24.9966
-25.0391
-25.1151
-25.176
-25.2826
-25.4332
-25.6132
-25.8037
-25.9946
-26.1391
-26.2017
-26.1539
-26.0835
-25.9987
-25.9422
-25.9834
-26.0135
-26.1965
-26.4573
-26.7393
-27.0543
-27.4067
-27.7152
-27.9267
-28.0015
-27.9848
-27.9634
-27.919
-27.8225
-27.7125
-27.6067
-27.497
-27.3854
-27.2784
-27.2304
-27.2195
-27.2824
-27.4134
-27.5625
-27.7593
-27.9917
-28.2284
-28.4613
-28.6744
-28.8623
-29.0324
-29.1923
-29.3433
-29.4771
-29.5957
-29.6805
-29.744
-29.7886
-29.8245
-29.8472
-29.8664
-29.8905
-29.927
-29.9849
-30.0764
-30.2162
-30.4151
-30.6846
-31.0316
-31.4674
-32.0086
-32.6818
-33.5134
-34.5589
-35.8871
-37.5795
-39.7043
-42.3408
-45.5725
-49.5051
-54.2152
-59.7016
-65.8033
-72.278
-78.7507
-85.0182
-90.8806
-95.8242
-98.6627
-98.2255
-95.0771
-89.4791
-81.974
-74.3583
-68.6677
-65.4843
-63.8984
-63.1332
-62.737
-62.5416
-62.1417
-61.48
-60.5102
-59.3659
-58.1258
-56.6753
-55.0427
-53.0942
-50.9019
-48.5956
-46.0928
-43.2791
-40.249
-36.8126
-32.6639
-27.4613
-21.1585
-14.1407
-7.90989
-17.9172
-16.2298
-14.7203
-13.3745
-12.2708
-11.3218
-10.5735
-10.0117
-9.5704
-9.30178
-9.11226
-8.98618
-8.96451
-9.02426
-9.16451
-9.35519
-9.60402
-9.88325
-10.1965
-10.5393
-10.8883
-11.2573
-11.6297
-12.0015
-12.3854
-12.7682
-13.1524
-13.5432
-13.9319
-14.3249
-14.7166
-15.1006
-15.4788
-15.8483
-16.2015
-16.5432
-16.874
-17.2013
-17.5193
-17.8269
-18.1316
-18.4223
-18.6993
-18.9586
-19.2019
-19.424
-19.6375
-19.8416
-20.0387
-20.2382
-20.4406
-20.6367
-20.8284
-21.0175
-21.2057
-21.4017
-21.6034
-21.8127
-21.9994
-22.1416
-22.2641
-22.3698
-22.4753
-22.5803
-22.6854
-22.7835
-22.9388
-23.1267
-23.2706
-23.4104
-23.5488
-23.6958
-23.8541
-24.0163
-24.2078
-24.4051
-24.5463
-24.6513
-24.7364
-24.8072
-24.8568
-24.9258
-25.0222
-25.1344
-25.2711
-25.4652
-25.6747
-25.8944
-26.0858
-26.1727
-26.1395
-26.0077
-25.8309
-25.7263
-25.6415
-25.7042
-25.8629
-26.1321
-26.4666
-26.8255
-27.1909
-27.5338
-27.8365
-28.0412
-28.0621
-27.9409
-27.8786
-27.818
-27.727
-27.6024
-27.45
-27.2826
-27.1188
-26.983
-26.9141
-26.8708
-26.9744
-27.1625
-27.4194
-27.729
-28.0341
-28.3059
-28.5371
-28.7522
-28.9616
-29.1499
-29.3077
-29.4458
-29.5808
-29.678
-29.7453
-29.7765
-29.792
-29.7853
-29.7741
-29.7528
-29.7318
-29.7254
-29.7456
-29.8104
-29.9265
-30.107
-30.3639
-30.6955
-31.1064
-31.6154
-32.2415
-33.0348
-34.0733
-35.4612
-37.2893
-39.6392
-42.6043
-46.3221
-50.9281
-56.5206
-63.0361
-70.3147
-77.8862
-85.3523
-92.4558
-98.8556
-103.966
-107.044
-106.144
-99.8519
-89.6538
-78.642
-69.3124
-64.1054
-62.2577
-62.0481
-62.6114
-63.2117
-63.4449
-63.2554
-62.5457
-61.6553
-60.7095
-59.7298
-58.5808
-57.2348
-55.5895
-53.7764
-51.8206
-49.5429
-47.2493
-44.7385
-41.7603
-37.6894
-32.518
-26.3666
-20.5464
-17.9858
-16.4291
-15.0892
-13.8572
-12.803
-11.9056
-11.1352
-10.5451
-10.0588
-9.73765
-9.49398
-9.33625
-9.26214
-9.2549
-9.32452