/*--------------------------------*- C++ -*----------------------------------*\
| =========                 |                                                 |
| \\      /  F ield         | OpenFOAM: The Open Source CFD Toolbox           |
|  \\    /   O peration     | Version:  4.1                                   |
|   \\  /    A nd           | Web:      www.OpenFOAM.org                      |
|    \\/     M anipulation  |                                                 |
\*---------------------------------------------------------------------------*/
FoamFile
{
    version     2.0;
    format      ascii;
    class       volScalarField;
    location    "398";
    object      p;
}
// * * * * * * * * * * * * * * * * * * * * * * * * * * * * * * * * * * * * * //

dimensions      [0 2 -2 0 0 0 0];

internalField   nonuniform List<scalar> 
204246
(
129.582
-5.18791
40.1696
22.6005
18.2703
25.0526
13.3821
24.6576
11.7182
24.3654
10.8727
24.9583
9.23723
25.2861
10.5092
22.7102
16.9881
11.5184
23.8248
9.16562
25.1884
9.66278
23.9551
10.5567
23.9643
10.4946
24.9697
8.84464
25.993
8.68139
26.089
9.20555
25.2857
11.7536
21.4648
18.1043
11.3408
23.807
10.0698
23.4856
10.4592
23.5935
10.1679
24.4919
8.36976
25.3142
8.20164
24.9599
9.3887
22.6123
11.5894
20.0268
17.1863
9.99106
22.6394
8.6917
22.2049
9.03494
22.2582
8.70801
23.1336
6.87297
23.938
6.65388
23.5518
7.70031
21.1508
9.73344
18.4023
14.8126
8.8321
18.3699
6.89765
18.5908
5.59703
17.8669
3.98089
17.1537
1.04305
15.1802
-0.215004
11.5098
-1.99677
6.19044
-4.59687
0.0345269
-4.93826
-12.3185
-10.5816
-18.9416
-16.6565
-27.3272
-22.4526
-37.149
-28.2733
-45.0153
-33.5729
-51.195
-37.1621
-52.6683
-40.0608
-49.2844
-38.764
-44.1704
-33.8644
-34.1008
-32.7316
-23.0937
-24.9789
-12.5394
-18.9625
-4.15984
-12.281
2.01754
-7.42415
6.90631
-4.53902
9.98685
-3.07679
10.7755
-1.17365
8.59764
4.33026
-1.76468
8.92693
-5.23262
8.47818
-7.5196
6.1658
-9.42296
2.99673
-12.233
-0.196656
-15.3784
-3.40303
-18.0512
-6.84884
-19.6458
-11.3628
-16.6734
-23.6274
-12.5928
-26.9265
-12.1959
-27.9117
-12.0257
-28.1391
-11.6484
-27.7758
-10.9992
-26.9708
-10.2029
-25.6089
-9.61497
-22.7657
-10.8885
-15.3388
-19.3284
-7.21931
-19.6747
-3.59262
-17.4377
-1.10255
-13.6191
1.74032
-8.88834
5.7235
-3.0698
10.9038
3.97535
17.2614
13.0039
25.2911
24.5917
34.8208
41.3912
43.6136
57.5034
62.0267
75.3648
85.0946
98.4942
112.815
127.741
147.663
165.514
193.783
216.462
260.344
289.305
377.025
392.955
599.992
45.7242
24.3613
21.4352
25.6083
18.4146
22.211
16.8798
20.5476
15.8542
19.9987
15.1752
19.9457
14.9925
18.9697
16.3827
16.8694
19.5641
14.0813
19.5154
14.3996
19.3262
15.0692
19.0926
15.0654
19.4207
14.8389
20.0368
14.5483
19.9824
14.7684
19.7286
15.3756
18.7939
17.0045
16.8185
19.8756
14.4672
19.4215
14.9812
19.0198
14.8885
19.1995
14.5411
19.6439
14.1378
19.3508
14.3352
18.7106
15.0717
17.5812
16.0326
15.7594
18.8076
13.2631
18.2314
13.6948
17.7509
13.5443
17.8819
13.1631
18.3042
12.7409
18.0025
12.9188
17.3506
13.6136
16.1371
14.4091
14.2847
16.6767
11.9174
15.6226
11.3072
14.9733
10.4744
14.1441
9.14818
13.1304
7.38808
11.0718
5.64001
8.53121
3.70617
4.63735
1.12657
-0.997879
-0.551549
-7.43331
-8.20033
-13.743
-15.9614
-21.3326
-23.1369
-29.7485
-30.5774
-37.1985
-37.4901
-43.4854
-42.782
-46.1915
-45.6088
-46.9563
-43.7238
-44.2138
-41.0545
-35.6728
-35.5871
-28.0493
-26.7171
-18.7277
-17.6176
-11.4193
-10.4727
-4.9678
-4.99178
0.0619257
-1.1103
3.30544
1.65429
4.49586
3.91813
3.3255
6.62956
1.18557
5.64281
0.193162
4.15341
-1.36763
1.89593
-3.70355
-0.480319
-6.49434
-3.51396
-9.4732
-6.98887
-12.1809
-10.7768
-13.8333
-15.4678
-13.4283
-20.1386
-16.328
-21.7441
-17.5139
-22.5743
-17.8926
-22.8107
-17.7562
-22.5457
-17.2696
-21.8229
-16.6687
-20.5257
-16.3451
-18.0847
-16.9551
-13.9859
-18.0091
-12.2617
-16.1068
-10.2776
-13.6062
-7.83387
-10.7836
-4.80435
-7.23077
-0.992909
-2.63318
3.81787
3.26384
9.28429
11.069
16.2977
20.8825
24.5223
33.308
36.9979
46.1049
52.6588
62.2113
71.8829
82.3692
95.3939
106.998
124.159
137.001
160.187
173.638
208.873
215.529
290.245
255.685
390.366
16.1542
30.0014
23.116
25.1743
20.3067
22.1797
17.6754
20.7203
16.0569
20.0328
15.4543
19.676
15.3131
18.9794
16.1744
17.449
18.0066
15.5641
18.8091
14.9269
19.201
14.9732
19.2423
15.0192
19.4156
14.9454
19.725
14.7902
19.8381
14.9103
19.6974
15.4268
19.0015
16.6191
17.435
18.303
15.7152
18.8704
15.1942
19.041
14.9451
19.1725
14.6831
19.3412
14.3883
19.2405
14.4323
18.7956
14.9137
17.807
15.7724
16.2159
17.2727
14.4645
17.6741
13.8715
17.7358
13.5552
17.799
13.2561
17.935
12.9449
17.8155
12.9687
17.3463
13.3817
16.3645
14.0924
14.7625
15.1974
12.8549
15.1857
11.6462
14.8581
10.6138
14.1328
9.36924
12.9864
7.78075
11.1042
6.36864
8.07404
4.54804
4.17242
1.9068
-0.94635
-2.02384
-6.33625
-7.67829
-12.7547
-14.5121
-20.0694
-22.4254
-28.0233
-30.8325
-35.7232
-38.3818
-42.3235
-44.0996
-46.16
-46.4141
-47.5359
-45.7341
-44.166
-42.2746
-37.5638
-35.9143
-29.2745
-27.4767
-20.3089
-17.9908
-11.953
-9.90921
-5.305
-3.79208
-0.0433148
0.0298748
3.49304
2.42909
4.8896
4.33814
4.38725
5.78218
2.83485
5.64844
1.07211
4.57837
-0.73898
2.5805
-2.815
-0.291929
-5.40625
-3.55217
-8.32047
-7.09114
-11.1059
-10.8949
-13.0912
-14.9408
-14.8317
-18.8772
-16.5241
-21.0773
-17.4125
-22.2449
-17.7505
-22.6436
-17.6057
-22.4453
-17.1334
-21.7244
-16.563
-20.4283
-16.1859
-18.2619
-16.4392
-15.1224
-16.7007
-12.7064
-15.6242
-10.2149
-13.5872
-7.84869
-10.4923
-5.13431
-6.52029
-1.54613
-1.67611
3.1731
4.3398
9.2649
11.8266
16.8115
21.3694
26.4552
33.0072
38.0168
47.0545
53.6502
63.9165
73.569
84.8545
98.3839
110.934
129.493
143.392
169.035
183.729
223.421
231.353
307.509
286.239
375.019
6.6882
18.8323
15.9825
21.0879
17.2218
20.5552
17.003
19.4006
16.6649
18.4593
16.5601
17.9578
16.7835
17.1959
17.517
16.2567
18.3482
15.8836
17.9474
16.1561
17.6924
16.4954
17.6844
16.5214
17.8677
16.4852
18.0662
16.5526
17.9651
16.786
17.7196
17.2474
17.1902
18.0402
16.4778
18.7147
16.2365
18.1263
16.4592
17.8029
16.3953
17.7595
16.2488
17.7531
16.2
17.425
16.3384
16.9371
16.6727
16.351
17.0747
15.5489
17.5952
15.1009
16.9271
15.2421
16.5636
15.1203
16.4721
14.9398
16.4417
14.8845
16.122
15.0243
15.6626
15.3057
15.0428
15.6069
14.1909
15.9202
13.7576
14.9521
13.2431
14.215
12.586
13.4078
11.6103
12.3712
10.4176
10.6961
8.95018
8.54242
7.03596
5.4998
4.45408
1.46182
0.829254
-3.60472
-4.92936
-9.6073
-11.922
-16.7476
-19.8091
-24.7834
-28.4724
-33.1297
-37.0892
-40.6495
-44.5443
-46.0988
-48.6377
-48.6916
-49.0915
-47.1289
-46.1387
-41.3533
-39.7077
-33.2083
-30.6263
-24.0147
-20.8967
-15.3939
-12.1541
-8.14795
-5.22934
-2.33834
-0.353033
1.29653
2.90901
3.18038
4.8736
3.60184
5.908
3.54191
5.2832
2.89908
3.77544
1.53381
1.67045
-0.519031
-0.881907
-3.04898
-4.02263
-6.03437
-7.53515
-9.20283
-11.1904
-11.967
-14.8711
-14.3878
-17.8072
-17.8534
-19.8301
-19.5237
-20.9726
-20.1781
-21.446
-20.127
-21.2926
-19.7314
-20.5945
-19.236
-19.4283
-18.8239
-17.7003
-18.4291
-16.0191
-17.3791
-14.9343
-15.7325
-13.4777
-13.7112
-11.4419
-11.3719
-8.94284
-8.42259
-5.69916
-4.7021
-1.56424
0.0381995
3.45097
6.29584
9.78323
14.0806
17.668
23.9151
28.057
35.0268
41.1393
48.5057
57.1605
65.0161
76.5907
84.9231
100.121
108.919
129.472
136.591
169.621
164.509
221.997
208.861
279.959
6.56433
20.241
15.713
20.4085
17.7348
19.9571
17.6671
19.176
17.1671
18.4498
16.8676
17.8528
16.9717
17.2758
17.3148
16.7756
17.6152
16.647
17.5029
16.5667
17.5323
16.5717
17.6675
16.5489
17.8148
16.5709
17.9138
16.6915
17.8742
16.8806
17.7188
17.2158
17.3563
17.6821
16.9045
17.9448
16.8453
17.7165
16.7324
17.6877
16.5362
17.6852
16.3825
17.6109
16.3441
17.3749
16.3725
17.0328
16.5563
16.461
16.7482
15.8476
16.8539
15.651
16.4997
15.4543
16.3826
15.1939
16.3151
15.0132
16.2158
14.9624
15.9758
14.9887
15.6225
15.1259
15.1257
15.3006
14.4879
15.145
14.0651
14.7377
13.4868
14.0945
12.7616
13.3596
11.8515
12.3246
10.7351
10.788
9.30331
8.5802
7.38599
5.7699
4.72163
2.19138
1.09865
-2.19249
-3.9314
-7.94368
-10.3198
-15.0435
-18.0904
-23.2005
-26.9022
-31.8858
-35.956
-40.1636
-44.0215
-46.7438
-49.387
-50.1309
-50.9843
-49.2852
-48.4755
-44.1209
-41.7834
-35.5988
-32.1706
-25.4337
-21.6304
-15.6167
-12.2635
-7.57095
-4.94576
-1.79734
0.339746
1.99551
3.61953
4.18928
5.47294
5.02128
6.27698
5.00233
5.84889
4.20005
4.60688
2.69987
2.67997
0.682589
0.0708361
-1.89917
-3.01569
-4.94849
-6.52539
-8.22677
-10.2509
-11.4526
-13.8266
-14.5188
-16.8588
-17.385
-19.012
-19.245
-20.4268
-19.9286
-21.1492
-19.9542
-21.0889
-19.5986
-20.3952
-19.1339
-19.2233
-18.6489
-17.8445
-17.7958
-16.2503
-16.7377
-14.9872
-15.1744
-13.286
-13.3004
-11.2053
-10.866
-8.5399
-7.85197
-5.16397
-4.04719
-0.928194
0.867685
4.34166
7.1173
10.9977
15.0457
19.3578
24.8255
30.0401
36.8048
43.6632
51.4407
60.7076
69.3704
81.8032
91.1959
107.623
117.288
139.776
147.548
181.89
178.834
228.121
216.758
261.856
4.03874
14.616
12.0939
16.7758
15.4145
17.6807
16.5237
17.7421
16.8142
17.4674
16.8492
17.0671
17.112
16.7261
17.3325
16.4608
17.4489
16.6138
17.2467
16.8246
17.0889
17.0528
17.1485
17.0911
17.2349
17.1633
17.2903
17.315
17.2213
17.5094
17.0906
17.7603
16.9032
18.023
16.774
18.0434
16.9542
17.6403
17.1179
17.3334
17.0419
17.2183
16.9866
17.0643
16.9948
16.8073
17.0214
16.5344
17.0749
16.2051
17.1565
15.8094
16.9743
15.8756
16.4296
15.9441
16.176
15.8312
15.9804
15.7327
15.7971
15.7492
15.5362
15.8419
15.2463
15.8271
15.0301
15.7797
14.7633
15.5856
14.5039
15.0884
14.2296
14.4262
13.7557
13.6734
13.0358
12.7815
12.0767
11.5571
10.8292
9.87379
9.12065
7.54015
6.77027
4.34519
3.40763
0.157907
-1.34426
-5.22401
-7.57348
-11.997
-15.3332
-20.2028
-24.4901
-29.5139
-34.4078
-39.0055
-43.8671
-47.2677
-51.0383
-52.5759
-54.3477
-53.26
-52.8625
-48.9127
-46.5673
-40.4634
-36.6498
-29.8209
-25.3768
-19.1341
-14.8257
-10.0027
-6.40336
-3.19341
-0.501454
1.22835
3.27744
3.75337
5.40734
4.95686
6.22576
5.30952
5.9286
4.79204
4.84884
3.50948
3.0963
1.55121
0.740512
-1.02856
-2.24093
-4.08614
-5.83049
-7.50516
-9.76282
-11.0215
-13.6928
-14.4764
-17.1097
-17.9546
-19.5441
-20.4402
-21.0532
-21.4701
-21.6772
-21.5807
-21.4588
-21.186
-20.696
-20.5323
-19.6952
-19.8281
-18.6188
-19.0701
-17.571
-17.8424
-16.5793
-16.5694
-15.351
-15.0151
-13.7299
-13.197
-11.6478
-10.9052
-9.00921
-7.94572
-5.6939
-4.08038
-1.53102
0.88254
3.70893
7.14808
10.396
14.89
19.0317
24.1947
29.8896
35.504
43.3447
49.3185
59.7848
66.0692
79.8395
85.8414
104.653
107.897
138.317
131.87
173.05
170.544
211.136
6.65076
16.769
13.0306
17.0372
15.8911
17.5248
16.7369
17.6431
17.0145
17.4231
17.074
17.0983
17.1352
16.8305
17.2346
16.6378
17.2078
16.7644
17.057
16.9349
17.0272
17.0718
17.1071
17.1277
17.1935
17.2048
17.2376
17.3496
17.2136
17.5063
17.1411
17.6833
17.0231
17.7953
17.0017
17.7501
17.1873
17.4874
17.2471
17.2826
17.1515
17.1716
17.0672
17.0282
17.0393
16.8087
17.0152
16.5627
16.979
16.2608
16.907
15.9982
16.6451
16.0524
16.2144
15.9904
16.0059
15.9019
15.8535
15.7948
15.6852
15.7274
15.4685
15.6583
15.3122
15.6336
15.0661
15.5231
14.8085
15.3212
14.5856
14.9101
14.2684
14.3765
13.7942
13.725
13.1242
12.8718
12.2497
11.7
11.0694
10.1291
9.49495
8.06008
7.35886
5.32202
4.33957
1.70845
0.0855929
-3.20933
-5.6353
-9.68535
-13.0408
-17.7866
-22.1171
-27.3282
-32.4125
-37.5937
-42.8311
-47.2518
-51.5458
-54.1509
-56.5731
-56.3854
-56.4047
-52.992
-50.3799
-44.2002
-39.4167
-32.1061
-26.6798
-19.972
-15.1377
-9.85424
-6.16989
-2.55979
0.161575
2.16685
4.14395
4.96339
6.39697
6.30163
7.34635
6.64849
7.26317
6.13746
6.29298
4.91752
4.57799
3.00192
2.20507
0.481587
-0.815097
-2.57881
-4.39793
-6.10847
-8.36474
-9.8925
-12.3472
-13.6812
-15.8973
-17.1872
-18.68
-19.8032
-20.5181
-21.1437
-21.3398
-21.4396
-21.3005
-21.0532
-20.6259
-20.3331
-19.659
-19.4961
-18.5877
-18.5751
-17.397
-17.4728
-16.2238
-16.0495
-14.7742
-14.4746
-13.0195
-12.5435
-10.841
-10.1536
-8.10372
-7.11045
-4.7172
-3.14634
-0.428549
1.92016
5.04713
8.31068
12.0376
16.2601
21.0071
26.0482
32.3843
38.0679
46.5075
52.7318
63.8105
70.3455
84.7787
90.9013
110.529
112.744
140.689
137.341
168.553
164.713
193.513
4.84995
14.3603
10.9607
15.0114
14.123
16.0216
15.6126
16.5104
16.2951
16.6451
16.6327
16.5727
16.8603
16.4526
16.9917
16.4778
17.0404
16.6733
16.9226
16.9038
16.9071
17.1127
16.9607
17.2612
17.0075
17.4051
17.0389
17.5385
17.032
17.6503
17.039
17.8065
16.9645
17.9334
16.9702
17.7893
17.2522
17.4861
17.3739
17.2752
17.3239
17.0861
17.2936
16.9044
17.2837
16.6827
17.26
16.4631
17.2174
16.2536
17.1142
16.0576
16.7372
16.2059
16.3156
16.2084
16.0537
16.1459
15.8662
16.0886
15.6841
16.0946
15.4778
16.0618
15.3405
16.0341
15.2684
15.9398
15.103
15.7424
14.9845
15.3809
14.8029
14.9078
14.4432
14.343
13.9351
13.6159
13.2248
12.664
12.2572
11.3494
10.911
9.56186
9.02018
7.13859
6.30654
3.84744
2.45247
-0.653868
-2.88964
-6.72979
-10.0875
-14.7124
-19.3316
-24.6806
-30.3704
-36.0474
-42.1695
-47.3937
-52.9715
-56.6327
-60.3091
-61.0605
-61.7086
-58.9062
-56.4799
-50.6766
-45.6895
-38.0774
-31.8171
-24.2502
-18.2088
-12.1442
-7.41522
-3.54411
-0.217829
1.77346
4.07364
4.79934
6.45261
6.27212
7.43033
6.77017
7.37452
6.43879
6.55569
5.39833
5.04131
3.68837
2.83721
1.295
-0.0842198
-1.7637
-3.68213
-5.42748
-7.84772
-9.51608
-12.2851
-13.7908
-16.4495
-17.9022
-19.7421
-20.9581
-22.0114
-22.605
-22.9104
-22.9082
-22.5625
-22.3449
-21.6196
-21.4299
-20.5518
-20.5697
-19.5322
-19.7283
-18.6411
-18.6786
-17.8055
-17.6705
-16.7489
-16.5203
-15.4708
-15.124
-13.8628
-13.3378
-11.8322
-10.9912
-9.25798
-7.95869
-5.96041
-4.07024
-1.72338
0.847046
3.7441
6.96434
10.8098
14.5381
19.7498
23.8599
30.9546
35.334
44.7823
49.3201
61.7857
65.6243
83.3023
84.0063
108.594
106.686
135.134
135.046
162.067
8.0226
16.2558
12.3216
16.0664
14.7638
16.3255
15.9958
16.5837
16.4811
16.6707
16.7398
16.5997
16.8635
16.5128
16.899
16.506
16.8997
16.704
16.7901
16.8841
16.8282
17.0601
16.9085
17.2314
16.9911
17.3605
17.0353
17.5276
17.0576
17.6416
17.0337
17.7695
16.9991
17.8497
17.088
17.679
17.3384
17.4245
17.4196
17.2901
17.391
17.1121
17.344
16.924
17.2998
16.712
17.241
16.4907
17.1461
16.2824
16.983
16.1982
16.5554
16.2109
16.1889
16.1552
15.9531
16.0889
15.7439
16.0429
15.5425
16.0069
15.4065
15.8784
15.2964
15.8166
15.1377
15.7025
15.0463
15.4845
14.9513
15.1292
14.7877
14.7391
14.4775
14.2709
14.0349
13.6421
13.4035
12.8056
12.5385
11.684
11.364
10.1796
9.7463
8.16834
7.42344
5.39794
4.07096
1.45821
-0.702626
-4.06709
-7.32041
-11.5973
-16.1422
-21.4308
-27.2808
-33.381
-40.125
-46.3751
-52.8659
-57.8988
-62.7012
-64.8711
-66.697
-65.0388
-62.9742
-57.1244
-51.3286
-42.7067
-34.9873
-26.7181
-19.6562
-12.9716
-7.59331
-3.16466
0.508935
2.85166
5.20148
6.21866
7.80186
7.84385
8.89185
8.40362
8.99432
8.10944
8.24376
7.14036
6.7544
5.45706
4.59608
3.12375
1.70368
0.0939976
-1.85184
-3.61136
-6.02685
-7.86435
-10.5215
-12.4501
-14.8849
-16.8359
-18.6346
-20.2635
-21.3479
-22.3404
-22.6139
-22.9549
-22.6288
-22.4063
-21.7953
-21.4031
-20.5924
-20.4101
-19.4624
-19.4169
-18.3729
-18.2971
-17.2408
-17.0815
-16.0121
-15.7768
-14.6569
-14.2904
-13.0248
-12.4923
-11.0004
-10.1868
-8.44921
-7.19698
-5.15874
-3.34741
-0.88655
1.54324
4.64061
7.68841
11.758
15.3112
20.8279
24.7281
32.1023
36.2618
45.8877
50.1038
62.69
65.9178
82.8353
83.1772
104.843
102.494
125.271
124.126
145.548
6.44689
15.3369
10.9934
15.0841
13.6905
15.3709
15.1792
15.7932
15.8818
16.0237
16.2896
16.1569
16.5367
16.2332
16.6973
16.3251
16.7402
16.599
16.6982
16.8247
16.7595
17.0347
16.8465
17.2403
16.9339
17.4029
16.9943
17.558
17.0216
17.7047
17.0206
17.8338
17.0044
17.8809
17.1052
17.7012
17.3773
17.4212
17.4983
17.2867
17.4815
17.1196
17.4522
16.9425
17.4171
16.7494
17.3731
16.5458
17.2928
16.3656
17.0793
16.3043
16.718
16.3761
16.2627
16.3338
16.0455
16.2535
15.8583
16.2015
15.6997
16.1716
15.5744
16.1655
15.4031
16.1749
15.4058
16.0448
15.3848
15.8528
15.4024
15.5333
15.2772
15.2136
15.0033
14.8105
14.6434
14.2942
14.1446
13.5964
13.4444
12.6407
12.4502
11.3603
11.0563
9.64969
9.07227
7.28117
6.19484
3.85862
1.95766
-1.1355
-4.22026
-8.33033
-12.9329
-18.3002
-24.5244
-31.0461
-38.4464
-45.4848
-53.2682
-59.7079
-66.2308
-70.0355
-72.9788
-72.1207
-70.3508
-64.9805
-58.904
-50.4036
-41.7073
-31.9087
-23.3161
-15.1642
-8.58769
-3.58795
0.633119
2.98562
5.41942
6.32659
7.99386
7.84982
8.97706
8.39257
9.0325
8.2011
8.35619
7.3948
7.11264
5.98158
5.15013
3.88387
2.44155
0.941109
-1.02395
-2.80994
-5.32664
-7.3396
-10.2287
-12.3889
-15.3578
-17.4937
-19.8915
-21.6418
-23.2438
-24.1569
-24.7357
-24.7215
-24.3522
-23.7979
-22.9197
-22.3903
-21.3956
-21.2684
-20.253
-20.3716
-19.4844
-19.5082
-18.7302
-18.6721
-17.8696
-17.751
-16.8944
-16.6803
-15.6787
-15.3199
-14.1461
-13.5554
-12.1996
-11.2726
-9.67652
-8.33816
-6.38367
-4.60791
-2.09628
0.0877803
3.48128
6.00521
10.6288
13.3983
19.6858
22.6273
31.007
33.9328
45.1599
47.3224
62.8501
62.666
82.1228
82.5513
102.965
103.453
123.508
8.95567
17.0981
12.4731
16.2538
14.5532
16.0807
15.6199
16.1461
16.1632
16.1291
16.3916
16.1793
16.5262
16.2028
16.6108
16.2826
16.6276
16.5369
16.5853
16.7627
16.6471
16.9818
16.7651
17.188
16.8878
17.3702
16.9579
17.5632
16.9974
17.6991
17.0045
17.8216
17.0274
17.8528
17.1564
17.6644
17.4273
17.396
17.5391
17.2925
17.5269
17.1371
17.4899
16.9614
17.4384
16.7651
17.3809
16.5459
17.286
16.3875
17.0308
16.3292
16.6391
16.3908
16.235
16.3175
15.9915
16.1978
15.7673
16.1102
15.5642
16.0532
15.399
16.0035
15.2645
15.8543
15.2714
15.7755
15.215
15.6075
15.2658
15.2763
15.1862
15.0612
15.0009
14.7636
14.7309
14.3575
14.3288
13.7961
13.7514
13.0237
12.9321
11.9868
11.7847
10.6052
10.1433
8.6824
7.73725
5.84166
4.14257
1.59862
-1.19184
-4.71485
-8.97473
-13.9274
-20.0701
-26.7742
-34.8601
-42.9997
-52.1338
-60.3727
-68.604
-74.5024
-79.5221
-80.9973
-80.9624
-76.478
-70.1083
-60.2152
-49.1974
-38.0071
-27.4916
-18.0489
-9.80005
-3.76024
1.48131
4.34054
7.05107
8.0545
9.87354
9.7491
10.8441
10.3218
10.9914
10.2108
10.299
9.42166
8.98075
8.04138
7.10053
5.97695
4.48712
3.08811
1.13068
-0.611604
-3.11711
-5.21511
-8.07282
-10.5535
-13.4302
-16.0858
-18.6145
-20.9258
-22.6949
-24.1969
-24.8799
-25.3685
-25.0057
-24.6041
-23.5548
-22.912
-21.6261
-21.4706
-20.2982
-20.2707
-19.2208
-19.1542
-18.1505
-17.9872
-17.1224
-16.9159
-16.1375
-15.8984
-15.0421
-14.6713
-13.6927
-13.1062
-11.954
-11.0643
-9.64314
-8.38153
-6.54642
-4.90928
-2.45053
-0.482059
2.88831
5.0934
9.74795
12.0982
18.352
20.8195
29.0684
31.329
42.3475
43.4194
57.8952
57.8136
74.1351
74.0266
91.273
91.3609
108.399
8.18601
16.4858
11.6297
15.7168
13.7407
15.6427
14.9477
15.6873
15.7018
15.7348
16.0461
15.8595
16.2604
15.9868
16.4295
16.121
16.4909
16.4397
16.502
16.7171
16.5859
16.9471
16.7266
17.1734
16.8481
17.3914
16.9277
17.5828
16.9784
17.7408
16.994
17.8534
17.0333
17.8635
17.1673
17.6734
17.4447
17.4013
17.5937
17.301
17.5952
17.1642
17.572
16.9989
17.5416
16.8059
17.4998
16.6103
17.3909
16.4754
17.1318
16.4431
16.7702
16.5063
16.3327
16.4672
16.1012
16.3754
15.8957
16.298
15.7247
16.2479
15.5853
16.2385
15.4555
16.1753
15.469
16.1082
15.5657
15.9335
15.6205
15.6569
15.544
15.4486
15.3983
15.1655
15.1779
14.8117
14.8682
14.3403
14.4124
13.7069
13.7376
12.8678
12.7817
11.7663
11.4585
10.2451
9.5275
7.93247
6.4885
4.25919
1.72576
-1.55245
-5.66945
-10.5365
-16.7519
-23.5421
-31.7995
-40.454
-50.5254
-60.1786
-70.4652
-78.6733
-85.7125
-89.076
-89.843
-86.1173
-79.9641
-70.1486
-58.5425
-45.112
-32.4214
-20.7052
-10.8799
-3.70388
2.05058
5.23935
7.4145
8.52577
10.087
9.83779
10.8381
10.1688
10.7319
10.1331
10.1079
9.56258
9.01523
8.39491
7.53546
6.65163
5.24106
3.97866
2.10237
0.401896
-2.08481
-4.29444
-7.28127
-9.96041
-13.2899
-16.1845
-19.3475
-21.9801
-24.4359
-26.0932
-27.249
-27.4849
-27.1025
-26.216
-24.7724
-23.7505
-22.2125
-21.8541
-20.7422
-20.8787
-20.1697
-20.253
-19.6304
-19.4763
-18.7961
-18.6758
-18.0032
-17.8873
-17.1268
-16.9181
-16.0074
-15.6588
-14.612
-14.0475
-12.793
-11.9689
-10.378
-9.30105
-7.19946
-5.88907
-3.04164
-1.54636
2.4073
3.96471
9.37304
10.9205
18.2596
19.5903
29.4868
30.1194
42.5081
43.6092
57.8351
59.2968
74.4767
75.5769
91.4493
10.6812
18.4415
13.2165
17.0623
14.7035
16.4652
15.5597
16.1114
16.0389
15.9094
16.2272
15.8897
16.2789
15.9082
16.3493
16.0224
16.3619
16.3435
16.3448
16.6209
16.4493
16.8677
16.6156
17.1239
16.7575
17.3646
16.8762
17.5728
16.9543
17.7306
16.9934
17.8511
17.0449
17.8656
17.1952
17.678
17.4683
17.4068
17.6173
17.3027
17.6411
17.1634
17.6303
16.9917
17.5964
16.7981
17.5405
16.6116
17.4142
16.4883
17.1359
16.4497
16.7666
16.5033
16.3454
16.4605
16.0591
16.3297
15.815
16.203
15.5885
16.1336
15.3887
16.0798
15.2576
15.9506
15.241
15.8343
15.2911
15.6741
15.4262
15.4696
15.4614
15.3033
15.4125
15.129
15.2721
14.8995
15.0353
14.5567
14.6741
14.0709
14.1465
13.4092
13.3878
12.5317
12.3224
11.3645
10.8137
9.65679
8.50583
6.89234
4.83055
2.38443
-1.08722
-5.11167
-10.8706
-17.5334
-26.3139
-35.6809
-47.1059
-58.8008
-71.5837
-82.993
-93.4482
-100.185
-104.475
-103.686
-99.3481
-89.1504
-75.3338
-58.7457
-42.8922
-27.7515
-14.4026
-5.10331
3.62681
6.40031
10.2998
10.3937
12.9098
11.978
13.2043
12.7193
12.7109
12.3771
12.2055
11.7358
11.096
10.4955
9.54656
8.79268
7.37769
6.21799
4.35888
2.79978
0.295072
-1.88711
-4.9107
-7.80868
-11.2929
-14.6543
-18.1454
-21.4314
-24.3076
-26.7493
-28.2525
-29.2415
-28.8846
-28.4425
-26.4392
-25.2191
-22.9442
-22.5051
-20.9582
-20.7942
-19.8452
-19.7614
-18.8715
-18.7001
-17.9517
-17.7217
-17.297
-17.1353
-16.6985
-16.4123
-15.9316
-15.5386
-14.8887
-14.349
-13.4626
-12.682
-11.4041
-10.4264
-8.5641
-7.48806
-4.78093
-3.74599
0.100158
1.1236
6.26153
7.2789
14.0481
14.9023
23.6273
24.625
34.9274
36.2357
47.893
49.3784
62.4666
63.5159
77.6557
10.0032
18.1678
12.669
16.881
14.2457
16.2656
15.1651
15.9614
15.714
15.809
16.0259
15.7441
16.1143
15.782
16.2059
15.894
16.2562
16.2739
16.2596
16.593
16.3961
16.8456
16.5689
17.1148
16.7239
17.3649
16.8485
17.5918
16.9274
17.7763
16.9694
17.8952
17.03
17.8983
17.1928
17.6873
17.4673
17.4099
17.6409
17.2817
17.714
17.1668
17.7117
17.0128
17.6861
16.8259
17.6482
16.6408
17.5124
16.5535
17.2394
16.5386
16.8822
16.6126
16.4462
16.6299
16.1804
16.5258
15.9525
16.4338
15.7311
16.3756
15.5295
16.3482
15.4183
16.235
15.4684
16.1038
15.5603
15.957
15.6834
15.7452
15.7558
15.5543
15.6893
15.3971
15.5548
15.1661
15.398
14.8729
15.1518
14.5089
14.7478
14.0512
14.1448
13.4281
13.3214
12.5578
12.1182
11.1928
10.2053
8.86871
7.03235
4.87333
1.71586
-1.93392
-7.20079
-13.3368
-21.6485
-31.1655
-42.9907
-56.1584
-70.8739
-84.2021
-96.9883
-107.296
-113.988
-115.348
-112.22
-103.856
-87.6026
-69.5673
-50.6361
-33.9506
-17.4971
-5.61548
3.39996
8.5144
10.5744
11.5762
12.5956
12.523
12.636
12.4898
12.2831
11.8965
11.7339
11.5702
10.9534
10.7807
9.93121
9.4619
8.20127
7.25508
5.54303
4.10012
1.81536
-0.406583
-3.33507
-6.24627
-9.92918
-13.5369
-17.5252
-21.382
-25.0877
-28.1132
-30.4268
-31.604
-31.477
-30.4632
-28.1591
-26.066
-23.176
-22.0865
-20.8916
-21.143
-20.6546
-21.0448
-20.6908
-20.1782
-19.6867
-19.202
-18.7983
-18.7195
-18.3327
-18.1369
-17.5591
-17.2748
-16.6246
-16.3404
-15.4804
-15.1309
-13.9134
-13.5326
-11.7736
-11.4092
-8.97024
-8.56164
-5.29251
-4.86341
-0.500472
-0.137175
5.85697
6.19721
13.802
14.484
23.6398
24.793
35.4401
36.8031
48.9205
49.9845
63.556
12.3832
20.1352
14.2437
18.2033
15.3146
17.125
15.8024
16.4294
16.0603
15.9763
16.1881
15.7715
16.158
15.6831
16.1492
15.7178
16.1199
16.1148
16.1549
16.4489
16.2908
16.7416
16.455
17.0529
16.6109
17.3403
16.7695
17.5799
16.887
17.7509
16.957
17.8649
17.0292
17.8815
17.2008
17.727
17.4765
17.4379
17.6733
17.2559
17.7517
17.1625
17.7884
17.0081
17.7816
16.8115
17.7228
16.6547
17.5637
16.5795
17.2808
16.5516
16.9032
16.629
16.4257
16.6204
16.1268
16.4746
15.8672
16.3368
15.6343
16.2469
15.402
16.1734
15.2339
16.0618
15.1784
15.9318
15.2666
15.7283
15.5264
15.5408
15.6606
15.4453
15.7119
15.3808
15.7067
15.2082
15.5446
15.0687
15.3134
14.7909
15.0086
14.3966
14.5288
13.9137
13.864
13.3108
13.0029
12.4557
11.7346
10.957
9.5978
8.21069
5.7196
2.95854
-1.59994
-6.92782
-14.7459
-23.6861
-35.8516
-49.4881
-66.3348
-83.9555
-101.034
-115.496
-127.402
-133.278
-135.21
-130.245
-115.222
-92.2459
-69.6157
-48.3281
-27.9589
-10.7126
4.62188
9.74768
15.7201
13.942
16.0902
15.0336
15.4852
15.1234
14.642
14.5269
13.8327
13.4843
12.8189
12.549
11.7325
11.3466
10.1897
9.36308
7.76432
6.54075
4.31265
2.32293
-0.675729
-3.69338
-7.66556
-11.6706
-16.1613
-20.6762
-25.1648
-29.2404
-32.4319
-34.7782
-35.0913
-34.8577
-31.809
-29.5443
-24.8965
-23.4325
-20.7396
-20.883
-19.6642
-20.085
-19.2777
-19.4037
-18.4922
-18.165
-17.8798
-17.918
-17.8103
-17.686
-17.6098
-17.3522
-17.1415
-16.7936
-16.4648
-16.0271
-15.1966
-14.8155
-13.3751
-13.0807
-11.0092
-10.8279
-7.80309
-7.72774
-3.81133
-3.87273
1.46094
1.23695
8.01609
8.01979
16.117
16.4826
25.7796
26.4314
37.3079
37.8427
50.5601
11.9572
20.068
13.9149
18.2394
15.1196
17.1612
15.7286
16.4602
16.0012
15.9974
16.1415
15.7614
16.0891
15.6468
16.0513
15.6796
16.0464
16.0437
16.0874
16.4131
16.228
16.7507
16.3701
17.0843
16.5304
17.3786
16.7131
17.6201
16.8229
17.8428
16.8712
17.9462
16.9833
17.9327
17.1785
17.742
17.509
17.4192
17.7148
17.2573
17.804
17.1523
17.8442
17.0031
17.8445
16.8239
17.7934
16.6843
17.653
16.6314
17.3858
16.6342
17.017
16.751
16.5533
16.7924
16.2371
16.7076
15.9751
16.5814
15.7415
16.4819
15.5367
16.4033
15.4083
16.2962
15.4009
16.1494
15.4802
15.9302
15.741
15.661
15.9164
15.5766
15.9337
15.4355
15.946
15.29
15.8507
15.133
15.7243
15.0183
15.4781
14.8897
15.0625
14.5834
14.5471
14.1265
13.8267
13.4528
12.8215
12.2887
11.1409
10.1054
8.03281
5.81807
1.96023
-2.63276
-9.59884
-18.0582
-29.4184
-43.4597
-60.2211
-78.7542
-98.202
-115.674
-129.632
-137.512
-143.67
-146.66
-132.507
-109.517
-82.5789
-59.6414
-36.5982
-17.5017
-0.26456
11.4781
13.2195
17.1399
14.6375
14.624
14.3132
14.3712
13.8807
13.3234
13.1047
13.1616
12.607
12.7289
11.9956
11.8927
10.9024
10.3256
8.8889
7.80885
5.88973
3.96992
1.34805
-1.4356
-5.17813
-9.14357
-13.8626
-18.896
-24.0715
-29.0942
-33.4872
-36.8954
-38.2572
-38.1865
-34.7999
-31.1612
-25.3165
-21.7107
-20.1854
-20.3159
-20.6707
-21.7477
-22.1738
-21.0928
-20.7154
-19.1408
-19.0777
-19.0316
-19.3308
-19.0462
-18.78
-18.3488
-18.1508
-18.0372
-17.8232
-17.5345
-17.031
-16.835
-15.7454
-15.6904
-14.1002
-14.2395
-11.7795
-12.0741
-9.02305
-9.44674
-5.02496
-5.6513
-0.0153606
-0.186101
6.60391
7.25178
14.9789
15.7742
25.3538
25.8544
37.915
13.8779
22.1616
15.324
19.5418
16.1209
17.8998
16.3779
16.8652
16.3592
16.1289
16.32
15.7546
16.1399
15.5271
16.0046
15.4805
15.9114
15.881
15.9627
16.2788
16.0908
16.6777
16.2426
17.0271
16.441
17.3827
16.5922
17.6945
16.6933
17.8672
16.7782
17.9722
16.8795
17.9508
17.1091
17.7447
17.4842
17.4082
17.7321
17.2464
17.8435
17.1436
17.9177
16.9893
17.9437
16.8108
17.8959
16.6678
17.7418
16.616
17.4598
16.6301
17.052
16.768
16.5267
16.826
16.1617
16.7375
15.8765
16.5991
15.6166
16.4881
15.358
16.3776
15.1885
16.2321
15.1488
16.0444
15.2513
15.8094
15.5421
15.5333
15.765
15.4551
15.9011
15.4259
15.9879
15.3452
15.9893
15.2305
15.9288
15.0171
15.7825
14.9097
15.3396
14.789
14.8478
14.5821
14.3303
14.2309
13.7341
13.5768
12.7531
12.2647
10.7581
9.33411
6.34068
2.85451
-2.96828
-9.98476
-20.3768
-32.5543
-49.3511
-69.0179
-90.5361
-111.999
-130.445
-142.24
-152.678
-161.733
-157.47
-131.1
-102.708
-74.0915
-49.6329
-27.1423
-5.41557
9.8979
17.9146
18.5508
20.8223
17.42
17.0288
17.4243
16.2219
16.5847
14.5825
14.6183
13.9443
14.023
13.4292
13.3387
12.5556
12.1447
10.9109
10.1
8.4176
6.91766
4.33201
1.58842
-2.25194
-6.51783
-11.7955
-17.4145
-23.7907
-30.0479
-35.8548
-40.8949
-43.5118
-45.2417
-41.9316
-38.464
-29.9699
-24.5157
-19.0604
-18.5803
-17.8319
-18.839
-19.7438
-20.7435
-19.6222
-18.5724
-17.7395
-17.7847
-18.3076
-18.5339
-19.0314
-18.6095
-18.6193
-18.3225
-18.6533
-18.4469
-18.1088
-18.0261
-17.0944
-17.0659
-15.8871
-16.2646
-13.9898
-14.483
-11.9518
-12.7824
-8.76136
-10.1739
-5.22472
-6.19507
-0.296062
-0.732998
6.20099
5.43761
14.2244
13.3091
25.1745
13.375
22.1219
15.2251
19.6136
16.2462
18.0136
16.6357
16.9732
16.6123
16.26
16.4499
15.8372
16.1755
15.5801
15.9366
15.5144
15.832
15.845
15.877
16.2956
15.9726
16.696
16.1388
17.0343
16.3375
17.4162
16.5186
17.7501
16.6571
17.9436
16.6883
18.0325
16.817
17.9757
17.0773
17.7365
17.4918
17.3668
17.7982
17.1947
17.9244
17.0871
17.9785
16.9644
17.9909
16.8054
17.9481
16.6967
17.8183
16.6707
17.5501
16.7254
17.1428
16.9138
16.6087
17.0244
16.2312
16.9688
15.9387
16.8469
15.6832
16.7168
15.4562
16.5958
15.3092
16.4462
15.2953
16.235
15.4024
15.9493
15.7006
15.6059
15.9209
15.4482
16.0126
15.4205
16.0541
15.3506
16.0687
15.2827
16.088
15.2642
16.0114
15.2256
15.7558
15.1384
15.3242
15.0712
14.769
14.7966
14.3154
14.2679
13.5104
13.1767
11.889
10.8163
8.36784
5.62761
0.783682
-5.01636
-13.8802
-24.4499
-39.7755
-57.1864
-78.5312
-100.636
-120.249
-135.405
-150.194
-164.862
-167.359
-142.902
-112.926
-83.7242
-58.529
-35.6291
-13.7055
3.58836
15.879
14.1709
18.3434
17.0636
15.3005
14.7186
14.9682
14.0941
14.656
13.7914
13.6785
13.9804
13.5068
13.7014
13.0321
12.8486
11.7376
11.0633
9.5124
8.29421
6.38997
4.11729
0.801697
-3.03306
-8.08156
-13.8766
-20.4997
-27.5395
-34.5948
-41.368
-46.0531
-49.6757
-47.1996
-42.4378
-32.2428
-21.9793
-18.057
-17.8835
-19.7567
-21.2949
-23.3188
-22.9328
-22.1948
-19.1123
-18.3261
-18.532
-19.7522
-19.5599
-19.4848
-18.8088
-18.7802
-18.8417
-19.286
-18.9895
-19.1525
-19.1214
-18.4324
-18.4781
-17.6463
-18.1463
-16.4252
-16.941
-15.3747
-16.4029
-13.088
-15.0063
-11.2244
-12.531
-7.81563
-7.43541
-3.10438
-2.4049
2.75269
3.09241
12.3048
15.3197
23.9845
16.399
20.718
17.0199
18.5602
17.1413
17.1849
16.9526
16.3127
16.6359
15.8296
16.2658
15.4749
15.9548
15.284
15.7751
15.678
15.7312
16.2024
15.8194
16.6531
16.0012
17.0147
16.2006
17.4302
16.4105
17.7883
16.552
18.0226
16.5681
18.0803
16.7177
18.0318
17.0034
17.7485
17.4955
17.3062
17.8774
17.0876
18.0429
16.9629
18.111
16.8567
18.1263
16.7498
18.0424
16.653
17.892
16.6267
17.631
16.6995
17.1794
16.9506
16.5565
17.1092
16.155
17.0476