/*--------------------------------*- C++ -*----------------------------------*\
| =========                 |                                                 |
| \\      /  F ield         | OpenFOAM: The Open Source CFD Toolbox           |
|  \\    /   O peration     | Version:  4.1                                   |
|   \\  /    A nd           | Web:      www.OpenFOAM.org                      |
|    \\/     M anipulation  |                                                 |
\*---------------------------------------------------------------------------*/
FoamFile
{
    version     2.0;
    format      ascii;
    class       volScalarField;
    location    "13.5";
    object      epsilon;
}
// * * * * * * * * * * * * * * * * * * * * * * * * * * * * * * * * * * * * * //

dimensions      [0 2 -3 0 0 0 0];

internalField   nonuniform List<scalar> 
204246
(
2.83174
3.0286
3.03939
3.05482
3.0676
3.0813
3.09315
3.10698
3.11689
3.1323
3.14133
3.15744
3.16495
3.1842
3.19428
3.21012
3.22219
3.22664
3.256
3.2601
3.2812
3.29156
3.30552
3.319
3.33247
3.34529
3.35872
3.37006
3.38619
3.39834
3.41391
3.42644
3.44211
3.45493
3.46901
3.48282
3.48638
3.51628
3.52012
3.5397
3.55147
3.56586
3.57951
3.59363
3.60667
3.62399
3.63851
3.65557
3.67123
3.6869
3.70431
3.72
3.73726
3.74246
3.77787
3.78374
3.8081
3.82338
3.84181
3.86015
3.87748
3.89562
3.91652
3.93616
3.95686
3.97766
3.9969
4.01951
4.03875
4.06117
4.06908
4.10858
4.11876
4.14941
4.16498
4.19181
4.21119
4.23564
4.25554
4.28275
4.30664
4.33157
4.35751
4.38093
4.40934
4.4328
4.46128
4.47243
4.52027
4.53335
4.5722
4.59095
4.62635
4.64641
4.68456
4.71153
4.74318
4.77529
4.80642
4.83969
4.8693
4.90678
4.93651
4.97432
5.00504
5.04236
5.06367
5.12394
5.14134
5.19537
5.21518
5.27218
5.29919
5.34834
5.38703
5.42966
5.47069
5.51399
5.55805
5.60146
5.64969
5.69272
5.7437
5.77113
5.85161
5.87314
5.94796
5.97523
6.04804
6.08127
6.15201
6.18901
6.25949
6.29974
6.3708
6.414
6.4851
6.53124
6.60347
6.65237
6.70613
6.79237
6.83284
6.9174
6.96031
7.04567
7.08945
7.17678
7.2211
7.31044
7.35492
7.44628
7.49044
7.58409
7.62799
7.72427
7.7679
7.84253
7.93
7.98301
8.07137
8.12261
8.21376
8.2627
8.35685
8.40299
8.50134
8.54377
8.64678
8.68624
8.7958
8.83143
8.94951
8.9824
9.11351
9.14068
9.26028
9.35133
9.43371
9.55161
9.62944
9.77617
9.85846
10.038
10.1363
10.354
10.4825
10.7443
10.9175
11.1992
11.3797
11.534
11.5539
0.441297
0.686049
0.695365
0.69467
0.704534
0.699581
0.708073
0.704546
0.713781
0.710216
0.720065
0.716784
0.726655
0.721794
0.732507
0.72691
0.738797
0.734158
0.733468
0.744747
0.739433
0.750428
0.74464
0.755411
0.752056
0.763167
0.759933
0.770759
0.765681
0.777249
0.771438
0.783033
0.777232
0.788819
0.782994
0.795736
0.793849
0.792835
0.805109
0.799864
0.811623
0.808544
0.820738
0.817785
0.829951
0.82521
0.838425
0.833054
0.846589
0.841325
0.854665
0.851892
0.867385
0.866298
0.868091
0.882735
0.878209
0.893258
0.890986
0.906657
0.904485
0.920189
0.916037
0.932871
0.927987
0.945193
0.940392
0.957493
0.955396
0.974782
0.974385
0.979096
0.995868
0.994562
1.0137
1.01211
1.03182
1.03017
1.05084
1.04789
1.06933
1.06511
1.08718
1.08315
1.10534
1.10431
1.12976
1.13117
1.14051
1.16145
1.16179
1.18694
1.18672
1.21351
1.21201
1.23998
1.23727
1.26553
1.26238
1.2926
1.29058
1.32133
1.32291
1.35429
1.35606
1.39054
1.39229
1.41788
1.44359
1.44762
1.48347
1.48495
1.52339
1.52329
1.56368
1.56383
1.60703
1.61042
1.65468
1.65914
1.70386
1.70775
1.75874
1.76666
1.80005
1.83938
1.84638
1.89996
1.90824
1.96259
1.97046
2.02914
2.03884
2.0999
2.11068
2.17487
2.18665
2.25404
2.26722
2.34108
2.35821
2.40863
2.46903
2.48489
2.56318
2.58079
2.66208
2.68054
2.76532
2.78496
2.87355
2.89465
2.98485
3.006
3.10014
3.12273
3.22553
3.2528
3.32
3.40397
3.4281
3.52852
3.5522
3.65325
3.67687
3.77668
3.79949
3.8974
3.91861
4.01351
4.03348
4.1251
4.14343
4.23417
4.257
4.34256
4.36348
4.39948
4.46596
4.46979
4.5346
4.53136
4.5808
4.5708
4.60571
4.59008
4.62594
4.61418
4.75214
4.87728
5.35234
5.63344
5.77679
0.588363
0.6025
0.608449
0.61152
0.616034
0.618189
0.622067
0.624099
0.627928
0.630098
0.633883
0.63629
0.639979
0.642579
0.646457
0.649418
0.653433
0.656628
0.659763
0.663897
0.6667
0.671114
0.674182
0.678604
0.682121
0.686495
0.690335
0.694662
0.698713
0.703045
0.707384
0.711747
0.716376
0.720918
0.725949
0.730593
0.735819
0.739739
0.745394
0.749373
0.754914
0.759393
0.764769
0.769655
0.774892
0.780072
0.785106
0.790727
0.795642
0.801619
0.806833
0.813252
0.81873
0.825321
0.830183
0.837003
0.842222
0.848968
0.854805
0.861537
0.867864
0.874599
0.881316
0.887948
0.895233
0.901849
0.90967
0.916653
0.925092
0.932453
0.941136
0.947874
0.956947
0.963984
0.972962
0.980743
0.989706
0.998258
1.00722
1.01618
1.02502
1.03455
1.04346
1.0536
1.06295
1.07385
1.08364
1.09484
1.10387
1.11544
1.12476
1.13641
1.14668
1.15836
1.16914
1.18068
1.19201
1.20371
1.21572
1.22795
1.24049
1.25277
1.26578
1.27879
1.29249
1.30618
1.31985
1.33282
1.34729
1.35994
1.37522
1.38781
1.40381
1.41641
1.43314
1.44568
1.46335
1.47603
1.49437
1.50692
1.52605
1.53874
1.5595
1.57153
1.58977
1.60534
1.62021
1.639
1.65182
1.67225
1.68345
1.70583
1.7154
1.73849
1.74751
1.77055
1.77909
1.80208
1.81029
1.83346
1.84116
1.85791
1.87201
1.87988
1.89748
1.90165
1.9184
1.92092
1.93531
1.93598
1.94798
1.9469
1.95407
1.9501
1.95432
1.94717
1.95063
1.93657
1.92959
1.92518
1.90295
1.90094
1.87027
1.8658
1.82939
1.82284
1.78176
1.77404
1.72963
1.72108
1.67373
1.66478
1.6149
1.60555
1.55678
1.54804
1.49579
1.47256
1.45391
1.41319
1.40767
1.36321
1.35899
1.31762
1.31543
1.28098
1.28264
1.26465
1.27468
1.2637
1.27171
1.1597
1.11795
0.734535
0.721388
0.735067
0.741655
0.746502
0.752988
0.755226
0.760836
0.762629
0.76786
0.769496
0.774612
0.776209
0.781596
0.78295
0.788588
0.789989
0.79619
0.799108
0.801902
0.807026
0.808514
0.814509
0.816341
0.822255
0.824303
0.83041
0.832587
0.839082
0.841086
0.847943
0.850074
0.857253
0.859569
0.867083
0.869724
0.877434
0.881375
0.886117
0.892528
0.895589
0.902805
0.905663
0.913056
0.91595
0.923567
0.926251
0.934002
0.936709
0.94464
0.947621
0.955381
0.958501
0.966522
0.970813
0.975966
0.982474
0.986208
0.993662
0.996879
1.00472
1.00804
1.01617
1.01938
1.02774
1.03105
1.03968
1.04331
1.05193
1.05574
1.06445
1.06938
1.07587
1.08214
1.08762
1.09488
1.09982
1.10781
1.11238
1.12098
1.12503
1.13389
1.13798
1.14702
1.15133
1.16038
1.16486
1.17363
1.17895
1.18595
1.19215
1.19851
1.20526
1.21118
1.21831
1.22375
1.23108
1.23623
1.24369
1.24882
1.25611
1.26118
1.2682
1.27359
1.28027
1.28593
1.29185
1.29722
1.30287
1.30762
1.31343
1.3172
1.32343
1.32595
1.33231
1.33399
1.33988
1.34145
1.34647
1.34745
1.35183
1.35206
1.35596
1.35549
1.35555
1.35662
1.35448
1.35557
1.35141
1.35199
1.34566
1.34567
1.33685
1.33602
1.32476
1.323
1.30901
1.30608
1.28972
1.28588
1.26503
1.25518
1.24074
1.22165
1.21143
1.18512
1.17633
1.14549
1.13539
1.10171
1.09043
1.05396
1.04146
1.00247
0.988907
0.948386
0.934409
0.890355
0.869444
0.838239
0.806653
0.78494
0.745578
0.73087
0.689387
0.675209
0.635655
0.622457
0.58659
0.574646
0.542444
0.532039
0.503618
0.494783
0.469952
0.462578
0.440931
0.43139
0.418188
0.406529
0.39885
0.385071
0.381291
0.367576
0.364507
0.355757
0.355609
0.355483
0.369239
0.381377
0.404127
0.411722
0.417393
0.896462
0.865949
0.876288
0.88195
0.887432
0.893438
0.895906
0.900882
0.902532
0.906693
0.907961
0.911746
0.912876
0.916684
0.917575
0.92147
0.922373
0.926407
0.928252
0.930169
0.933394
0.934266
0.938014
0.939102
0.942782
0.944033
0.94784
0.94921
0.953284
0.954611
0.958975
0.960455
0.965116
0.966807
0.97174
0.973681
0.978661
0.981253
0.984887
0.988671
0.991485
0.995888
0.998327
1.00303
1.0053
1.01015
1.01226
1.01706
1.01911
1.02381
1.0259
1.03041
1.0325
1.03686
1.03917
1.04243
1.04533
1.04785
1.05104
1.05312
1.05648
1.05829
1.06166
1.06335
1.06659
1.06825
1.07143
1.07314
1.07623
1.07793
1.08082
1.08261
1.08484
1.08673
1.0887
1.0906
1.09239
1.09418
1.09588
1.09742
1.09912
1.10019
1.10192
1.10247
1.10425
1.10455
1.1061
1.10611
1.10622
1.10691
1.10635
1.10683
1.10575
1.10609
1.10397
1.10439
1.10141
1.10165
1.09779
1.09786
1.0928
1.09224
1.08676
1.08574
1.07945
1.07811
1.06951
1.06581
1.06078
1.05303
1.04976
1.03903
1.03643
1.0237
1.02053
1.00625
1.00201
0.987093
0.982022
0.965758
0.960063
0.942381
0.936286
0.916036
0.906304
0.891487
0.875553
0.864146
0.843132
0.834467
0.810318
0.801656
0.776175
0.767066
0.740708
0.731295
0.704187
0.694446
0.667043
0.65717
0.628576
0.615004
0.594061
0.574846
0.559263
0.535642
0.524953
0.499368
0.490103
0.465068
0.456265
0.432589
0.424345
0.402251
0.39469
0.374537
0.367803
0.348969
0.340434
0.328417
0.317795
0.310521
0.298774
0.294787
0.284075
0.280959
0.272347
0.270041
0.263277
0.261647
0.256641
0.255699
0.252333
0.252063
0.250179
0.250518
0.249857
0.250147
0.25203
0.252325
0.255337
0.256061
0.259071
0.259759
0.262116
0.262543
0.265834
0.267165
0.274347
0.279159
0.288117
0.29173
0.294317
1.00279
0.981527
0.987911
0.991648
0.995571
0.999779
1.00137
1.0043
1.00509
1.00678
1.00697
1.00801
1.00793
1.00871
1.00842
1.00888
1.00848
1.00879
1.00876
1.00813
1.00824
1.0074
1.00744
1.00657
1.00647
1.00562
1.00547
1.00468
1.00458
1.00389
1.00385
1.00342
1.00347
1.00326
1.00344
1.0034
1.00374
1.0039
1.00407
1.00446
1.00475
1.00526
1.0056
1.00615
1.00654
1.00696
1.00735
1.00753
1.00785
1.00788
1.00799
1.00792
1.00786
1.00742
1.00668
1.00657
1.00509
1.00482
1.00298
1.00252
1.00025
0.999649
0.99681
0.996261
0.992846
0.992154
0.988237
0.987259
0.983203
0.982039
0.97701
0.974285
0.971323
0.966596
0.964567
0.958567
0.956608
0.949927
0.947763
0.940275
0.938311
0.929981
0.92778
0.918752
0.916021
0.906899
0.903811
0.893407
0.888011
0.880919
0.872498
0.866903
0.856184
0.851577
0.839001
0.835007
0.821149
0.816807
0.802177
0.797518
0.782006
0.776609
0.760895
0.754992
0.738672
0.732474
0.714354
0.705938
0.69202
0.679525
0.668252
0.651936
0.643984
0.624768
0.617999
0.59764
0.59026
0.570379
0.562697
0.542848
0.535168
0.515474
0.507882
0.487392
0.477816
0.462753
0.449485
0.438502
0.422151
0.414749
0.397148
0.390731
0.373583
0.367499
0.351295
0.345622
0.330398
0.325086
0.311
0.306123
0.292613
0.286411
0.27749
0.269507
0.263613
0.254362
0.250879
0.241658
0.23859
0.230333
0.227638
0.220357
0.21802
0.211685
0.2097
0.204246
0.20258
0.19776
0.195649
0.193008
0.190471
0.18913
0.186603
0.185909
0.183952
0.183557
0.182287
0.182197
0.181698
0.181938
0.181905
0.183013
0.183288
0.185154
0.185824
0.18842
0.189501
0.192647
0.194652
0.198163
0.201091
0.204985
0.208847
0.2132
0.218035
0.222865
0.228605
0.233779
0.240198
0.245346
0.250559
0.252869
0.254176
1.07288
1.0587
1.06041
1.06156
1.06267
1.0637
1.06375
1.06389
1.06253
1.06175
1.05919
1.05781
1.05448
1.05267
1.04878
1.04668
1.04239
1.03989
1.03568
1.03222
1.02831
1.02411
1.02033
1.01578
1.01193
1.00726
1.00332
0.998633
0.994518
0.989944
0.985608
0.981314
0.976776
0.972883
0.96815
0.964541
0.959652
0.955532
0.951817
0.946876
0.943798
0.938641
0.935881
0.930405
0.927919
0.922053
0.919986
0.913841
0.911789
0.905372
0.903102
0.896683
0.894248
0.887176
0.883036
0.87834
0.87182
0.867944
0.860276
0.856606
0.847918
0.844343
0.834691
0.831282
0.820834
0.817184
0.806104
0.801985
0.790796
0.786357
0.774298
0.767852
0.758627
0.749632
0.741802
0.730874
0.724036
0.711527
0.705443
0.69146
0.68632
0.671368
0.666062
0.650608
0.644819
0.629524
0.623458
0.607299
0.599072
0.586737
0.575509
0.565395
0.551884
0.543519
0.527723
0.521708
0.504714
0.498674
0.481673
0.47565
0.458661
0.452333
0.436084
0.4297
0.413874
0.407653
0.391418
0.383968
0.371725
0.362062
0.352569
0.340683
0.334492
0.321199
0.31647
0.30322
0.298486
0.286448
0.281911
0.270747
0.266554
0.256234
0.25239
0.242358
0.237916
0.230981
0.225343
0.22061
0.213915
0.211219
0.20438
0.202086
0.195875
0.193849
0.188325
0.186567
0.181675
0.180141
0.175865
0.17455
0.17066
0.168928
0.166731
0.164465
0.163325
0.160946
0.16024
0.158116
0.157567
0.155829
0.155425
0.154054
0.153789
0.152771
0.152641
0.151967
0.15198
0.151655
0.151592
0.151899
0.151868
0.152571
0.152719
0.153775
0.15412
0.155518
0.156064
0.157896
0.158685
0.160972
0.162017
0.164794
0.166126
0.169385
0.171015
0.174727
0.176672
0.180648
0.183245
0.187327
0.1906
0.194799
0.198631
0.203024
0.207433
0.212146
0.217118
0.222133
0.227407
0.232023
0.236017
0.237953
0.23892
1.10406
1.09545
1.09427
1.09126
1.08983
1.08743
1.08502
1.08195
1.07825
1.07433
1.0694
1.06475
1.05887
1.05362
1.04709
1.0413
1.03422
1.02766
1.02018
1.01312
1.00513
0.997637
0.989081
0.981251
0.972257
0.964161
0.95469
0.94648
0.936486
0.92851
0.918082
0.910285
0.899562
0.891964
0.880993
0.873447
0.8625
0.85405
0.844891
0.835169
0.826934
0.816809
0.809103
0.798613
0.791393
0.780411
0.774073
0.76248
0.756806
0.744578
0.739227
0.726971
0.721649
0.709059
0.701969
0.692461
0.682591
0.674594
0.663263
0.655984
0.643458
0.636706
0.622844
0.617162
0.602286
0.596526
0.581213
0.575067
0.559911
0.553551
0.537742
0.52967
0.517133
0.506589
0.496086
0.483706
0.474818
0.461027
0.453526
0.438504
0.432581
0.417103
0.411299
0.396045
0.390116
0.375683
0.369824
0.355462
0.348305
0.33746
0.328627
0.320043
0.309936
0.303318
0.292021
0.287632
0.276059
0.271951
0.261039
0.257208
0.246957
0.243208
0.233995
0.230456
0.222007
0.218769
0.210601
0.206946
0.201122
0.196751
0.192475
0.187286
0.184773
0.179223
0.177357
0.172111
0.170333
0.165793
0.164163
0.160139
0.1587
0.155126
0.153862
0.150497
0.149045
0.14687
0.145127
0.143671
0.141625
0.140906
0.138857
0.138239
0.136451
0.135934
0.134399
0.133979
0.132673
0.132335
0.131243
0.130984
0.13003
0.129626
0.129302
0.128783
0.128703
0.128272
0.128261
0.127981
0.128035
0.127928
0.128088
0.12805
0.128402
0.128449
0.129009
0.129167
0.129935
0.13021
0.131081
0.131715
0.132579
0.133566
0.134534
0.135931
0.137107
0.138879
0.14026
0.142425
0.144095
0.146696
0.148743
0.151842
0.154322
0.157924
0.160876
0.164971
0.16841
0.172891
0.176762
0.181427
0.185555
0.190382
0.194805
0.199749
0.204457
0.209492
0.214417
0.219414
0.224219
0.228527
0.23191
0.233747
0.234563
1.10838
1.09631
1.09333
1.08613
1.08285
1.07673
1.07256
1.06615
1.06074
1.05361
1.04689
1.03897
1.0311
1.0222
1.01362
1.0038
0.994549
0.98379
0.973479
0.962892
0.951277
0.940563
0.928178
0.91704
0.90415
0.892647
0.879318
0.867604
0.853824
0.842167
0.827942
0.816307
0.801707
0.790142
0.77526
0.76368
0.748766
0.736325
0.72302
0.709327
0.696766
0.682594
0.670478
0.655876
0.644165
0.629022
0.618046
0.602397
0.59221
0.576084
0.566514
0.550552
0.541531
0.525577
0.515563
0.502951
0.490794
0.480198
0.467084
0.457745
0.443934
0.435615
0.421043
0.414264
0.399132
0.392895
0.37784
0.371565
0.357225
0.35107
0.336875
0.329769
0.318542
0.310084
0.300865
0.291423
0.284008
0.273879
0.268032
0.257415
0.253129
0.242681
0.238726
0.228973
0.225181
0.216433
0.2129
0.204667
0.200644
0.194613
0.190059
0.185445
0.18047
0.177112
0.171732
0.16965
0.164329
0.162471
0.157657
0.155999
0.151654
0.150098
0.146326
0.144907
0.141557
0.140298
0.137151
0.135761
0.133574
0.131971
0.130395
0.128534
0.127636
0.125674
0.125034
0.123212
0.122618
0.121076
0.120546
0.119211
0.11876
0.117608
0.11723
0.116171
0.115725
0.115124
0.114578
0.114245
0.113662
0.113534
0.113021
0.112938
0.11256
0.112529
0.112267
0.112284
0.11216
0.112234
0.112183
0.112369
0.112368
0.112612
0.112859
0.113036
0.1135
0.113675
0.114295
0.114531
0.115287
0.115598
0.116494
0.116885
0.117927
0.118412
0.1196
0.120212
0.121552
0.122327
0.123753
0.124795
0.126263
0.127582
0.129176
0.130755
0.132493
0.134377
0.136316
0.13858
0.140802
0.143452
0.146005
0.149074
0.152062
0.15564
0.159127
0.163242
0.167269
0.171896
0.176359
0.181421
0.186282
0.191634
0.196737
0.202248
0.207397
0.212858
0.217756
0.222863
0.227075
0.23126
0.23389
0.235739
0.236422
1.08318
1.07062
1.06543
1.05338
1.04793
1.03782
1.03181
1.02228
1.01525
1.00559
0.997431
0.987377
0.978121
0.967444
0.957397
0.94597
0.935112
0.92278
0.910753
0.898562
0.885259
0.872715
0.858596
0.845491
0.830895
0.817352
0.802352
0.788535
0.773205
0.759394
0.743823
0.730057
0.714379
0.700778
0.685128
0.671641
0.656109
0.642171
0.627689
0.613076
0.598844
0.583837
0.569546
0.553987
0.539504
0.523305
0.508722
0.492046
0.477528
0.460535
0.44632
0.429479
0.415919
0.399465
0.386236
0.371653
0.358393
0.345549
0.332629
0.321362
0.308896
0.299095
0.287018
0.278805
0.267099
0.26024
0.248887
0.243114
0.232452
0.2275
0.217481
0.212464
0.204552
0.19923
0.192776
0.187321
0.182151
0.176667
0.17261
0.16706
0.164173
0.158741
0.156484
0.151492
0.149445
0.145105
0.143276
0.139346
0.137425
0.134525
0.1325
0.130228
0.128149
0.12642
0.124241
0.123095
0.120897
0.120052
0.118018
0.117278
0.115457
0.114775
0.113205
0.112593
0.111208
0.110671
0.10938
0.108801
0.107898
0.107262
0.10658
0.105878
0.105458
0.104703
0.104448
0.103737
0.103508
0.102924
0.102732
0.102246
0.102097
0.101704
0.101595
0.101255
0.101123
0.101015
0.10088
0.10087
0.100784
0.100832
0.100795
0.100908
0.100903
0.101114
0.101157
0.101465
0.101557
0.101954
0.102098
0.102585
0.10278
0.103301
0.103679
0.104184
0.104726
0.105244
0.105929
0.106492
0.10731
0.107945
0.108892
0.109623
0.110702
0.111553
0.112774
0.113766
0.115138
0.116298
0.11783
0.119267
0.120973
0.122721
0.124641
0.126687
0.12891
0.131298
0.133877
0.136615
0.139557
0.142666
0.146021
0.149572
0.153399
0.157447
0.161815
0.166396
0.171352
0.176489
0.181856
0.187517
0.193237
0.199315
0.205248
0.21156
0.21746
0.223671
0.229125
0.234738
0.239195
0.243542
0.246232
0.24812
0.248793
1.05386
1.03339
1.02471
1.00737
0.999115
0.985165
0.976755
0.964721
0.955866
0.944644
0.935205
0.924163
0.914034
0.902825
0.892138
0.880677
0.869382
0.85738
0.845182
0.833519
0.82041
0.80816
0.794738
0.781877
0.768264
0.754983
0.741235
0.72777
0.714057
0.700759
0.687357
0.67442
0.661583
0.649216
0.637057
0.625281
0.613755
0.602417
0.591458
0.580498
0.56947
0.558594
0.547125
0.535673
0.523301
0.510856
0.497162
0.483671
0.468637
0.45409
0.43794
0.422554
0.405909
0.390194
0.373614
0.357763
0.342076
0.326441
0.311954
0.297208
0.284209
0.270717
0.259251
0.247147
0.237373
0.226598
0.218266
0.208753
0.201658
0.19336
0.18723
0.179913
0.174853
0.168395
0.16396
0.158403
0.154423
0.149676
0.146085
0.142024
0.138791
0.135331
0.132408
0.129458
0.126822
0.124344
0.121968
0.119851
0.117643
0.115991
0.11395
0.112562
0.11075
0.109569
0.107955
0.106949
0.105522
0.10466
0.103404
0.10267
0.101563
0.100951
0.0999829
0.0994723
0.0986184
0.0981964
0.0974261
0.0970481
0.0964696
0.0960907
0.0956337
0.0952769
0.09494
0.0946056
0.0943803
0.0940656
0.0939343
0.0936776
0.0935884
0.093411
0.0933624
0.0932631
0.0932539
0.0932186
0.0932223
0.0933232
0.0933531
0.093528
0.0935994
0.0938535
0.0939719
0.0943035
0.0944758
0.0948848
0.0951196
0.0956037
0.0958996
0.096464
0.096828
0.097476
0.0979214
0.0986286
0.0992114
0.0999526
0.100664
0.101474
0.102304
0.1032
0.104151
0.105148
0.106226
0.10734
0.108551
0.109802
0.111157
0.112568
0.114084
0.115695
0.117388
0.119177
0.12106
0.123046
0.125156
0.127377
0.129805
0.132341
0.135158
0.138131
0.141389
0.144872
0.148637
0.152662
0.156998
0.161597
0.166555
0.171739
0.17737
0.183176
0.189249
0.195657
0.202118
0.208995
0.215684
0.222796
0.229405
0.23633
0.242327
0.248432
0.25312
0.257693
0.260336
0.262291
0.262936
1.06301
1.02328
1.0081
0.981953
0.968216
0.948129
0.935018
0.91898
0.906655
0.893151
0.881434
0.869323
0.857807
0.846383
0.835016
0.824135
0.812882
0.802279
0.790967
0.781093
0.769732
0.759591
0.748628
0.738026
0.7274
0.716585
0.706314
0.695612
0.68591
0.675615
0.66676
0.657153
0.649413
0.640814
0.634354
0.626993
0.621444
0.615208
0.610069
0.605365
0.60036
0.596689
0.591322
0.587694
0.581186
0.576902
0.568154
0.56287
0.551671
0.544883
0.531218
0.522188
0.506415
0.495658
0.47995
0.464573
0.450323
0.431811
0.41817
0.398373
0.385717
0.365738
0.354671
0.334756
0.325785
0.307152
0.299118
0.282486
0.27514
0.260511
0.254042
0.242037
0.234933
0.22547
0.218006
0.210705
0.202885
0.197364
0.189289
0.185366
0.177195
0.173935
0.166291
0.163313
0.156385
0.153517
0.147265
0.144635
0.139321
0.136306
0.131994
0.128863
0.125467
0.122238
0.119724
0.116368
0.114652
0.111431
0.110141
0.107292
0.106184
0.103807
0.102828
0.100867
0.100046
0.0984158
0.0977389
0.0964483
0.0957939
0.0948014
0.0942647
0.0934913
0.0930433
0.0924656
0.0920826
0.0916819
0.0913602
0.0911066
0.090857
0.0907201
0.0905554
0.090488
0.090425
0.0904114
0.0904073
0.0904984
0.090555
0.0907182
0.0908633
0.0910809
0.091317
0.0915855
0.0919052
0.0922296
0.0926252
0.0930266
0.0934986
0.093977
0.094532
0.09508
0.0957291
0.0963549
0.0971073
0.0978191
0.0986703
0.0994896
0.100434
0.101378
0.102421
0.103507
0.10466
0.105902
0.107183
0.1086
0.110027
0.111641
0.113236
0.115081
0.116889
0.118974
0.121049
0.123428
0.125842
0.128532
0.131334
0.134327
0.137573
0.140916
0.144675
0.148491
0.15285
0.157247
0.162307
0.16736
0.173185
0.178925
0.185575
0.192072
0.199253
0.206501
0.214142
0.221987
0.229889
0.238052
0.245835
0.253803
0.260804
0.267769
0.273097
0.278179
0.281073
0.283188
0.283855
1.15389
1.08283
1.05879
1.02158
0.998468
0.969976
0.948566
0.926178
0.907027
0.888799
0.871803
0.85682
0.841834
0.828961
0.815262
0.804046
0.791442
0.781678
0.770344
0.761839
0.752075
0.743976
0.735676
0.727543
0.720219
0.712175
0.705613
0.69789
0.692114
0.685006
0.68052
0.674297
0.671221
0.666656
0.665011
0.663141
0.662984
0.663046
0.663068
0.664732
0.665534
0.668532
0.669528
0.672199
0.672739
0.673898
0.673029
0.673191
0.670131
0.668792
0.66276
0.658845
0.650072
0.643965
0.633949
0.623003
0.613065
0.59838
0.587597
0.570815
0.559427
0.541541
0.530403
0.511503
0.501327
0.482093
0.473149
0.454734
0.446505
0.429419
0.421893
0.407785
0.398251
0.387589
0.37683
0.368857
0.357135
0.351184
0.339093
0.334298
0.321811
0.317278
0.304828
0.300346
0.288095
0.28324
0.271157
0.26627
0.255877
0.24811
0.239931
0.230291
0.22391
0.212935
0.208372
0.196845
0.192577
0.181612
0.177592
0.167446
0.163746
0.154671
0.151107
0.143172
0.140034
0.133137
0.130529
0.124942
0.121892
0.117787
0.1149
0.112032
0.109017
0.107371
0.104464
0.10345
0.101053
0.100203
0.0983928
0.0977552
0.0963966
0.0959361
0.0949517
0.0946591
0.0940577
0.0937315
0.0934709
0.0932767
0.0932583
0.0931775
0.0932626
0.09328
0.0935783
0.0936729
0.0941232
0.0943119
0.0948979
0.0951724
0.0958897
0.0962471
0.0971038
0.0976026
0.0984988
0.0991761
0.100119
0.100986
0.101981
0.103045
0.104109
0.105373
0.106525
0.108001
0.109262
0.110964
0.112355
0.114297
0.115842
0.118058
0.119861
0.122218
0.12438
0.126948
0.129515
0.132352
0.135387
0.138592
0.142145
0.145801
0.149938
0.154133
0.158948
0.163795
0.169412
0.175021
0.181545
0.187984
0.195511
0.202889
0.211096
0.219414
0.228222
0.237293
0.246469
0.255961
0.265076
0.274376
0.282635
0.290735
0.296984
0.302749
0.306015
0.308331
0.309032
1.36126
1.25786
1.22337
1.17057
1.13376
1.0929
1.05803
1.02621
0.995447
0.970536
0.944292
0.924642
0.902334
0.886596
0.86697
0.854164
0.83664
0.826287
0.812091
0.802142
0.792102
0.78299
0.776279
0.767994
0.763216
0.755683
0.752242
0.745981
0.74351
0.738557
0.737075
0.73398
0.733604
0.732437
0.733157
0.733115
0.735705
0.73832
0.741171
0.746203
0.749486
0.755993
0.759699
0.766781
0.770315
0.776915
0.779247
0.784187
0.785223
0.786862
0.786003
0.785663
0.782232
0.779904
0.774897
0.768081
0.762469
0.752389
0.745158
0.732955
0.724364
0.710791
0.701798
0.687015
0.678431
0.663127
0.655393
0.640537
0.633422
0.619572
0.613365
0.60242
0.59442
0.586733
0.578164
0.57288
0.5641
0.560538
0.55207
0.549214
0.540564
0.537978
0.529067
0.526405
0.517145
0.513808
0.503907
0.50015
0.491351
0.483431
0.47615
0.465235
0.4587
0.445299
0.439594
0.423696
0.417779
0.400449
0.393988
0.375652
0.368763
0.350001
0.342293
0.323484
0.315679
0.297128
0.289754
0.272848
0.262454
0.249212
0.236762
0.227191
0.212648
0.206748
0.192363
0.187134
0.174583
0.169717
0.159057
0.154925
0.145926
0.142498
0.135066
0.132406
0.126759
0.123659
0.11984
0.117109
0.114684
0.111954
0.110881
0.108485
0.107863
0.106164
0.105722
0.104674
0.104465
0.103919
0.10394
0.103746
0.103995
0.104106
0.10453
0.104982
0.105508
0.106293
0.106891
0.107987
0.108682
0.11005
0.110881
0.112503
0.113492
0.115371
0.116543
0.118695
0.120073
0.122526
0.124235
0.12682
0.128976
0.131754
0.134403
0.137426
0.140647
0.14401
0.147857
0.151679
0.15622
0.160636
0.165968
0.171114
0.177386
0.183405
0.190774
0.197787
0.20641
0.214598
0.224137
0.233536
0.243919
0.254312
0.265272
0.276284
0.287328
0.298298
0.308466
0.318202
0.325932
0.332954
0.33678
0.339559
0.340346
1.63155
1.53209
1.49735
1.43803
1.39317
1.34259
1.29535
1.25217
1.20877
1.17352
1.1355
1.107
1.0745
1.05214
1.02379
1.00645
0.981199
0.967446
0.947476
0.932533
0.919234
0.90513
0.897171
0.885412
0.880378
0.8711
0.867507
0.860475
0.858189
0.852732
0.851532
0.847917
0.84776
0.845996
0.846829
0.846371
0.848682
0.850833
0.853003
0.857974
0.860549
0.86685
0.86993
0.876902
0.880028
0.886805
0.889157
0.89492
0.896492
0.899647
0.899609
0.899941
0.898077
0.896939
0.893805
0.888883
0.885137
0.877756
0.872296
0.863074
0.856147
0.845541
0.837868
0.826108
0.818441
0.806193
0.799
0.787167
0.780506
0.769724
0.764058
0.755866
0.749412
0.744108
0.738032
0.735028
0.730263
0.728762
0.725278
0.724764
0.722086
0.722249
0.72008
0.720493
0.718797
0.719062
0.717254
0.717474
0.716592
0.714522
0.714331
0.71094
0.710388
0.705853
0.705062
0.698656
0.697347
0.689202
0.687113
0.677099
0.674144
0.662352
0.6579
0.64412
0.63857
0.62259
0.61629
0.600393
0.58771
0.574222
0.556722
0.545031
0.522657
0.512884
0.487626
0.4778
0.451692
0.440811
0.414659
0.403708
0.377846
0.367136
0.342251
0.332366
0.310051
0.296836
0.279682
0.264292
0.252198
0.234627
0.227481
0.210445
0.204458
0.190057
0.184681
0.172934
0.168587
0.1591
0.155878
0.148179
0.145869
0.14065
0.13775
0.134812
0.13243
0.131023
0.129118
0.128745
0.127571
0.127602
0.127242
0.127709
0.127697
0.128958
0.12929
0.131112
0.131781
0.134163
0.135355
0.137812
0.13976
0.142338
0.145027
0.1478
0.151256
0.154333
0.158581
0.1621
0.167198
0.171325
0.177356
0.182268
0.189392
0.19528
0.203694
0.210747
0.220687
0.229232
0.240317
0.250514
0.262717
0.274377
0.287399
0.300151
0.313405
0.326605
0.338991
0.351281
0.360763
0.370066
0.374601
0.378193
0.379168
1.80501
1.75026
1.73059
1.68575
1.65034
1.60706
1.56437
1.52225
1.47875
1.44039
1.39946
1.36537
1.32819
1.29952
1.26623
1.24354
1.21371
1.19523
1.1707
1.15063
1.13269
1.11291
1.10044
1.08321
1.07447
1.06038
1.0544
1.04336
1.03929
1.03038
1.02773
1.02074
1.01912
1.01381
1.01307
1.00969
1.00962
1.00931
1.00858
1.00998
1.00964
1.01169
1.01168
1.01402
1.01399
1.01604
1.01558
1.01678
1.01555
1.01579
1.01312
1.01188
1.00737
1.00456
0.99951
0.99348
0.988551
0.980663
0.97462
0.965525
0.958387
0.948269
0.940436
0.929405
0.921393
0.910036
0.902194
0.891237
0.883769
0.873836
0.867293
0.859591
0.853077
0.84791
0.842415
0.839407
0.835919
0.834839
0.833752
0.834139
0.833965
0.835837
0.836386
0.840046
0.84154
0.845992
0.847977
0.852937
0.856237
0.859873
0.864387
0.867347
0.872448
0.874809
0.880066
0.881706
0.886676
0.887913
0.892228
0.892946
0.896526
0.896876
0.899321
0.899211
0.900559
0.899726
0.900582
0.90012
0.897561
0.897361
0.892813
0.8922
0.885356
0.884186
0.875022
0.872907
0.861529
0.857624
0.843563
0.838212
0.821021
0.81377
0.793263
0.785001
0.764369
0.747094
0.729493
0.705366
0.689985
0.658925
0.645883
0.610932
0.597481
0.561387
0.54648
0.510624
0.49581
0.460854
0.447083
0.412312
0.399355
0.369233
0.352098
0.329589
0.309906
0.294405
0.273291
0.264163
0.244606
0.237672
0.221704
0.216387
0.204004
0.200158
0.191013
0.188467
0.182177
0.180768
0.177732
0.175763
0.175615
0.174996
0.175665
0.176021
0.178566
0.179367
0.183382
0.184954
0.190221
0.192698
0.199183
0.20276
0.210562
0.215217
0.224495
0.230413
0.241462
0.24932
0.26144
0.27178
0.28512
0.297895
0.312269
0.327204
0.342113
0.358514
0.37294
0.3893
0.400845
0.413669
0.419682
0.424414
0.425705
1.72496
1.73577
1.73581
1.71808
1.70618
1.68595
1.66631
1.64221
1.61758
1.5921
1.56599
1.54056
1.51404
1.49024
1.46458
1.44472
1.42126
1.4049
1.38501
1.36791
1.35216
1.33448
1.32189
1.30509
1.29468
1.27959
1.27154
1.25851
1.25304
1.24199
1.23805
1.22861
1.22557
1.2174
1.21503
1.2081
1.20589
1.20133
1.19686
1.19455
1.18895
1.18685
1.18074
1.17817
1.17128
1.16808
1.15997
1.15623
1.14737
1.14283
1.13347
1.12758
1.11758
1.11043
1.10073
1.09087
1.08202
1.07092
1.06183
1.05025
1.04078
1.02886
1.01916
1.00682
0.997136
0.984739
0.975215
0.963225
0.95396
0.942866
0.934346
0.925104
0.916939
0.909911
0.902975
0.898041
0.89286
0.889967
0.887409
0.886737
0.886317
0.88695
0.887786
0.890639
0.893122
0.897505
0.901275
0.906806
0.911835
0.917517
0.923798
0.929861
0.937088
0.943424
0.951406
0.957749
0.966351
0.972625
0.981567
0.987779
0.996913
1.00316
1.01214
1.01851
1.02732
1.03364
1.04261
1.04952
1.05687
1.06476
1.07117
1.07973
1.08504
1.09416
1.09861
1.10799
1.112
1.12093
1.12458
1.13302
1.1362
1.14395
1.14654
1.15441
1.15785
1.16119
1.16582
1.16646
1.1703
1.16908
1.17109
1.16708
1.16795
1.15961
1.15777
1.14379
1.13883
1.11868
1.11104
1.08299
1.07295
1.04424
1.01845
0.993056
0.955557
0.931829
0.883922
0.862362
0.808855
0.787171
0.7323
0.710754
0.656316
0.634938
0.58197
0.561392
0.512003
0.493137
0.452844
0.429175
0.401451
0.376493
0.359391
0.335652
0.32698
0.307799
0.30218
0.289231
0.286318
0.279228
0.278641
0.276608
0.278171
0.278824
0.284541
0.286156
0.294769
0.298974
0.307885
0.316196
0.326034
0.338403
0.349757
0.365802
0.379369
0.398696
0.413613
0.434901
0.449191
0.467191
0.475687
0.482258
0.484049
1.31089
1.43468
1.45659
1.46191
1.47556
1.47789
1.48448
1.4839
1.48492
1.48097
1.47968
1.4734
1.46993
1.46265
1.45785
1.45184
1.44759
1.44421
1.44163
1.43921
1.43727
1.43456
1.43275
1.42918
1.42706
1.42228
1.42011
1.41499
1.41306
1.4081
1.40656
1.40185
1.40054
1.39562
1.39423
1.38865
1.38655
1.38126
1.37593
1.37123
1.36346
1.35778
1.34811
1.34087
1.32903
1.32009
1.30607
1.29596
1.28061
1.2696
1.25366
1.24156
1.22541
1.21251
1.19713
1.18213
1.16806
1.15233
1.13871
1.1231
1.10983
1.09456
1.08172
1.06669
1.05436
1.03971
1.02781
1.01374
1.00216
0.988906
0.977904
0.966182
0.955561
0.945716
0.936159
0.928185
0.920225
0.914205
0.908226
0.904322
0.900408
0.89848
0.897408
0.897317
0.897588
0.899294
0.901607
0.905155
0.908977
0.913607
0.91887
0.924609
0.931083
0.937743
0.945242
0.952716
0.961166
0.969185
0.978449