/*--------------------------------*- C++ -*----------------------------------*\
| =========                 |                                                 |
| \\      /  F ield         | OpenFOAM: The Open Source CFD Toolbox           |
|  \\    /   O peration     | Version:  4.1                                   |
|   \\  /    A nd           | Web:      www.OpenFOAM.org                      |
|    \\/     M anipulation  |                                                 |
\*---------------------------------------------------------------------------*/
FoamFile
{
    version     2.0;
    format      ascii;
    class       volScalarField;
    location    "13.5";
    object      k;
}
// * * * * * * * * * * * * * * * * * * * * * * * * * * * * * * * * * * * * * //

dimensions      [0 2 -2 0 0 0 0];

internalField   nonuniform List<scalar> 
204246
(
2.11129
2.2031
2.2133
2.2158
2.22698
2.22933
2.23859
2.2417
2.25002
2.25386
2.26177
2.2659
2.27384
2.27792
2.28787
2.29026
2.30117
2.30329
2.31203
2.31918
2.32393
2.33406
2.33618
2.34623
2.34885
2.3586
2.36116
2.37099
2.37321
2.38423
2.38613
2.39734
2.39924
2.4106
2.41252
2.42275
2.4252
2.43356
2.44081
2.44517
2.45447
2.4572
2.46737
2.46994
2.48066
2.483
2.49524
2.49741
2.51018
2.51251
2.5244
2.52753
2.53936
2.54255
2.55282
2.56121
2.56728
2.57822
2.58241
2.59473
2.59837
2.61146
2.6149
2.62955
2.63283
2.648
2.65145
2.66566
2.66993
2.68404
2.68841
2.70061
2.70935
2.71847
2.72958
2.73696
2.74973
2.756
2.76992
2.77546
2.79205
2.79651
2.81399
2.81866
2.83532
2.84087
2.85754
2.86324
2.87812
2.88823
2.90011
2.91265
2.92297
2.93702
2.94644
2.9644
2.97097
2.99108
2.99732
3.01792
3.02442
3.04474
3.05219
3.07262
3.08037
3.10159
3.1093
3.12896
3.14101
3.15798
3.17206
3.18796
3.20604
3.21923
3.24062
3.25178
3.27441
3.28536
3.30918
3.32002
3.34545
3.35598
3.38246
3.39311
3.41814
3.43309
3.45556
3.47276
3.49421
3.51372
3.53415
3.5551
3.57519
3.59738
3.61733
3.64075
3.66059
3.68498
3.70499
3.7304
3.75047
3.77532
3.79756
3.82151
3.84453
3.8686
3.89206
3.91645
3.9401
3.96493
3.98862
4.01389
4.03747
4.06326
4.08675
4.11304
4.13657
4.16302
4.18589
4.21259
4.23549
4.26155
4.28516
4.31041
4.33479
4.35907
4.38446
4.40762
4.43447
4.45648
4.48528
4.506
4.53738
4.55721
4.59264
4.61059
4.65057
4.6722
4.70861
4.73867
4.77351
4.81265
4.8489
4.89821
4.93957
5.00047
5.05144
5.12517
5.19023
5.26902
5.33571
5.37351
5.39002
1.40995
1.39299
1.39422
1.39545
1.39816
1.3979
1.40123
1.40122
1.40506
1.40514
1.40951
1.40986
1.41419
1.41417
1.41892
1.41889
1.42444
1.42519
1.42689
1.43133
1.43169
1.43704
1.43731
1.44368
1.44477
1.45123
1.45253
1.45879
1.45956
1.46603
1.46675
1.47334
1.47411
1.4807
1.48148
1.48932
1.49156
1.49414
1.49984
1.50091
1.50804
1.50971
1.5169
1.5187
1.52568
1.52696
1.53411
1.5354
1.54282
1.54423
1.55258
1.5548
1.56396
1.56715
1.57175
1.57916
1.58137
1.59099
1.59396
1.60399
1.60721
1.61732
1.62007
1.63064
1.63347
1.64452
1.64755
1.6597
1.66367
1.67674
1.68172
1.68959
1.70092
1.70563
1.71902
1.72388
1.73798
1.74307
1.75768
1.76266
1.77738
1.78229
1.79773
1.80293
1.8196
1.82585
1.8437
1.85114
1.86354
1.87806
1.88699
1.9047
1.91218
1.93161
1.93913
1.95885
1.96643
1.9869
1.99464
2.01652
2.02505
2.04793
2.05757
2.08138
2.09156
2.1168
2.12764
2.14942
2.16801
2.18568
2.20905
2.22313
2.25008
2.26218
2.29155
2.30421
2.33601
2.34967
2.38266
2.39735
2.43145
2.44674
2.48362
2.50063
2.53258
2.55853
2.58665
2.61751
2.64471
2.67847
2.70531
2.74309
2.76999
2.81058
2.83835
2.88134
2.91058
2.95582
2.98722
3.03507
3.07002
3.1124
3.15692
3.19798
3.24516
3.28886
3.33774
3.38434
3.4349
3.4847
3.53705
3.59025
3.64296
3.7002
3.7541
3.81612
3.87359
3.93984
3.99171
4.06665
4.12254
4.19251
4.25926
4.32383
4.40012
4.45943
4.54309
4.59852
4.68615
4.74018
4.82766
4.88307
4.96312
5.02167
5.10476
5.1617
5.2431
5.28221
5.37563
5.41121
5.50025
5.53233
5.61681
5.64554
5.72695
5.75285
5.841
5.87201
6.03812
6.1826
6.59628
6.85212
6.9605
2.04517
1.95453
1.97652
1.98783
1.98805
1.99741
1.99642
2.00289
2.00186
2.00813
2.00699
2.01326
2.0121
2.01975
2.01767
2.02578
2.02382
2.03351
2.03753
2.03583
2.04417
2.04243
2.05156
2.05068
2.05931
2.05895
2.06811
2.06793
2.07871
2.07773
2.08892
2.08809
2.09974
2.09911
2.11107
2.11108
2.12357
2.12952
2.12913
2.14033
2.14014
2.15024
2.15042
2.16042
2.16059
2.17173
2.17096
2.18219
2.18145
2.19285
2.19286
2.2036
2.20412
2.21631
2.22225
2.22205
2.23366
2.23385
2.24493
2.2458
2.25719
2.25831
2.27098
2.27113
2.28481
2.28522
2.29975
2.30136
2.31514
2.31741
2.33281
2.34038
2.34444
2.35717
2.35955
2.37384
2.3766
2.39147
2.39451
2.41027
2.41235
2.42887
2.43119
2.44854
2.45201
2.46866
2.47278
2.49078
2.49965
2.5068
2.52138
2.52551
2.54226
2.54677
2.5643
2.56796
2.58616
2.59013
2.60901
2.61346
2.63264
2.63782
2.6562
2.6621
2.68106
2.68737
2.70784
2.71683
2.72888
2.7441
2.75106
2.76986
2.77585
2.7954
2.8017
2.82155
2.82855
2.84778
2.85501
2.87442
2.88182
2.90194
2.90994
2.9303
2.93992
2.95407
2.9679
2.97817
2.99502
3.00277
3.02054
3.02856
3.0458
3.05384
3.07023
3.07822
3.09375
3.10175
3.11681
3.12509
3.13886
3.14551
3.15627
3.16203
3.17088
3.17532
3.18268
3.18392
3.18932
3.18805
3.19034
3.18639
3.18685
3.17563
3.17552
3.15825
3.15684
3.1301
3.11704
3.10115
3.068
3.05883
3.01283
3.00041
2.94646
2.93109
2.87053
2.85303
2.78744
2.76812
2.69806
2.67754
2.60382
2.58269
2.50919
2.48904
2.41054
2.37413
2.33833
2.27605
2.2607
2.19089
2.17685
2.10983
2.09809
2.03922
2.03266
1.99289
1.99718
1.97135
1.97659
1.84366
1.79433
2.75396
2.60962
2.62742
2.64065
2.64281
2.65232
2.65194
2.65686
2.65562
2.65897
2.65737
2.66018
2.6585
2.66221
2.65983
2.66375
2.66145
2.66566
2.66744
2.66563
2.6696
2.66751
2.67189
2.67054
2.67477
2.67392
2.67873
2.67813
2.68423
2.68311
2.68965
2.68873
2.69585
2.69521
2.7028
2.70279
2.71048
2.71429
2.71428
2.72149
2.72139
2.72786
2.72805
2.73431
2.73448
2.74119
2.74062
2.74714
2.74651
2.75297
2.75286
2.75875
2.75889
2.765
2.76807
2.76759
2.77315
2.77289
2.77792
2.77793
2.78308
2.7832
2.78892
2.78856
2.79445
2.79418
2.80038
2.80076
2.80666
2.80743
2.81344
2.81646
2.81762
2.82231
2.82286
2.82794
2.82866
2.83379
2.83462
2.83985
2.84026
2.84542
2.84584
2.85096
2.85178
2.85643
2.85746
2.86172
2.86384
2.86457
2.86748
2.86792
2.87069
2.87111
2.87358
2.87369
2.87572
2.87574
2.87741
2.87744
2.87849
2.87844
2.87889
2.87879
2.87903
2.87866
2.87842
2.87747
2.87561
2.87447
2.87204
2.87042
2.86737
2.86508
2.86139
2.8585
2.85399
2.85072
2.84516
2.84112
2.83479
2.82937
2.82304
2.81465
2.806
2.79803
2.78565
2.77842
2.76149
2.75521
2.73414
2.7273
2.70276
2.69477
2.66647
2.6572
2.62462
2.61369
2.57737
2.56517
2.52111
2.49958
2.46803
2.4297
2.40683
2.35625
2.3369
2.27924
2.25797
2.19633
2.17332
2.10789
2.08312
2.01418
1.98782
1.91682
1.88972
1.81348
1.77663
1.71822
1.66577
1.62092
1.55588
1.5235
1.45205
1.42464
1.3539
1.32803
1.26269
1.23887
1.17947
1.15822
1.10508
1.0865
1.03944
1.02341
0.981373
0.962323
0.934705
0.91185
0.893777
0.867501
0.856085
0.829227
0.820766
0.802129
0.799281
0.795246
0.809663
0.826698
0.856679
0.866332
0.873576
3.23437
3.147
3.15338
3.16405
3.16505
3.17044
3.1688
3.16996
3.16493
3.16493
3.15776
3.15695
3.1495
3.14895
3.14075
3.14036
3.13201
3.13147
3.12588
3.11974
3.11867
3.11062
3.10982
3.10243
3.10111
3.09451
3.09338
3.08746
3.08696
3.08104
3.08096
3.0756
3.07572
3.07115
3.07147
3.06779
3.06777
3.06599
3.06291
3.06313
3.05962
3.0594
3.05602
3.0557
3.05235
3.05216
3.04827
3.04797
3.04364
3.04305
3.03866
3.03751
3.03291
3.03144
3.02746
3.02317
3.02068
3.01485
3.0125
3.00622
3.00362
2.99715
2.99446
2.98753
2.98462
2.97743
2.97427
2.96711
2.96367
2.95649
2.95249
2.94593
2.93977
2.93386
2.92676
2.92099
2.91339
2.90756
2.89966
2.89368
2.88534
2.87898
2.87022
2.86355
2.85472
2.84761
2.83873
2.83038
2.82101
2.81184
2.80182
2.79236
2.78105
2.77169
2.75842
2.74987
2.734
2.72637
2.70799
2.70119
2.68065
2.67291
2.65159
2.64316
2.62047
2.61155
2.58502
2.57238
2.55179
2.53169
2.51468
2.48732
2.47504
2.44195
2.43024
2.39369
2.38019
2.34255
2.32769
2.28766
2.27178
2.22935
2.21285
2.16519
2.14191
2.10633
2.07005
2.04228
1.99594
1.97398
1.92127
1.90051
1.84511
1.82359
1.76685
1.74482
1.68702
1.66444
1.60631
1.58351
1.52329
1.49423
1.44744
1.4082
1.37103
1.32402
1.29546
1.24275
1.22125
1.16748
1.14686
1.09561
1.07609
1.02779
1.00961
0.964971
0.948426
0.906323
0.886782
0.857293
0.834025
0.813573
0.787413
0.775307
0.749706
0.740707
0.718637
0.711346
0.693044
0.687206
0.672503
0.668103
0.656748
0.653719
0.645429
0.643679
0.637816
0.635617
0.635228
0.633643
0.634505
0.633753
0.634772
0.633923
0.634587
0.633403
0.634935
0.635416
0.644756
0.650546
0.663335
0.668062
0.671855
3.65174
3.56222
3.55788
3.55927
3.55507
3.55526
3.54589
3.54282
3.52972
3.52465
3.50925
3.50299
3.48666
3.48013
3.4629
3.45622
3.43855
3.43147
3.41601
3.40413
3.39234
3.37733
3.36763
3.35155
3.34235
3.32628
3.31729
3.30151
3.29292
3.27707
3.26902
3.25347
3.24585
3.23106
3.22389
3.20987
3.20241
3.19016
3.18082
3.1704
3.16025
3.15082
3.14022
3.13134
3.12052
3.11185
3.10052
3.09181
3.07998
3.07109
3.05911
3.04977
3.03767
3.02747
3.01523
3.00393
2.99152
2.97908
2.96631
2.95335
2.93983
2.92668
2.91198
2.89912
2.88291
2.87052
2.85276
2.8407
2.82211
2.81023
2.79012
2.77529
2.75867
2.74055
2.72546
2.70469
2.69071
2.66759
2.65449
2.62827
2.61748
2.58877
2.57783
2.54763
2.53571
2.50543
2.4929
2.4605
2.4423
2.41805
2.39306
2.37261
2.34271
2.32472
2.28967
2.27564
2.23698
2.22257
2.18237
2.16744
2.12555
2.1092
2.06721
2.04995
2.00695
1.98918
1.94265
1.92051
1.88316
1.85238
1.82078
1.78231
1.75747
1.71157
1.69222
1.64227
1.62247
1.57317
1.5528
1.50359
1.48326
1.43438
1.41427
1.3638
1.33979
1.30059
1.26872
1.23816
1.19993
1.17681
1.13424
1.11682
1.07359
1.05692
1.01578
1.00006
0.961104
0.946247
0.909819
0.895983
0.860923
0.844483
0.819248
0.799142
0.780507
0.757599
0.744825
0.720744
0.71135
0.688371
0.679893
0.659223
0.651642
0.633211
0.626508
0.610174
0.604277
0.58946
0.582698
0.572815
0.565162
0.558309
0.550047
0.546018
0.53813
0.535325
0.528724
0.526598
0.521688
0.520273
0.516989
0.516277
0.514581
0.514568
0.514178
0.515224
0.515641
0.51791
0.520031
0.523002
0.526768
0.530491
0.535732
0.540175
0.546895
0.552304
0.560497
0.566693
0.576198
0.582729
0.590161
0.593142
0.595063
3.91748
3.8499
3.83918
3.82939
3.81696
3.80756
3.79116
3.77917
3.7594
3.74489
3.7226
3.7064
3.68259
3.66544
3.64039
3.62273
3.5969
3.57832
3.55342
3.53168
3.50854
3.48454
3.46241
3.43746
3.41555
3.39042
3.36857
3.3436
3.32198
3.29733
3.27607
3.25206
3.23131
3.20808
3.18743
3.16506
3.14414
3.12187
3.10226
3.07967
3.06075
3.03844
3.01994
2.99749
2.97948
2.95624
2.93966
2.91531
2.89991
2.87433
2.8593
2.83357
2.81843
2.79163
2.77203
2.75144
2.72646
2.70789
2.68067
2.66258
2.63345
2.61558
2.58401
2.56769
2.53333
2.51799
2.48145
2.46584
2.42899
2.4128
2.37466
2.35279
2.3225
2.29441
2.26788
2.23548
2.21144
2.17575
2.1535
2.11427
2.09523
2.05252
2.03524
1.99068
1.97242
1.92839
1.90962
1.86395
1.84007
1.8037
1.77259
1.74167
1.70534
1.6785
1.63702
1.61568
1.56987
1.55159
1.5044
1.48618
1.43907
1.42021
1.37481
1.35586
1.31145
1.29292
1.24757
1.22627
1.19042
1.16362
1.13445
1.10243
1.08096
1.04416
1.02935
0.991241
0.976479
0.94132
0.927108
0.894142
0.880839
0.850028
0.837653
0.807676
0.793998
0.771679
0.755144
0.738364
0.719385
0.707695
0.687295
0.679178
0.659273
0.651905
0.633867
0.627257
0.610942
0.604981
0.590341
0.58501
0.571454
0.565194
0.555962
0.548451
0.541964
0.533628
0.529504
0.521023
0.517894
0.510156
0.507421
0.50065
0.498284
0.49242
0.490406
0.485416
0.483767
0.479514
0.477611
0.475263
0.473032
0.472043
0.470026
0.469561
0.468241
0.468108
0.467615
0.467874
0.467963
0.469308
0.469722
0.472043
0.472943
0.476136
0.477496
0.481482
0.483265
0.487703
0.490436
0.495013
0.498604
0.503441
0.507946
0.513279
0.5188
0.524589
0.531157
0.537496
0.544841
0.550848
0.556346
0.558847
0.560226
4.07814
4.02382
4.00822
3.9831
3.96525
3.94299
3.92102
3.89779
3.87203
3.84691
3.81794
3.79101
3.75977
3.73143
3.69857
3.66921
3.63523
3.60453
3.57053
3.53797
3.50439
3.4705
3.43668
3.40213
3.36777
3.33296
3.29791
3.2632
3.22721
3.19332
3.15658
3.1234
3.08608
3.05375
3.01615
2.98419
2.9468
2.91299
2.87982
2.8436
2.81232
2.77584
2.74557
2.70889
2.6796
2.6424
2.61509
2.57716
2.55146
2.51264
2.48786
2.44946
2.42503
2.3862
2.35794
2.32666
2.29245
2.26466
2.22773
2.20144
2.16235
2.13713
2.09549
2.07269
2.02806
2.00695
1.95991
1.9394
1.89228
1.87139
1.82336
1.79733
1.75832
1.7258
1.69222
1.65515
1.62564
1.58527
1.55908
1.51543
1.49395
1.44776
1.4288
1.38218
1.36294
1.31842
1.2994
1.25503
1.23271
1.1977
1.1706
1.14179
1.11127
1.08765
1.05387
1.03643
1.00066
0.986459
0.95132
0.937908
0.904612
0.891491
0.861053
0.848572
0.820295
0.80871
0.781302
0.76869
0.747863
0.733247
0.716882
0.700098
0.688741
0.670042
0.662643
0.643908
0.636818
0.62019
0.6136
0.598546
0.592571
0.578905
0.573491
0.560526
0.554668
0.545163
0.538524
0.531165
0.523703
0.51855
0.510377
0.507042
0.498941
0.495918
0.488592
0.485874
0.479237
0.476772
0.470771
0.468546
0.462943
0.46034
0.456519
0.453398
0.450624
0.44718
0.445349
0.441796
0.440463
0.437184
0.436031
0.433177
0.432199
0.429789
0.429
0.427088
0.426522
0.425035
0.4244
0.423948
0.423397
0.423408
0.423269
0.423946
0.424239
0.425749
0.426333
0.428682
0.429699
0.432935
0.434508
0.438671
0.440889
0.445995
0.448878
0.454928
0.458443
0.465125
0.469465
0.47631
0.481348
0.488208
0.493887
0.500619
0.50674
0.513367
0.519735
0.526154
0.532325
0.537761
0.54207
0.544317
0.545416
4.15965
4.09822
4.07672
4.03754
4.01399
3.9802
3.95265
3.91993
3.8887
3.85512
3.82056
3.78573
3.74844
3.71171
3.67251
3.63383
3.59302
3.55191
3.5093
3.46753
3.42281
3.38022
3.33447
3.29083
3.24455
3.20033
3.15371
3.10939
3.06245
3.01847
2.97115
2.9275
2.87986
2.83664
2.78877
2.74573
2.69788
2.65326
2.6087
2.5618
2.51837
2.47075
2.42779
2.37942
2.33691
2.28756
2.24638
2.19622
2.15671
2.10592
2.06794
2.0181
1.98174
1.9324
1.89406
1.85341
1.8106
1.77491
1.73077
1.69804
1.65306
1.62271
1.57658
1.55006
1.50221
1.47865
1.4296
1.40776
1.36
1.33857
1.29123
1.26722
1.22867
1.20016
1.16781
1.13629
1.1092
1.07579
1.05309
1.01799
1.00063
0.964924
0.950203
0.915808
0.901622
0.87025
0.856901
0.827117
0.812408
0.789395
0.772963
0.754468
0.736785
0.722226
0.70322
0.693022
0.673379
0.665545
0.6468
0.639653
0.622474
0.615717
0.60043
0.594174
0.580314
0.574627
0.561501
0.555488
0.545483
0.538814
0.530852
0.523422
0.517677
0.509443
0.505629
0.49722
0.493891
0.486274
0.48318
0.476262
0.473443
0.467136
0.464567
0.458576
0.455832
0.451302
0.448229
0.444585
0.441208
0.438556
0.434872
0.433058
0.429332
0.427872
0.424409
0.423104
0.419988
0.418828
0.416056
0.415038
0.412527
0.411365
0.409734
0.408339
0.40731
0.405837
0.405291
0.403952
0.403545
0.402527
0.402263
0.401576
0.401458
0.401111
0.401147
0.4011
0.401468
0.401649
0.402209
0.402938
0.403509
0.404775
0.40553
0.407281
0.408233
0.410552
0.411793
0.414833
0.41651
0.4203
0.422513
0.427152
0.430051
0.435583
0.439297
0.445638
0.450222
0.457098
0.462522
0.469638
0.475632
0.482772
0.489089
0.496353
0.502874
0.510027
0.516454
0.523107
0.528884
0.534152
0.537913
0.540043
0.540977
4.16371
4.09672
4.06915
4.01794
3.98836
3.94495
3.91177
3.87128
3.83515
3.79469
3.75579
3.71436
3.67294
3.63008
3.58692
3.54254
3.49752
3.4512
3.40401
3.35727
3.30791
3.25983
3.20927
3.15979
3.10865
3.05841
3.00693
2.9565
2.90503
2.85503
2.80391
2.75452
2.70398
2.65545
2.60567
2.55778
2.50846
2.46016
2.41233
2.36315
2.31489
2.26482
2.21525
2.16334
2.11192
2.05776
2.00459
1.94859
1.89426
1.83692
1.78254
1.72536
1.67249
1.6164
1.56476
1.51326
1.46284
1.41597
1.36787
1.32545
1.27991
1.24179
1.19855
1.1651
1.12402
1.09468
1.05538
1.02954
0.992706
0.969759
0.934831
0.912587
0.883937
0.861234
0.837085
0.814476
0.794278
0.772103
0.755308
0.733455
0.720286
0.6987
0.688594
0.668099
0.659123
0.640777
0.632633
0.6158
0.607488
0.594277
0.585595
0.574725
0.565876
0.557014
0.547881
0.541117
0.531635
0.52666
0.517193
0.513204
0.504274
0.500532
0.492523
0.489061
0.481742
0.478567
0.471621
0.468353
0.462782
0.459295
0.454564
0.450834
0.447056
0.443027
0.440076
0.435799
0.433501
0.429248
0.427356
0.423307
0.421561
0.417817
0.416206
0.412625
0.410945
0.408124
0.406348
0.403949
0.402094
0.400181
0.398195
0.396732
0.394643
0.393587
0.391545
0.390718
0.388869
0.388149
0.38654
0.385925
0.384507
0.383843
0.382989
0.382234
0.381789
0.381076
0.380855
0.380343
0.38024
0.380007
0.380032
0.380022
0.380341
0.380506
0.381141
0.381512
0.382466
0.383076
0.384301
0.385492
0.386955
0.388762
0.390529
0.392882
0.395129
0.398069
0.400874
0.404366
0.407688
0.41171
0.415597
0.420235
0.424769
0.430127
0.435384
0.441508
0.447507
0.454355
0.46092
0.468361
0.475408
0.483282
0.490607
0.498551
0.505805
0.5134
0.520087
0.526758
0.53225
0.537234
0.540594
0.542659
0.543483
4.13974
4.05571
4.01835
3.95178
3.91334
3.85941
3.81924
3.77203
3.731
3.68664
3.64474
3.60126
3.55822
3.51457
3.47047
3.4265
3.38125
3.33618
3.28949
3.24459
3.1966
3.14969
3.10154
3.05305
3.00479
2.95556
2.90746
2.85828
2.81108
2.76287
2.71757
2.67113
2.62837
2.58437
2.5445
2.50315
2.4655
2.42618
2.38922
2.3517
2.31374
2.27655
2.23629
2.19672
2.15231
2.10915
2.05903
2.01196
1.95574
1.90418
1.84279
1.78718
1.72312
1.66542
1.60165
1.54077
1.48026
1.41894
1.3622
1.30372
1.25191
1.19777
1.15144
1.10228
1.06235
1.01822
0.983874
0.944238
0.914768
0.879785
0.854113
0.822972
0.801089
0.773633
0.753939
0.730184
0.712148
0.69171
0.675099
0.657482
0.64216
0.627052
0.612936
0.599876
0.586977
0.575736
0.564013
0.554148
0.543298
0.535106
0.52513
0.517908
0.508989
0.502541
0.494547
0.488747
0.481606
0.476354
0.469967
0.465204
0.459462
0.455168
0.450002
0.446109
0.441404
0.437868
0.433488
0.430162
0.426453
0.423196
0.419899
0.416776
0.413877
0.410876
0.40835
0.40544
0.403232
0.400452
0.398527
0.395859
0.394215
0.391653
0.390263
0.387759
0.386535
0.38443
0.383215
0.38139
0.380225
0.378688
0.377582
0.37632
0.375286
0.374286
0.373349
0.372588
0.371744
0.371222
0.370492
0.370197
0.369648
0.369399
0.369226
0.369072
0.369082
0.369094
0.369364
0.369517
0.370037
0.370359
0.371124
0.371645
0.372656
0.373402
0.374669
0.375677
0.377222
0.378544
0.380345
0.382013
0.384034
0.38605
0.388348
0.390767
0.393504
0.396468
0.399755
0.403469
0.407373
0.411921
0.416521
0.421897
0.427263
0.43347
0.439646
0.446648
0.453659
0.461397
0.468995
0.477334
0.485407
0.49414
0.502469
0.511282
0.519474
0.527844
0.535253
0.542423
0.548232
0.55337
0.556728
0.55881
0.559589
4.16202
4.04059
3.98824
3.90186
3.84915
3.78172
3.73059
3.67488
3.62673
3.57776
3.53211
3.48714
3.44315
3.40036
3.35734
3.31621
3.27391
3.23382
3.19214
3.15384
3.11288
3.07369
3.03415
2.99379
2.95526
2.91476
2.87738
2.83766
2.80208
2.76385
2.73102
2.69493
2.66588
2.63321
2.6094
2.5819
2.56301
2.54184
2.52246
2.50652
2.48679
2.47374
2.45298
2.43912
2.41419
2.39737
2.36489
2.34383
2.30232
2.27446
2.22372
2.18713
2.12885
2.08568
2.02703
1.96715
1.91233
1.84168
1.7876
1.71268
1.66087
1.58535
1.53835
1.46253
1.42249
1.34973
1.31694
1.24988
1.21956
1.16
1.13308
1.08438
1.05348
1.01549
0.982675
0.953119
0.919005
0.896104
0.861312
0.844298
0.80909
0.794609
0.761426
0.748032
0.717602
0.704628
0.676833
0.664804
0.64075
0.62717
0.607315
0.59287
0.576957
0.561965
0.549793
0.534228
0.525426
0.510099
0.50359
0.489607
0.483882
0.471876
0.466708
0.45645
0.451957
0.443091
0.439209
0.43176
0.427953
0.421723
0.418408
0.413078
0.410064
0.405576
0.402763
0.399033
0.396371
0.39327
0.390802
0.388182
0.385908
0.383671
0.381571
0.379655
0.377707
0.376132
0.374359
0.372996
0.37149
0.370273
0.369027
0.367937
0.366918
0.365957
0.36514
0.364357
0.363726
0.363119
0.362676
0.36222
0.361972
0.361723
0.361638
0.361595
0.361661
0.361853
0.362108
0.362521
0.362966
0.36362
0.364271
0.365186
0.366064
0.367264
0.368395
0.369908
0.371318
0.373186
0.374923
0.377207
0.379334
0.382104
0.384721
0.387975
0.391132
0.394815
0.398578
0.402738
0.407213
0.412029
0.417315
0.422927
0.429136
0.435606
0.442784
0.450101
0.458262
0.466407
0.475193
0.484059
0.493328
0.50268
0.512157
0.521638
0.530865
0.539872
0.548094
0.555716
0.56196
0.567248
0.570722
0.572808
0.573555
4.30785
4.13011
4.05937
3.94949
3.87732
3.79145
3.72299
3.65273
3.59147
3.53373
3.48019
3.43114
3.38364
3.34064
3.29741
3.25894
3.21891
3.1843
3.14809
3.11717
3.08537
3.05605
3.02794
2.99865
2.9722
2.9432
2.91902
2.89174
2.87072
2.84533
2.82892
2.80708
2.79565
2.77824
2.77153
2.76226
2.76025
2.75965
2.75854
2.76119
2.76137
2.76745
2.76849
2.77309
2.77218
2.77362
2.76714
2.76538
2.74941
2.74031
2.71418
2.69559
2.66014
2.63312
2.59326
2.54892
2.50823
2.45141
2.40647
2.34269
2.29497
2.22746
2.18007
2.10917
2.06469
1.99329
1.95294
1.88416
1.84624
1.78175
1.74779
1.69449
1.65324
1.61231
1.56803
1.53589
1.48988
1.46406
1.41684
1.39679
1.34769
1.32863
1.27975
1.26093
1.21275
1.19268
1.14506
1.12487
1.08341
1.05261
1.01924
0.981741
0.954926
0.912673
0.892138
0.846948
0.829048
0.784976
0.767952
0.726712
0.710836
0.673429
0.658081
0.624841
0.611105
0.581778
0.57006
0.545648
0.532445
0.513808
0.501003
0.487344
0.474011
0.465148
0.451749
0.446373
0.43451
0.429822
0.420241
0.416398
0.408564
0.405416
0.399013
0.396499
0.391513
0.388903
0.38516
0.382986
0.380113
0.378074
0.376072
0.374065
0.372822
0.370955
0.37016
0.368653
0.368052
0.366948
0.366539
0.365788
0.365548
0.365236
0.365053
0.365051
0.365043
0.365394
0.365516
0.36621
0.3665
0.367527
0.367994
0.369377
0.370028
0.371788
0.372651
0.374802
0.375894
0.378466
0.379958
0.382699
0.384755
0.38777
0.390456
0.393822
0.397228
0.401076
0.405241
0.409676
0.414628
0.419776
0.425615
0.43161
0.438477
0.445427
0.453416
0.461351
0.470515
0.479462
0.489383
0.499236
0.509752
0.520223
0.531024
0.54169
0.552276
0.562433
0.571925
0.580478
0.587633
0.593432
0.597236
0.599475
0.600232
4.59609
4.37905
4.29128
4.15341
4.05738
3.94987
3.85914
3.77349
3.69413
3.62444
3.55717
3.50069
3.44464
3.39854
3.35081
3.31261
3.27098
3.23923
3.20504
3.17724
3.15203
3.12855
3.11112
3.09097
3.07787
3.06007
3.05011
3.03497
3.02828
3.01607
3.01215
3.00501
3.00462
3.0025
3.006
3.00713
3.01772
3.02745
3.03862
3.05503
3.06693
3.0868
3.09945
3.12027
3.13165
3.15131
3.15825
3.17023
3.1707
3.1729
3.16658
3.16163
3.14483
3.13167
3.10897
3.07969
3.05354
3.01277
2.97978
2.93121
2.89261
2.83884
2.79791
2.73946
2.69892
2.63859
2.6001
2.54129
2.50426
2.44888
2.41496
2.36956
2.33012
2.29539
2.25543
2.22827
2.18933
2.16798
2.13031
2.11421
2.07561
2.06137
2.02221
2.00802
1.96845
1.9524
1.91151
1.89447
1.85838
1.82758
1.79707
1.75722
1.72883
1.68193
1.65589
1.60018
1.57676
1.5151
1.49045
1.42569
1.39977
1.3336
1.30512
1.2386
1.20974
1.14381
1.11617
1.05611
1.01796
0.970617
0.925358
0.889903
0.83791
0.813897
0.761891
0.74158
0.694874
0.675859
0.635444
0.618965
0.584237
0.570236
0.540972
0.529658
0.50649
0.493988
0.477217
0.46585
0.454116
0.442757
0.435794
0.424883
0.420899
0.411745
0.408428
0.401474
0.398954
0.39366
0.391884
0.387786
0.386554
0.383884
0.382381
0.381037
0.379811
0.379333
0.378484
0.378379
0.378088
0.378239
0.378291
0.379083
0.379328
0.380656
0.381181
0.383011
0.383815
0.38616
0.387451
0.389978
0.391946
0.394723
0.397408
0.400493
0.403998
0.407525
0.411895
0.416029
0.421314
0.426209
0.43251
0.438294
0.44577
0.452587
0.461389
0.469329
0.479577
0.488747
0.499982
0.510302
0.522347
0.53348
0.545965
0.557457
0.569808
0.58097
0.592136
0.601797
0.610121
0.616924
0.620955
0.623592
0.624387
4.93914
4.72741
4.64107
4.49638
4.38824
4.26853
4.15995
4.05798
3.96105
3.87696
3.79466
3.72713
3.65981
3.60742
3.55221
3.51218
3.46612
3.43506
3.40002
3.37133
3.34879
3.32595
3.31472
3.29967
3.2937
3.28381
3.28077
3.2759
3.27624
3.27467
3.27862
3.27871
3.28798
3.29048
3.30477
3.31034
3.32863
3.34203
3.35872
3.38002
3.39689
3.42147
3.4384
3.46366
3.47923
3.5037
3.51562
3.5362
3.54294
3.55279
3.55273
3.55329
3.54668
3.54092
3.52841
3.509
3.49203
3.46337
3.43886
3.40276
3.3718
3.32987
3.29504
3.24799
3.21165
3.16197
3.12585
3.07665
3.04108
2.99444
2.96141
2.92271
2.88665
2.85648
2.82204
2.79827
2.76691
2.74891
2.72115
2.70948
2.68443
2.676
2.65238
2.64499
2.62251
2.61445
2.59198
2.58373
2.56549
2.54804
2.5339
2.51091
2.49784
2.4703
2.45788
2.42384
2.41148
2.3724
2.35799
2.31421
2.29762
2.25008
2.22885
2.17774
2.15252
2.09711
2.06983
2.01562
1.97095
1.92335
1.86653
1.82364
1.75473
1.71664
1.63847
1.60407
1.52163
1.4854
1.40244
1.366
1.28376
1.24795
1.16867
1.13547
1.06494
1.02108
0.966404
0.915856
0.875864
0.819313
0.793208
0.738025
0.716874
0.668803
0.649682
0.609621
0.593722
0.560641
0.548222
0.520696
0.511079
0.490884
0.479999
0.466661
0.457193
0.44861
0.439889
0.435517
0.427969
0.425573
0.420013
0.418533
0.414909
0.414143
0.412153
0.411996
0.411365
0.411746
0.41238
0.413092
0.414973
0.415967
0.419008
0.42029
0.424423
0.426246
0.431417
0.433826
0.440092
0.443295
0.450688
0.454902
0.463582
0.469002
0.479158
0.485956
0.497789
0.506267
0.519208
0.52945
0.543334
0.555022
0.569396
0.582086
0.596229
0.609286
0.621993
0.634133
0.643372
0.652527
0.656847
0.660264
0.661219
5.05441
4.92237
4.86142
4.7474
4.65558
4.55221
4.45435
4.35764
4.26485
4.1799
4.09821
4.02702
3.95833
3.902
3.84601
3.80435
3.75912
3.72821
3.69413
3.66601
3.64372
3.62089
3.61029
3.59747
3.59318
3.58849
3.58882
3.58832
3.59331
3.59534
3.60638
3.61078
3.62607
3.63208
3.65076
3.65895
3.67962
3.69382
3.71053
3.73139
3.7471
3.76983
3.78462
3.80645
3.81875
3.83862
3.84718
3.86339
3.86852
3.87665
3.87637
3.87627
3.86998
3.86399
3.85292
3.83631
3.82151
3.7979
3.77676
3.74721
3.72032
3.68544
3.65438
3.61472
3.58113
3.53867
3.50391
3.46107
3.42598
3.38472
3.35133
3.31577
3.28145
3.25237
3.22091
3.19733
3.16999
3.15168
3.12897
3.11689
3.09922
3.09302
3.07954
3.07586
3.06568
3.06291
3.05445
3.05237
3.04707
3.04097
3.03861
3.03108
3.02935
3.0205
3.01882
3.00724
3.00497
2.99076
2.98731
2.97012
2.96531
2.94538
2.93802
2.91537
2.90582
2.88004
2.86969
2.84493
2.82266
2.80189
2.77183
2.75253
2.71463
2.6961
2.65163
2.63241
2.58341
2.5596
2.50662
2.47835
2.42027
2.38756
2.32348
2.28791
2.22453
2.1684
2.11235
2.04179
1.99078
1.90557
1.85975
1.76321
1.72197
1.62083
1.57665
1.47611
1.43218
1.33459
1.29383
1.19852
1.16055
1.07788
1.02888
0.966077
0.910578
0.865492
0.807121
0.777715
0.722928
0.701334
0.655062
0.637842
0.600837
0.587496
0.558758
0.548774
0.527193
0.520069
0.506207
0.498305
0.490868
0.484955
0.481835
0.477559
0.476841
0.474942
0.475345
0.475223
0.478072
0.478955
0.484019
0.486108
0.493219
0.496376
0.50551
0.510017
0.521271
0.528096
0.540334
0.550089
0.563354
0.575823
0.589756
0.604545
0.618474
0.634803
0.647736
0.663901
0.673759
0.685879
0.691392
0.695557
0.696754
4.6734
4.72347
4.6894
4.61792
4.57009
4.50026
4.44081
4.37297
4.31288
4.25191
4.19725
4.14425
4.09643
4.05328
4.0139
3.983
3.95294
3.93242
3.91184
3.89615
3.88344
3.87212
3.86829
3.86617
3.86701
3.86806
3.87441
3.87992
3.89189
3.90022
3.9173
3.92832
3.9487
3.96073
3.98285
3.99553
4.01773
4.03342
4.05008
4.06883
4.08221
4.09997
4.11043
4.1247
4.13026
4.13906
4.14081
4.14395
4.14185
4.14108
4.13404
4.12745
4.1145
4.1024
4.08586
4.06584
4.04678
4.0218
3.99855
3.96961
3.94231
3.90964
3.87902
3.84278
3.80977
3.77113
3.73655
3.69701
3.66159
3.62265
3.588
3.55257
3.51816
3.4873
3.45584
3.42962
3.40247
3.38115
3.35888
3.34312
3.32592
3.31642
3.30491
3.3005
3.29467
3.29314
3.29133
3.29164
3.29213
3.29234
3.29507
3.2964
3.30101
3.30279
3.3084
3.3098
3.3156
3.31668
3.32189
3.32234
3.32655
3.32646
3.32907
3.32839
3.32949
3.32754
3.32844
3.32683
3.32296
3.32204
3.31553
3.31453
3.30505
3.30351
3.29166
3.28929
3.27545
3.27116
3.25504
3.24953
3.23053
3.22355
3.20158
3.1943
3.17373
3.15453
3.1383
3.11115
3.09654
3.06064
3.04655
3.00243
2.98662
2.93614
2.913
2.85623
2.82473
2.75953
2.72074
2.64163
2.59757
2.51897
2.44527
2.37384
2.27951
2.2112
2.09891
2.03411
1.9098
1.84952
1.71924
1.6634
1.53564
1.4826
1.36143
1.31115
1.19878
1.15271
1.05945
1.00587
0.938656
0.882743
0.837961
0.78418
0.758428
0.712452
0.695499
0.660868
0.649384
0.625858
0.618851
0.604585
0.601166
0.594337
0.593679
0.591198
0.59219
0.594274
0.597163
0.603893
0.608972
0.620375
0.627523
0.643105
0.652874
0.67144
0.683523
0.703155
0.715226
0.730956
0.738396
0.743693
0.745242
3.66419
3.91736
3.94333
3.93679
3.94039
3.9261
3.92427
3.90381
3.89678
3.87301
3.86488
3.84457
3.83781
3.82331
3.82053
3.81468
3.81613
3.8165
3.82254
3.83411
3.84381
3.85991
3.87548
3.89616
3.91713
3.93928
3.96316
3.98628
4.01297
4.03772
4.06713
4.09356
4.12452
4.15056
4.18127
4.20543
4.23382
4.2562
4.27829
4.2986
4.31438
4.33005
4.34032
4.34717
4.34765
4.3472
4.3415
4.33535
4.32314
4.3117
4.29438
4.27784
4.25611
4.23493
4.21002
4.18358
4.15676
4.12694
4.09785
4.06579
4.03458
4.00056
3.9676
3.93177
3.89744
3.86026
3.82485
3.78691
3.75076
3.71282
3.67672
3.64054
3.6054
3.57199
3.53922
3.50929
3.48011
3.45432
3.42952
3.40855
3.38864
3.37317
3.35869
3.34885
3.34005
3.33521
3.3325
3.3316
3.33157
3.33258
3.3352
3.33859
3.34363
3.34904
3.35631
3.36316
3.3719
3.37946
3.38925
3.39722
3.40758
3.41578
3.42615
3.43441
3.44453
3.45257
3.46276
3.47144
3.48044
3.48973
3.49792
3.50784
3.51481
3.52546
3.53143
3.54259
3.5482
3.55925
3.56491
3.57595
3.58137
3.59233
3.59722
3.60883
3.6148
3.62246
3.63083
3.63598
3.64582
3.64849
3.65816
3.65976
3.66847
3.66937
3.67561
3.67542
3.67892
3.67692
3.67923
3.67294
3.67465
3.66979
3.6592
3.65643
3.63737
3.63319
3.603
3.59483
3.55185
3.53655
3.47703
3.45025
3.37172
3.3273
3.22862
3.16979
3.04973
2.97691
2.85489
2.73311
2.62077
2.46768
2.35724
2.18831
2.08504
1.90897
1.82262
1.64382
1.5655
1.39869
1.32767
1.18608
1.12715
1.01822
0.974192
0.9004
0.871502
0.82174
0.794529
0.767263
0.744512
0.734303
0.720202
0.716791
0.714207
0.720084
0.727093
0.742008
0.755844
0.773799
0.786017
0.792652
0.794819
2.08572
2.49732
2.57293
2.60327
2.67281
2.70159
2.77021
2.79968
2.86215
2.89018
2.94427
2.96942
3.02148
3.0438
3.10132
3.12353
3.18336
3.20834
3.25968
3.30961
3.35263
3.41298
3.4558
3.51856
3.5651
3.62607
3.67461
3.7335
3.78147
3.84006
3.88738
3.94453
3.99178
4.0454
4.09098
4.1387
4.18059
4.22013
4.25675
4.28718
4.31482
4.33623
4.35431
4.36489
4.36788
4.36651
4.35988
4.34939
4.33341
4.31554
4.29265
4.26896
4.24098
4.21258
4.1814
4.14998
4.11609
4.08243
4.04729
4.01229
3.97638
3.94061
3.9042
3.86837
3.83172
3.79586
3.75908
3.72308
3.68638
3.65017
3.61331
3.57707
3.54262
3.50747