/*--------------------------------*- C++ -*----------------------------------*\
| =========                 |                                                 |
| \\      /  F ield         | OpenFOAM: The Open Source CFD Toolbox           |
|  \\    /   O peration     | Version:  4.1                                   |
|   \\  /    A nd           | Web:      www.OpenFOAM.org                      |
|    \\/     M anipulation  |                                                 |
\*---------------------------------------------------------------------------*/
FoamFile
{
    version     2.0;
    format      ascii;
    class       volScalarField;
    location    "13.5";
    object      p;
}
// * * * * * * * * * * * * * * * * * * * * * * * * * * * * * * * * * * * * * //

dimensions      [0 2 -2 0 0 0 0];

internalField   nonuniform List<scalar> 
204246
(
8.79798
-10.5389
-11.6172
-11.706
-12.4416
-12.7501
-13.4529
-13.8209
-14.2237
-14.5771
-14.9406
-15.2233
-15.4736
-15.5819
-15.6831
-15.6849
-16.85
-17.3538
-17.1466
-17.6302
-17.6269
-17.7799
-17.9061
-18.0862
-18.2362
-18.4337
-18.5879
-18.7651
-18.8518
-18.9858
-19.0328
-19.1178
-19.1077
-19.1515
-19.1549
-20.0279
-20.3988
-19.9865
-20.4344
-20.3515
-20.3557
-20.3537
-20.4163
-20.4527
-20.5294
-20.5283
-20.5857
-20.5616
-20.5771
-20.4774
-20.3753
-20.2176
-21.1242
-21.4757
-20.9945
-21.4281
-21.3235
-21.3176
-21.3147
-21.394
-21.4553
-21.5632
-21.5934
-21.6896
-21.7078
-21.775
-21.731
-21.6883
-21.5901
-22.5214
-23.0159
-22.7388
-23.0693
-23.0154
-23.0599
-23.0685
-23.1007
-23.0376
-23.6405
-23.5609
-23.6209
-23.6311
-23.7054
-23.6619
-23.6148
-23.4962
-24.4732
-24.9711
-24.6703
-24.9984
-24.8935
-24.851
-24.7427
-25.3767
-25.3499
-25.4501
-25.4453
-25.4171
-25.1408
-25.7971
-25.7341
-25.716
-25.6358
-25.6011
-25.534
-26.6129
-26.9892
-26.771
-26.962
-26.6991
-27.3117
-27.2565
-27.3733
-27.4236
-27.4707
-27.3048
-27.8477
-27.5053
-28.0737
-27.936
-27.867
-27.7139
-28.8682
-29.3476
-29.1229
-29.503
-29.1558
-29.8268
-29.8846
-29.9471
-29.795
-30.4484
-30.198
-30.8426
-30.5581
-31.1854
-30.8003
-31.2833
-30.9927
-32.2581
-32.8529
-32.7403
-33.2359
-32.9329
-33.5903
-33.3288
-34.0502
-33.7508
-34.4397
-34.147
-34.8821
-34.9448
-35.0492
-34.9531
-34.8168
-34.4746
-35.6975
-35.9847
-35.3693
-35.5065
-34.8722
-34.3202
-33.5745
-32.7795
-31.6785
-30.4192
-28.753
-26.8476
-24.4802
-21.851
-18.8038
-15.5641
-10.9481
-6.30646
-0.914566
4.9614
11.7837
19.7035
28.2987
38.1019
49.0919
61.7365
76.0931
92.6362
111.332
132.446
155.858
182.136
212.227
251.714
311.702
407.331
535.945
0.627741
-3.44211
-7.1081
-9.51541
-11.132
-12.1664
-12.8999
-13.457
-13.9333
-14.3504
-14.7174
-15.0224
-15.2654
-15.4467
-15.6337
-15.8927
-16.307
-16.7058
-16.9892
-17.2398
-17.4394
-17.6146
-17.7779
-17.9447
-18.1122
-18.2854
-18.4553
-18.6223
-18.7728
-18.9058
-19.0039
-19.0728
-19.1161
-19.1918
-19.3525
-19.632
-19.8774
-20.022
-20.1559
-20.2435
-20.2966
-20.3393
-20.3859
-20.4378
-20.4899
-20.5337
-20.5709
-20.5829
-20.5637
-20.504
-20.4645
-20.5203
-20.7402
-20.945
-21.049
-21.149
-21.2071
-21.2437
-21.2825
-21.3359
-21.4046
-21.4845
-21.5653
-21.6403
-21.6933
-21.7171
-21.709
-21.7323
-21.8544
-22.1338
-22.4253
-22.6244
-22.7818
-22.8836
-22.9499
-23.0004
-23.0643
-23.1729
-23.3422
-23.4772
-23.5706
-23.6323
-23.6576
-23.6518
-23.6739
-23.8013
-24.092
-24.386
-24.5677
-24.6931
-24.7584
-24.8103
-24.9058
-25.0729
-25.2198
-25.3161
-25.368
-25.3893
-25.4355
-25.5763
-25.6664
-25.6759
-25.662
-25.6888
-25.8348
-26.1487
-26.4357
-26.5994
-26.7268
-26.8445
-27.0084
-27.1487
-27.2537
-27.3409
-27.4037
-27.4882
-27.627
-27.7288
-27.8487
-27.8848
-27.915
-28.0696
-28.416
-28.7636
-28.9926
-29.1804
-29.3342
-29.5359
-29.7193
-29.8383
-29.9776
-30.1656
-30.3576
-30.5744
-30.7766
-30.9573
-31.0717
-31.1823
-31.4052
-31.8328
-32.2834
-32.6298
-32.9292
-33.1719
-33.3906
-33.6452
-33.87
-34.1307
-34.3363
-34.6201
-34.8798
-35.2104
-35.3657
-35.5505
-35.4762
-35.673
-35.8776
-36.0847
-36.1605
-36.1244
-36.0407
-35.6275
-35.3051
-34.6564
-33.9661
-32.9663
-31.7434
-30.2029
-28.3773
-26.2529
-23.7429
-20.8523
-17.3534
-13.3942
-8.79923
-3.67926
2.30578
9.13948
16.7159
25.2432
34.6763
45.3503
57.3291
71.0654
86.608
104.227
123.537
144.307
166.161
191.19
227.095
292.541
389.312
-7.8783
-7.27768
-8.19407
-9.46461
-10.7163
-11.7516
-12.5809
-13.2233
-13.7605
-14.209
-14.6014
-14.9282
-15.2035
-15.4457
-15.6883
-15.9691
-16.2605
-16.5485
-16.832
-17.0783
-17.3006
-17.5017
-17.69
-17.8618
-18.0352
-18.202
-18.3721
-18.5356
-18.6993
-18.8429
-18.9703
-19.0636
-19.1563
-19.265
-19.4236
-19.5896
-19.7507
-19.9108
-20.0439
-20.1488
-20.2293
-20.292
-20.3486
-20.4038
-20.457
-20.5125
-20.5551
-20.5852
-20.5786
-20.5673
-20.5743
-20.6444
-20.7351
-20.8368
-20.9502
-21.0442
-21.1165
-21.1748
-21.2307
-21.287
-21.3541
-21.4297
-21.5184
-21.5978
-21.6706
-21.7122
-21.755
-21.8207
-21.9539
-22.1134
-22.2872
-22.4705
-22.6303
-22.7614
-22.8555
-22.9407
-23.0268
-23.1422
-23.2607
-23.3913
-23.5067
-23.6019
-23.6524
-23.7
-23.7679
-23.9071
-24.073
-24.2461
-24.4156
-24.5471
-24.6545
-24.749
-24.8634
-24.9771
-25.1022
-25.2023
-25.2843
-25.3446
-25.4466
-25.5324
-25.6236
-25.6661
-25.7099
-25.788
-25.9391
-26.0995
-26.2616
-26.4241
-26.5777
-26.7308
-26.8649
-27.0039
-27.1182
-27.2359
-27.3107
-27.4241
-27.5383
-27.67
-27.7756
-27.8627
-27.9564
-28.1324
-28.3255
-28.5347
-28.7534
-28.9599
-29.1579
-29.3361
-29.5096
-29.6596
-29.8203
-29.9776
-30.1568
-30.3541
-30.5597
-30.7419
-30.9105
-31.0863
-31.3239
-31.6197
-31.938
-32.2421
-32.5286
-32.7607
-33.008
-33.2395
-33.4865
-33.7129
-33.955
-34.1837
-34.4419
-34.6465
-34.8495
-34.9427
-35.0781
-35.2084
-35.437
-35.5622
-35.5546
-35.4678
-35.2399
-34.9248
-34.4676
-33.8888
-33.1179
-32.1234
-30.8705
-29.3022
-27.4867
-25.3018
-22.8146
-19.8697
-16.5585
-12.7124
-8.32038
-3.23315
2.58341
9.12107
16.5472
24.8708
34.2077
44.6028
56.291
69.4627
84.4744
101.416
120.222
140.259
161.21
183.66
212.344
255.503
312.708
-11.3645
-9.66629
-9.5891
-10.1086
-10.8691
-11.665
-12.4093
-13.0445
-13.5909
-14.0549
-14.4569
-14.8007
-15.0959
-15.3654
-15.628
-15.9004
-16.1678
-16.4329
-16.6919
-16.9369
-17.1654
-17.3776
-17.5797
-17.7596
-17.9409
-18.1107
-18.2844
-18.4479
-18.6146
-18.7615
-18.9027
-19.0178
-19.1385
-19.2639
-19.4131
-19.5511
-19.6918
-19.8338
-19.9664
-20.0834
-20.169
-20.248
-20.3076
-20.3706
-20.42
-20.4819
-20.5176
-20.5627
-20.5544
-20.5771
-20.6001
-20.659
-20.7189
-20.7936
-20.8798
-20.963
-21.044
-21.1021
-21.1671
-21.225
-21.2954
-21.3645
-21.4507
-21.5208
-21.6113
-21.6535
-21.7327
-21.8153
-21.9385
-22.0673
-22.212
-22.3651
-22.5148
-22.6549
-22.763
-22.8733
-22.9713
-23.0868
-23.1858
-23.3219
-23.4144
-23.5395
-23.594
-23.689
-23.7771
-23.9096
-24.0396
-24.1827
-24.3255
-24.4527
-24.586
-24.6781
-24.8104
-24.9024
-25.0364
-25.1104
-25.2254
-25.2809
-25.4037
-25.4698
-25.5856
-25.6312
-25.7155
-25.799
-25.9532
-26.0655
-26.2151
-26.3595
-26.4905
-26.6561
-26.7678
-26.9261
-27.023
-27.1738
-27.2438
-27.3848
-27.478
-27.6216
-27.7166
-27.8439
-27.9505
-28.1474
-28.2915
-28.4765
-28.6727
-28.8467
-29.0711
-29.2367
-29.4451
-29.5857
-29.7878
-29.928
-30.1401
-30.3008
-30.5291
-30.6886
-30.9034
-31.0737
-31.3614
-31.5902
-31.8677
-32.1633
-32.4369
-32.7557
-32.9855
-33.2858
-33.5032
-33.8011
-34.0151
-34.3492
-34.5694
-34.8909
-35.0705
-35.3263
-35.4768
-35.7521
-35.9009
-36.0903
-36.2423
-36.2949
-36.2757
-36.1381
-35.9407
-35.6204
-35.195
-34.6264
-33.8161
-32.7712
-31.3469
-29.5955
-27.4424
-24.9165
-21.9549
-18.5548
-14.629
-10.1376
-4.93808
0.980471
7.66685
15.2139
23.6493
33.0876
43.5978
55.3553
68.4476
82.9823
98.9324
116.334
135.377
157.181
184.467
219.228
257.631
-12.8197
-11.1462
-10.8243
-10.9595
-11.3722
-11.9028
-12.4753
-13.0249
-13.5298
-13.9818
-14.3749
-14.7258
-15.0297
-15.3164
-15.5805
-15.8493
-16.0964
-16.3501
-16.5969
-16.8349
-17.0659
-17.2777
-17.4878
-17.6719
-17.8607
-18.0334
-18.2132
-18.3785
-18.5513
-18.6996
-18.8536
-18.9803
-19.1215
-19.25
-19.398
-19.522
-19.6552
-19.7892
-19.9171
-20.0435
-20.129
-20.2221
-20.2831
-20.3563
-20.3975
-20.4741
-20.4973
-20.5582
-20.5526
-20.596
-20.6125
-20.6746
-20.7086
-20.7781
-20.8484
-20.9039
-21.001
-21.0474
-21.1289
-21.1758
-21.2598
-21.3142
-21.4144
-21.4693
-21.5778
-21.6178
-21.721
-21.7945
-21.9235
-22.0238
-22.1626
-22.302
-22.4304
-22.5828
-22.6847
-22.8188
-22.9135
-23.0427
-23.1357
-23.2806
-23.3644
-23.5008
-23.56
-23.6743
-23.7589
-23.8983
-24.0044
-24.1399
-24.2738
-24.3845
-24.5255
-24.6203
-24.7562
-24.8474
-24.9856
-25.0566
-25.1839
-25.2419
-25.3683
-25.4292
-25.5501
-25.6049
-25.7072
-25.7828
-25.9215
-26.027
-26.1694
-26.3024
-26.423
-26.5792
-26.6945
-26.8539
-26.9458
-27.1036
-27.1799
-27.3292
-27.4237
-27.5679
-27.666
-27.8047
-27.9123
-28.0905
-28.2336
-28.4111
-28.584
-28.7569
-28.966
-29.1214
-29.3325
-29.4806
-29.6874
-29.8353
-30.0495
-30.2098
-30.4363
-30.5968
-30.8117
-31.0003
-31.2649
-31.4816
-31.7494
-32.013
-32.2851
-32.5723
-32.8152
-33.0908
-33.3387
-33.6013
-33.8566
-34.1231
-34.385
-34.6248
-34.8544
-35.0361
-35.2387
-35.4213
-35.6362
-35.8119
-35.9075
-35.934
-35.8641
-35.6908
-35.3891
-34.9314
-34.3516
-33.6067
-32.7704
-31.7298
-30.5096
-28.9958
-27.1836
-24.9948
-22.4146
-19.3772
-15.8557
-11.7801
-7.08924
-1.76597
4.30729
11.2068
19.0226
27.8195
37.6418
48.4763
60.2645
72.8921
86.3326
100.688
116.565
135.323
158.693
186.716
214.684
-13.6049
-12.1091
-11.7675
-11.7462
-11.9516
-12.287
-12.696
-13.1347
-13.5657
-13.9784
-14.3457
-14.6891
-14.9918
-15.2842
-15.546
-15.8108
-16.0443
-16.2876
-16.5253
-16.7581
-16.9883
-17.1964
-17.4094
-17.5954
-17.7888
-17.9641
-18.1484
-18.3165
-18.4943
-18.6453
-18.8106
-18.9441
-19.1016
-19.2307
-19.3842
-19.5008
-19.6304
-19.7582
-19.8803
-20.0177
-20.0974
-20.2002
-20.2616
-20.3414
-20.3874
-20.4614
-20.4894
-20.551
-20.5543
-20.6039
-20.6173
-20.676
-20.7039
-20.7656
-20.8286
-20.8664
-20.9582
-21.0013
-21.0866
-21.1307
-21.2195
-21.2711
-21.3754
-21.426
-21.5369
-21.5834
-21.6955
-21.7654
-21.8939
-21.987
-22.1176
-22.251
-22.3662
-22.5166
-22.6212
-22.7616
-22.8588
-22.9933
-23.09
-23.2344
-23.3222
-23.4598
-23.531
-23.6556
-23.738
-23.8726
-23.9768
-24.107
-24.2306
-24.3367
-24.4722
-24.5693
-24.7007
-24.7965
-24.9318
-25.0076
-25.1361
-25.204
-25.3297
-25.3946
-25.5155
-25.5838
-25.6865
-25.7748
-25.8911
-26.0021
-26.1328
-26.2543
-26.3759
-26.5057
-26.6326
-26.7807
-26.8791
-27.0324
-27.1206
-27.2601
-27.3758
-27.5067
-27.6219
-27.7523
-27.8754
-28.0273
-28.1766
-28.3449
-28.5076
-28.6769
-28.8616
-29.0202
-29.2212
-29.3777
-29.5781
-29.7357
-29.9444
-30.11
-30.3299
-30.4973
-30.7215
-30.907
-31.1641
-31.3704
-31.6298
-31.8885
-32.1525
-32.4475
-32.6958
-32.9965
-33.2416
-33.5472
-33.7956
-34.1172
-34.3733
-34.7025
-34.9359
-35.2753
-35.502
-35.8362
-35.9849
-36.2263
-36.5501
-36.6879
-36.8573
-36.9068
-36.944
-36.9736
-36.832
-36.5332
-35.9682
-35.1749
-34.1041
-32.7638
-31.1088
-29.1308
-26.7807
-24.0389
-20.8517
-17.1882
-12.9564
-8.13949
-2.65157
3.62079
10.7607
18.859
27.9263
37.942
48.7862
60.3332
72.5292
85.438
99.5425
116.03
135.697
158.399
179.932
-14.0887
-12.7621
-12.4631
-12.3996
-12.4957
-12.7073
-12.9911
-13.3292
-13.6781
-14.0371
-14.3662
-14.6895
-14.9801
-15.2691
-15.5253
-15.7864
-16.0091
-16.2429
-16.4718
-16.7001
-16.9287
-17.1305
-17.3453
-17.5305
-17.7268
-17.9035
-18.0906
-18.2599
-18.445
-18.5937
-18.774
-18.903
-19.0803
-19.2053
-19.3709
-19.4844
-19.6132
-19.7401
-19.8587
-19.9923
-20.0795
-20.1812
-20.2483
-20.3321
-20.38
-20.4569
-20.4847
-20.5489
-20.5579
-20.6093
-20.6226
-20.6787
-20.7058
-20.7602
-20.8101
-20.8463
-20.9259
-20.9703
-21.048
-21.0972
-21.1797
-21.2385
-21.3367
-21.3891
-21.4978
-21.5513
-21.664
-21.7347
-21.8602
-21.9556
-22.0804
-22.204
-22.3175
-22.4615
-22.5686
-22.7085
-22.8118
-22.9458
-23.0491
-23.1924
-23.2838
-23.4229
-23.5026
-23.6312
-23.7181
-23.8446
-23.9569
-24.0797
-24.1954
-24.3081
-24.4278
-24.5344
-24.6534
-24.7607
-24.8894
-24.9698
-25.0991
-25.1737
-25.301
-25.3714
-25.4838
-25.5702
-25.6708
-25.7622
-25.8739
-25.9797
-26.1033
-26.2224
-26.3386
-26.461
-26.582
-26.7309
-26.8315
-26.9821
-27.0773
-27.2283
-27.3299
-27.4646
-27.5797
-27.7145
-27.8378
-28.0003
-28.1236
-28.2836
-28.4423
-28.6065
-28.7912
-28.9432
-29.1359
-29.2936
-29.4875
-29.6496
-29.8476
-30.0193
-30.2191
-30.4002
-30.6051
-30.8052
-31.0288
-31.2501
-31.4944
-31.7379
-31.9902
-32.2505
-32.5044
-32.7683
-33.0308
-33.2946
-33.5666
-33.8336
-34.1116
-34.3731
-34.6427
-34.8799
-35.1282
-35.331
-35.595
-35.8306
-36.0075
-36.1298
-36.1701
-36.1242
-35.9777
-35.7397
-35.4793
-35.1383
-34.7756
-34.2714
-33.6028
-32.6882
-31.4973
-29.9773
-28.102
-25.8315
-23.1409
-19.9942
-16.3386
-12.166
-7.38143
-1.89632
4.37604
11.5056
19.5067
28.3568
37.979
48.2862
59.2252
70.8735
83.6153
98.2353
115.064
133.84
151.073
-14.4349
-13.2192
-12.9767
-12.9157
-12.9628
-13.1039
-13.3019
-13.5619
-13.8377
-14.1435
-14.428
-14.7244
-14.9933
-15.2728
-15.5181
-15.7769
-15.9882
-16.2145
-16.4334
-16.6563
-16.8852
-17.0757
-17.2947
-17.4759
-17.6757
-17.8517
-18.0422
-18.2062
-18.4038
-18.5463
-18.7369
-18.8685
-19.0489
-19.1819
-19.3492
-19.4693
-19.5997
-19.7281
-19.8441
-19.9768
-20.0662
-20.1699
-20.2382
-20.3243
-20.3758
-20.4572
-20.4847
-20.5502
-20.5622
-20.6084
-20.6334
-20.6781
-20.7121
-20.7577
-20.798
-20.8384
-20.8989
-20.9488
-21.0152
-21.0706
-21.1421
-21.2081
-21.298
-21.3542
-21.4612
-21.5184
-21.6304
-21.7044
-21.8227
-21.9249
-22.0443
-22.1596
-22.2762
-22.4109
-22.5209
-22.6555
-22.7691
-22.8954
-23.0107
-23.148
-23.244
-23.383
-23.4697
-23.5922
-23.6943
-23.8147
-23.9279
-24.0473
-24.1604
-24.2717
-24.3875
-24.494
-24.6099
-24.7183
-24.8422
-24.9251
-25.0505
-25.1305
-25.253
-25.3281
-25.4443
-25.5265
-25.6305
-25.7263
-25.8378
-25.9346
-26.0558
-26.1695
-26.2837
-26.4058
-26.515
-26.6571
-26.7598
-26.9027
-27.0035
-27.1437
-27.2525
-27.3905
-27.5055
-27.6457
-27.7662
-27.9156
-28.0427
-28.2011
-28.3563
-28.5148
-28.6912
-28.846
-29.0325
-29.1919
-29.3869
-29.549
-29.751
-29.9218
-30.1329
-30.3087
-30.531
-30.7249
-30.9595
-31.1587
-31.3915
-31.6431
-31.9015
-32.1771
-32.4369
-32.7227
-32.9902
-33.2874
-33.5649
-33.8746
-34.1632
-34.485
-34.7837
-35.1146
-35.4139
-35.7378
-36.0067
-36.3109
-36.6298
-36.9345
-37.2295
-37.4778
-37.688
-37.8251
-37.828
-37.6996
-37.3871
-36.9171
-36.2575
-35.407
-34.3188
-32.9698
-31.3064
-29.3001
-26.9067
-24.1009
-20.8216
-17.0589
-12.7333
-7.77461
-2.13308
4.2329
11.3328
19.1615
27.6726
36.8193
46.5951
57.0964
68.6341
81.6648
96.3143
112.242
126.496
-14.6687
-13.5455
-13.3569
-13.3124
-13.3442
-13.4484
-13.5943
-13.7976
-14.0171
-14.2756
-14.518
-14.7858
-15.0273
-15.2935
-15.5224
-15.7788
-15.9783
-16.1989
-16.4102
-16.6217
-16.8533
-17.0308
-17.2532
-17.4293
-17.6349
-17.8044
-18.0016
-18.1623
-18.3588
-18.508
-18.698
-18.8412
-19.0165
-19.1577
-19.326
-19.4532
-19.5886
-19.718
-19.8337
-19.9672
-20.0587
-20.1644
-20.2348
-20.3209
-20.3777
-20.4616
-20.489
-20.5558
-20.5685
-20.6189
-20.6399
-20.6841
-20.7175
-20.7596
-20.7961
-20.8316
-20.8863
-20.9309
-20.9937
-21.0449
-21.1134
-21.1756
-21.2654
-21.3228
-21.4266
-21.4865
-21.5959
-21.672
-21.7891
-21.8866
-22.0053
-22.1175
-22.233
-22.3657
-22.475
-22.6111
-22.7204
-22.8534
-22.9643
-23.1061
-23.2046
-23.3423
-23.4336
-23.5613
-23.6584
-23.7851
-23.8902
-24.0094
-24.1238
-24.2285
-24.3534
-24.451
-24.573
-24.6723
-24.7974
-24.8835
-25.0053
-25.089
-25.2078
-25.2882
-25.4035
-25.4865
-25.5962
-25.6852
-25.7991
-25.8896
-26.0066
-26.1207
-26.2281
-26.3516
-26.4587
-26.5913
-26.6977
-26.8326
-26.9388
-27.0726
-27.1851
-27.3161
-27.4347
-27.57
-27.6936
-27.8319
-27.9598
-28.1139
-28.2666
-28.4196
-28.5837
-28.7346
-28.9069
-29.0632
-29.2347
-29.4075
-29.5912
-29.7699
-29.9587
-30.1437
-30.342
-30.5388
-30.7469
-30.9654
-31.1977
-31.4295
-31.6717
-31.9158
-32.1703
-32.4255
-32.6921
-32.9588
-33.2366
-33.5128
-33.7995
-34.0806
-34.372
-34.6549
-34.9537
-35.2471
-35.5616
-35.8426
-36.0723
-36.2758
-36.4392
-36.6044
-36.7207
-36.7959
-36.8519
-36.8502
-36.8553
-36.7628
-36.5457
-36.1404
-35.5187
-34.6358
-33.4563
-31.9396
-30.0498
-27.7505
-24.9821
-21.7289
-17.9349
-13.55
-8.54664
-2.90254
3.37802
10.2867
17.7998
25.9083
34.6317
44.0887
54.5153
66.1797
79.1165
92.9335
105.078
-14.7902
-13.7759
-13.6348
-13.6117
-13.6446
-13.7321
-13.8497
-14.0144
-14.1955
-14.4125
-14.6226
-14.8605
-15.0766
-15.3239
-15.5368
-15.7831
-15.9771
-16.191
-16.3989
-16.5985
-16.8204
-17.001
-17.2144
-17.393
-17.5936
-17.7661
-17.9595
-18.126
-18.318
-18.4735
-18.6595
-18.8087
-18.9855
-19.1293
-19.2996
-19.4324
-19.5746
-19.705
-19.8225
-19.9576
-20.053
-20.1612
-20.2357
-20.3232
-20.384
-20.4695
-20.5
-20.5691
-20.5819
-20.6369
-20.651
-20.7003
-20.7234
-20.767
-20.804
-20.8267
-20.8872
-20.9183
-20.9824
-21.0237
-21.0946
-21.1465
-21.2361
-21.2936
-21.3911
-21.4539
-21.5585
-21.6382
-21.7515
-21.8449
-21.9593
-22.0743
-22.1849
-22.3157
-22.4268
-22.5594
-22.6704
-22.801
-22.9128
-23.0505
-23.1555
-23.2907
-23.3888
-23.5173
-23.6162
-23.7391
-23.8419
-23.9611
-24.0761
-24.1791
-24.3021
-24.4014
-24.5218
-24.619
-24.7418
-24.8318
-24.951
-25.038
-25.1537
-25.2381
-25.352
-25.4379
-25.548
-25.6372
-25.7494
-25.8376
-25.9525
-26.0641
-26.1708
-26.2948
-26.3989
-26.5285
-26.6327
-26.7654
-26.871
-27.0093
-27.1202
-27.2555
-27.3707
-27.5114
-27.632
-27.7761
-27.8947
-28.0437
-28.1955
-28.3467
-28.5099
-28.6639
-28.8505
-29.0011
-29.2007
-29.3548
-29.5461
-29.7138
-29.9117
-30.0933
-30.3029
-30.4981
-30.7137
-30.9105
-31.1323
-31.3724
-31.6204
-31.8807
-32.1385
-32.4147
-32.6832
-32.9744
-33.2577
-33.5649
-33.8631
-34.1851
-34.4969
-34.8334
-35.1575
-35.5036
-35.8299
-36.1832
-36.55
-36.9118
-37.2714
-37.6021
-37.8998
-38.1253
-38.2711
-38.3277
-38.2788
-38.1394
-37.9014
-37.5593
-37.0841
-36.4348
-35.5673
-34.4331
-32.9805
-31.1531
-28.8865
-26.1568
-22.9157
-19.124
-14.7663
-9.83143
-4.32951
1.7302
8.33617
15.5018
23.2704
31.766
41.1713
51.6539
63.2124
75.4184
86.0214
-14.8178
-13.9277
-13.8308
-13.8323
-13.8737
-13.9567
-14.0594
-14.2008
-14.3557
-14.541
-14.7272
-14.9358
-15.1343
-15.358
-15.5564
-15.7867
-15.9751
-16.1862
-16.3873
-16.5819
-16.795
-16.9709
-17.1812
-17.3561
-17.556
-17.7261
-17.9198
-18.0837
-18.2789
-18.4312
-18.6213
-18.7671
-18.9503
-19.0905
-19.2615
-19.4001
-19.5492
-19.68
-19.803
-19.9374
-20.0383
-20.15
-20.2309
-20.322
-20.3874
-20.4738
-20.5113
-20.5822
-20.6013
-20.6569
-20.6746
-20.7222
-20.7404
-20.782
-20.8164
-20.8355
-20.8915
-20.9207
-20.9782
-21.0162
-21.0813
-21.1294
-21.2111
-21.267
-21.3595
-21.4226
-21.5234
-21.607
-21.7084
-21.8021
-21.9097
-22.0219
-22.1384
-22.2603
-22.3768
-22.502
-22.6197
-22.7452
-22.8606
-22.9951
-23.1021
-23.235
-23.3374
-23.4653
-23.5713
-23.6871
-23.793
-23.9072
-24.0213
-24.1335
-24.2496
-24.3522
-24.468
-24.567
-24.6847
-24.7783
-24.8935
-24.9841
-25.0957
-25.1826
-25.2948
-25.3847
-25.4921
-25.5841
-25.6898
-25.7784
-25.8897
-25.9979
-26.1077
-26.2238
-26.327
-26.4515
-26.5554
-26.6822
-26.7877
-26.9167
-27.0315
-27.1596
-27.278
-27.4107
-27.5336
-27.6669
-27.7875
-27.9325
-28.0819
-28.2375
-28.3899
-28.5342
-28.6871
-28.84
-29.0015
-29.1697
-29.3471
-29.5303
-29.7139
-29.9016
-30.0924
-30.2883
-30.488
-30.697
-30.9163
-31.1393
-31.3715
-31.6075
-31.8548
-32.1058
-32.3689
-32.636
-32.9154
-33.1983
-33.4932
-33.7907
-34.0999
-34.4115
-34.737
-35.0674
-35.4145
-35.7613
-36.0964
-36.4278
-36.7457
-37.0623
-37.3684
-37.7031
-38.0326
-38.3376
-38.5946
-38.7563
-38.8036
-38.7214
-38.4972
-38.1184
-37.5548
-36.769
-35.7107
-34.3245
-32.5417
-30.3299
-27.6411
-24.4436
-20.7276
-16.4883
-11.7365
-6.47957
-0.720458
5.56509
12.4417
20.0372
28.5036
37.958
48.3808
59.3264
68.7635
-14.7773
-14.0127
-13.9597
-13.9876
-14.041
-14.1263
-14.2219
-14.3501
-14.4871
-14.6511
-14.8175
-15.0045
-15.1873
-15.3884
-15.5754
-15.7852
-15.971
-16.1764
-16.3713
-16.5614
-16.7602
-16.9397
-17.1402
-17.3185
-17.5112
-17.6849
-17.8714
-18.0399
-18.2273
-18.3843
-18.5693
-18.7192
-18.8988
-19.0398
-19.2077
-19.3523
-19.5035
-19.6374
-19.7639
-19.8963
-20.003
-20.1179
-20.2053
-20.3006
-20.3719
-20.4599
-20.5052
-20.5781
-20.6056
-20.6629
-20.6887
-20.736
-20.7601
-20.7977
-20.8299
-20.8541
-20.9052
-20.9368
-20.9835
-21.0239
-21.0799
-21.1299
-21.1985
-21.2574
-21.3365
-21.4047
-21.4947
-21.5781
-21.6741
-21.765
-21.868
-21.9769
-22.0915
-22.2103
-22.3273
-22.4504
-22.5682
-22.6932
-22.8119
-22.9386
-23.0543
-23.1787
-23.2909
-23.4123
-23.5239
-23.6393
-23.7453
-23.8571
-23.9711
-24.0853
-24.1989
-24.3066
-24.418
-24.5227
-24.6338
-24.734
-24.8432
-24.9406
-25.0473
-25.1375
-25.2497
-25.3411
-25.4446
-25.5419
-25.6449
-25.7337
-25.8392
-25.9478
-26.0572
-26.1697
-26.275
-26.4043
-26.5049
-26.64
-26.7389
-26.8705
-26.9805
-27.1099
-27.227
-27.3618
-27.485
-27.6195
-27.7374
-27.8784
-28.0237
-28.1726
-28.3284
-28.4809
-28.653
-28.8025
-28.9886
-29.1367
-29.3216
-29.4849
-29.6675
-29.8488
-30.0463
-30.2377
-30.4437
-30.6374
-30.8508
-31.0781
-31.3139
-31.5608
-31.8089
-32.0721
-32.3335
-32.6136
-32.8926
-33.1913
-33.4887
-33.8058
-34.1217
-34.4579
-34.7944
-35.1518
-35.5082
-35.8868
-36.2737
-36.6587
-37.0408
-37.4103
-37.7702
-38.1085
-38.4388
-38.7532
-39.052
-39.3204
-39.5361
-39.6684
-39.6947
-39.5933
-39.3387
-38.8963
-38.2207
-37.2582
-35.9438
-34.2376
-32.0929
-29.4797
-26.3917
-22.827
-18.7977
-14.3087
-9.35812
-3.91349
2.10108
8.82914
16.4162
24.9584
34.4232
44.3605
52.9003
-14.6821
-14.0476
-14.0353
-14.0889
-14.1552
-14.246
-14.3403
-14.461
-14.586
-14.7354
-14.8863
-15.0571
-15.2251
-15.4098
-15.5851
-15.779
-15.9585
-16.1551
-16.3441
-16.5296
-16.7197
-16.8977
-17.0918
-17.27
-17.4583
-17.6324
-17.8151
-17.9842
-18.1651
-18.3259
-18.5037
-18.6585
-18.8302
-18.976
-19.1403
-19.2867
-19.438
-19.5758
-19.7038
-19.8363
-19.9472
-20.0646
-20.1578
-20.2573
-20.3335
-20.4232
-20.4751
-20.5499
-20.5865
-20.6464
-20.6803
-20.7282
-20.7604
-20.7997
-20.832
-20.863
-20.9095
-20.9434
-20.9884
-21.028
-21.0811
-21.1302
-21.1949
-21.2512
-21.3252
-21.3906
-21.476
-21.5556
-21.6488
-21.736
-21.8357
-21.9404
-22.0505
-22.1668
-22.282
-22.4041
-22.5201
-22.6452
-22.7638
-22.8905
-23.0062
-23.1309
-23.2435
-23.3655
-23.477
-23.5938
-23.6999
-23.812
-23.924
-24.0374
-24.1496
-24.259
-24.3699
-24.474
-24.5828
-24.6834
-24.7901
-24.8875
-24.9891
-25.0828
-25.1856
-25.2825
-25.3842
-25.4817
-25.5808
-25.6743
-25.7759
-25.8794
-25.988
-26.0967
-26.206
-26.3176
-26.425
-26.5387
-26.6507
-26.7706
-26.8862
-27.0079
-27.1296
-27.2571
-27.3827
-27.5081
-27.6263
-27.7638
-27.9021
-28.0484
-28.1964
-28.3472
-28.4961
-28.6444
-28.8059
-28.9626
-29.1376
-29.3107
-29.4881
-29.6694
-29.8553
-30.0446
-30.2371
-30.4363
-30.6467
-30.8622
-31.087
-31.3173
-31.5571
-31.8036
-32.0601
-32.3249
-32.6006
-32.8858
-33.1822
-33.4884
-33.8057
-34.1329
-34.4726
-34.8256
-35.1959
-35.5855
-35.9865
-36.4035
-36.831
-37.2674
-37.7049
-38.14
-38.5671
-38.9858
-39.3915
-39.7766
-40.1311
-40.4391
-40.6818
-40.8354
-40.8749
-40.7663
-40.4664
-39.9214
-39.0686
-37.8606
-36.2509
-34.2093
-31.7297
-28.8131
-25.4746
-21.7218
-17.5516
-12.9274
-7.76335
-1.90015
4.83036
12.5297
21.1595
30.2739
38.1246
-14.5172
-14.049
-14.0726
-14.1436
-14.2243
-14.3206
-14.4175
-14.5341
-14.6523
-14.7913
-14.931
-15.0889
-15.2446
-15.4166
-15.5816
-15.7628
-15.9335
-16.1213
-16.3033
-16.4837
-16.6686
-16.8438
-17.032
-17.2081
-17.3932
-17.5662
-17.7467
-17.9148
-18.0924
-18.2534
-18.4275
-18.5831
-18.7512
-18.8985
-19.0608
-19.2065
-19.3573
-19.4981
-19.6282
-19.7611
-19.8759
-19.9954
-20.0939
-20.1967
-20.2779
-20.3693
-20.4293
-20.5062
-20.5514
-20.6129
-20.6546
-20.7052
-20.7425
-20.7862
-20.8229
-20.8581
-20.9024
-20.9384
-20.9849
-21.0245
-21.0765
-21.1246
-21.1873
-21.2422
-21.3137
-21.3768
-21.4587
-21.5349
-21.626
-21.7107
-21.8082
-21.9091
-22.0147
-22.1281
-22.2402
-22.3612
-22.4752
-22.6
-22.7175
-22.8457
-22.9608
-23.0875
-23.1995
-23.3237
-23.4355
-23.5549
-23.6615
-23.7748
-23.8875
-24.0002
-24.1146
-24.2236
-24.3372
-24.4412
-24.5532
-24.6526
-24.7627
-24.8588
-24.9645
-25.0564
-25.1594
-25.253
-25.356
-25.4516
-25.5526
-25.6436
-25.7433
-25.8444
-25.9488
-26.0567
-26.1674
-26.2824
-26.3876
-26.5039
-26.6097
-26.7277
-26.839
-26.9611
-27.0798
-27.2083
-27.3312
-27.4606
-27.5811
-27.7124
-27.8491
-27.991
-28.1396
-28.2904
-28.4495
-28.6003
-28.7638
-28.9163
-29.084
-29.2465
-29.4232
-29.5986
-29.7864
-29.9715
-30.1682
-30.3546
-30.5572
-30.7712
-30.9939
-31.2269
-31.463
-31.7117
-31.9618
-32.2275
-32.4962
-32.7823
-33.0727
-33.3813
-33.6949
-34.0263
-34.3626
-34.7162
-35.0761
-35.459
-35.8595
-36.2783
-36.7156
-37.1691
-37.6377
-38.1172
-38.6076
-39.1025
-39.5996
-40.0916
-40.573
-41.0332
-41.4604
-41.8372
-42.1421
-42.3448
-42.4046
-42.2678
-41.8726
-41.1612
-40.0828
-38.6025
-36.7121
-34.414
-31.7292
-28.6759
-25.2575
-21.4415
-17.1347
-12.1548
-6.29656
0.577089
8.43707
16.8605
24.2054
-14.3199
-14.012
-14.0746
-14.1592
-14.2539
-14.356
-14.4573
-14.5729
-14.6884
-14.8203
-14.9519
-15.0994
-15.2451
-15.4063
-15.5621
-15.7334
-15.8962
-16.0749
-16.2495
-16.4246
-16.6047
-16.7773
-16.9601
-17.1333
-17.3154
-17.4872
-17.666
-17.8337
-18.0091
-18.1707
-18.3422
-18.4975
-18.6631
-18.8108
-18.9707
-19.1154
-19.2657
-19.4077
-19.5408
-19.6744
-19.7929
-19.9141
-20.0176
-20.1234
-20.2103
-20.3035
-20.3721
-20.4508
-20.5052
-20.5695
-20.6166
-20.6715
-20.7131
-20.7613
-20.8031
-20.8419
-20.8885
-20.9261
-20.9747
-21.0154
-21.0682
-21.1153
-21.1768
-21.2307
-21.3004
-21.3619
-21.4406
-21.5138
-21.6021
-21.685
-21.7814
-21.8789
-21.9806
-22.0907
-22.1994
-22.3179
-22.43
-22.553
-22.6683
-22.7962
-22.9105
-23.038
-23.149
-23.2743
-23.386
-23.5074
-23.6148
-23.7299
-23.8432
-23.9558
-24.072
-24.1801
-24.2954
-24.3996
-24.5137
-24.6128
-24.7253
-24.8215
-24.9304
-25.0224
-25.1271
-25.2196
-25.3227
-25.4178
-25.5199
-25.6105
-25.7101
-25.8089
-25.9104
-26.0158
-26.1232
-26.2357
-26.3391
-26.4529
-26.5572
-26.6717
-26.7795
-26.8962
-27.0105
-27.1322
-27.2508
-27.3747
-27.495
-27.6227
-27.7514
-27.887
-28.0269
-28.1731
-28.3225
-28.471
-28.6271
-28.781
-28.9432
-29.1041
-29.2744
-29.4475
-29.6293
-29.8121
-30.0008
-30.1883
-30.388
-30.5943
-30.811
-31.0359
-31.2687
-31.5097
-31.7561
-32.0146
-32.2801
-32.56
-32.8486
-33.1536
-33.4685
-33.8012
-34.1441
-34.5043
-34.8744
-35.2674
-35.6773
-36.1071
-36.5573
-37.0285
-37.5213
-38.0332
-38.5678
-39.119
-39.6873
-40.2664
-40.8543
-41.443
-42.0263
-42.5937
-43.13
-43.611
-44.002
-44.2527
-44.3039
-44.0862
-43.5393
-42.6168
-41.3029
-39.5985
-37.5287
-35.1268
-32.4167
-29.3834
-25.9434
-21.8927
-16.9644
-10.9529
-3.85913
3.94042
10.9061
-14.1051
-13.9409
-14.038
-14.1392
-14.2479
-14.3573
-14.4646
-14.5814
-14.6969
-14.8244
-14.951
-15.0905
-15.2283
-15.3804
-15.5282
-15.6909
-15.8472
-16.0179
-16.186
-16.3555
-16.5309
-16.7004
-16.8789
-17.0494
-17.2283
-17.3986
-17.5759
-17.7432
-17.9175
-18.0792
-18.249
-18.4042
-18.5678
-18.716
-18.8736
-19.0173
-19.1675
-19.3097
-19.4445
-19.5801
-19.7015
-19.825
-19.9327
-20.042
-20.1344
-20.2304
-20.3063
-20.3884
-20.4501
-20.5194
-20.5712
-20.6302
-20.6755
-20.728
-20.7748
-20.8171
-20.8671
-20.9075
-20.9585
-21.0012
-21.0555
-21.103
-21.1644
-21.2176
-21.2864
-21.3462
-21.4228
-21.4927
-21.5784
-21.6589
-21.7537
-21.8493
-21.948
-22.0557
-22.1612
-22.2772
-22.3875
-22.5079
-22.6213
-22.7463
-22.8605
-22.9868
-23.0973
-23.2223
-23.3338
-23.4557
-23.5642
-23.6809
-23.7945
-23.9068
-24.0236
-24.1318
-24.2482
-24.3521
-24.4687
-24.5665
-24.6824
-24.7775
-24.8905
-24.9813
-25.0903
-25.1824
-25.2862
-25.3807
-25.4853
-25.5762
-25.6781
-25.7781
-25.8794
-25.9866
-26.0902
-26.2055
-26.3074
-26.4249
-26.5278
-26.6463
-26.7533
-26.8722
-26.9841
-27.1073
-27.2235
-27.3494
-27.4655
-27.5937
-27.7231
-27.8553
-27.9941
-28.1345
-28.2847
-28.4261
-28.582
-28.7276
-28.8877
-29.0413
-29.2078
-29.3725
-29.5495
-29.7243
-29.9092
-30.087
-30.2801
-30.4797
-30.6878
-30.9048
-31.1298
-31.3641
-31.6008
-31.8524
-32.1075
-32.38
-32.6584
-32.9558
-33.2621
-33.5891
-33.926
-34.2835
-34.6513
-35.0454
-35.4591
-35.8947
-36.3543
-36.8382
-37.3485
-37.8823
-38.4479
-39.0387
-39.6592
-40.3031
-40.9732
-41.6649
-42.3774
-43.1045
-43.838
-44.5577
-45.2395
-45.8409
-46.3115
-46.5732
-46.556
-46.1947
-45.4582
-44.3385
-42.8566
-41.053
-38.9811
-36.6651
-34.0651
-30.9921
-27.1076
-22.0739
-15.8405
-8.68417
-2.08261
-13.8744
-13.8309
-13.9615
-14.0829
-14.2063
-14.3254
-14.44
-14.5596
-14.6772
-14.803
-14.9274
-15.0622
-15.1945
-15.3396
-15.4809
-15.6361
-15.7875
-15.9516
-16.1148
-16.2796
-16.4504
-16.617
-16.7915
-16.9597
-17.1357
-17.3047
-17.4804
-17.6476
-17.8208
-17.9828
-18.1511
-18.3062
-18.4684
-18.6167
-18.7729
-18.916
-19.0657
-19.2082
-19.344
-19.4813
-19.6054
-19.7317
-19.8431
-19.9561
-20.0536
-20.154
-20.2361
-20.3228
-20.3903
-20.4638
-20.5205
-20.5833
-20.6328
-20.689
-20.7403
-20.7863
-20.8396
-20.8833
-20.9367
-20.9819
-21.0377
-21.0866
-21.1484
-21.2018
-21.2701
-21.3291
-21.4036
-21.471
-21.5536
-21.6317
-21.7241
-21.818
-21.9143
-22.02
-22.123
-22.2367
-22.3453
-22.4641
-22.5759
-22.6984
-22.8111
-22.9352
-23.0463
-23.169
-23.2801
-23.4009
-23.5106
-23.6287
-23.7426
-23.8548
-23.9713
-24.0805
-24.1964
-24.3023
-24.418
-24.5183
-24.6334
-24.7309
-24.8438
-24.9374
-25.0465
-25.1396
-25.2437
-25.3368
-25.4414
-25.5325
-25.6367
-25.7371
-25.8373
-25.9447
-26.0441
-26.1599
-26.2581
-26.3776
-26.477
-26.599
-26.7049
-26.8249
-26.9338
-27.0575
-27.1716
-27.2981
-27.4102
-27.5416
-27.6719
-27.803
-27.9424
-28.0788
-28.2295
-28.3682
-28.5251
-28.6679
-28.8289
-28.9798
-29.145
-29.3054
-29.4796
-29.6495
-29.8329
-30.0049
-30.1953
-30.3895
-30.59
-30.7999
-31.0154
-31.2443
-31.472
-31.7173
-31.9636
-32.228
-32.4954
-32.783
-33.077
-33.3939
-33.7198
-34.0692
-34.4285
-34.817
-35.2255
-35.6583
-36.1179
-36.6062
-37.1262
-37.6725
-38.2598
-38.8762
-39.5348
-40.2237
-40.9553
-41.7226
-42.5361
-43.3864
-44.2741
-45.183
-46.0996
-46.9953
-47.835
-48.5405
-49.0426
-49.2545
-49.1184
-48.6001
-47.7018
-46.4532
-44.9313
-43.2206
-41.3611
-39.256
-36.5627
-32.7587
-27.6316
-21.2984
-15.1199
-13.6212
-13.6803
-13.8468
-13.99
-14.1284
-14.2576
-14.3809
-14.5049
-14.6274
-14.7546
-14.8792
-15.0129
-15.1423
-15.283
-15.42
-15.5689
-15.7182