/*--------------------------------*- C++ -*----------------------------------*\
| =========                 |                                                 |
| \\      /  F ield         | OpenFOAM: The Open Source CFD Toolbox           |
|  \\    /   O peration     | Version:  4.1                                   |
|   \\  /    A nd           | Web:      www.OpenFOAM.org                      |
|    \\/     M anipulation  |                                                 |
\*---------------------------------------------------------------------------*/
FoamFile
{
    version     2.0;
    format      ascii;
    class       volScalarField;
    location    "8";
    object      epsilon;
}
// * * * * * * * * * * * * * * * * * * * * * * * * * * * * * * * * * * * * * //

dimensions      [0 2 -3 0 0 0 0];

internalField   nonuniform List<scalar> 
204246
(
0.573772
0.657526
0.658004
0.659263
0.659203
0.660162
0.660355
0.661412
0.661488
0.662693
0.663143
0.664391
0.665042
0.666872
0.667955
0.669532
0.671323
0.670906
0.676092
0.681002
0.6905
0.709696
0.741496
0.810172
0.943482
1.21017
1.69148
2.44852
3.2426
3.52683
3.63724
3.67156
3.70135
3.71207
3.72234
3.71074
3.69293
3.68698
3.65002
3.63277
3.58654
3.56105
3.53025
3.50652
3.48974
3.48172
3.47198
3.47351
3.4684
3.47474
3.48013
3.48965
3.50242
3.50521
3.53082
3.54556
3.56145
3.58708
3.60513
3.63426
3.65531
3.68642
3.71319
3.7463
3.77426
3.80779
3.83495
3.86888
3.89712
3.92923
3.94789
3.99713
4.01152
4.05504
4.06723
4.10884
4.11982
4.16043
4.16889
4.21384
4.22343
4.26619
4.27805
4.31706
4.33273
4.37037
4.38886
4.41245
4.45425
4.47486
4.51156
4.53535
4.5716
4.59431
4.63574
4.66215
4.70043
4.73128
4.76756
4.80282
4.83491
4.87437
4.90672
4.94591
4.98071
5.01816
5.04478
5.10564
5.12625
5.18247
5.20432
5.26444
5.29231
5.3455
5.38412
5.43158
5.47198
5.52051
5.56337
5.61235
5.65871
5.70835
5.75739
5.79139
5.87121
5.89771
5.97313
6.00463
6.07889
6.11553
6.18867
6.22839
6.30206
6.34442
6.41942
6.46412
6.53988
6.58694
6.66451
6.71381
6.77333
6.86065
6.90604
6.99255
7.03975
7.12781
7.17532
7.266
7.31375
7.40702
7.45473
7.55057
7.59779
7.69612
7.74308
7.84452
7.89103
7.97099
8.06192
8.1202
8.21219
8.26866
8.36396
8.41791
8.51674
8.56771
8.67123
8.71835
8.827
8.87103
8.98674
9.02675
9.15158
9.18873
9.32725
9.35846
9.48554
9.58237
9.67108
9.79593
9.87984
10.0347
10.1231
10.3121
10.417
10.6455
10.7816
11.0557
11.2379
11.533
11.7223
11.8861
11.9069
0.0496925
0.113147
0.111042
0.109899
0.111926
0.110454
0.11261
0.111798
0.114601
0.114023
0.117386
0.116984
0.120532
0.119759
0.123919
0.123229
0.129638
0.130771
0.140218
0.156699
0.180051
0.239059
0.328606
0.522474
0.850352
1.43062
2.05999
2.24622
2.23006
1.90107
1.33707
1.06102
0.943577
0.900179
0.804719
0.772383
0.745171
0.729111
0.732501
0.709339
0.717722
0.713757
0.73584
0.741623
0.772894
0.780021
0.805703
0.809206
0.829444
0.830176
0.843981
0.844176
0.8532
0.853165
0.857625
0.866871
0.871244
0.883333
0.894132
0.911188
0.920579
0.936753
0.935606
0.956823
0.95404
0.976688
0.97383
0.99655
0.995721
1.01862
1.01791
1.01934
1.03564
1.03258
1.04767
1.04416
1.05951
1.05646
1.07378
1.06973
1.09017
1.0855
1.10695
1.10273
1.12472
1.12386
1.14896
1.15032
1.158
1.17932
1.17931
1.20456
1.20433
1.23104
1.22947
1.25738
1.25461
1.28349
1.28087
1.31087
1.30856
1.33977
1.34151
1.37378
1.3762
1.41094
1.41277
1.4373
1.46375
1.46744
1.5036
1.50487
1.5437
1.5436
1.5844
1.58471
1.62832
1.63187
1.67652
1.68105
1.72721
1.73207
1.78348
1.79175
1.82501
1.86532
1.8725
1.92696
1.93549
1.99091
1.99925
2.05887
2.06894
2.1311
2.14232
2.20766
2.21991
2.28855
2.30227
2.3774
2.39506
2.44577
2.5077
2.52395
2.60386
2.62199
2.70485
2.7239
2.81041
2.83076
2.92123
2.94306
3.03544
3.05746
3.15387
3.17741
3.28271
3.31104
3.37995
3.4664
3.49148
3.59488
3.61965
3.7239
3.74877
3.85196
3.8761
3.97761
4.00025
4.09896
4.12047
4.21586
4.23576
4.33039
4.35484
4.44431
4.46686
4.50576
4.57525
4.58027
4.64806
4.64548
4.69768
4.68802
4.72472
4.70902
4.74555
4.73328
4.87199
4.99906
5.48107
5.77012
5.918
0.00487755
0.0109248
0.0101578
0.00969379
0.0100004
0.00977027
0.0102169
0.0101419
0.0107343
0.0107078
0.0114472
0.0114779
0.0125074
0.012669
0.0145328
0.015407
0.0192587
0.0233811
0.0333748
0.0499447
0.0814101
0.140285
0.248285
0.44989
0.806135
1.38576
1.7958
1.84796
1.58602
0.979865
0.628519
0.527289
0.495909
0.492241
0.490851
0.497611
0.507138
0.518114
0.527199
0.532827
0.549186
0.562127
0.587807
0.610898
0.646505
0.674484
0.710407
0.736248
0.768356
0.787748
0.811492
0.825162
0.842187
0.852085
0.864074
0.870913
0.877651
0.881682
0.887232
0.892224
0.897045
0.902705
0.907867
0.913839
0.920001
0.927741
0.935831
0.94399
0.95318
0.961751
0.970963
0.978475
0.988512
0.995975
1.00482
1.01265
1.02064
1.02907
1.03693
1.0459
1.05343
1.06394
1.07168
1.08337
1.09168
1.10415
1.11277
1.12518
1.13293
1.14528
1.15346
1.16559
1.17492
1.1867
1.19681
1.20841
1.21937
1.23095
1.24288
1.25437
1.26717
1.27888
1.29242
1.30486
1.31913
1.33229
1.34655
1.35908
1.37421
1.38662
1.40232
1.41494
1.43106
1.4439
1.46075
1.47382
1.49144
1.50485
1.52313
1.53669
1.55569
1.56933
1.58993
1.60319
1.62126
1.63797
1.65282
1.67257
1.68551
1.70683
1.71845
1.74147
1.7517
1.77552
1.78506
1.80894
1.81802
1.84204
1.85085
1.87497
1.88326
1.90105
1.91574
1.92465
1.94322
1.94803
1.96596
1.96911
1.9848
1.98613
1.99923
1.99863
2.0075
2.00429
2.00901
2.00305
2.007
1.99462
1.98772
1.9847
1.96285
1.96128
1.93113
1.927
1.89072
1.88432
1.84299
1.83527
1.79029
1.78161
1.73346
1.72435
1.6733
1.66368
1.61357
1.60449
1.55058
1.52654
1.50716
1.46487
1.45895
1.41269
1.40802
1.3648
1.36217
1.32604
1.3274
1.30761
1.31724
1.30549
1.31345
1.19798
1.1548
0.000708245
0.00123142
0.00115769
0.00111381
0.0011365
0.00111549
0.00115886
0.0011541
0.00123002
0.00124157
0.00138544
0.00144709
0.00173229
0.00198577
0.0027333
0.00379225
0.00618441
0.0103878
0.0188838
0.0349832
0.0658954
0.124303
0.231822
0.423905
0.74388
1.20136
1.40044
1.40864
1.16926
0.665291
0.440792
0.38106
0.363999
0.36135
0.357374
0.347587
0.332256
0.325783
0.323527
0.319558
0.320504
0.324774
0.343998
0.370737
0.412433
0.455
0.512986
0.561235
0.624509
0.674195
0.740078
0.783723
0.834749
0.862455
0.900646
0.92477
0.950227
0.965537
0.980598
0.99708
1.00871
1.02326
1.03162
1.044
1.05163
1.06244
1.07191
1.08182
1.09121
1.09949
1.10864
1.1176
1.12431
1.13433
1.13898
1.14775
1.15146
1.15884
1.16193
1.16851
1.17107
1.17814
1.18111
1.18954
1.19346
1.20299
1.2076
1.21703
1.22262
1.23003
1.23636
1.24281
1.24969
1.2553
1.26252
1.26751
1.27502
1.27969
1.2873
1.29166
1.29925
1.30371
1.31108
1.31605
1.3231
1.32832
1.33462
1.33995
1.34562
1.35054
1.35632
1.3604
1.36668
1.36972
1.37637
1.37842
1.38478
1.38669
1.39229
1.39368
1.39878
1.39949
1.40399
1.40391
1.40474
1.40665
1.4051
1.40643
1.40317
1.40397
1.3985
1.39873
1.39067
1.39009
1.37926
1.37767
1.36405
1.36128
1.3451
1.34134
1.32056
1.31076
1.29606
1.27699
1.26644
1.2398
1.23085
1.19933
1.18897
1.15441
1.14275
1.10524
1.09229
1.05197
1.03779
0.99584
0.981214
0.935354
0.913485
0.880672
0.847641
0.824521
0.783205
0.767569
0.723856
0.708749
0.666912
0.652802
0.614762
0.601956
0.567762
0.556577
0.526369
0.516852
0.490446
0.482484
0.459423
0.449223
0.43509
0.422642
0.414349
0.399693
0.395529
0.380947
0.37758
0.368197
0.36791
0.367528
0.381242
0.393627
0.416744
0.424409
0.430198
0.000710717
0.000712819
0.000708567
0.000706462
0.000707642
0.000707046
0.000711464
0.0007144
0.000726663
0.000739318
0.000774207
0.000827635
0.000948759
0.00116871
0.00163151
0.00252122
0.00432964
0.00789195
0.0149664
0.0288503
0.0556968
0.106851
0.200912
0.36682
0.635424
0.983492
1.11144
1.11205
0.92599
0.53185
0.30274
0.229731
0.196448
0.181633
0.169377
0.153595
0.131542
0.123086
0.120971
0.11943
0.120918
0.127209
0.147819
0.179004
0.219808
0.257629
0.292707
0.322917
0.354956
0.386497
0.426254
0.476643
0.548158
0.627044
0.710304
0.79273
0.850447
0.900651
0.931076
0.971707
0.997546
1.02931
1.04592
1.07054
1.08332
1.10316
1.11347
1.12985
1.13791
1.14994
1.15584
1.16473
1.16917
1.17634
1.17984
1.18452
1.18649
1.18747
1.18759
1.18713
1.185
1.1826
1.17908
1.17698
1.17538
1.17475
1.17502
1.1752
1.17568
1.177
1.17706
1.17816
1.17785
1.17835
1.17704
1.17746
1.17506
1.17524
1.17173
1.17162
1.16681
1.16605
1.16063
1.15945
1.15307
1.15152
1.14283
1.13906
1.13335
1.12579
1.12177
1.11102
1.10811
1.09517
1.09174
1.07719
1.07272
1.05752
1.05225
1.03575
1.02988
1.01192
1.00563
0.98498
0.975036
0.959512
0.943373
0.931073
0.909637
0.899853
0.874724
0.865393
0.838295
0.828362
0.800065
0.789694
0.760406
0.749597
0.719838
0.708851
0.677748
0.662921
0.639618
0.618938
0.601225
0.575934
0.563327
0.53561
0.525229
0.497794
0.487938
0.461991
0.452759
0.428524
0.42005
0.397914
0.390349
0.369666
0.360251
0.346861
0.335242
0.327017
0.314145
0.309648
0.297835
0.294294
0.284787
0.282144
0.274657
0.27276
0.267182
0.266034
0.262229
0.261808
0.259581
0.2598
0.259023
0.259035
0.260873
0.261077
0.264032
0.264691
0.267657
0.268284
0.270592
0.270959
0.274264
0.275551
0.28288
0.287735
0.296894
0.300574
0.303217
0.000689811
0.000691691
0.000690867
0.000690642
0.000690666
0.000690966
0.00069215
0.000694226
0.000698635
0.000707118
0.00072517
0.000761979
0.00083992
0.00100064
0.00133602
0.00202037
0.00342503
0.00627524
0.0120051
0.0234144
0.0456335
0.088146
0.166196
0.303413
0.524354
0.812541
0.921746
0.925153
0.791413
0.488063
0.226322
0.134664
0.0934802
0.0739675
0.0629387
0.055314
0.0494282
0.0482289
0.0496728
0.0567843
0.0748722
0.103497
0.145514
0.199554
0.264521
0.319709
0.339546
0.348008
0.348882
0.348076
0.333624
0.322679
0.319877
0.326565
0.356435
0.411731
0.485602
0.573078
0.657962
0.743491
0.807791
0.866284
0.905424
0.951768
0.981088
1.01868
1.03644
1.06292
1.07494
1.09228
1.09939
1.10765
1.11201
1.11487
1.11651
1.11638
1.11637
1.11337
1.10986
1.10146
1.09426
1.08082
1.07109
1.05496
1.04511
1.02952
1.02143
1.00733
0.999452
0.990737
0.981743
0.976293
0.966368
0.962244
0.950123
0.946037
0.932009
0.927266
0.911849
0.906533
0.88983
0.883624
0.86644
0.859603
0.841476
0.834208
0.814052
0.804544
0.788263
0.77456
0.760743
0.743002
0.732323
0.71085
0.702569
0.679371
0.670516
0.647731
0.638591
0.615849
0.606726
0.584127
0.575101
0.551627
0.540542
0.522703
0.507677
0.494035
0.475736
0.46578
0.44559
0.43772
0.417504
0.409999
0.390783
0.383738
0.365644
0.359039
0.342274
0.336204
0.320202
0.312791
0.301868
0.292691
0.285128
0.274621
0.270025
0.259419
0.255683
0.246079
0.242818
0.234384
0.231564
0.224253
0.221867
0.215633
0.213667
0.208158
0.205731
0.202618
0.19977
0.1981
0.195222
0.194363
0.192075
0.191551
0.190028
0.189837
0.189138
0.189302
0.189188
0.190157
0.190368
0.192175
0.192803
0.19537
0.196429
0.199561
0.201583
0.205086
0.208065
0.211966
0.215902
0.220268
0.225194
0.230043
0.235891
0.2411
0.24765
0.252861
0.258172
0.260521
0.261852
0.00069149
0.000690848
0.000690531
0.000690184
0.000690078
0.000690055
0.000690316
0.0006912
0.000693341
0.000698043
0.00070845
0.000730977
0.000779912
0.000884197
0.00110671
0.00157173
0.00254577
0.00456125
0.00869062
0.0170884
0.0337583
0.0663017
0.127025
0.235504
0.412629
0.660582
0.780247
0.793213
0.710934
0.489774
0.218254
0.09418
0.0507911
0.0362045
0.0317886
0.0310861
0.031548
0.0358625
0.0479615
0.0713623
0.111641
0.174834
0.264887
0.380408
0.505202
0.623786
0.704606
0.739703
0.747685
0.746519
0.70857
0.632507
0.516464
0.393395
0.304189
0.268909
0.259187
0.259193
0.285898
0.348769
0.43397
0.523014
0.598212
0.672966
0.728534
0.786463
0.822659
0.865476
0.889281
0.91939
0.933393
0.944887
0.949635
0.949913
0.950646
0.948343
0.946927
0.939798
0.934149
0.921088
0.911138
0.891766
0.877922
0.854331
0.838244
0.813278
0.797037
0.772704
0.756202
0.737738
0.720661
0.706797
0.690059
0.679744
0.6622
0.654471
0.634946
0.627303
0.606746
0.598758
0.577578
0.569039
0.548175
0.539391
0.518544
0.509756
0.488185
0.478026
0.460694
0.448096
0.433827
0.418822
0.408239
0.391058
0.383671
0.365941
0.35902
0.342673
0.336118
0.321041
0.315041
0.301189
0.295733
0.282461
0.276477
0.26685
0.259663
0.252693
0.24444
0.239856
0.231162
0.227883
0.219644
0.21673
0.20938
0.206827
0.200326
0.198091
0.19242
0.190499
0.185395
0.183085
0.180011
0.177165
0.175371
0.172368
0.171336
0.168588
0.167773
0.165503
0.164878
0.163066
0.162617
0.161232
0.160951
0.159966
0.159848
0.159237
0.159044
0.159178
0.159068
0.159558
0.159617
0.160543
0.160815
0.162111
0.162596
0.164353
0.165097
0.167335
0.168356
0.171109
0.172433
0.175694
0.177326
0.18106
0.183014
0.187023
0.189639
0.193754
0.19705
0.201304
0.205182
0.209628
0.214097
0.218874
0.223912
0.229013
0.234357
0.239072
0.243113
0.245088
0.246072
0.000690441
0.000690055
0.000689749
0.000689567
0.000689511
0.000689523
0.000689854
0.000690673
0.000692327
0.000695561
0.000702284
0.00071651
0.000747341
0.000813743
0.000957623
0.00126364
0.00191585
0.00328721
0.00614221
0.0120488
0.0239752
0.0477159
0.092879
0.175475
0.314708
0.524625
0.669903
0.69638
0.657002
0.50282
0.263728
0.0996713
0.0449314
0.026844
0.0226195
0.0224666
0.0252367
0.0340295
0.0523997
0.0860632
0.14074
0.21928
0.321594
0.444167
0.579283
0.716454
0.841973
0.942146
0.99416
1.01705
1.02286
1.02031
0.993405
0.935014
0.839598
0.695028
0.515868
0.317955
0.227157
0.193543
0.187611
0.196833
0.240616
0.311554
0.386215
0.455731
0.509707
0.562415
0.602831
0.644009
0.673344
0.700431
0.716029
0.720161
0.72224
0.720893
0.720252
0.714065
0.708926
0.696221
0.686811
0.667391
0.653492
0.629278
0.612591
0.586017
0.567808
0.540657
0.521355
0.499632
0.479819
0.462884
0.444045
0.431654
0.413795
0.405807
0.388239
0.381164
0.364071
0.357268
0.340714
0.333954
0.318577
0.312083
0.297647
0.291546
0.277535
0.271014
0.260127
0.252941
0.24431
0.236405
0.230192
0.221655
0.217642
0.209118
0.205785
0.198301
0.195341
0.188833
0.186283
0.180623
0.178433
0.173264
0.170963
0.167399
0.164849
0.162262
0.159442
0.157779
0.154815
0.153701
0.150922
0.149961
0.147528
0.146712
0.144619
0.143934
0.142164
0.141607
0.140076
0.139398
0.138625
0.13777
0.137483
0.136687
0.136513
0.135924
0.135848
0.135463
0.135473
0.135313
0.135421
0.135377
0.135731
0.13579
0.136408
0.136598
0.137346
0.137939
0.138683
0.139652
0.140494
0.141887
0.142958
0.144745
0.146044
0.148235
0.149841
0.152485
0.154485
0.157644
0.160098
0.163779
0.166723
0.170914
0.174361
0.178948
0.182847
0.187624
0.191801
0.196693
0.201168
0.206186
0.210944
0.216068
0.22104
0.226143
0.230994
0.235411
0.238808
0.240691
0.24152
0.000691296
0.000690778
0.000690382
0.00069015
0.000690028
0.000689948
0.000689967
0.000690227
0.000691021
0.000692686
0.000696219
0.000703707
0.000720131
0.000755982
0.000835122
0.00100635
0.00137885
0.00217618
0.00386871
0.00745312
0.0148756
0.0301463
0.0602718
0.117914
0.220356
0.388076
0.571278
0.623019
0.613744
0.519497
0.339368
0.139418
0.054065
0.027449
0.0198931
0.0186361
0.019859
0.0262306
0.0414339
0.0689613
0.11435
0.182353
0.277485
0.398799
0.545339
0.702979
0.85202
0.961827
1.03567
1.08448
1.11391
1.12083
1.11638
1.09571
1.06239
1.02176
0.9772
0.91305
0.798065
0.599178
0.340925
0.187291
0.144619
0.134265
0.139238
0.167596
0.215178
0.270317
0.318835
0.364155
0.40069
0.433599
0.46273
0.481003
0.490474
0.491664
0.492356
0.489192
0.48603
0.477099
0.470888
0.456571
0.446425
0.427613
0.414928
0.3941
0.379893
0.358273
0.342893
0.325307
0.309641
0.296131
0.281474
0.271833
0.258671
0.25288
0.241151
0.236387
0.226028
0.221845
0.212403
0.208494
0.200057
0.196455
0.188822
0.185561
0.178444
0.175132
0.169693
0.166255
0.161987
0.158513
0.155351
0.151764
0.149674
0.14609
0.144609
0.141476
0.140216
0.137564
0.136517
0.13427
0.133401
0.131408
0.130526
0.129217
0.128247
0.127292
0.126245
0.125663
0.124592
0.124215
0.123261
0.122959
0.12218
0.12196
0.121353
0.12121
0.120787
0.120728
0.120479
0.120407
0.120472
0.120439
0.120679
0.12072
0.121139
0.121268
0.12185
0.122067
0.122814
0.123125
0.12404
0.124453
0.125538
0.126088
0.12735
0.128076
0.129429
0.130445
0.131836
0.133145
0.134674
0.13626
0.137945
0.139847
0.141741
0.144042
0.146232
0.148938
0.151473
0.154616
0.157592
0.16126
0.16475
0.168968
0.173007
0.177746
0.182223
0.1874
0.192271
0.197755
0.202864
0.20851
0.213665
0.219268
0.22417
0.229414
0.23363
0.237937
0.240559
0.24245
0.243141
0.000690736
0.00069041
0.000690055
0.000689898
0.000689815
0.000689746
0.000689741
0.000689851
0.000690281
0.000691202
0.000693136
0.0006972
0.000706068
0.000725373
0.000768099
0.000861341
0.00106662
0.00151172
0.002469
0.00452582
0.00885437
0.0179619
0.036439
0.0731883
0.14193
0.262576
0.446064
0.570229
0.588186
0.543799
0.411843
0.231327
0.0867895
0.0369322
0.0222223
0.0189614
0.0189815
0.022161
0.0314299
0.0499258
0.0818829
0.132398
0.207154
0.307783
0.429699
0.552366
0.656934
0.728653
0.790433
0.866813
0.99623
1.09681
1.12027
1.11877
1.09455
1.0507
1.00891
0.997534
0.997497
0.999134
0.975164
0.872154
0.649907
0.345277
0.18429
0.130765
0.117209
0.115645
0.127072
0.154883
0.190495
0.223593
0.25372
0.274797
0.296741
0.308483
0.31394
0.314316
0.314487
0.31154
0.309282
0.302171
0.296958
0.286233
0.27889
0.266607
0.258179
0.245225
0.235697
0.224646
0.214767
0.206284
0.19715
0.19119
0.18314
0.179499
0.172676
0.169809
0.164116
0.161732
0.156731
0.154579
0.150114
0.148132
0.144039
0.142218
0.138402
0.136605
0.133585
0.131796
0.12938
0.127636
0.125786
0.124063
0.122711
0.121043
0.120057
0.118558
0.117878
0.116576
0.116044
0.11498
0.114562
0.113661
0.113264
0.112685
0.112286
0.111885
0.11147
0.111234
0.110815
0.110686
0.110331
0.110244
0.110009
0.109979
0.109871
0.109902
0.109882
0.110051
0.110096
0.110355
0.110623
0.110892
0.111355
0.111668
0.112287
0.112674
0.113442
0.113922
0.11483
0.11542
0.116469
0.117197
0.118395
0.119285
0.120635
0.121706
0.123213
0.124589
0.126273
0.127997
0.129902
0.13195
0.134156
0.136567
0.139138
0.141916
0.144855
0.14802
0.151377
0.155001
0.158843
0.162977
0.167379
0.172056
0.177062
0.182307
0.187729
0.193509
0.199288
0.205488
0.211488
0.217921
0.223891
0.230224
0.235753
0.24147
0.245999
0.250417
0.253174
0.25508
0.255764
0.000691341
0.000690716
0.000690406
0.000690131
0.000690009
0.000689904
0.000689853
0.000689827
0.000689918
0.000690286
0.000691228
0.000693179
0.000697379
0.00070639
0.000726359
0.000770019
0.00086738
0.00108133
0.00154906
0.00257303
0.00476709
0.00950026
0.0193851
0.0398479
0.0800961
0.155862
0.284104
0.466853
0.554034
0.559699
0.497498
0.357995
0.186922
0.0722632
0.0350166
0.0242563
0.0226412
0.0243036
0.0318138
0.0481724
0.0758585
0.118578
0.177712
0.250981
0.328325
0.394708
0.440516
0.472149
0.524761
0.629626
0.794707
0.975047
1.04899
1.06348
1.0592
1.03619
0.988762
0.936258
0.916377
0.917213
0.945575
1.01599
1.06846
1.07313
1.00075
0.776203
0.451745
0.212738
0.13646
0.108751
0.103199
0.104534
0.116285
0.136918
0.161457
0.181565
0.198715
0.208413
0.212844
0.213412
0.213798
0.212419
0.211165
0.207276
0.204164
0.198605
0.194217
0.187705
0.18237
0.176335
0.170508
0.165492
0.159824
0.155895
0.150679
0.147841
0.143534
0.141534
0.137946
0.136316
0.133175
0.131728
0.128882
0.12754
0.124848
0.12357
0.120975
0.119713
0.117481
0.116242
0.114409
0.113246
0.111796
0.110739
0.109603
0.108655
0.10779
0.106958
0.106353
0.105636
0.10526
0.104684
0.104444
0.104011
0.103821
0.103578
0.10342
0.103273
0.10314
0.103082
0.102989
0.102986
0.102959
0.102998
0.103043
0.103202
0.103314
0.103594
0.103791
0.1042
0.104498
0.105005
0.105466
0.106048
0.106667
0.107337
0.108092
0.10887
0.109759
0.110656
0.111686
0.112724
0.113892
0.115089
0.116412
0.117789
0.119279
0.120869
0.122547
0.124334
0.126214
0.128208
0.130308
0.132556
0.134973
0.137555
0.140368
0.143398
0.146664
0.150211
0.153997
0.158095
0.162468
0.167147
0.172166
0.177444
0.183152
0.189074
0.195234
0.201766
0.208325
0.21532
0.222117
0.229338
0.236054
0.243082
0.249186
0.255378
0.260157
0.264784
0.267495
0.269473
0.270128
0.000691318
0.000690701
0.000690441
0.000690217
0.000690112
0.000690041
0.000690016
0.000689982
0.000689988
0.000690112
0.000690522
0.000691434
0.000693423
0.000697652
0.000706914
0.000727058
0.000771889
0.000870741
0.00108846
0.00156974
0.00261103
0.00488733
0.00972345
0.0200057
0.0409912
0.0827407
0.1598
0.290388
0.46675
0.541529
0.542908
0.485153
0.357164
0.197607
0.0860625
0.0460824
0.0353055
0.0342149
0.0379588
0.0503519
0.0724311
0.105205
0.146168
0.190844
0.231517
0.263579
0.292491
0.335696
0.421406
0.557979
0.735901
0.923856
1.00562
1.02369
1.02026
0.994219
0.940971
0.873514
0.795597
0.74645
0.734821
0.742801
0.781603
0.866802
0.981452
1.04335
1.04811
0.979361
0.784492
0.482315
0.227886
0.136001
0.103869
0.0958356
0.0950827
0.100084
0.112519
0.129031
0.145662
0.158046
0.16474
0.166689
0.167507
0.167337
0.167169
0.166099
0.164935
0.16284
0.160837
0.158276
0.155153
0.152029
0.148259
0.145034
0.141293
0.13838
0.135244
0.132942
0.130351
0.128381
0.126185
0.124463
0.122512
0.120909
0.119097
0.117514
0.115732
0.114121
0.112448
0.110926
0.109478
0.108145
0.106946
0.105858
0.104851
0.104009
0.103189
0.102545
0.101878
0.101427
0.100932
0.100685
0.100362
0.100206
0.100021
0.0999481
0.0998575
0.0998252
0.0997938
0.0997885
0.0997934
0.0998084
0.0998734
0.09996
0.10008
0.100251
0.100481
0.100761
0.101101
0.101474
0.101946
0.102442
0.103034
0.103637
0.104364
0.10508
0.105929
0.106783
0.107755
0.108767
0.109868
0.111051
0.112295
0.113663
0.115072
0.11664
0.118232
0.12005
0.12186
0.123934
0.126018
0.128392
0.130825
0.133529
0.136351
0.139382
0.142654
0.14605
0.149844
0.153721
0.158124
0.162593
0.167718
0.172859
0.178784
0.18463
0.19141
0.198038
0.205357
0.21275
0.22053
0.22851
0.236552
0.244838
0.252752
0.260829
0.267951
0.275012
0.280442
0.285589
0.288546
0.290701
0.291382
0.000692031
0.000691231
0.000690929
0.000690641
0.000690504
0.000690382
0.000690336
0.000690293
0.000690282
0.000690364
0.000690671
0.000691275
0.000692397
0.000694465
0.000698606
0.000707049
0.000725371
0.000765352
0.000853715
0.00105126
0.00148375
0.00244455
0.00451786
0.00903178
0.0185281
0.0382876
0.0771386
0.150184
0.272222
0.446224
0.531085
0.541107
0.505348
0.406247
0.26908
0.14104
0.081453
0.0617532
0.0576364
0.0609303
0.0714768
0.0890888
0.110084
0.133037
0.156514
0.182844
0.223275
0.29332
0.409073
0.578783
0.785961
0.938574
0.978973
0.980997
0.956548
0.903633
0.829122
0.751302
0.675432
0.60973
0.548906
0.525184
0.521574
0.536984
0.580115
0.665422
0.7731
0.886917
0.923565
0.924854
0.866876
0.707341
0.471643
0.253471
0.160087
0.126234
0.112266
0.108932
0.108522
0.111824
0.119329
0.129507
0.139564
0.147913
0.152738
0.15463
0.155455
0.155722
0.155752
0.155556
0.154913
0.153701
0.151895
0.149549
0.146889
0.143911
0.141223
0.13826
0.135921
0.133133
0.131185
0.128612
0.126983
0.124646
0.123226
0.120973
0.119582
0.117356
0.115783
0.113766
0.112236
0.110589
0.109212
0.108044
0.106786
0.105985
0.104861
0.104347
0.10343
0.103052
0.102386
0.102136
0.101685
0.101542
0.101274
0.101129
0.100983
0.100872
0.100804
0.100692
0.10068
0.100625
0.100645
0.100646
0.100802
0.10087
0.101172
0.101365
0.101823
0.102109
0.102739
0.10318
0.1039
0.104511
0.105338
0.106122
0.107042
0.108031
0.109061
0.110267
0.111415
0.112843
0.114125
0.115788
0.11722
0.119121
0.120724
0.122901
0.124773
0.12711
0.129344
0.13191
0.134571
0.137411
0.140541
0.143751
0.147399
0.151056
0.155291
0.159496
0.164418
0.169299
0.175042
0.180713
0.187402
0.193929
0.201655
0.209153
0.217563
0.226013
0.235021
0.244209
0.253566
0.263164
0.27244
0.281843
0.290239
0.298439
0.304793
0.310647
0.313961
0.316344
0.317065
0.000691269
0.000690971
0.000690466
0.000690341
0.000690231
0.000690193
0.00069016
0.000690148
0.00069014
0.000690216
0.000690347
0.000690615
0.000691122
0.00069209
0.000693986
0.000697701
0.000705401
0.000721537
0.000756367
0.000833311
0.00100141
0.00137621
0.00218972
0.00397982
0.00780464
0.0159786
0.0326881
0.0661016
0.127761
0.234671
0.390827
0.515328
0.54592
0.541628
0.491335
0.396751
0.282392
0.188317
0.133968
0.114752
0.110061
0.114341
0.125538
0.14548
0.173755
0.221069
0.298226
0.427157
0.601504
0.819169
0.950711
0.984603
0.982411
0.947242
0.866104
0.75913
0.640498
0.535963
0.447048
0.3838
0.33181
0.301728
0.291555
0.293373
0.302144
0.330213
0.375428
0.455862
0.561546
0.690346
0.809577
0.875071
0.888894
0.862477
0.763577
0.604462
0.42525
0.276947
0.198422
0.167024
0.150816
0.14602
0.143683
0.144443
0.146374
0.151876
0.15766
0.163358
0.16599
0.167181
0.168068
0.168306
0.168503
0.168171
0.167709
0.165905
0.164551
0.161636
0.160015
0.156549
0.154962
0.151229
0.149625
0.146213
0.144791
0.141474
0.140092
0.136855
0.134883
0.132195
0.130062
0.128227
0.125991
0.125157
0.12321
0.122647
0.121133
0.120698
0.119479
0.119166
0.118058
0.117792
0.116653
0.1164
0.11528
0.114526
0.11367
0.112574
0.112069
0.110824
0.110488
0.109385
0.109128
0.108327
0.10814
0.10768
0.107634
0.107491
0.10761
0.107589
0.108046
0.108251
0.10878
0.109274
0.109877
0.110657
0.111342
0.112415
0.113202
0.11455
0.115474
0.117067
0.118139
0.119978
0.121224
0.123332
0.124786
0.1272
0.128992
0.13156
0.133808
0.136583
0.139329
0.142367
0.145663
0.149052
0.152983
0.15682
0.161461
0.16591
0.171359
0.176576
0.182998
0.189117
0.196668
0.203813
0.212638
0.220995
0.230747
0.240328
0.250918
0.261495
0.272631
0.283815
0.295005
0.306153
0.316442
0.326348
0.334158
0.341335
0.34519
0.348062
0.348879
0.000691626
0.00069118
0.000690691
0.000690554
0.0006904
0.000690344
0.000690296
0.000690283
0.00069025
0.000690265
0.000690367
0.000690645
0.000691127
0.000691907
0.00069315
0.00069521
0.00069882
0.000705521
0.00071875
0.000746463
0.000805148
0.000934769
0.0012156
0.00183815
0.00318038
0.00609934
0.0122135
0.0249351
0.0497841
0.0970235
0.177346
0.304907
0.447126
0.538539
0.568958
0.57096
0.547868
0.500999
0.434844
0.375843
0.335304
0.32867
0.334976
0.368763
0.425071
0.523444
0.638818
0.788024
0.911415
0.988469
1.00366
0.991958
0.931971
0.821775
0.677555
0.531601
0.391557
0.281161
0.193717
0.142065
0.10578
0.0881627
0.0789517
0.078313
0.0792892
0.0875515
0.100379
0.126841
0.16371
0.226049
0.314052
0.435257
0.56817
0.689885
0.80382
0.854132
0.863932
0.841427
0.774625
0.675563
0.561293
0.455795
0.359392
0.302523
0.262717
0.246078
0.231233
0.22617
0.222702
0.220912
0.221546
0.221771
0.222826
0.222225
0.222526
0.221173
0.221383
0.219512
0.219461
0.216585
0.21602
0.212574
0.211598
0.208223
0.207223
0.203598
0.202525
0.198868
0.196197
0.193804
0.191035
0.190365
0.188085
0.188198
0.187321
0.188354
0.188201
0.189947
0.190065
0.191971
0.19192
0.19281
0.191922
0.192171
0.190251
0.186606
0.184061
0.177836
0.175189
0.167917
0.165535
0.158447
0.156247
0.150266
0.148247
0.143534
0.141998
0.138344
0.137334
0.134404
0.133794
0.132006
0.130898
0.130232
0.129313
0.129277
0.128779
0.12902
0.128845
0.129531
0.129545
0.13074
0.131014
0.132616
0.133155
0.135204
0.136018
0.138565
0.139913
0.142498
0.14459
0.147277
0.150083
0.152935
0.156479
0.159613
0.163952
0.167524
0.17273
0.176941
0.183104
0.188131
0.19541
0.201435
0.210021
0.217234
0.227359
0.236097
0.247391
0.257823
0.270247
0.282153
0.295382
0.308367
0.321789
0.335212
0.347757
0.360259
0.369854
0.379325
0.383924
0.387597
0.388601
0.000691517
0.000690666
0.000690232
0.00069005
0.000689928
0.000689896
0.000689864
0.000689863
0.000689852
0.000689847
0.000689844
0.000689914
0.00069011
0.000690493
0.000691164
0.000692231
0.000694054
0.00069716
0.000702766
0.000713398
0.000734274
0.000777861
0.000868971
0.00106738
0.00149151
0.00241511
0.00436175
0.00848803
0.0167797
0.0333375
0.0635297
0.117037
0.199693
0.323633
0.446095
0.535791
0.581178
0.614496
0.63506
0.648986
0.664801
0.683648
0.715387
0.755775
0.808792
0.870206
0.935771
0.983957
0.992686
0.97632
0.917969
0.812603
0.676696
0.51557
0.361697
0.232234
0.133651
0.0789967
0.0467303
0.0323144
0.0223099
0.0177263
0.013158
0.0116827
0.0110373
0.011721
0.0133411
0.0178738
0.0246166
0.0373596
0.0556392
0.0851246
0.129236
0.19046
0.28651
0.392101
0.507634
0.606658
0.704542
0.766667
0.839124
0.874268
0.882904
0.869737
0.834128
0.78278
0.714357
0.645863
0.574368
0.510683
0.475072
0.446988
0.43535
0.415976
0.40907
0.392038
0.387036
0.373646
0.370387
0.360899
0.359206
0.353262
0.352615
0.349397
0.34958
0.346907
0.347328
0.345391
0.34336
0.343751
0.343081
0.345726
0.345648
0.351551
0.35299
0.36333
0.367392
0.380795
0.386829
0.402168
0.408545
0.42318
0.428393
0.438486
0.441374
0.440602
0.440594
0.432327
0.42742
0.410371
0.404544
0.384073
0.37714
0.356788
0.349206
0.33063
0.323837
0.307483
0.302002
0.286547
0.281894
0.269635
0.262279
0.254257
0.245326
0.240197
0.230374
0.227305
0.217721
0.215024
0.206464
0.204139
0.196753
0.194888
0.18898
0.187714
0.183466
0.182875
0.181086
0.179727
0.179923
0.179632
0.180972
0.181093
0.183982
0.184834
0.188983
0.190614
0.196008
0.198602
0.205228
0.20895
0.216901
0.221707
0.231144
0.237209
0.248454
0.256505
0.268856
0.279458
0.293074
0.306139
0.320764
0.335972
0.35108
0.367725
0.382343
0.398979
0.41068
0.42372
0.42983
0.434647
0.435964
0.000693397
0.000691457
0.000690805
0.000690534
0.00069021
0.000690116
0.000690004
0.000689979
0.00068993
0.000689956
0.00068999
0.000690205
0.000690518
0.000691083
0.0006918
0.000692849
0.000694252
0.000696392
0.000699593
0.000704883
0.000713738
0.0007299
0.000759944
0.000820431
0.000943056
0.00120316
0.00174388
0.00289058
0.00521213
0.00996249
0.0189265
0.0357538
0.0638544
0.110034
0.174511
0.268381
0.370617
0.46484
0.540321
0.590942
0.638925
0.672204
0.714558
0.746808
0.78933
0.807456
0.809902
0.787203
0.736676
0.641231
0.529443
0.389741
0.27199
0.160596
0.0991407
0.0531916
0.0295734
0.0175204
0.0106079
0.00743818
0.00508144
0.00408662
0.00314138
0.00274795
0.00238893
0.00236007
0.00239702
0.00274461
0.00340661
0.00489635
0.00728012
0.011463
0.0185
0.0289043
0.0456874
0.0681191
0.100214
0.13907
0.19906
0.271699
0.362448
0.446857
0.556366
0.655253
0.77575
0.87304
0.988382
1.0754
1.14798
1.16664
1.16971
1.15437
1.12721
1.07205
1.02055
0.948264
0.900208
0.832406
0.801702
0.753756
0.735912
0.701161
0.688701
0.665116
0.65754
0.64269
0.639791
0.63277
0.628072
0.627811
0.626026
0.629041
0.628265
0.636758
0.638895
0.656044
0.663987
0.687781
0.700746
0.729022
0.744649
0.775505
0.792046
0.823762
0.839921
0.859374
0.872254
0.878024
0.88268
0.880332
0.881081
0.870159
0.866542
0.849309
0.843668
0.825333
0.81949
0.802201
0.797722
0.779287
0.775262
0.759632
0.747952
0.738445
0.720541
0.714912
0.692232