/*--------------------------------*- C++ -*----------------------------------*\
| =========                 |                                                 |
| \\      /  F ield         | OpenFOAM: The Open Source CFD Toolbox           |
|  \\    /   O peration     | Version:  4.1                                   |
|   \\  /    A nd           | Web:      www.OpenFOAM.org                      |
|    \\/     M anipulation  |                                                 |
\*---------------------------------------------------------------------------*/
FoamFile
{
    version     2.0;
    format      ascii;
    class       volScalarField;
    location    "8";
    object      k;
}
// * * * * * * * * * * * * * * * * * * * * * * * * * * * * * * * * * * * * * //

dimensions      [0 2 -2 0 0 0 0];

internalField   nonuniform List<scalar> 
204246
(
0.728258
0.795701
0.797882
0.797107
0.798855
0.798107
0.799529
0.799119
0.800452
0.800158
0.801799
0.801533
0.803599
0.803255
0.805929
0.805382
0.808662
0.808349
0.810812
0.816791
0.822978
0.840769
0.865623
0.922754
1.02509
1.21933
1.52805
1.9589
2.32546
2.44991
2.49092
2.51085
2.51853
2.52865
2.52811
2.52641
2.51887
2.51037
2.49896
2.48604
2.46866
2.45323
2.44315
2.42856
2.42564
2.41665
2.41764
2.41308
2.41625
2.41462
2.42104
2.42165
2.43149
2.43364
2.44009
2.45246
2.45514
2.4709
2.47531
2.49267
2.49839
2.5174
2.52393
2.54465
2.55157
2.57243
2.5797
2.599
2.60752
2.62595
2.63515
2.65186
2.6624
2.6773
2.68687
2.70083
2.7099
2.72335
2.73226
2.74567
2.75603
2.76831
2.77973
2.79124
2.80241
2.81419
2.82657
2.83764
2.85007
2.8634
2.87447
2.88916
2.89992
2.91511
2.92599
2.94374
2.95314
2.97276
2.98119
3.00266
3.01021
3.0314
3.03995
3.06098
3.07043
3.09173
3.10161
3.12157
3.13491
3.1528
3.1677
3.18489
3.2033
3.21814
3.23948
3.25259
3.27495
3.28799
3.3113
3.32435
3.34903
3.36214
3.38786
3.40106
3.42579
3.44267
3.46532
3.48415
3.5061
3.52691
3.54818
3.57017
3.59138
3.61437
3.63571
3.65968
3.68116
3.70589
3.72778
3.75332
3.77547
3.80056
3.82462
3.84911
3.8737
3.89858
3.92339
3.9488
3.97369
3.99973
4.02459
4.05124
4.07591
4.10313
4.1277
4.15556
4.18011
4.20829
4.23212
4.26064
4.28454
4.31241
4.33716
4.36414
4.38981
4.41576
4.44258
4.46736
4.49577
4.51935
4.54984
4.57208
4.60531
4.62661
4.66404
4.6834
4.72554
4.7487
4.78712
4.81899
4.85575
4.89697
4.93514
4.9868
5.03017
5.09371
5.14687
5.22356
5.29109
5.373
5.44205
5.48211
5.49903
0.185167
0.265736
0.261796
0.259874
0.262428
0.260822
0.264181
0.263557
0.26827
0.268091
0.274084
0.274371
0.280943
0.280839
0.288564
0.288623
0.300577
0.303858
0.319848
0.345201
0.37876
0.453276
0.557865
0.77077
1.09599
1.61938
1.95668
2.01693
1.95345
1.65455
1.31269
1.19979
1.15469
1.14548
1.13608
1.14447
1.16937
1.211
1.25023
1.26662
1.32605
1.35775
1.41993
1.45031
1.51162
1.5459
1.59186
1.61549
1.64795
1.66321
1.67627
1.68033
1.68072
1.68065
1.67925
1.67394
1.67242
1.66964
1.67015
1.67054
1.67614
1.67903
1.68278
1.68709
1.68866
1.69523
1.69689
1.70724
1.71078
1.72414
1.72921
1.73687
1.7491
1.75374
1.76654
1.77108
1.78405
1.78886
1.80249
1.80736
1.82225
1.82743
1.84291
1.84837
1.86448
1.87084
1.88775
1.89496
1.90583
1.92048
1.92748
1.94476
1.9519
1.97021
1.97742
1.99632
2.00374
2.02374
2.03159
2.05257
2.06089
2.08336
2.09293
2.11648
2.12677
2.15186
2.16274
2.18374
2.20321
2.21959
2.24415
2.25679
2.28442
2.29659
2.32598
2.33881
2.37035
2.38414
2.41711
2.43196
2.46629
2.48195
2.51895
2.5362
2.56799
2.59451
2.62241
2.65389
2.68088
2.71522
2.74216
2.78024
2.80753
2.8482
2.87672
2.91959
2.94985
2.99477
3.02759
3.07495
3.11151
3.15322
3.19941
3.24004
3.28866
3.33252
3.38236
3.42977
3.48077
3.53201
3.58441
3.63974
3.69234
3.75174
3.80549
3.87024
3.92711
3.99664
4.04789
4.12596
4.18196
4.25441
4.32235
4.38879
4.46706
4.528
4.61428
4.67122
4.76204
4.81751
4.90872
4.96558
5.04963
5.10987
5.19707
5.25614
5.34184
5.38313
5.48042
5.51811
5.61116
5.64536
5.73382
5.76462
5.84992
5.87779
5.96953
6.0023
6.17204
6.32016
6.74072
7.00378
7.11544
0.0197022
0.0418795
0.0401909
0.0392044
0.0400234
0.0395753
0.0409169
0.0408558
0.0426593
0.0427867
0.0451731
0.0455917
0.0489678
0.0498691
0.0555177
0.0580268
0.0681478
0.0769967
0.098466
0.129928
0.185203
0.279163
0.432592
0.688932
1.08295
1.62668
1.87509
1.89407
1.65836
1.18771
1.01447
0.976545
0.973823
1.01144
1.08031
1.13894
1.17685
1.22377
1.27769
1.32904
1.37682
1.43185
1.49577
1.56824
1.64802
1.72938
1.81427
1.89301
1.97103
2.03769
2.10102
2.15489
2.20479
2.25034
2.28903
2.31534
2.33329
2.34035
2.34836
2.34786
2.35024
2.34792
2.3517
2.34859
2.35416
2.35155
2.36039
2.35969
2.37165
2.37325
2.39194
2.40142
2.40995
2.42686
2.4312
2.44883
2.45252
2.46875
2.47176
2.4877
2.48919
2.50689
2.50904
2.52805
2.53178
2.54908
2.55301
2.57103
2.57979
2.58516
2.59903
2.60208
2.61747
2.62074
2.63708
2.63957
2.65679
2.65967
2.6774
2.68068
2.69915
2.70364
2.7216
2.72698
2.74542
2.75108
2.77155
2.78042
2.79165
2.80747
2.81339
2.83258
2.83809
2.85783
2.86374
2.88402
2.89082
2.91039
2.91746
2.93733
2.94456
2.96498
2.97279
2.99365
3.00344
3.01747
3.03192
3.04162
3.05903
3.0667
3.08492
3.09289
3.1107
3.11876
3.13578
3.1438
3.16013
3.16831
3.18424
3.19269
3.20737
3.21447
3.22585
3.23234
3.24178
3.24737
3.25505
3.25781
3.264
3.26353
3.2669
3.26378
3.26469
3.25508
3.25535
3.23965
3.23877
3.21327
3.20078
3.18578
3.15332
3.14452
3.09917
3.08704
3.03333
3.01803
2.95728
2.93965
2.87349
2.85386
2.7828
2.76178
2.6866
2.66477
2.58938
2.56839
2.48753
2.44988
2.41313
2.34877
2.33271
2.26054
2.24573
2.17622
2.16368
2.10228
2.09495
2.05304
2.05685
2.02906
2.03398
1.89707
1.84627
0.00572168
0.00755724
0.00731198
0.00716098
0.00725754
0.00718676
0.00737769
0.00737104
0.00770267
0.0077672
0.0083499
0.00858132
0.00962189
0.0103747
0.0126942
0.0154504
0.0217675
0.0316075
0.050819
0.0841201
0.143292
0.244993
0.413557
0.682559
1.08375
1.53779
1.67837
1.66944
1.42425
1.02832
0.901021
0.870195
0.866355
0.891257
0.916446
0.922404
0.915196
0.896561
0.894155
0.88989
0.895901
0.911853
0.968802
1.03785
1.14398
1.24731
1.39275
1.51546
1.68204
1.81563
1.99051
2.11059
2.25025
2.3387
2.45433
2.53455
2.61352
2.66603
2.71549
2.76352
2.7994
2.83677
2.85878
2.88628
2.90304
2.92182
2.93689
2.94999
2.9619
2.96952
2.98044
2.98959
2.9937
3.00367
3.00567
3.01061
3.00969
3.01046
3.00603
3.00458
2.99666
2.99645
2.99152
2.99257
2.99125
2.99324
2.9929
2.99612
2.99779
2.99768
2.99994
2.9997
3.00106
3.00035
3.00111
2.99981
3.0004
2.99876
2.9991
2.99709
2.99716
2.99503
2.99466
2.9928
2.99233
2.99008
2.98922
2.98708
2.98393
2.9823
2.97844
2.97642
2.97219
2.96969
2.9651
2.96212
2.95697
2.9535
2.94755
2.94348
2.93711
2.93211
2.92535
2.91798
2.90928
2.90119
2.88967
2.88164
2.86614
2.85853
2.83848
2.83149
2.80724
2.79904
2.77084
2.76127
2.72873
2.71752
2.68092
2.66834
2.62386
2.60209
2.56931
2.53097
2.50657
2.45518
2.43521
2.37603
2.35404
2.2906
2.26674
2.1993
2.17358
2.10228
2.07478
2.00126
1.97299
1.89384
1.85544
1.79427
1.73962
1.69213
1.62449
1.58949
1.51488
1.48583
1.41131
1.38381
1.31479
1.28941
1.22658
1.20388
1.14763
1.12776
1.07791
1.06075
1.01619
0.995953
0.966539
0.942309
0.922992
0.895201
0.882912
0.854499
0.845417
0.825414
0.822078
0.817665
0.831522
0.848769
0.878941
0.888558
0.895898
0.00512834
0.00520702
0.00518812
0.00517843
0.00518443
0.00518169
0.00520326
0.00521469
0.00526758
0.00530936
0.00543485
0.00559416
0.00596743
0.00657897
0.00787157
0.0102145
0.0148862
0.0236177
0.0401716
0.0706673
0.125631
0.222341
0.385114
0.646388
1.03197
1.39764
1.49471
1.48277
1.27912
0.897653
0.690035
0.614178
0.565922
0.525966
0.477546
0.428512
0.381806
0.365242
0.362469
0.359911
0.368079
0.392447
0.455462
0.541736
0.649456
0.744689
0.832251
0.908011
0.9919
1.07821
1.1953
1.342
1.54453
1.75909
1.98898
2.21009
2.36875
2.51333
2.61647
2.73933
2.82036
2.90953
2.96274
3.03127
3.07104
3.12053
3.14689
3.18063
3.19699
3.2148
3.22315
3.23033
3.23288
3.2352
3.23525
3.23484
3.23014
3.22213
3.20752
3.1906
3.16715
3.14649
3.12147
3.10302
3.08139
3.06652
3.04894
3.03688
3.0235
3.01269
3.00212
2.99217
2.98206
2.97103
2.95842
2.94605
2.93096
2.91881
2.90155
2.89001
2.87032
2.85883
2.83716
2.82594
2.80211
2.79116
2.76391
2.74976
2.72659
2.70609
2.68589
2.65876
2.64266
2.60874
2.59555
2.55721
2.54234
2.50285
2.48674
2.44495
2.42789
2.3836
2.36594
2.31636
2.29202
2.25398
2.21663
2.18625
2.13844
2.11361
2.05834
2.03586
1.97668
1.95319
1.89216
1.86796
1.80549
1.78059
1.71763
1.69247
1.6273
1.59572
1.54417
1.50208
1.46054
1.41036
1.3778
1.32102
1.29707
1.23863
1.21583
1.16004
1.13844
1.08584
1.06571
1.01701
0.998649
0.952732
0.931341
0.898811
0.873529
0.85077
0.82253
0.808667
0.78091
0.770896
0.746776
0.738646
0.718635
0.712108
0.696008
0.691051
0.678567
0.675098
0.665895
0.66379
0.657215
0.654686
0.653835
0.651787
0.652406
0.651387
0.652248
0.651028
0.651596
0.650122
0.651347
0.651697
0.661088
0.666764
0.679744
0.684497
0.688345
0.00508996
0.00509276
0.00508858
0.0050874
0.0050875
0.00508863
0.00509351
0.00510079
0.00511578
0.00514204
0.00519685
0.00530251
0.00552234
0.00596336
0.00687312
0.00869348
0.0123583
0.0195626
0.0334685
0.0597441
0.107828
0.193503
0.338669
0.572642
0.918797
1.26483
1.36204
1.35703
1.19448
0.862681
0.530323
0.367167
0.286469
0.235195
0.193024
0.167794
0.156634
0.154467
0.160424
0.184292
0.240719
0.327275
0.449904
0.600867
0.772248
0.888181
0.92544
0.94075
0.940651
0.937147
0.905235
0.894471
0.895129
0.939541
1.05027
1.22641
1.44502
1.6997
1.9445
2.18692
2.36471
2.52782
2.64354
2.77627
2.86299
2.96355
3.01504
3.08376
3.1156
3.15443
3.1693
3.17692
3.17962
3.17926
3.17885
3.17385
3.16615
3.15018
3.13085
3.10177
3.07071
3.03059
2.99295
2.94813
2.91002
2.86588
2.83124
2.78956
2.75653
2.72609
2.69336
2.67051
2.63894
2.62031
2.585
2.56757
2.52626
2.50923
2.46473
2.4468
2.40006
2.38055
2.33308
2.31246
2.2634
2.24212
2.1892
2.16362
2.1197
2.08508
2.04698
2.00421
1.97271
1.92263
1.89637
1.84077
1.8172
1.76083
1.73678
1.68059
1.65666
1.60086
1.57719
1.51974
1.49215
1.44638
1.41047
1.3736
1.33095
1.3017
1.25393
1.23161
1.18199
1.16192
1.1138
1.09477
1.04913
1.03114
0.988431
0.97169
0.930771
0.911451
0.881344
0.858415
0.835618
0.810118
0.793735
0.766645
0.755541
0.729204
0.719246
0.69566
0.686793
0.665842
0.658045
0.639632
0.632869
0.616202
0.608573
0.59731
0.588833
0.580923
0.571841
0.567001
0.558266
0.555039
0.547622
0.545143
0.53955
0.537843
0.534014
0.533069
0.530931
0.530738
0.530134
0.530692
0.531125
0.532972
0.535153
0.537754
0.541611
0.545019
0.550376
0.554533
0.561385
0.566515
0.574858
0.580835
0.590521
0.596937
0.604452
0.607434
0.609374
0.00508889
0.00508749
0.00508467
0.00508337
0.00508277
0.00508252
0.00508314
0.00508573
0.00509226
0.00510609
0.00513604
0.00519928
0.00533474
0.00561974
0.00622271
0.0074703
0.0100492
0.0152702
0.0256282
0.0457934
0.0837194
0.153249
0.274004
0.473282
0.77258
1.12433
1.24878
1.25751
1.14602
0.869205
0.51873
0.257549
0.15585
0.117882
0.105086
0.102951
0.104782
0.118664
0.15567
0.225916
0.344184
0.523959
0.770721
1.0725
1.37789
1.6413
1.78353
1.84463
1.85509
1.8349
1.71311
1.51448
1.24069
0.972155
0.827777
0.776054
0.766998
0.791957
0.91597
1.13543
1.39542
1.6566
1.87455
2.09242
2.25406
2.42187
2.52846
2.65122
2.72202
2.80677
2.84658
2.87009
2.87873
2.87802
2.87836
2.86976
2.86197
2.8386
2.81742
2.77754
2.74325
2.68658
2.6411
2.57391
2.52261
2.45287
2.40154
2.33424
2.28303
2.22894
2.17788
2.13438
2.08559
2.05105
2.00344
1.97658
1.92535
1.90012
1.84338
1.81932
1.76075
1.73564
1.67797
1.65244
1.59488
1.56941
1.51033
1.48195
1.43299
1.39864
1.35722
1.31715
1.28422
1.23939
1.21383
1.16592
1.14533
1.0989
1.07925
1.03595
1.01771
0.977473
0.960645
0.921964
0.904064
0.874308
0.853585
0.830486
0.807352
0.790136
0.765109
0.753222
0.728106
0.71815
0.694953
0.686007
0.66511
0.657074
0.638431
0.631295
0.614237
0.606291
0.5944
0.585246
0.576657
0.566852
0.560999
0.550971
0.546991
0.537598
0.534137
0.525958
0.522973
0.515903
0.51336
0.507311
0.505185
0.499982
0.497625
0.494539
0.491911
0.490293
0.487791
0.487037
0.485172
0.484791
0.483817
0.483859
0.48369
0.484564
0.484909
0.486889
0.487639
0.490601
0.491838
0.495625
0.497301
0.50155
0.5042
0.508584
0.512117
0.516765
0.521289
0.52645
0.532009
0.537683
0.544273
0.550571
0.557943
0.563973
0.569476
0.571983
0.57337
0.00508274
0.00507995
0.00507875
0.0050777
0.0050775
0.00507768
0.00507952
0.00508316
0.00508944
0.00510031
0.0051212
0.00516285
0.00525007
0.00543412
0.00582816
0.00665893
0.00841248
0.0120445
0.0194257
0.0341716
0.0626205
0.116251
0.212042
0.375359
0.629304
0.972605
1.1492
1.1765
1.11498
0.899687
0.57311
0.264503
0.13188
0.0874696
0.0769758
0.0767595
0.0850022
0.110663
0.163323
0.257788
0.40908
0.622542
0.893391
1.20456
1.52741
1.8293
2.07959
2.26363
2.3643
2.40788
2.41796
2.40331
2.32337
2.16884
1.92732
1.5728
1.15779
0.785078
0.651113
0.608498
0.609415
0.678422
0.854926
1.09656
1.32952
1.54454
1.7126
1.87922
2.00647
2.13335
2.22225
2.30251
2.34476
2.35604
2.36106
2.35719
2.35374
2.33516
2.3176
2.28062
2.24965
2.19408
2.14952
2.08029
2.02683
1.95091
1.89307
1.81562
1.75522
1.69077
1.62987
1.57665
1.5186
1.47617
1.42271
1.39366
1.34303
1.31965
1.26709
1.2448
1.19335
1.17123
1.12292
1.10159
1.05584
1.03564
0.991127
0.970002
0.934093
0.911131
0.881719
0.856775
0.833927
0.807445
0.790762
0.763249
0.751248
0.72544
0.714576
0.691655
0.682048
0.661667
0.653173
0.634347
0.625691
0.61151
0.602273
0.591042
0.581162
0.572638
0.562094
0.55589
0.545071
0.540529
0.530203
0.526122
0.516853
0.513194
0.504922
0.501665
0.494104
0.49056
0.485156
0.481126
0.477122
0.472816
0.469957
0.465462
0.463602
0.459295
0.457675
0.453919
0.452532
0.449319
0.448164
0.445524
0.444625
0.442497
0.441558
0.440616
0.439676
0.439456
0.43901
0.439149
0.43933
0.44041
0.440876
0.442881
0.443784
0.446744
0.448221
0.452171
0.454304
0.459267
0.462073
0.468032
0.471481
0.478092
0.482379
0.489156
0.494114
0.500863
0.506442
0.513175
0.51921
0.525866
0.532156
0.538635
0.544754
0.550269
0.554531
0.556801
0.557904
0.00509316
0.00508896
0.00508743
0.00508588
0.00508522
0.00508471
0.00508464
0.00508513
0.00508731
0.00509234
0.00510307
0.00512541
0.00517293
0.00527408
0.00549307
0.00596106
0.00696982
0.0091063
0.013567
0.0227715
0.0411437
0.0772449
0.144666
0.266043
0.467782
0.775564
1.04995
1.11563
1.09652
0.950227
0.677828
0.348806
0.150791
0.0868958
0.0680685
0.0650999
0.0691078
0.0880587
0.132394
0.211204
0.337956
0.522366
0.770675
1.0707
1.40945
1.74723
2.05066
2.26783
2.41996
2.52811
2.60308
2.62219
2.61633
2.57359
2.49797
2.39146
2.25311
2.0497
1.74477
1.29091
0.771626
0.537086
0.478877
0.471745
0.517583
0.649528
0.830385
1.02412
1.18892
1.34253
1.46632
1.57842
1.67542
1.73733
1.76815
1.77312
1.77537
1.76671
1.75669
1.73025
1.70923
1.66613
1.63197
1.57458
1.53098
1.46619
1.41679
1.34877
1.29557
1.23798
1.18428
1.13723
1.08648
1.04924
1.00368
0.979837
0.940535
0.923006
0.88603
0.870218
0.835964
0.821044
0.789881
0.775991
0.747461
0.734749
0.70805
0.695393
0.674052
0.661121
0.643674
0.630756
0.616832
0.603564
0.593201
0.57975
0.571853
0.559155
0.553315
0.54153
0.536441
0.526009
0.521531
0.511989
0.50756
0.500225
0.495586
0.48946
0.484614
0.479716
0.474604
0.470682
0.465528
0.46253
0.457323
0.45508
0.450178
0.448181
0.443847
0.442103
0.438221
0.436403
0.4336
0.431671
0.429617
0.427684
0.426221
0.424313
0.423422
0.42169
0.421069
0.4197
0.419263
0.41831
0.418061
0.417564
0.417535
0.417435
0.417464
0.418029
0.418175
0.419247
0.419666
0.421224
0.421905
0.424041
0.425043
0.427938
0.42941
0.433098
0.435127
0.439711
0.44244
0.44796
0.451524
0.457892
0.462338
0.469283
0.474589
0.481825
0.487748
0.49508
0.501278
0.508585
0.514998
0.522222
0.528552
0.535289
0.540999
0.546351
0.550068
0.552219
0.553157
0.00508589
0.00508526
0.005083
0.0050822
0.00508169
0.00508146
0.00508165
0.00508254
0.00508438
0.00508711
0.00509294
0.00510517
0.0051315
0.00518712
0.00530767
0.00556637
0.00612908
0.00733602
0.0098993
0.0153028
0.0263525
0.048723
0.0919729
0.173377
0.316385
0.550554
0.876104
1.0591
1.08445
1.01645
0.811989
0.518272
0.228543
0.108729
0.073273
0.0655399
0.065902
0.0756028
0.10283
0.156077
0.245411
0.380895
0.571717
0.813653
1.09014
1.35408
1.57517
1.73005
1.87488
2.04642
2.31783
2.54717
2.61278
2.61733
2.58751
2.52286
2.43554
2.35094
2.26938
2.18747
2.04358
1.7659
1.30783
0.755117
0.514885
0.439645
0.427277
0.442871
0.517773
0.64668
0.78837
0.914697
1.02694
1.10896
1.1922
1.23939
1.26167
1.26445
1.26545
1.25661
1.24835
1.22498
1.2058
1.16974
1.14194
1.09909
1.066
1.01959
0.982234
0.941027
0.902668
0.869059
0.833444
0.807254
0.775105
0.757004
0.730289
0.718041
0.694451
0.684
0.662903
0.653387
0.634242
0.625401
0.607648
0.59944
0.582804
0.574824
0.561027
0.553143
0.541549
0.533939
0.524553
0.517003
0.509314
0.502086
0.495695
0.488881
0.48383
0.477159
0.473498
0.466992
0.46403
0.458014
0.455169
0.450266
0.44741
0.443152
0.440223
0.436586
0.433577
0.43045
0.427368
0.424734
0.421671
0.419558
0.416558
0.414897
0.412065
0.41082
0.40823
0.407006
0.405138
0.403948
0.402576
0.401444
0.400477
0.399469
0.398889
0.398076
0.397786
0.397255
0.397134
0.396989
0.397052
0.397234
0.397668
0.398088
0.398823
0.399875
0.400894
0.402608
0.404002
0.406286
0.408184
0.411098
0.413576
0.417092
0.420083
0.424179
0.427734
0.43245
0.436672
0.442111
0.447097
0.453305
0.45907
0.466007
0.472335
0.479867
0.486681
0.49462
0.501784
0.509847
0.516967
0.524687
0.53128
0.538046
0.54349
0.548523
0.551898
0.553947
0.554773
0.00508782
0.00508537
0.00508323
0.00508205
0.00508141
0.00508082
0.00508058
0.00508051
0.00508112
0.00508298
0.00508702
0.00509425
0.00510838
0.00513645
0.00519554
0.00532003
0.0055914
0.00617847
0.00744638
0.0101839
0.0159328
0.0279775
0.0521564
0.0998877
0.188708
0.346113
0.595785
0.920457
1.04952
1.05852
0.964907
0.742617
0.45015
0.196667
0.105008
0.0784839
0.0746259
0.0793992
0.099682
0.142415
0.213893
0.321188
0.464653
0.634854
0.808791
0.955024
1.06246
1.14436
1.27502
1.4982
1.82776
2.19091
2.39339
2.44379
2.44813
2.43576
2.38953
2.32353
2.23392
2.1882
2.18062
2.18464
2.18121
2.12008
1.89528
1.4514
0.900438
0.551612
0.445589
0.413404
0.412609
0.440764
0.516824
0.61676
0.721804
0.802483
0.870662
0.911963
0.933418
0.937382
0.939264
0.934894
0.92991
0.915499
0.902593
0.881085
0.862416
0.836303
0.813228
0.787562
0.762119
0.739228
0.714422
0.695254
0.67267
0.657732
0.639032
0.627658
0.611482
0.602395
0.588041
0.580257
0.567009
0.559802
0.547259
0.540296
0.528181
0.521365
0.510739
0.503981
0.494918
0.488529
0.481026
0.475108
0.468793
0.46333
0.457982
0.452918
0.448462
0.443768
0.440138
0.435804
0.432859
0.428786
0.426327
0.422768
0.420478
0.417208
0.415092
0.412103
0.410063
0.407336
0.405338
0.402933
0.401039
0.399028
0.397283
0.395679
0.394095
0.392941
0.391531
0.390664
0.389673
0.388989
0.388373
0.387891
0.387558
0.387332
0.38729
0.38725
0.387473
0.387741
0.388246
0.388792
0.389589
0.390468
0.391561
0.392781
0.39419
0.395765
0.397479
0.399402
0.401392
0.403778
0.40619
0.409182
0.41215
0.415915
0.419525
0.424123
0.428461
0.433891
0.439047
0.445284
0.451317
0.458336
0.465233
0.473028
0.480544
0.488947
0.496985
0.505749
0.514099
0.52291
0.531159
0.53951
0.54702
0.554146
0.560083
0.565129
0.568647
0.57067
0.571455
0.00508888
0.00508563
0.00508428
0.00508317
0.00508265
0.00508229
0.0050821
0.00508195
0.00508203
0.00508275
0.00508464
0.00508835
0.00509564
0.00510997
0.00513927
0.00519961
0.0053289
0.00560666
0.00620733
0.00751643
0.0103063
0.01628
0.0285978
0.0537892
0.102812
0.195264
0.356153
0.613717
0.927843
1.04396
1.04833
0.961297
0.756596
0.482197
0.236928
0.134782
0.106527
0.103114
0.111328
0.139733
0.188192
0.258933
0.347886
0.447041
0.54298
0.627293
0.71293
0.829288
1.02636
1.31332
1.66738
2.02084
2.20755
2.2598
2.26395
2.2443
2.18513
2.10546
2.00733
1.91707
1.8817
1.88247
1.9116
1.98983
2.04694
2.05657
2.01304
1.81833
1.44712
0.94305
0.565295
0.437145
0.397129
0.391949
0.405963
0.452072
0.526656
0.607192
0.68001
0.729751
0.761079
0.771263
0.77564
0.775391
0.774716
0.770091
0.764233
0.754326
0.744061
0.731333
0.716249
0.700716
0.682721
0.666221
0.64818
0.632864
0.61732
0.604599
0.591567
0.580658
0.569554
0.560001
0.550093
0.541247
0.531982
0.523381
0.514315
0.505771
0.497165
0.489063
0.481314
0.474055
0.467346
0.461143
0.455235
0.44998
0.444779
0.440244
0.435554
0.431664
0.427473
0.424266
0.420601
0.41788
0.414633
0.412269
0.409361
0.407185
0.404534
0.402397
0.399865
0.397775
0.395446
0.393506
0.39142
0.389661
0.387918
0.386504
0.385042
0.383879
0.382769
0.3819
0.381163
0.380473
0.380025
0.3796
0.379408
0.379301
0.379288
0.379477
0.379778
0.380253
0.380854
0.381631
0.382563
0.383667
0.384894
0.386454
0.387977
0.390024
0.391969
0.394491
0.396997
0.400017
0.403062
0.406584
0.41022
0.414257
0.418605
0.423302
0.428461
0.433981
0.440093
0.446493
0.453646
0.460913
0.469106
0.477248
0.486078
0.494966
0.50429
0.513626
0.523181
0.532619
0.541921
0.550866
0.55917
0.566734
0.573067
0.578293
0.58183
0.58392
0.584674
0.00509465
0.00509027
0.0050887
0.00508721
0.00508651
0.00508585
0.00508557
0.00508536
0.00508535
0.00508585
0.00508736
0.00509002
0.00509452
0.0051023
0.0051168
0.00514441
0.00520088
0.00531861
0.0055703
0.00611955
0.00730091
0.00988187
0.0153356
0.0268742
0.0502419
0.0967019
0.183373
0.337433
0.57996
0.899876
1.03765
1.05742
1.00593
0.850615
0.623538
0.380293
0.228729
0.175577
0.162878
0.16822
0.19048
0.230305
0.279009
0.334926
0.395345
0.466678
0.569946
0.733047
0.97677
1.30507
1.67999
1.97624
2.06845
2.08232
2.06045
1.9946
1.88945
1.77693
1.663
1.56617
1.4731
1.43541
1.42864
1.45199
1.50932
1.61772
1.73868
1.7941
1.79962
1.7635
1.6097
1.30902
0.910793
0.602727
0.492608
0.458494
0.448053
0.449052
0.465169
0.502766
0.555715
0.610499
0.660705
0.697744
0.717639
0.725055
0.728107
0.728742
0.728564
0.72661
0.721767
0.713925
0.703605
0.69117
0.67756
0.662264
0.648255
0.632821
0.620294
0.605747
0.595021
0.581669
0.572502
0.560466
0.552352
0.540859
0.533003
0.521873
0.513456
0.503398
0.495089
0.48657
0.478894
0.472369
0.465188
0.460102
0.453454
0.449594
0.443317
0.440289
0.434573
0.431978
0.426987
0.424755
0.420427
0.418189
0.414417
0.412253
0.408878
0.406653
0.403618
0.401267
0.398592
0.396333
0.394134
0.392052
0.390329
0.388571
0.387356
0.385795
0.385068
0.383929
0.383345
0.382649
0.382265
0.381991
0.381832
0.381838
0.381948
0.382454
0.382768
0.383701
0.384258
0.385617
0.386443
0.388162
0.389303
0.391411
0.392981
0.395352
0.397452
0.400156
0.402956
0.405997
0.409524
0.413064
0.417315
0.421427
0.426457
0.431293
0.437196
0.442955
0.449885
0.456663
0.464793
0.472587
0.481945
0.49081
0.500909
0.510692
0.521383
0.531745
0.542689
0.55324
0.563943
0.574002
0.583587
0.592077
0.599309
0.605098
0.608926
0.611208
0.611982
0.00508908
0.00508782
0.00508476
0.00508392
0.0050831
0.0050828
0.0050825
0.00508247
0.00508276
0.00508382
0.00508525
0.00508697
0.00508945
0.00509348
0.00510094
0.00511448
0.00514082
0.00519226
0.00529777
0.00552085
0.00599405
0.00702478
0.00922034
0.0139518
0.0237873
0.0440721
0.0837558
0.15928
0.291212
0.507716
0.802901
1.01799
1.07383
1.07144
0.998508
0.85296
0.666118
0.490298
0.362034
0.312432
0.299744
0.308941
0.335479
0.384989
0.454995
0.567933
0.736203
0.994641
1.31263
1.67564
1.9137
1.99417
2.00177
1.95903
1.8431
1.68084
1.49239
1.32073
1.16705
1.05412
0.958235
0.901855
0.883181
0.889639
0.909423
0.967232
1.04861
1.1846
1.33569
1.5094
1.59364
1.61202
1.6047
1.52691
1.35473
1.11371
0.847508
0.66293
0.597207
0.578704
0.571762
0.572632
0.576806
0.596981
0.630491
0.673577
0.711263
0.740185
0.753977
0.760755
0.76508
0.766359
0.766871
0.764733
0.760695
0.751067
0.742763
0.728844
0.719241
0.702756
0.692583
0.674599
0.664568
0.647628
0.639193
0.622883
0.614947
0.599262
0.589035
0.576363
0.565387
0.555947
0.544549
0.539107
0.528769
0.524916
0.515989
0.512621
0.504668
0.501667
0.493906
0.490955
0.482841
0.479817
0.47171
0.466971
0.459917
0.453995
0.448425
0.441587
0.4376
0.430463
0.427632
0.421203
0.418646
0.413398
0.411317
0.407131
0.405563
0.402146
0.400954
0.398528
0.397181
0.395698
0.394517
0.393728
0.392849
0.392615
0.392146
0.392172
0.392112
0.39264
0.392817
0.393834
0.394268
0.39573
0.396493
0.398453
0.399734
0.401948
0.403935
0.406434
0.409148
0.412007
0.415455
0.418769
0.423097
0.42695
0.432231
0.436897
0.443204
0.448855
0.456394
0.463123
0.472045
0.479941
0.490301
0.499482
0.510818
0.521141
0.533269
0.544405
0.55692
0.568416
0.580763
0.59196
0.603103
0.612827
0.621106
0.628019
0.632003
0.634723
0.635543
0.00509026
0.00508784
0.00508482
0.00508383
0.00508265
0.00508225
0.00508183
0.0050817
0.00508168
0.00508225
0.00508351
0.00508564
0.00508874
0.00509307
0.00509933
0.00510869
0.00512375
0.00514918
0.00519521
0.00528424
0.00546157
0.00583507
0.00661797
0.00831105
0.0118808
0.0194484
0.0347874
0.065459
0.122632
0.226022
0.392542
0.643241
0.903054
1.06242
1.11927
1.12743
1.09861
1.03381
0.942221
0.850225
0.788274
0.780665
0.79587
0.861543
0.966398
1.14142
1.33771
1.57867
1.76683
1.91414
1.95422
1.94544
1.86374
1.70074
1.47718
1.23663
0.99255
0.786006
0.600443
0.470539
0.365712
0.308198
0.28378
0.283415
0.288343
0.31484
0.35056
0.418637
0.502276
0.637286
0.800325
0.991187
1.17802
1.33193
1.43881
1.46869
1.46963
1.4281
1.34084
1.22353
1.08871
0.954924
0.852242
0.824635
0.815627
0.816594
0.817034
0.826497
0.836731
0.852666
0.874393
0.893649
0.910268
0.915908
0.920261
0.920035
0.921691
0.919386
0.919679
0.911913
0.90778
0.892648
0.885489
0.869587
0.86348
0.846529
0.840028
0.822394
0.809191
0.797092
0.783052
0.778068
0.76567
0.763322
0.755063
0.755293
0.751293
0.752367
0.749807
0.751014
0.746964
0.747321
0.737733
0.7357
0.721804
0.707974
0.692913
0.669294
0.655199
0.627234
0.616379
0.588563
0.578592
0.55464
0.545498
0.525876
0.518439
0.502363
0.496643
0.482971
0.478522
0.468367
0.462663
0.455908
0.450248
0.445814
0.440445
0.438426
0.433484
0.432136
0.42841
0.427526
0.424948
0.4245
0.423036
0.423036
0.422611
0.4232
0.423934
0.42481
0.426719
0.427848
0.430802
0.432159
0.436145
0.437909
0.442949
0.445282
0.451442
0.454615
0.461983
0.466191
0.474898
0.480331
0.490504
0.497341
0.509155
0.517689
0.530632
0.540964
0.554871
0.566658
0.581054
0.593832
0.607975
0.621125
0.633842
0.646076
0.655312
0.66453
0.668879
0.672335
0.673313
0.00509006
0.00508528
0.00508273
0.00508161
0.00508037
0.00507988
0.00507956
0.0050795
0.00507937
0.00507936
0.00507947
0.00508013
0.0050815
0.00508383
0.00508763
0.0050932
0.00510208
0.00511599
0.00513919
0.0051794
0.00525189
0.00539163
0.00566534
0.00623282
0.00740343
0.00988508
0.0149837
0.0254842
0.0458463
0.0848896
0.152868
0.267812
0.436946
0.677159
0.902779
1.06203
1.14099
1.19892
1.23724
1.26484
1.29571
1.33081
1.38624
1.45461
1.54263
1.643
1.74906
1.84021
1.86444
1.84921
1.77276
1.62153
1.41759
1.16488
0.898978
0.644182
0.419687
0.26867
0.166077
0.120155
0.088419
0.0737415
0.0584645
0.0536933
0.0515899
0.0542561
0.0599826
0.0752469
0.0959413
0.132538
0.178966
0.247901
0.341512
0.464447
0.636176
0.800866
0.974622
1.11034
1.23936
1.31171
1.39703
1.44528
1.4835
1.48654
1.47853
1.45752
1.4174
1.36872
1.30976
1.27902
1.27412
1.27015
1.27228
1.27048
1.27548
1.2737
1.27903
1.27625
1.27899
1.27445
1.27682
1.27432
1.27805
1.27711
1.28061
1.27829
1.28021
1.27678
1.26589
1.26344
1.25908
1.26312
1.26191
1.27388
1.27565
1.29805
1.30611
1.33605
1.34861
1.3809
1.39284
1.42091
1.4286
1.443
1.44524
1.43736
1.42771
1.39083
1.36821
1.31246
1.28635
1.21949
1.19392
1.12847
1.10188
1.04187
1.01803
0.965425
0.94558
0.895865
0.878422
0.837547
0.814009
0.784875
0.757015
0.735623
0.704732
0.692241
0.660628
0.64956
0.620919
0.61097
0.585636
0.576982
0.555572
0.548513
0.531385
0.526041
0.514652
0.50789
0.501743
0.49599
0.493544
0.489132
0.488421
0.486382
0.486723
0.486517
0.489139
0.490124
0.495072
0.497246
0.504271
0.507455
0.51649
0.520965
0.532163
0.53899
0.551246
0.561064
0.574443
0.587011
0.601031
0.61591
0.629865
0.646264
0.65924
0.675493
0.685428
0.697588
0.703132
0.707324
0.708534
0.00510078
0.00509089
0.00508746
0.00508593
0.00508412
0.00508359
0.00508294
0.00508281
0.00508255
0.00508274
0.00508294
0.00508412
0.00508561
0.00508842
0.00509191
0.00509758
0.00510503
0.00511631
0.00513184
0.00515611
0.00519357
0.00525656
0.00536362
0.0055614
0.00593343
0.00667805
0.00816249
0.0112126
0.017216
0.029137
0.0508607
0.0901381
0.15307
0.252419
0.385886
0.572629
0.766159
0.939639
1.07268
1.16083
1.2441
1.30166
1.37397
1.42884
1.50004
1.53874
1.54844
1.52272
1.4565
1.31882
1.14302
0.906653
0.683507
0.447666
0.290646
0.174118
0.105158
0.0678879
0.0443219
0.0336252
0.024557
0.0207843
0.01677
0.0151357
0.0136188
0.0135258
0.0136888
0.0151144
0.0175778
0.0228216
0.0303605
0.0427183
0.0617985
0.0877641
0.127037
0.175013
0.240564
0.315802
0.426969
0.547768
0.694805
0.823886
0.992411
1.13796
1.31819
1.45831
1.62165
1.7377
1.86435
1.93995
2.04333
2.09224
2.10596
2.10259
2.09466
2.06685
2.04957
2.01582
2.00548
1.96976
1.95853
1.93073
1.92536
1.91688
1.9201
1.91818
1.92879
1.93297
1.93642
1.94583
1.94686
1.96285
1.96541
1.99286
2.00231
2.04527
2.06626
2.1218
2.15236
2.2131
2.2452
2.30687
2.33835
2.39883
2.42904
2.45458
2.4672
2.46588
2.46732
2.44634
2.4317
2.38163
2.35684
2.29871
2.26944
2.20361
2.17256
2.11178
2.08864
2.02511
2.00297
1.94774
1.90698
1.86726
1.81465
1.78246
1.71615
1.69087
1.61676
1.58876
1.50993
1.47967
1.39577
1.36299
1.27513
1.24063
1.15328
1.119
1.04292
0.997323
0.940288
0.888748
0.849676
0.79666
0.774133
0.72786
0.711213
0.676432
0.664903
0.640837
0.63365
0.618738
0.615099
0.607879
0.60709
0.604255
0.605154
0.607029
0.609972
0.616618
0.621783
0.63321
0.640342
0.655931
0.665549
0.68403
0.696109
0.715687
0.727966
0.743712
0.75122
0.75652
0.758078
0.0052846
0.0051747
0.00515172
0.0051465
0.00512737
0.00512657
0.00511478
0.00511454
0.00510612
0.00510638
0.00509986
0.00510028
0.00509711
0.00509921
0.00509808
0.00510157
0.00510262
0.00511075
0.00511859
0.00513521
0.00515716
0.00519281
0.00524657
0.00533217
0.00547351
0.00571522
0.00615171
0.00697886
0.00853959
0.0115992
0.0172269
0.0277572
0.0453711
0.0749875
0.117765
0.180541
0.257596
0.349329
0.459713
0.563244
0.671203
0.7441
0.819832
0.844826
0.851361
0.821852
0.778686
0.68381
0.596323
0.465527
0.372169
0.256758
0.188656
0.109254
0.0729031
0.042019
0.0288444
0.0208418
0.0168225
0.0144459
0.0121755
0.0111789
0.00996531
0.00943873
0.00861121