/*--------------------------------*- C++ -*----------------------------------*\
| =========                 |                                                 |
| \\      /  F ield         | OpenFOAM: The Open Source CFD Toolbox           |
|  \\    /   O peration     | Version:  4.1                                   |
|   \\  /    A nd           | Web:      www.OpenFOAM.org                      |
|    \\/     M anipulation  |                                                 |
\*---------------------------------------------------------------------------*/
FoamFile
{
    version     2.0;
    format      ascii;
    class       volScalarField;
    location    "8";
    object      p;
}
// * * * * * * * * * * * * * * * * * * * * * * * * * * * * * * * * * * * * * //

dimensions      [0 2 -2 0 0 0 0];

internalField   nonuniform List<scalar> 
204246
(
-10.0811
-19.9856
-20.5971
-20.7776
-21.1484
-21.3146
-21.4806
-21.6174
-21.7471
-21.8383
-21.9312
-21.9936
-22.0533
-22.0812
-22.2106
-22.4664
-22.993
-23.4189
-23.5283
-23.8576
-24.1242
-24.298
-24.2104
-23.87
-23.2466
-22.6374
-22.4103
-23.4065
-27.0273
-32.4921
-39.6363
-46.9022
-50.5866
-55.235
-59.0682
-62.0013
-64.5287
-66.2198
-67.5024
-67.9237
-68.2279
-67.6687
-66.576
-65.2486
-63.6628
-61.6075
-59.4105
-57.1037
-54.9672
-52.9811
-51.3189
-49.9046
-48.795
-47.7987
-46.7502
-46.2412
-45.7435
-45.4627
-45.3164
-45.3913
-45.4933
-45.7626
-46.0694
-46.4415
-46.7029
-47.1149
-47.5268
-48.0953
-48.8144
-49.94
-50.8091
-51.24
-51.8694
-52.2402
-52.8512
-53.1406
-53.7616
-53.9578
-54.8243
-55.0266
-55.3572
-55.6186
-55.9002
-56.0007
-56.128
-56.2352
-57.3227
-57.9473
-57.8136
-58.2608
-58.2804
-58.3552
-58.3609
-59.0686
-59.0716
-59.2313
-59.3665
-59.6026
-59.7717
-60.0118
-60.1492
-60.3004
-60.2243
-60.5206
-60.4486
-61.6026
-62.1031
-62.0264
-62.3212
-62.1731
-62.89
-62.9316
-63.142
-63.2872
-63.4316
-63.368
-63.992
-63.7188
-64.3063
-64.2383
-64.2679
-64.1799
-65.3595
-65.8847
-65.7167
-66.1411
-65.8473
-66.5639
-66.6722
-66.7901
-66.7034
-67.4094
-67.2268
-67.9233
-67.7058
-68.385
-68.0717
-68.6109
-68.4009
-69.7246
-70.3846
-70.3448
-70.895
-70.6538
-71.3641
-71.1642
-71.9259
-71.6731
-72.4089
-72.2154
-72.9212
-73.0444
-73.2049
-73.1393
-73.0325
-72.7286
-73.9724
-74.2861
-73.7031
-73.8645
-73.2537
-72.7245
-71.9996
-71.2246
-70.1415
-68.899
-67.2468
-65.3539
-62.9961
-60.3757
-57.3357
-54.1031
-49.4849
-44.8428
-39.4485
-33.5691
-26.741
-18.8129
-10.2091
-0.398751
10.5964
23.2446
37.6038
54.1505
72.8513
93.9732
117.395
143.685
173.791
213.296
273.306
368.972
497.634
-15.4417
-17.1455
-18.8191
-19.9628
-20.6908
-21.0923
-21.3613
-21.5407
-21.6811
-21.7829
-21.8906
-21.9507
-22.014
-22.0455
-22.1425
-22.3223
-22.6048
-22.9373
-23.2858
-23.6442
-24.0357
-24.3844
-24.6053
-24.5518
-24.1507
-23.4726
-22.8825
-23.1885
-25.2343
-29.573
-36.7421
-43.5521
-48.7907
-53.3903
-57.358
-60.6346
-63.3763
-65.5847
-67.2343
-68.3178
-68.8541
-68.8263
-68.5332
-67.3726
-65.7972
-63.7857
-61.498
-59.099
-56.7779
-54.6096
-52.6622
-50.9572
-49.5052
-48.2813
-47.2702
-46.4542
-45.8432
-45.4286
-45.2191
-45.1075
-45.1741
-45.3863
-45.6966
-46.0098
-46.2965
-46.6884
-47.1492
-47.7108
-48.3865
-49.1534
-49.9078
-50.5736
-51.2137
-51.8029
-52.3594
-52.8588
-53.3201
-53.7754
-54.2773
-54.7252
-55.1131
-55.4554
-55.7024
-55.8909
-56.0872
-56.3731
-56.8118
-57.2532
-57.5818
-57.8456
-58.0406
-58.2141
-58.4034
-58.6319
-58.8475
-59.0506
-59.252
-59.4604
-59.6677
-59.8569
-60.0186
-60.1484
-60.2309
-60.4194
-60.6725
-61.0669
-61.4547
-61.7362
-61.9835
-62.2184
-62.4865
-62.7307
-62.944
-63.1336
-63.3046
-63.4836
-63.692
-63.854
-64.0479
-64.1829
-64.2649
-64.4612
-64.8576
-65.2588
-65.5369
-65.7758
-65.9801
-66.2273
-66.454
-66.6297
-66.8266
-67.0748
-67.3198
-67.5999
-67.8565
-68.0922
-68.2563
-68.4518
-68.7569
-69.2477
-69.7646
-70.1736
-70.5284
-70.8275
-71.1121
-71.4147
-71.7024
-72.0072
-72.2727
-72.5993
-72.9005
-73.2635
-73.4639
-73.6758
-73.6583
-73.9012
-74.1277
-74.3615
-74.4664
-74.4596
-74.4031
-74.0116
-73.7143
-73.0806
-72.4119
-71.4308
-70.227
-68.7017
-66.8893
-64.7743
-62.2723
-59.3873
-55.8909
-51.9332
-47.3369
-42.2152
-36.225
-29.383
-21.7977
-13.261
-3.82013
6.86048
18.8433
32.5832
48.1285
65.7517
85.0658
105.84
127.693
152.719
188.629
254.063
350.807
-20.881
-20.0156
-19.9796
-20.3016
-20.691
-21.0249
-21.2954
-21.5051
-21.6563
-21.769
-21.8513
-21.9231
-21.9887
-22.0677
-22.1823
-22.334
-22.528
-22.7521
-23.0182
-23.3458
-23.7375
-24.1479
-24.5406
-24.8275
-24.9144
-24.8155
-24.8962
-26.2392
-28.6305
-32.5513
-38.5577
-44.3599
-49.3522
-53.8118
-57.6801
-60.7958
-63.1911
-65.2038
-67.0301
-68.4535
-69.2514
-69.1592
-68.6851
-68.0677
-66.7417
-64.8635
-62.63
-60.2416
-57.8603
-55.5963
-53.5045
-51.6325
-49.9841
-48.6118
-47.5137
-46.6123
-45.9206
-45.4458
-45.1658
-45.0445
-45.0265
-45.1826
-45.4666
-45.7797
-46.1639
-46.5588
-47.042
-47.6078
-48.2571
-48.9296
-49.6132
-50.2751
-50.9191
-51.5412
-52.132
-52.6796
-53.1804
-53.6617
-54.1238
-54.5612
-54.9731
-55.3428
-55.6378
-55.8916
-56.1496
-56.4475
-56.7641
-57.0797
-57.391
-57.6634
-57.9072
-58.1176
-58.3374
-58.5285
-58.7297
-58.9319
-59.1454
-59.355
-59.5763
-59.7675
-59.9509
-60.1003
-60.2552
-60.46
-60.7168
-60.989
-61.2625
-61.5398
-61.8049
-62.07
-62.3156
-62.5612
-62.7811
-62.9918
-63.1874
-63.3996
-63.5899
-63.7819
-63.9586
-64.125
-64.2914
-64.5189
-64.7606
-65.0172
-65.2844
-65.5363
-65.7817
-66.0077
-66.2251
-66.4379
-66.6495
-66.8713
-67.1158
-67.3741
-67.6318
-67.8737
-68.1017
-68.3418
-68.6385
-68.999
-69.3799
-69.7507
-70.1065
-70.4277
-70.7352
-71.0268
-71.3197
-71.5986
-71.8878
-72.1708
-72.474
-72.7302
-72.9686
-73.1187
-73.2735
-73.4157
-73.6653
-73.8263
-73.8494
-73.7939
-73.59
-73.3036
-72.8679
-72.313
-71.5628
-70.5899
-69.3537
-67.8005
-65.9977
-63.8237
-61.3456
-58.4069
-55.1004
-51.2568
-46.8669
-41.7793
-35.9609
-29.4198
-21.9883
-13.6584
-4.31519
6.08491
17.7761
30.9493
45.9629
62.9095
81.7238
101.771
122.728
145.179
173.851
217
274.201
-22.8961
-21.8695
-21.3265
-21.1442
-21.1525
-21.2616
-21.4039
-21.545
-21.6654
-21.7539
-21.8225
-21.8837
-21.9505
-22.0312
-22.1319
-22.2456
-22.3797
-22.5444
-22.7477
-22.9997
-23.3116
-23.6995
-24.1163
-24.5292
-24.8816
-25.1596
-25.7054
-27.8133
-30.9053
-35.4874
-41.3952
-46.9009
-51.1227
-54.6103
-57.752
-60.7153
-63.3001
-65.3944
-67.2054
-68.7898
-70.0487
-70.9282
-70.8651
-69.987
-68.5919
-66.6422
-64.2719
-61.7099
-59.1163
-56.6328
-54.3161
-52.2483
-50.4278
-48.8991
-47.6464
-46.6288
-45.8566
-45.3127
-44.9722
-44.7823
-44.7528
-44.8629
-45.0805
-45.3982
-45.7645
-46.1978
-46.7062
-47.2787
-47.9162
-48.5801
-49.2588
-49.926
-50.5845
-51.2231
-51.8397
-52.4194
-52.9634
-53.4769
-53.9459
-54.391
-54.799
-55.1788
-55.5026
-55.8028
-56.0874
-56.3823
-56.6684
-56.9543
-57.2369
-57.5076
-57.7636
-57.9929
-58.2192
-58.4173
-58.6243
-58.8138
-59.0281
-59.2281
-59.4478
-59.6371
-59.8411
-60.0085
-60.1997
-60.4112
-60.6597
-60.8943
-61.1443
-61.4016
-61.6651
-61.9332
-62.1724
-62.4368
-62.6379
-62.8869
-63.0702
-63.3138
-63.4953
-63.7123
-63.8803
-64.0773
-64.2542
-64.5065
-64.7014
-64.9413
-65.1836
-65.4047
-65.6765
-65.8781
-66.1293
-66.3228
-66.5722
-66.7722
-67.0421
-67.2694
-67.5524
-67.7749
-68.0529
-68.2993
-68.648
-68.9415
-69.282
-69.6372
-69.9715
-70.3494
-70.6507
-71.0121
-71.2906
-71.6435
-71.9079
-72.2783
-72.5499
-72.92
-73.1289
-73.4165
-73.604
-73.9984
-74.1277
-74.3451
-74.5266
-74.6061
-74.6142
-74.497
-74.3197
-74.0142
-73.6065
-73.0545
-72.2675
-71.2463
-69.8422
-68.1071
-65.9655
-63.4471
-60.4894
-57.0904
-53.1634
-48.6688
-43.4644
-37.539
-30.8448
-23.2893
-14.846
-5.40105
5.11422
16.8759
29.9732
44.5151
60.4743
77.8853
96.933
118.729
145.998
180.743
219.139
-24.2211
-23.1976
-22.4579
-21.9824
-21.7323
-21.6379
-21.6386
-21.6774
-21.736
-21.7895
-21.8332
-21.8817
-21.9304
-21.9888
-22.0586
-22.1467
-22.242
-22.3601
-22.5056
-22.6842
-22.9132
-23.2056
-23.5644
-23.9801
-24.4397
-24.9695
-25.8972
-28.4019
-31.7555
-36.6777
-42.9615
-48.8083
-53.0973
-56.4185
-58.6871
-61.1449
-63.5356
-65.6045
-67.4497
-69.0956
-70.4965
-71.5448
-71.9784
-71.5784
-70.3968
-68.508
-66.0872
-63.3571
-60.5233
-57.782
-55.2127
-52.9176
-50.8935
-49.1635
-47.7489
-46.6262
-45.778
-45.1736
-44.7727
-44.5344
-44.472
-44.5676
-44.7796
-45.0782
-45.4551
-45.8866
-46.4016
-46.9684
-47.6004
-48.2563
-48.9397
-49.6174
-50.2922
-50.9479
-51.5801
-52.1822
-52.7537
-53.2987
-53.79
-54.2561
-54.6708
-55.0629
-55.399
-55.7282
-56.0241
-56.3249
-56.5912
-56.8635
-57.1282
-57.3924
-57.6548
-57.8826
-58.1153
-58.3124
-58.5436
-58.7173
-58.9487
-59.1268
-59.3611
-59.5335
-59.7599
-59.9267
-60.1395
-60.3378
-60.5873
-60.7945
-61.0484
-61.296
-61.5406
-61.8137
-62.0392
-62.3192
-62.5233
-62.7834
-62.9734
-63.224
-63.4097
-63.6352
-63.8079
-64.0183
-64.1908
-64.4282
-64.6198
-64.8525
-65.0798
-65.2901
-65.549
-65.7454
-66.0028
-66.1937
-66.4533
-66.6499
-66.9258
-67.1426
-67.4316
-67.6521
-67.9438
-68.1839
-68.5236
-68.807
-69.1417
-69.4722
-69.8044
-70.1666
-70.4697
-70.8165
-71.1189
-71.4449
-71.7484
-72.0708
-72.3807
-72.6826
-72.9511
-73.1765
-73.4043
-73.613
-73.8652
-74.0751
-74.2017
-74.2574
-74.2166
-74.0733
-73.8011
-73.371
-72.8105
-72.0803
-71.2562
-70.2274
-69.0213
-67.5208
-65.7214
-63.5428
-60.9707
-57.9381
-54.4185
-50.3414
-45.6462
-40.3161
-34.2346
-27.3262
-19.5019
-10.6971
-0.867426
9.97456
21.7707
34.407
47.8568
62.2219
78.1046
96.8607
120.226
148.24
176.202
-25.1918
-24.2002
-23.387
-22.7709
-22.3565
-22.1133
-21.9879
-21.9205
-21.8988
-21.8961
-21.9062
-21.9266
-21.9589
-21.9918
-22.0337
-22.0875
-22.1464
-22.2195
-22.3088
-22.4226
-22.5692
-22.7718
-23.0431
-23.3891
-23.8246
-24.4359
-25.5903
-28.3154
-32.1262
-37.1518
-43.4538
-49.545
-54.1401
-57.4923
-59.4527
-61.5749
-63.7526
-65.7168
-67.4882
-69.1699
-70.76
-72.0996
-72.941
-72.9969
-72.2019
-70.5437
-68.1642
-65.3035
-62.2298
-59.1721
-56.2801
-53.6637
-51.355
-49.4471
-47.8841
-46.6097
-45.6352
-44.9439
-44.4888
-44.2266
-44.1639
-44.2773
-44.4406
-44.7298
-45.1224
-45.5697
-46.0979
-46.6677
-47.2989
-47.9485
-48.6375
-49.3259
-50.015
-50.6866
-51.3322
-51.9519
-52.5451
-53.1145
-53.6286
-54.1166
-54.5465
-54.955
-55.3086
-55.6584
-55.9602
-56.2692
-56.5249
-56.7904
-57.0474
-57.3007
-57.5615
-57.7777
-58.0198
-58.2182
-58.4517
-58.6312
-58.8626
-59.0412
-59.2746
-59.448
-59.6768
-59.8513
-60.073
-60.2652
-60.5055
-60.7085
-60.9573
-61.2023
-61.4354
-61.7025
-61.9313
-62.205
-62.4182
-62.6794
-62.879
-63.1304
-63.3267
-63.5573
-63.7403
-63.9569
-64.1325
-64.3579
-64.5461
-64.7699
-64.9809
-65.1942
-65.4283
-65.6254
-65.8715
-66.0687
-66.3193
-66.5227
-66.7888
-67.0085
-67.2913
-67.5193
-67.8117
-68.0556
-68.3821
-68.6577
-68.9877
-69.3104
-69.6404
-69.9987
-70.3147
-70.6729
-70.9835
-71.3395
-71.6473
-72.0121
-72.3236
-72.6872
-72.9712
-73.337
-73.6071
-74.0028
-74.1866
-74.4526
-74.7668
-74.9578
-75.1698
-75.2337
-75.2926
-75.3268
-75.2092
-74.9432
-74.4071
-73.6387
-72.5894
-71.2674
-69.6279
-67.6621
-65.3212
-62.5853
-59.4009
-55.737
-51.5022
-46.6801
-41.1855
-34.9056
-27.7578
-19.6511
-10.575
-0.550171
10.3029
21.8576
34.0595
46.9716
61.0777
77.563
97.2282
119.928
141.456
-25.9229
-24.9366
-24.1036
-23.4296
-22.9059
-22.5436
-22.3145
-22.1678
-22.0759
-22.0207
-21.993
-21.977
-21.973
-21.9804
-21.9946
-22.0205
-22.0543
-22.0953
-22.1415
-22.194
-22.2697
-22.3833
-22.562
-22.8312
-23.2317
-23.8136
-24.8713
-27.3179
-31.5889
-36.6729
-43.0608
-49.4208
-54.6521
-57.5343
-59.8721
-61.7521
-63.703
-65.6469
-67.5024
-69.2815
-71.0085
-72.5797
-73.7695
-74.2909
-73.8436
-72.5882
-70.4169
-67.5647
-64.3331
-61.0171
-57.8296
-54.9105
-52.3178
-50.0873
-48.2206
-46.7263
-45.5994
-44.8124
-44.2863
-43.9309
-43.8226
-43.8876
-44.1026
-44.3888
-44.783
-45.2305
-45.7706
-46.3513
-46.9911
-47.6368
-48.3312
-49.0327
-49.7333
-50.4193
-51.0813
-51.7188
-52.3316
-52.9203
-53.4568
-53.9657
-54.4142
-54.8454
-55.2162
-55.5804
-55.893
-56.2063
-56.4651
-56.7282
-56.9845
-57.2304
-57.4838
-57.6975
-57.9342
-58.1353
-58.3695
-58.5517
-58.7829
-58.9623
-59.1941
-59.3707
-59.5992
-59.7805
-60.0057
-60.1976
-60.4339
-60.6316
-60.8729
-61.1138
-61.3453
-61.6084
-61.8379
-62.11
-62.3282
-62.5921
-62.7986
-63.0519
-63.2553
-63.4914
-63.6824
-63.9025
-64.0869
-64.3086
-64.4871
-64.6963
-64.9006
-65.1053
-65.3363
-65.53
-65.7634
-65.9632
-66.1984
-66.4107
-66.6585
-66.8877
-67.1528
-67.3943
-67.6713
-67.9305
-68.2306
-68.5056
-68.8189
-69.1338
-69.4613
-69.7915
-70.1146
-70.447
-70.7708
-71.1004
-71.4246
-71.7532
-72.0774
-72.3931
-72.7002
-72.9886
-73.2766
-73.538
-73.8367
-74.098
-74.2972
-74.4446
-74.5137
-74.498
-74.381
-74.1683
-73.9232
-73.5942
-73.2444
-72.7556
-72.1034
-71.2058
-70.0309
-68.5253
-66.6616
-64.3996
-61.7136
-58.5681
-54.9099
-50.7319
-45.9394
-40.4446
-34.1609
-27.0189
-19.0043
-10.1406
-0.505836
9.81126
20.7565
32.4075
45.1491
59.7674
76.5951
95.3715
112.601
-26.4599
-25.4891
-24.6582
-23.969
-23.4018
-22.9761
-22.6628
-22.4661
-22.313
-22.2
-22.1273
-22.079
-22.0464
-22.0241
-22.0132
-22.0087
-22.0114
-22.0194
-22.0278
-22.0379
-22.0561
-22.1007
-22.1853
-22.3376
-22.621
-23.1289
-24.0334
-25.8266
-30.2228
-35.2047
-41.7374
-48.502
-54.3798
-57.8418
-60.1369
-62.1039
-63.7945
-65.4878
-67.2455
-69.0542
-70.9054
-72.6991
-74.218
-75.1874
-75.3661
-74.4258
-72.5517
-69.8298
-66.5502
-63.0497
-59.5971
-56.396
-53.5429
-51.0723
-49.001
-47.3153
-45.98
-44.9459
-44.1719
-43.7131
-43.5577
-43.5003
-43.6906
-43.9986
-44.4083
-44.8701
-45.4146
-46.0093
-46.6655
-47.3173
-48.0182
-48.7369
-49.4538
-50.1549
-50.8314
-51.4817
-52.1086
-52.7147
-53.2706
-53.7954
-54.2644
-54.7178
-55.1058
-55.4837
-55.8116
-56.1292
-56.398
-56.6658
-56.9217
-57.1651
-57.4115
-57.6239
-57.8596
-58.0567
-58.2906
-58.4729
-58.7014
-58.8817
-59.109
-59.2884
-59.5135
-59.6986
-59.9218
-60.1155
-60.3461
-60.5384
-60.7759
-61.0109
-61.2391
-61.4939
-61.7254
-61.9884
-62.2147
-62.4732
-62.6907
-62.9401
-63.1537
-63.3867
-63.5879
-63.8061
-63.9985
-64.2103
-64.3897
-64.6008
-64.7999
-64.9963
-65.2134
-65.4074
-65.6364
-65.833
-66.0682
-66.2785
-66.5224
-66.7532
-67.0107
-67.2599
-67.5331
-67.8023
-68.0898
-68.3724
-68.6758
-68.9942
-69.3211
-69.6589
-69.9931
-70.34
-70.6767
-71.0292
-71.3704
-71.7301
-72.076
-72.4411
-72.7885
-73.1558
-73.4943
-73.8463
-74.1543
-74.493
-74.847
-75.1863
-75.5102
-75.7819
-76.0116
-76.1678
-76.1956
-76.096
-75.8111
-75.3674
-74.7326
-73.9047
-72.8365
-71.5047
-69.8557
-67.8609
-65.4756
-62.6746
-59.3965
-55.631
-51.2994
-46.332
-40.6796
-34.3004
-27.1855
-19.3411
-10.8158
-1.65781
8.12554
18.6304
30.1679
43.1975
57.8468
73.7755
88.0288
-26.7743
-25.8371
-25.0376
-24.3589
-23.7865
-23.3193
-22.9489
-22.6894
-22.5029
-22.3564
-22.2431
-22.1657
-22.1043
-22.06
-22.0261
-22.0038
-21.9852
-21.9703
-21.9529
-21.9313
-21.914
-21.9084
-21.9283
-21.993
-22.1609
-22.5424
-23.2753
-24.6302
-28.1866
-32.8372
-39.076
-45.892
-52.2392
-56.9866
-59.775
-61.7407
-63.6079
-65.238
-66.9232
-68.6974
-70.5801
-72.4875
-74.2286
-75.5338
-76.1116
-75.6914
-74.2215
-71.764
-68.5849
-65.0223
-61.3898
-57.9525
-54.8587
-52.1793
-49.9377
-48.0997
-46.6162
-45.4342
-44.5443
-43.9992
-43.6489
-43.4814
-43.5166
-43.7698
-44.1328
-44.5782
-45.0992
-45.6965
-46.3641
-47.0055
-47.6891
-48.4206
-49.1579
-49.8771
-50.5652
-51.2263
-51.8586
-52.4742
-53.0513
-53.5962
-54.0882
-54.5597
-54.9684
-55.36
-55.7059
-56.0299
-56.3125
-56.588
-56.8507
-57.0975
-57.3407
-57.5542
-57.7824
-57.982
-58.2092
-58.3939
-58.6165
-58.8005
-59.0209
-59.205
-59.4247
-59.6159
-59.831
-60.0287
-60.2507
-60.448
-60.6736
-60.9007
-61.1359
-61.378
-61.6177
-61.8681
-62.1069
-62.3549
-62.5879
-62.8288
-63.0555
-63.2837
-63.4996
-63.7151
-63.9173
-64.1171
-64.3013
-64.498
-64.6954
-64.8935
-65.0913
-65.2799
-65.4893
-65.6796
-65.9024
-66.1163
-66.3456
-66.5774
-66.8221
-67.0706
-67.3318
-67.5977
-67.8741
-68.1591
-68.4589
-68.764
-69.0793
-69.3981
-69.7244
-70.051
-70.3832
-70.7148
-71.0528
-71.3883
-71.7296
-72.0642
-72.4034
-72.7335
-73.0742
-73.4117
-73.7649
-74.0881
-74.3551
-74.5895
-74.7777
-74.9654
-75.1045
-75.2033
-75.2704
-75.281
-75.2993
-75.2229
-75.0253
-74.6405
-74.0395
-73.176
-72.0137
-70.5112
-68.6319
-66.3387
-63.5719
-60.3158
-56.5151
-52.1201
-47.1041
-41.445
-35.1479
-28.2223
-20.6937
-12.5726
-3.84
5.62219
16.05
27.7146
40.6513
54.469
66.6144
-26.9088
-26.0435
-25.2901
-24.6424
-24.087
-23.6183
-23.2335
-22.9452
-22.7193
-22.5349
-22.3912
-22.2828
-22.1983
-22.1276
-22.0718
-22.0251
-21.9864
-21.9511
-21.9137
-21.875
-21.8351
-21.8037
-21.7846
-21.7973
-21.885
-22.1469
-22.7456
-23.8821
-25.9794
-30.263
-35.8844
-42.5087
-49.0055
-54.6202
-58.5872
-61.2607
-63.3221
-64.7109
-66.4006
-68.1475
-70.0158
-71.9456
-73.7902
-75.3341
-76.2572
-76.2459
-75.2693
-73.1792
-70.2352
-66.7581
-63.0757
-59.4998
-56.2219
-53.3541
-50.9451
-48.9687
-47.3725
-46.1019
-45.127
-44.4289
-43.9533
-43.7435
-43.6841
-43.7794
-44.0272
-44.3611
-44.8157
-45.395
-46.0495
-46.689
-47.3569
-48.0707
-48.8078
-49.5469
-50.2616
-50.9498
-51.6021
-52.2301
-52.8182
-53.3711
-53.8781
-54.3634
-54.7952
-55.205
-55.5711
-55.9059
-56.2032
-56.4827
-56.7559
-57.0075
-57.2521
-57.4747
-57.6985
-57.9038
-58.1199
-58.3098
-58.5232
-58.7127
-58.9249
-59.1133
-59.3264
-59.523
-59.7285
-59.9307
-60.14
-60.3445
-60.5617
-60.7859
-61.0183
-61.2559
-61.4985
-61.7457
-61.9872
-62.2352
-62.4732
-62.7166
-62.9486
-63.182
-63.4044
-63.6268
-63.8339
-64.0359
-64.2221
-64.4105
-64.6051
-64.7984
-64.9965
-65.1885
-65.3914
-65.5868
-65.7997
-66.007
-66.2339
-66.4612
-66.7078
-66.9543
-67.2195
-67.4834
-67.7637
-68.04
-68.3365
-68.6466
-68.9663
-69.2969
-69.6302
-69.9744
-70.314
-70.6679
-71.016
-71.3798
-71.7358
-72.1076
-72.4695
-72.8488
-73.2171
-73.6014
-73.9663
-74.3515
-74.7488
-75.1415
-75.5328
-75.8929
-76.2174
-76.4666
-76.6354
-76.7157
-76.6916
-76.5776
-76.3655
-76.0482
-75.5969
-74.9705
-74.1246
-73.0097
-71.5726
-69.7556
-67.4936
-64.7626
-61.5146
-57.7113
-53.3384
-48.386
-42.8653
-36.7872
-30.1641
-22.984
-15.2039
-6.70103
2.70788
13.1921
24.7507
36.956
47.5608
-26.851
-26.0569
-25.3572
-24.7571
-24.2363
-23.787
-23.4104
-23.1151
-22.8718
-22.6699
-22.5094
-22.3796
-22.2725
-22.1881
-22.1161
-22.0561
-22.0024
-21.953
-21.9028
-21.849
-21.7967
-21.7475
-21.7063
-21.6868
-21.7256
-21.8943
-22.3222
-23.1555
-24.7121
-28.1054
-32.7043
-38.6253
-45.0544
-51.1202
-56.208
-59.8785
-62.2611
-64.4476
-66.0231
-67.4701
-69.2925
-71.2485
-73.1352
-74.798
-75.9341
-76.0248
-75.5739
-73.9204
-71.3118
-68.0475
-64.4658
-60.9047
-57.5758
-54.6084
-52.063
-49.941
-48.2102
-46.8337
-45.7684
-44.9742
-44.4287
-44.1101
-43.9564
-43.943
-44.1312
-44.4365
-44.8495
-45.2894
-45.7824
-46.3734
-47.0483
-47.7834
-48.5406
-49.264
-49.9636
-50.65
-51.3094
-51.9446
-52.5456
-53.1181
-53.6426
-54.1372
-54.5848
-55.0102
-55.3937
-55.7463
-56.0606
-56.3528
-56.6351
-56.8958
-57.1464
-57.3813
-57.6058
-57.8151
-58.0237
-58.2218
-58.4268
-58.6223
-58.8252
-59.0199
-59.2246
-59.4235
-59.6273
-59.8271
-60.0301
-60.233
-60.4473
-60.6669
-60.8935
-61.1276
-61.3698
-61.6146
-61.8565
-62.104
-62.3454
-62.5904
-62.8275
-63.0642
-63.292
-63.5166
-63.7279
-63.9302
-64.1191
-64.3069
-64.4931
-64.681
-64.8672
-65.0509
-65.2363
-65.4269
-65.6253
-65.8288
-66.0428
-66.2655
-66.4999
-66.7428
-66.9954
-67.2557
-67.5251
-67.8039
-68.0957
-68.3942
-68.7037
-69.0195
-69.3436
-69.6711
-70.0046
-70.3416
-70.6852
-71.0311
-71.3836
-71.7375
-72.0984
-72.4601
-72.8301
-73.2011
-73.5821
-73.9621
-74.3317
-74.6979
-75.0498
-75.397
-75.7327
-76.0861
-76.4294
-76.7469
-77.0164
-77.1932
-77.2587
-77.1985
-76.999
-76.646
-76.1081
-75.3466
-74.3097
-72.94
-71.167
-68.9574
-66.2632
-63.0534
-59.3199
-55.0601
-50.2866
-45.0086
-39.2297
-32.9268
-26.0362
-18.4306
-9.95781
-0.500057
9.92325
20.8678
30.3061
-26.6138
-25.9227
-25.308
-24.7836
-24.3204
-23.9129
-23.5622
-23.2699
-23.0199
-22.8051
-22.6317
-22.4868
-22.3683
-22.2645
-22.1778
-22.1002
-22.0317
-21.9671
-21.9065
-21.8497
-21.7936
-21.7407
-21.6911
-21.6593
-21.672
-21.7832
-22.089
-22.7163
-23.8836
-26.1509
-29.972
-34.8603
-40.5743
-46.5203
-52.1321
-56.8471
-60.4289
-62.9654
-64.9932
-66.8795
-68.6936
-70.5336
-72.3557
-74.0137
-75.3069
-76.0517
-75.3918
-73.9775
-71.7002
-68.7495
-65.4215
-62.0324
-58.8036
-55.8656
-53.2818
-51.0701
-49.231
-47.7417
-46.5686
-45.6655
-45.0116
-44.585
-44.3466
-44.2704
-44.373
-44.5822
-44.8817
-45.2911
-45.7925
-46.3476
-46.9381
-47.5179
-48.1497
-48.871
-49.6171
-50.3396
-51.015
-51.6472
-52.2543
-52.8287
-53.3654
-53.8782
-54.3444
-54.7847
-55.1866
-55.5609
-55.8944
-56.2085
-56.4995
-56.7702
-57.0259
-57.2674
-57.4968
-57.7156
-57.9289
-58.1308
-58.3351
-58.5315
-58.7325
-58.9274
-59.1292
-59.3272
-59.5305
-59.7285
-59.9281
-60.127
-60.3372
-60.5525
-60.7745
-61.0062
-61.2461
-61.4907
-61.7336
-61.983
-62.2268
-62.4757
-62.7172
-62.96
-63.1935
-63.4253
-63.6423
-63.8513
-64.0408
-64.2278
-64.4136
-64.5979
-64.7839
-64.9639
-65.1501
-65.3326
-65.5301
-65.7246
-65.9357
-66.1516
-66.3856
-66.6244
-66.8788
-67.1357
-67.4069
-67.6779
-67.9668
-68.2682
-68.5801
-68.9028
-69.231
-69.569
-69.9064
-70.256
-70.6038
-70.9643
-71.323
-71.6956
-72.0663
-72.4515
-72.8355
-73.2354
-73.6332
-74.0498
-74.4717
-74.8882
-75.299
-75.6945
-76.0791
-76.4435
-76.7986
-77.137
-77.4579
-77.7466
-77.9825
-78.1361
-78.186
-78.1107
-77.8843
-77.4707
-76.8226
-75.884
-74.587
-72.889
-70.7426
-68.1183
-65.0114
-61.4228
-57.3678
-52.8534
-47.879
-42.4132
-36.3813
-29.6401
-22.0433
-13.4947
-4.02704
5.90949
14.4492
-26.1762
-25.6051
-25.1002
-24.6593
-24.2634
-23.9016
-23.5931
-23.3182
-23.083
-22.8823
-22.7081
-22.5592
-22.4291
-22.3207
-22.2264
-22.1445
-22.0705
-22.0005
-21.9328
-21.8652
-21.8058
-21.75
-21.7002
-21.6647
-21.6672
-21.7465
-21.9723
-22.4513
-23.3504
-24.9609
-27.6349
-31.5074
-36.3624
-41.7924
-47.2362
-52.2868
-56.6676
-60.1863
-62.9662
-65.2584
-67.2958
-69.2118
-71.0106
-72.6133
-73.8593
-74.5536
-74.3448
-73.2645
-71.3771
-68.8502
-65.9142
-62.846
-59.844
-57.0298
-54.4909
-52.2647
-50.3721
-48.7981
-47.5294
-46.5259
-45.7605
-45.2137
-44.8619
-44.6531
-44.6588
-44.781
-45.0214
-45.3596
-45.7717
-46.232
-46.7794
-47.4186
-48.0784
-48.7265
-49.3402
-49.9646
-50.6234
-51.2925
-51.9371
-52.5393
-53.0992
-53.615
-54.0908
-54.5463
-54.9594
-55.3419
-55.6952
-56.0299
-56.3342
-56.6208
-56.8879
-57.1411
-57.3802
-57.6063
-57.8246
-58.0304
-58.2366
-58.4341
-58.6345
-58.8286
-59.0289
-59.2267
-59.4297
-59.627
-59.8237
-60.019
-60.224
-60.4347
-60.6528
-60.8799
-61.1154
-61.3566
-61.5988
-61.8471
-62.0931
-62.3441
-62.5891
-62.8353
-63.0742
-63.3099
-63.5325
-63.7443
-63.9384
-64.1253
-64.3061
-64.4863
-64.6642
-64.8364
-65.0079
-65.1823
-65.3658
-65.5551
-65.755
-65.9637
-66.1872
-66.421
-66.6661
-66.9185
-67.1806
-67.4508
-67.7358
-68.0293
-68.3347
-68.6486
-68.9708
-69.2983
-69.6316
-69.9716
-70.3173
-70.6692
-71.0277
-71.3927
-71.7643
-72.1426
-72.5292
-72.926
-73.3366
-73.7638
-74.1999
-74.6496
-75.107
-75.5697
-76.0294
-76.4833
-76.929
-77.3655
-77.7893
-78.1935
-78.5672
-78.8957
-79.1613
-79.3408
-79.4095
-79.3328
-79.0659
-78.5527
-77.7269
-76.5363
-74.932
-72.8834
-70.3856
-67.4419
-64.0719
-60.2873
-56.087
-51.4367
-46.2513
-40.3714
-33.6269
-25.9154
-17.2766
-8.16133
-0.319019
-25.5936
-25.156
-24.7745
-24.4448
-24.1309
-23.8498
-23.5931
-23.3575
-23.1436
-22.953
-22.7833
-22.6343
-22.5054
-22.3912
-22.289
-22.1966
-22.1142
-22.0344
-21.9567
-21.8881
-21.8286
-21.7767
-21.7313
-21.6996
-21.7002
-21.7614
-21.9359
-22.3014
-22.9888
-24.1924
-26.1391
-28.9848
-32.7837
-37.4024
-42.4092
-47.4003
-52.0037
-56.0298
-59.4557
-62.3332
-64.7909
-66.9485
-68.8624
-70.5036
-71.7788
-72.5803
-72.6066
-71.8995
-70.4633
-68.4291
-65.975
-63.3196
-60.6266
-58.0173
-55.6033
-53.4335
-51.5405
-49.9257
-48.5865
-47.4994
-46.6442
-45.9958
-45.5437
-45.2655
-45.0999
-45.0944
-45.228
-45.467
-45.8023
-46.2128
-46.698
-47.2381
-47.8196
-48.4484
-49.1145
-49.8003
-50.4441
-51.0408
-51.6086
-52.1748
-52.7288
-53.2628
-53.7676
-54.2388
-54.688
-55.1119
-55.4847
-55.8305
-56.1554
-56.456
-56.7353
-56.9969
-57.2446
-57.4813
-57.7105
-57.9239
-58.1359
-58.3372
-58.5397
-58.7344
-58.9344
-59.1311
-59.3345
-59.5322
-59.7289
-59.9205
-60.1198
-60.3252
-60.5388
-60.7616
-60.9931
-61.2323
-61.4725
-61.721
-61.9676
-62.2221
-62.4702
-62.7214
-62.9653
-63.2081
-63.4378
-63.6586
-63.8564
-64.0455
-64.2257
-64.4029
-64.5801
-64.7494
-64.9194
-65.0848
-65.2643
-65.4433
-65.6384
-65.8382
-66.0562
-66.2833
-66.5265
-66.7745
-67.0358
-67.2986
-67.5787
-67.8706
-68.1739
-68.4885
-68.8102
-69.1409
-69.4731
-69.8158
-70.1596
-70.5144
-70.8711
-71.2397
-71.6106
-71.9943
-72.381
-72.7809
-73.1852
-73.6087
-74.0471
-74.5015
-74.9716
-75.4547
-75.9501
-76.4535
-76.964
-77.4766
-77.9907
-78.4996
-78.9986
-79.4779
-79.927
-80.3287
-80.6625
-80.8984
-80.9952
-80.8974
-80.5397
-79.8582
-78.7972
-77.3187
-75.4142
-73.0877
-70.3648
-67.2703
-63.8129
-59.9632
-55.6295
-50.6282
-44.7503
-37.8561
-29.9763
-21.5497
-14.24
-24.8354
-24.5564
-24.3096
-24.0871
-23.866
-23.6592
-23.4732
-23.2838
-23.1153
-22.9505
-22.7961
-22.6618
-22.5343
-22.422
-22.32
-22.2295
-22.1441
-22.0638
-21.9911
-21.9202
-21.8595
-21.8052
-21.7624
-21.7351
-21.737
-21.7906
-21.9337
-22.2254
-22.7613
-23.6745
-25.1403
-27.2925
-30.2069
-33.8581
-38.1292
-42.7061
-47.2574
-51.4912
-55.2681
-58.5734
-61.4325
-63.9062
-66.038
-67.825
-69.2123
-70.1211
-70.4703
-70.1461
-69.1676
-67.6318
-65.6729
-63.4502
-61.1082
-58.7666
-56.5438
-54.4947
-52.66
-51.056
-49.6915
-48.5481
-47.6129
-46.8669
-46.306
-45.914
-45.6577
-45.5341
-45.5419
-45.6649
-45.896
-46.2199
-46.6295
-47.1052
-47.638
-48.2182
-48.8274
-49.4539
-50.0879
-50.7195
-51.3352
-51.9358
-52.5045
-53.0313
-53.5019
-53.9505
-54.3784
-54.8112
-55.1994
-55.5739
-55.9309
-56.2643
-56.5662
-56.8418
-57.1006
-57.3442
-57.5826
-57.8041
-58.0246
-58.2293
-58.4358
-58.6323
-58.836
-59.0331
-59.2378
-59.4355
-59.6338
-59.8235
-60.0192
-60.2185
-60.4266
-60.6445
-60.8702
-61.1054
-61.3403
-61.5862
-61.8307
-62.0871
-62.338
-62.5917
-62.8393
-63.0862
-63.3216
-63.5491
-63.7533
-63.9494
-64.1301
-64.3044
-64.4734
-64.638
-64.7994
-64.9574
-65.1263
-65.2983
-65.4843
-65.6759
-65.8846
-66.1047
-66.3414
-66.5849
-66.8402
-67.0991
-67.3753
-67.662
-67.9611
-68.2714
-68.5909
-68.9183
-69.2483
-69.5878
-69.9304
-70.2832
-70.6397
-71.0077
-71.3813
-71.7688
-72.1626
-72.5692
-72.9807
-73.411
-73.8555
-74.3179
-74.7995
-75.3005
-75.8211
-76.3585
-76.9152
-77.4857
-78.0712
-78.6662
-79.2701
-79.8764
-80.4795
-81.0701
-81.6341
-82.1476
-82.5772
-82.8718
-82.9702
-82.7972
-82.2845
-81.3789
-80.0613
-78.3321
-76.2199
-73.7656
-71.0037
-67.9246
-64.4476
-60.3681
-55.4129
-49.3719
-42.2486
-34.4424
-27.5444
-23.93
-23.8183
-23.7263
-23.6301
-23.5285
-23.4237
-23.3217
-23.2019
-23.0726
-22.9511
-22.8161
-22.6936
-22.579
-22.4731
-22.3742
-22.2788
-22.1919
-22.1084
-22.0276
-21.9527
-21.8873
-21.8338
-21.7942
-21.7719
-21.7786
-21.8262
-21.9477
-22.189
-22.62
-23.3311
-24.4504
-26.1024
-28.3801
-31.2973
-34.8021
-38.7347
-42.9132
-47.0512
-50.9516
-54.5124
-57.6809
-60.4511
-62.838
-64.8404
-66.4336
-67.5594
-68.1934
-68.2177
-67.6666
-66.5969
-65.1057
-63.3169
-61.3527
-59.3172
-57.3232
-55.4307
-53.6807
-52.105
-50.7246
-49.5418
-48.556
-47.7424
-47.0983
-46.605
-46.2544
-46.0311
-45.9286
-45.9449
-46.066
-46.2837
-46.5913
-46.9772
-47.4314
-47.9498
-48.5136
-49.1077
-49.7189
-50.3294
-50.9356
-51.5213
-52.0946
-52.6452
-53.1577
-53.6453
-54.1071
-54.5561
-54.9574
-55.3394
-55.6897
-56.0273
-56.3378
-56.6321
-56.9063
-57.1734
-57.4271
-57.6588
-57.8872
-58.1011
-58.3162
-58.5161
-58.7275
-58.926
-59.1351
-59.3342
-59.5373
-59.7289
-59.926
-60.1222
-60.3244
-60.535
-60.7524
-60.9854
-61.2117
-61.4597
-61.6962
-61.9585
-62.2057
-62.4607
-62.7078
-62.9596
-63.199
-63.438
-63.6504
-63.8575
-64.0423
-64.2197
-64.3921
-64.5567
-64.7172
-64.8665
-65.0274
-65.1884
-65.3672
-65.5488
-65.7481
-65.9576
-66.1873
-66.4236
-66.674
-66.9247
-67.1951
-67.477
-67.7721
-68.0786
-68.3937
-68.7184
-69.0433
-69.3804
-69.7178
-70.0678
-70.4184
-70.783
-71.1516
-71.5372
-71.9284
-72.3356
-72.7473
-73.1808
-73.6296
-74.0975
-74.5874
-75.1001
-75.6372
-76.1962
-76.7847
-77.3961
-78.0348
-78.6946
-79.3794
-80.0863
-80.8164
-81.5649
-82.3244
-83.0755
-83.7946
-84.4411
-84.9653
-85.2853
-85.3227
-85.0008
-84.279
-83.1466
-81.6252
-79.7614
-77.6202
-75.2381
-72.5831
-69.4675
-65.5469
-60.4769
-54.2097
-47.0428
-40.5283
-22.8569
-22.9286
-23.0134
-23.0664
-23.0828
-23.0869
-23.0626
-23.0109
-22.9578
-22.8749
-22.78
-22.6792
-22.5746
-22.4751
-22.3808
-22.2927
-22.2067
-22.1241
-22.0449
-21.9718
-21.9103
-21.8587
-21.8206
-21.8009
-21.8085
-21.8534
-21.961
-22.1655
-22.5244
-23.101
-23.987
-25.2781
-27.0722
-29.4168
-32.3061
-35.6537
-39.3483
-43.1837
-46.9793
-50.6021
-53.9452
-56.9478
-59.5823
-61.8283
-63.665
-65.0648
-66.0165
-66.3889
-66.2193
-65.541
-64.4586
-63.0541
-61.4293
-59.6715
-57.8892
-56.1498
-54.5124
-53.0097
-51.6559
-50.4608
-49.4373
-48.5722
-47.867
-47.2987
-46.867
-46.5458
-46.3643
-46.2924
-46.3202
-46.4405
-46.6555
-46.9509
-47.3167
-47.7487
-48.2368
-48.7705
-49.3378
-49.9242
-50.5178
-51.1073
-51.6833
-52.2404
-52.7652
-53.2668
-53.741
-54.2022
-54.6329
-55.0522
-55.4335
-55.7998
-56.1363
-56.4503
-56.7392
-57.0071
-57.2655
-57.5071
-57.7403
-57.9597
-58.1779
-58.3856
-58.5997
-58.8046
-59.0151
-59.2172
-59.4229
-59.6188
-59.8206
-60.0178
-60.2178
-60.423
-60.6355
-60.8583
-61.0814
-61.323
-61.5579
-61.8139
-62.0594
-62.3155
-62.5592
-62.8128
-63.0523
-63.2976
-63.5172
-63.7362
-63.9341
-64.1212
-64.3004
-64.4662
-64.6332
-64.7845
-64.9479
-65.103
-65.2762
-65.4484
-65.641
-65.8394
-66.0596
-66.2852
-66.5299
-66.7725
-67.0385
-67.3148
-67.6032
-67.9046
-68.2133
-68.5358
-68.8534
-69.1884
-69.5195
-69.8659
-70.2099
-70.5698
-70.9318
-71.3118
-71.6959
-72.0986
-72.5051
-72.9367
-73.3836
-73.8514
-74.3429
-74.8601
-75.4056
-75.9757
-76.5851
-77.2222
-77.8994
-78.6046
-79.3511
-80.1329
-80.9624
-81.8326
-82.7451
-83.6827
-84.6321
-85.5702
-86.465
-87.2367
-87.8121
-88.0912
-88.0005
-87.4938
-86.5716
-85.2634
-83.654
-81.8453
-79.8998
-77.7303
-74.9885
-71.1431
-65.9827
-59.6388
-53.5355
-21.6445
-21.9423
-22.199
-22.4167