/*--------------------------------*- C++ -*----------------------------------*\
| =========                 |                                                 |
| \\      /  F ield         | OpenFOAM: The Open Source CFD Toolbox           |
|  \\    /   O peration     | Version:  4.1                                   |
|   \\  /    A nd           | Web:      www.OpenFOAM.org                      |
|    \\/     M anipulation  |                                                 |
\*---------------------------------------------------------------------------*/
FoamFile
{
    version     2.0;
    format      ascii;
    class       volScalarField;
    location    "438";
    object      p;
}
// * * * * * * * * * * * * * * * * * * * * * * * * * * * * * * * * * * * * * //

dimensions      [0 2 -2 0 0 0 0];

internalField   nonuniform List<scalar> 
204246
(
128.775
-2.76661
41.5067
24.6056
20.1635
27.2871
15.4963
27.1609
14.0366
26.9897
13.3608
27.6246
11.837
27.952
13.1543
25.3472
19.6125
14.1717
26.3951
11.7427
27.6849
12.1487
26.3634
12.9382
26.2637
12.7598
27.1485
10.9858
28.0457
10.6905
28.0091
11.1045
27.0395
13.6304
23.2021
19.7419
12.9307
25.4408
11.628
25.1093
12.0092
25.2283
11.7376
26.1661
9.97997
27.051
9.86214
26.7855
11.0505
24.5722
13.2851
21.991
19.0719
11.9097
24.5014
10.5305
23.9678
10.7415
23.8427
10.1954
24.44
8.06563
24.8141
7.57744
23.6105
8.77013
20.3664
9.35542
17.2652
12.8391
6.65639
14.3094
4.5153
11.7854
1.3684
8.33166
-2.95872
4.31385
-9.34693
-0.988252
-15.2544
-8.05655
-21.2706
-17.0564
-27.8627
-25.8287
-30.9049
-40.1527
-35.7196
-46.946
-37.2605
-50.7177
-36.1584
-50.2052
-33.9852
-44.7807
-28.3219
-36.6104
-20.9073
-26.3816
-13.831
-16.4209
-5.81055
-8.14379
0.984785
0.67177
-0.793086
9.15628
1.18051
15.3023
0.921316
17.655
2.43676
17.942
2.86127
17.9496
2.49332
17.2786
1.9068
15.5097
2.15557
11.6097
5.58209
-0.524063
8.76658
-4.94624
6.73193
-7.69243
3.47855
-11.2472
0.148783
-14.934
-3.08411
-18.5121
-6.04297
-21.0611
-9.06237
-21.9764
-13.0998
-18.1439
-24.608
-13.0179
-27.2353
-11.8842
-27.556
-11.134
-27.2482
-10.3498
-26.4743
-9.43965
-25.3763
-8.46408
-23.7969
-7.76949
-20.7822
-8.91967
-13.2878
-17.2419
-5.09767
-17.5296
-1.43108
-15.236
1.06634
-11.3725
3.96037
-6.63039
7.96734
-0.802324
13.1614
6.25154
19.5278
15.2877
27.5659
26.8795
37.1023
43.6812
45.9005
59.7937
64.318
77.6555
87.3888
100.785
115.111
130.032
149.959
167.805
196.081
218.753
262.642
291.597
379.321
395.249
602.287
45.6912
25.2178
22.8958
27.2132
20.0854
24.3388
18.8126
23.0954
18.039
22.5703
17.5875
22.5721
17.5454
21.6483
18.9973
19.5415
22.1937
16.7312
22.1509
16.9839
21.8968
17.5715
21.5693
17.4724
21.7888
17.1347
22.2875
16.7216
22.1086
16.8139
21.719
17.2954
20.6517
18.7605
18.6683
21.6051
16.1115
21.0783
16.5747
20.6498
16.4697
20.829
16.1378
21.3018
15.7728
21.0654
16.0313
20.5038
16.8578
19.4039
17.9281
17.5605
20.7343
15.1895
20.1553
15.6011
19.6056
15.3474
19.5928
14.7846
19.7723
14.1094
19.0875
13.9702
17.9058
13.9549
16.7072
13.9476
13.9841
15.5625
10.846
12.4166
8.58044
10.5675
5.82131
7.5554
2.05571
3.64957
-2.75103
-1.96499
-7.77603
-9.19317
-13.5322
-17.5855
-20.7663
-26.55
-26.2149
-35.4488
-35.6643
-42.8908
-40.9473
-45.9667
-42.6934
-45.9651
-40.08
-43.549
-35.9781
-35.7856
-29.7721
-25.8663
-21.7986
-16.5855
-12.9772
-8.15616
-6.09319
0.162776
-2.24135
5.65837
3.13014
9.41434
5.84895
11.1325
7.69683
12.1976
8.26389
12.5947
8.12894
12.1269
7.78693
10.5279
7.63944
7.49415
8.99233
3.27169
6.05825
0.785885
3.30448
-2.20457
0.574364
-5.53385
-2.76117
-8.98921
-6.33424
-12.2992
-10.0211
-14.9846
-13.5832
-16.2801
-17.5328
-15.3502
-21.6949
-16.9772
-22.3698
-17.4357
-22.4375
-17.1696
-22.0551
-16.5817
-21.3149
-15.8048
-20.274
-14.9879
-18.7587
-14.4918
-16.2075
-15.002
-11.9918
-15.9642
-10.1839
-13.9982
-8.15292
-11.4445
-5.66317
-8.5975
-2.60217
-5.0066
1.23845
-0.387599
6.06497
5.53058
11.5437
13.3486
18.5696
23.1681
26.8029
35.5956
39.2847
48.3942
54.95
64.501
74.177
84.6598
97.6892
109.289
126.457
139.291
162.485
175.929
211.17
217.822
292.54
257.98
392.66
20.2331
30.8952
24.7897
27.0676
21.9022
24.3725
19.4978
23.2119
18.4118
22.6708
17.9322
22.3671
17.8961
21.6712
18.81
20.1507
20.6575
18.1813
21.4532
17.5047
21.7753
17.4863
21.7285
17.4444
21.7944
17.2592
21.9843
16.9792
21.9694
16.9685
21.6926
17.3604
20.8483
18.4322
19.1137
20.0501
17.3526
20.5126
16.7819
20.6365
16.5065
20.7562
16.2578
20.9466
16.0066
20.8908
16.1086
20.509
16.6418
19.6394
17.5846
18.1566
19.1189
16.4037
19.5439
15.7734
19.5585
15.3703
19.4937
14.9038
19.4021
14.3561
18.9486
14.0854
18.0385
14.0486
16.4154
14.1115
14.104
14.0596
11.5033
12.6744
9.43723
10.1401
6.91906
6.9944
3.40409
2.97383
-1.12705
-2.48405
-6.48932
-9.11881
-12.8667
-16.7866
-20.2856
-25.4417
-27.9234
-33.7385
-35.6629
-41.3566
-42.0323
-45.5694
-43.8419
-46.9523
-42.3955
-43.648
-38.1308
-36.3331
-30.86
-27.0106
-21.8129
-17.3949
-12.9914
-8.31073
-5.56923
-0.595941
-0.309173
5.0365
4.09328
8.91836
6.56127
11.1151
8.01464
12.4525
8.50482
12.9167
8.45245
12.4603
8.19877
10.9681
8.0444
8.14043
7.77227
4.62168
6.19264
1.76003
3.62375
-1.13262
0.398056
-4.35874
-3.10364
-7.81579
-6.70842
-11.2482
-10.2195
-14.162
-13.6706
-15.8324
-17.2151
-16.6542
-20.4242
-17.3857
-21.7905
-17.455
-22.2254
-17.1144
-21.9875
-16.499
-21.2756
-15.7165
-20.2267
-14.9261
-18.6884
-14.3832
-16.3257
-14.5272
-13.0836
-14.634
-10.5889
-13.483
-8.05531
-11.3897
-5.67252
-8.24188
-2.92161
-4.26048
0.691682
0.590111
5.42635
6.61258
11.5296
14.1042
19.084
23.653
28.7354
35.2937
40.303
49.3427
55.9416
66.2053
75.8633
87.1443
100.68
113.223
131.791
145.683
171.331
186.021
225.718
233.647
309.804
288.534
377.314
6.77746
20.8282
16.9083
23.0144
18.6321
22.4601
19.0319
21.6256
18.9715
20.9488
19.0517
20.5415
19.3897
19.8325
20.2149
18.9083
21.1205
18.531
20.6434
18.7871
20.3054
19.0428
20.1957
18.9752
20.273
18.828
20.3537
18.7759
20.1249
18.8856
19.7397
19.2237
19.094
19.8831
18.3204
20.4139
17.9238
19.777
18.098
19.4497
18.0147
19.3918
17.876
19.3986
17.8642
19.123
18.0618
18.7158
18.4432
18.1551
18.9287
17.3936
19.5441
17.0712
18.8868
17.2017
18.4593
17.0058
18.2671
16.6836
18.0472
16.4155
17.4386
16.2676
16.6646
16.152
15.7287
15.8184
14.4517
15.304
13.121
13.4637
11.4593
11.2937
9.11707
8.63675
5.91202
5.08995
1.90689
0.00767823
-3.25691
-6.30038
-9.65267
-13.9164
-17.091
-22.7295
-25.1414
-31.8362
-34.2933
-39.6486
-42.1495
-45.3334
-46.4513
-47.6527
-46.3453
-45.9528
-42.5784
-39.9957
-35.485
-30.9899
-26.3128
-20.8323
-16.805
-11.1593
-8.48723
-2.72244
-1.97818
2.85254
3.60084
6.85266
7.41813
9.22599
9.35569
10.596
10.1839
11.1826
10.3021
10.9285
10.1583
9.79042
9.71398
8.04131
9.00422
6.18933
6.37741
4.00094
3.38359
1.25872
0.319594
-1.91208
-3.18866
-5.39931
-6.97584
-8.9789
-10.8252
-12.3127
-14.3982
-14.8403
-17.5153
-16.5745
-19.9234
-18.8882
-20.8179
-19.5996
-21.1199
-19.5036
-20.8263
-19.0207
-20.0702
-18.3398
-19.0516
-17.6145
-17.6719
-17.0082
-15.8431
-16.5198
-14.0835
-15.3606
-12.8848
-13.6586
-11.3806
-11.5766
-9.30834
-9.18918
-6.76216
-6.20534
-3.4808
-2.45959
0.679011
2.30132
5.7108
8.57372
12.0546
16.3654
19.9486
26.2023
30.3439
37.3148
43.4313
50.7943
59.4552
67.3059
78.8871
87.2138
102.418
111.21
131.77
138.881
171.916
166.804
224.292
211.156
282.253
7.60015
21.8411
16.8452
22.1232
19.2648
21.8551
19.5981
21.3672
19.4809
20.9153
19.3869
20.5075
19.5631
19.9448
19.9868
19.3784
20.3704
19.2454
20.1803
19.1771
20.1473
19.1305
20.1978
19.0196
20.2357
18.929
20.2114
18.9244
20.0422
18.9802
19.7575
19.1793
19.2405
19.4982
18.6859
19.6383
18.5054
19.3594
18.3416
19.2906
18.128
19.2687
17.9905
19.21
17.9859
19.012
18.0716
18.7179
18.2806
18.3078
18.5705
17.7654
18.7254
17.6013
18.4166
17.3738
18.2743
17.058
18.117
16.7477
17.8358
16.4928
17.3493
16.2406
16.6675
16.0834
15.6536
15.6912
14.5431
14.8264
13.3007
13.5979
11.7295
11.6061
9.53224
9.06147
6.6198
5.61258
2.87457
1.01741
-2.05136
-4.89211
-8.21504
-12.2386
-15.6895
-20.8407
-24.2852
-29.8408
-33.5418
-38.8315
-41.8398
-45.9688
-47.3737
-49.3695
-48.5847
-48.199
-45.2307
-42.4502
-37.7255
-33.0277
-27.6508
-22.1443
-17.2725
-11.7449
-8.28319
-3.12013
-1.08808
3.01279
4.13127
7.23568
7.56755
9.67154
9.65611
11.0672
10.6524
11.6454
10.938
11.3888
10.82
10.4182
10.2166
8.89289
8.99762
7.16668
7.12688
5.01
4.37811
2.22497
1.20597
-0.962929
-2.31857
-4.46662
-6.11485
-8.08912
-9.99252
-11.5685
-13.6644
-14.5885
-16.7273
-17.0248
-18.9995
-18.919
-20.2019
-19.5334
-20.8458
-19.466
-20.6919
-19.0011
-19.948
-18.2453
-18.9636
-17.5568
-17.5386
-16.8724
-15.9572
-15.829
-14.2375
-14.6435
-12.8889
-13.0116
-11.1378
-11.0902
-9.0181
-8.62751
-6.32259
-5.60297
-2.92465
-1.79077
1.32306
3.13338
6.60088
9.39165
13.2674
17.3262
21.6376
27.1095
32.3267
39.09
45.9553
53.7278
63.0015
71.6595
84.0989
93.485
109.921
119.578
142.073
149.84
184.185
181.128
230.416
219.053
264.151
4.94697
16.1096
13.2462
18.2997
16.8372
19.5127
18.315
19.8949
18.9659
19.8411
19.3744
19.6601
19.7995
19.3388
20.1974
19.0808
20.3721
19.2733
19.9756
19.4992
19.7543
19.6006
19.69
19.5719
19.6769
19.5312
19.6089
19.5673
19.4112
19.6415
19.1562
19.7627
18.8443
19.9171
18.5476
19.7858
18.6732
19.2831
18.7789
19.0525
18.699
18.8786
18.6432
18.7218
18.6914
18.4882
18.8114
18.233
18.8854
17.9886
18.9152
17.7859
18.8672
17.8409
18.4411
17.9463
18.0442
17.7757
17.8354
17.578
17.535
17.4097
17.0995
17.1998
16.6249
16.9231
16.1063
16.518
15.3488
15.8887
14.4297
14.6664
13.2104
13.0808
11.3808
10.8701
8.84192
7.7508
5.37111
3.44971
0.715803
-2.26501
-5.33245
-9.4912
-12.879
-18.2016
-21.8777
-27.9415
-31.8673
-37.768
-41.5752
-46.3236
-49.0255
-51.7377
-52.1765
-52.2884
-50.098
-47.446
-43.1117
-38.0677
-32.7115
-26.4099
-21.3266
-14.8409
-10.9672
-5.14489
-2.65146
1.84249
3.49099
6.39971
7.62917
9.23654
9.96554
10.8037
11.1449
11.4627
11.5368
11.3392
11.4603
10.6576
10.9222
9.54378
9.72605
7.96789
7.75979
5.94024
5.27025
3.32542
2.23897
0.164874
-1.31324
-3.43795
-5.28555
-7.30427
-9.46363
-11.1429
-13.5202
-14.5915
-17.0449
-17.4578
-19.5876
-19.9605
-20.8608
-20.9057
-21.3278
-20.9532
-20.9869
-20.49
-20.1649
-19.6874
-19.1446
-18.8527
-17.982
-18.0133
-16.7811
-17.15
-15.6317
-15.8588
-14.5669
-14.5214
-13.2789
-12.9024
-11.6024
-11.0277
-9.46958
-8.69344
-6.79329
-5.6965
-3.45229
-1.80851
0.729096
3.16341
5.98162
9.43317
12.6785
17.1766
21.3205
26.4815
32.1832
37.7921
45.6404
51.6075
62.0829
68.3587
82.136
88.1331
106.951
110.19
140.611
134.165
175.345
172.839
213.431
7.60808
17.926
14.1502
18.3515
17.2289
19.2482
18.5103
19.733
19.137
19.7755
19.472
19.701
19.7613
19.4783
20.0467
19.3146
20.0543
19.5559
19.7729
19.6502
19.67
19.6771
19.6613
19.6175
19.6492
19.5914
19.5546
19.6073
19.4015
19.6385
19.2058
19.6589
18.9499
19.6706
18.7534
19.4416
18.8655
19.1058
18.8598
18.9256
18.8344
18.8
18.7563
18.6659
18.7231
18.4731
18.708
18.3283
18.7392
18.1242
18.7128
17.9214
18.547
17.9476
18.2235
17.8987
17.9572
17.7256
17.7321
17.5533
17.4185
17.3729
17.0232
17.1103
16.5658
16.7514
16.0082
16.3234
15.3311
15.6578
14.5556
14.6737
13.3988
13.2861
11.7871
11.3402
9.59035
8.6234
6.59378
4.85153
2.44069
-0.282595
-3.18078
-7.03599
-10.5073
-15.471
-19.6136
-25.3383
-30.1757
-36.1273
-40.9372
-46.2685
-49.8683
-53.4735
-54.7676
-55.6386
-54.0497
-51.5773
-47.1148
-41.6109
-35.4811
-28.6265
-22.7288
-16.0091
-11.2822
-5.56305
-2.28514
1.95826
4.03574
6.85398
8.09386
9.85113
10.4721
11.4614
11.7445
12.1736
12.2244
12.1575
12.1842
11.562
11.6348
10.5437
10.5475
9.10707
8.8456
7.15582
6.43982
4.59406
3.4703
1.49371
-0.0305828
-2.08093
-3.99145
-5.9992
-8.22423
-10.0247
-12.4156
-13.8293
-16.0719
-17.1151
-18.789
-19.5722
-20.4838
-20.7776
-21.1296
-20.9331
-20.9803
-20.451
-20.2252
-19.6552
-19.1839
-18.6978
-18.0104
-17.6936
-16.6837
-16.5667
-15.3264
-15.3439
-14.0803
-13.8725
-12.6073
-12.2604
-10.8271
-10.31
-8.61938
-7.91555
-5.86861
-4.86194
-2.47216
-0.886621
1.82782
4.18978
7.31495
10.5873
14.3176
18.542
23.295
28.3317
34.6777
40.3531
48.8034
55.0178
66.1064
72.6358
87.0757
93.1901
112.825
115.038
142.982
139.637
170.847
167.008
195.808
6.02384
15.3567
12.2928
16.1523
15.5401
17.5436
17.2852
18.4935
18.3911
18.9599
19.0709
19.1242
19.5804
19.1311
19.933
19.19
19.9634
19.5138
19.7234
19.7264
19.5732
19.8122
19.5163
19.8127
19.4764
19.8116
19.3818
19.84
19.2257
19.8697
19.0549
19.8891
18.8733
19.8562
18.7591
19.5006
18.9718
19.1413
18.9805
18.9246
18.9877
18.7601
18.9866
18.591
19.0207
18.3974
19.0052
18.286
18.988
18.1426
18.9975
17.9967
18.792
18.1559
18.4156
18.2486
18.0944
18.162
17.8289
18.016
17.5604
17.8363
17.2262
17.6451
16.8972
17.377
16.5428
17.0302
16.0833
16.5359
15.5328
15.7483
14.6856
14.6246
13.3912
12.9425
11.472
10.47
8.70573
6.96234
4.79408
2.10095
-0.595952
-4.4001
-7.79889
-12.7682
-17.0114
-22.9753
-27.9893
-34.5525
-39.9604
-46.3609
-51.1588
-56.0208
-58.7112
-60.5182
-59.8145
-57.7998
-53.9041
-48.4737
-42.2681
-34.5673
-27.7174
-19.8301
-14.1559
-7.48498
-3.51174
1.301
3.77004
6.77308
8.30541
9.82168
10.8913
11.4471
12.2039
12.2168
12.6131
12.2547
12.6231
11.8084
12.1329
10.9534
11.1038
9.65696
9.45771
7.95368
7.26728
5.56962
4.4297
2.53918
0.944228
-1.09728
-3.14553
-5.24456
-7.66188
-9.6567
-12.2999
-13.9912
-16.5525
-17.7946
-19.9195
-20.6894
-21.9318
-22.1498
-22.5569
-22.2978
-22.0559
-21.6506
-21.032
-20.6733
-19.8904
-19.6847
-18.7491
-18.7666
-17.6686
-17.8261
-16.6769
-16.7073
-15.8008
-15.6321
-14.7007
-14.4068
-13.3509
-12.9459
-11.6839
-11.1039
-9.61127
-8.72038
-7.00894
-5.67254
-3.69462
-1.78271
0.552789
3.13231
6.02978
9.24941
13.1027
16.8221
22.0472
26.1462
33.2523
37.6233
47.0798
51.6092
64.0864
67.9147
85.5956
86.3016
110.885
108.981
137.428
137.342
164.362
8.61084
16.9835
13.5322
16.9991
16.1163
17.7695
17.6094
18.4658
18.4858
18.9118
19.0854
19.1116
19.5352
19.163
19.7914
19.2905
19.8114
19.6082
19.6026
19.7844
19.5519
19.8442
19.5144
19.8328
19.4802
19.8263
19.3886
19.8394
19.25
19.8482
19.0933
19.8212
18.9273
19.7404
18.915
19.3552
19.0201
19.0159
19.0253
18.8416
19.0102
18.6825
18.9956
18.5352
18.984
18.404
18.9107
18.294
18.8715
18.104
18.7867
18.018
18.5348
18.1284
18.1431
18.1567
17.9322
18.0547
17.7046
17.9179
17.4487
17.7473
17.1505
17.5094
16.784
17.2247
16.3707
16.8173
16.044
16.2998
15.5292
15.6531
14.8018
14.7321
13.7597
13.4028
12.2733
11.4672
10.1019
8.62857
6.86469
4.49034
2.08648
-1.37903
-4.65584
-9.31009
-13.6957
-19.5213
-25.148
-31.9573
-38.3875
-45.4237
-51.5515
-57.4698
-61.693
-64.7561
-65.5522
-64.348
-60.7048
-54.8685
-47.7513
-39.0327
-31.2452
-22.4497
-15.6247
-8.55393
-3.70507
1.23698
4.32773
7.23854
9.06114
10.6014
11.6742
12.3612
12.9859
13.1309
13.5238
13.2611
13.5133
12.9201
13.0964
12.202
12.1617
11.0578
10.6569
9.37326
8.60711
7.10068
5.90378
4.1697
2.54052
0.616844
-1.48675
-3.54813
-6.03391
-8.11907
-10.8251
-12.7864
-15.3263
-17.0552
-18.9961
-20.2989
-21.4795
-22.0908
-22.5205
-22.4682
-22.3488
-21.8083
-21.3895
-20.7834
-20.1511
-19.711
-18.8577
-18.5584
-17.5138
-17.3201
-16.2062
-16.0569
-15.0472
-14.8469
-13.8455
-13.5573
-12.4775
-12.0591
-10.8189
-10.2623
-8.77744
-7.94676
-6.20762
-4.94271
-2.90052
-1.08145
1.38439
3.81708
6.92338
9.96975
14.0473
17.5967
23.1199
27.018
34.3945
38.5513
48.1846
52.3894
64.9889
68.2125
85.1281
85.4734
107.135
104.789
127.564
126.422
147.843
7.69625
15.8698
12.2244
15.9461
14.9641
16.6984
16.6948
17.5833
17.8428
18.2558
18.6551
18.685
19.2295
18.968
19.5962
19.1884
19.7189
19.5511
19.5672
19.782
19.524
19.8712
19.4923
19.9097
19.4465
19.9236
19.3683
19.9352
19.2533
19.947
19.1038
19.923
18.9686
19.8062
18.9697
19.465
19.1228
19.0468
19.1204
18.8919
19.1127
18.7491
19.0996
18.6232
19.092
18.4966
19.0967
18.3278
19.1121
18.218
19.0028
18.2032
18.7454
18.3597
18.3685
18.4243
18.1703
18.322
17.9605
18.2142
17.7288
18.0882
17.4527
17.9642
17.1432
17.743
16.9502
17.375
16.6741
17.1306
16.4094
16.5775
15.8903
15.864
15.0436
14.6868
13.7028
12.8834
11.6919
10.2637
8.70054
6.48137
4.31696
1.05476
-2.04172
-6.52551
-10.8152
-16.5697
-22.1426
-29.2227
-36.1334
-44.188
-51.5233
-59.1701
-65.2677
-70.1988
-72.4827
-72.0949
-69.1354
-63.4831
-56.5551
-47.1036
-37.6881
-27.6242
-19.1515
-10.5135
-4.62041
1.10113
4.5869
7.8885
9.70529
11.0032
12.3067
12.6358
13.4509
13.3287
13.7845
13.3346
13.6913
13.036
13.2628
12.4272
12.4864
11.4153
11.2224
9.99305
9.37184
7.96063
6.85088
5.18061
3.5724
1.67415
-0.486767
-2.63728
-5.25012
-7.54688
-10.5035
-12.7898
-15.7309
-17.7488
-20.31
-21.6928
-23.349
-23.8998
-24.4218
-24.2056
-23.7135
-23.1574
-22.1844
-21.6832
-20.7214
-20.4764
-19.4828
-19.4642
-18.4341
-18.4857
-17.4852
-17.4969
-16.688
-16.6027
-15.8149
-15.6312
-14.775
-14.4775
-13.4814
-13.0483
-11.9051
-11.2509
-9.93197
-8.96435
-7.39997
-6.04304
-4.10165
-2.32489
0.194953
2.36988
5.7804
8.28467
12.9327
15.6803
21.9891
24.9138
33.3064
36.2185
47.453
49.6232
65.1405
64.9637
84.4127
84.8432
105.262
105.745
125.806
9.82886
17.6589
13.4718
17.1325
15.7491
17.2918
17.1008
17.7443
18.0049
18.2254
18.6684
18.6175
19.1811
18.8991
19.5144
19.1642
19.6471
19.5456
19.5074
19.7622
19.4884
19.8684
19.4716
19.9214
19.4398
19.9305
19.3674
19.9432
19.2531
19.9475
19.1201
19.9177
19.0019
19.7702
19.0241
19.412
19.1763
19.0409
19.1603
18.8592
19.1115
18.7004
19.0791
18.5578
19.0521
18.4166
19.0209
18.2773
18.9355
18.1696
18.8185
18.0946
18.549
18.2396
18.1595
18.2853
17.9833
18.2128
17.8044
18.1324
17.5907
18.0218
17.3299
17.8447
17.056
17.5425
16.8124
17.2046
16.5384
16.849
16.2834
16.4641
15.9198
15.9256
15.3921
15.1564
14.559
13.9624
13.2052
12.0907
10.9635
9.06779
7.27506
4.3859
1.59147
-2.54358
-6.73139
-12.3823
-18.284
-25.5609
-33.1943
-42.0317
-51.0126
-60.0923
-68.3132
-75.3243
-80.1075
-82.0338
-80.5708
-75.1367
-67.1954
-56.5253
-44.9321
-33.1739
-23.245
-13.3281
-5.7052
0.531643
5.15029
8.25951
11.1206
11.8844
13.5493
13.7686
14.4769
14.5245
14.9211
14.5833
14.857
14.3053
14.5315
13.7739
13.818
12.8875
12.5275
11.5663
10.8209
9.66651
8.49356
7.03738
5.39705
3.67434
1.48523
-0.588223
-3.2672
-5.60242
-8.67524
-11.1828
-14.2522
-16.7284
-19.3475
-21.3343
-23.1263
-24.1929
-24.8995
-24.9221
-24.7161
-23.9081
-23.1648
-22.2286
-21.317
-20.9071
-19.8221
-19.5137
-18.3646
-18.0657
-16.9089
-16.6716
-15.8624
-15.649
-14.9749
-14.7061
-13.9951
-13.6816
-12.8707
-12.4578
-11.4903
-10.8807
-9.70827
-8.81439
-7.3652
-6.11759
-4.25929
-2.64201
-0.15937
1.79355
5.18962
7.37193
12.0475
14.3864
20.6492
23.1072
31.3728
33.6185
44.6386
45.7182
60.1848
60.107
76.4438
76.3058
93.5767
93.6448
110.693
9.18769
17.0055
12.6535
16.5261
14.949
16.7116
16.4662
17.2234
17.578
17.8096
18.3617
18.3159
18.9412
18.7421
19.3553
19.0652
19.5695
19.4894
19.4847
19.7755
19.4678
19.8998
19.4609
19.9696
19.4305
20.0041
19.3633
20.0207
19.2622
20.025
19.1395
19.9885
19.0505
19.8158
19.0824
19.4903
19.2218
19.1088
19.2285
18.9258
19.2219
18.7783
19.1962
18.6543
19.1849
18.5369
19.1818
18.4059
19.1614
18.2945
19.014
18.3417
18.7372
18.4761
18.3825
18.4924
18.1927
18.4353
18.0221
18.3705
17.8368
18.3068
17.5963
18.1997
17.3672
18.0676
17.2221
17.8095
17.1292
17.5404
17.0227
17.2018
16.7723
16.7373
16.2585
16.0102
15.4663
14.8778
14.2522
13.2451
12.3569
10.7133
9.21665
6.64418
4.15265
0.385421
-3.47427
-8.73638
-14.4436
-21.7279
-29.5901
-38.8533
-48.6116
-59.4704
-69.9287
-79.6486
-87.3604
-91.7513
-92.0104
-87.1399
-79.3074
-67.9146
-55.3378
-40.869
-27.8851
-16.0052
-6.73164
1.0086
5.92748
9.85113
12.2146
12.8722
14.2121
14.5394
14.9504
14.7506
15.0416
14.51
14.7482
14.1375
14.4254
13.7576
13.8975
13.1658
12.9143
12.0565
11.4744
10.4139
9.4066
8.04371
6.50718
4.83893
2.71877
0.642296
-2.06496
-4.53697
-7.75087
-10.5678
-14.0143
-16.8702
-20.177
-22.5176
-24.9151
-26.227
-27.1004
-27.0921
-26.3526
-25.465
-23.8243
-22.9986
-21.4394
-21.2224
-20.1772
-20.1683
-19.2159
-19.205
-18.179
-18.1137
-17.3704
-17.277
-16.6833
-16.58
-15.8623
-15.6905
-14.8676
-14.6019
-13.7247
-13.3287
-12.3164
-11.7164
-10.508
-9.66467
-8.09314
-7.02509
-4.90356
-3.61272
-0.734786
0.739685
4.70547
6.25514
11.67
13.2098
20.546
21.8955
31.7604
32.435
44.8007
45.9028
60.1343
61.5853
76.7762
77.8689
93.7453
11.4545
18.8925
14.0466
17.7772
15.746
17.4004
16.9384
17.4622
17.6909
17.835
18.3619
18.2617
18.8694
18.6497
19.2839
18.9977
19.5238
19.4263
19.4435
19.7299
19.4082
19.8848
19.4364
19.9687
19.4185
20.0114
19.3601
20.0341
19.2669
20.0406
19.1553
20.0121
19.0699
19.8354
19.1069
19.5096
19.2518
19.129
19.2845
18.9004
19.2305
18.7345
19.1707
18.5906
19.1315
18.4434
19.1074
18.3035
19.0127
18.2271
18.8678
18.168
18.591
18.2975
18.2559
18.3703
18.0277
18.3399
17.8525
18.2975
17.6771
18.2096
17.4902
18.0691
17.273
17.8528
17.1252
17.5469
17.0177
17.2885
16.9189
17.0303
16.7843
16.797
16.5978
16.4359
16.2556
15.8094
15.5471
14.7667
14.2766
12.955
11.8556
9.68224
7.60834
4.29522
0.820654
-3.99453
-9.36634
-16.387
-24.6085
-34.6403
-45.9294
-58.18
-71.3697
-84.523
-96.3696
-104.641
-108.643
-106.485
-98.7546
-87.1476
-71.3266
-53.6871
-36.8637
-22.5984
-9.98647
-0.733617
6.45799
10.5875
13.81
14.1346
15.8728
15.7828
16.442
16.2407
16.5507
15.9675
16.2585
15.5632
15.8566
15.1396
15.2302
14.596
14.2712
13.59
12.9219
12.0788
11.043
9.94131
8.37143
6.91414
4.77986
2.8214
0.0259411
-2.45373
-5.82562
-8.82347
-12.5396
-15.809
-19.4116
-22.373
-25.225
-27.1499
-28.5672
-28.8665
-28.6752
-27.3964
-25.9455
-24.223
-22.7489
-22.0367
-20.7862
-20.3777
-19.1903
-18.7092
-17.4452
-17.0061
-16.3305
-16.1084
-15.8109
-15.5601
-15.2675
-14.9347
-14.5807
-14.2393
-13.7329
-13.3388
-12.6291
-12.0825
-11.1284
-10.4067
-9.07793
-8.15913
-6.27777
-5.20563
-2.48973
-1.44221
2.39062
3.43468
8.54994
9.57938
16.3436
17.199
25.9103
26.9256
37.204
38.5352
50.19
51.6644
64.7647
65.8041
79.9505
10.8719
18.6343
13.5344
17.5611
15.2793
17.2426
16.5267
17.3376
17.5254
17.5969
18.2107
18.0784
18.7643
18.5172
19.2152
18.901
19.5265
19.4217
19.4431
19.7496
19.3965
19.9328
19.4068
20.0294
19.3869
20.0851
19.3279
20.1128
19.2357
20.1268
19.1378
20.0825
19.0788
19.8894
19.135
19.5693
19.2977
19.1827
19.376
18.9883
19.3463
18.8263
19.3088
18.6839
19.3134
18.5338
19.3216
18.3927
19.2611
18.3186
19.0847
18.3722
18.7628
18.5097
18.4113
18.532
18.1806
18.5389
18.0306
18.4851
17.8889
18.4514
17.6867
18.3938
17.5073
18.2862
17.4041
18.0471
17.3992
17.786
17.4938
17.5546
17.3355
17.2769
17.1306
16.8776
16.796
16.4152
16.3091
15.6755
15.3845
14.3136
13.5371
11.7163
9.97787
7.08273
4.00193
-0.318859
-5.27221
-11.7628
-19.5936
-29.3898
-41.1489
-54.6937
-69.4743
-85.1235
-100.694
-114.084
-122.978
-123.462
-116.655
-103.944
-86.9995
-67.0325
-46.0732
-27.7249
-13.3108
-0.131008
7.27402
13.4091
15.0149
16.0347
16.6097
16.7221
16.7647
16.2604
16.526
15.5449
15.8645
15.0446
15.4634
14.969
15.1947
14.7419
14.5768
14.0751
13.5517
12.8605
11.9785
11.0393
9.65291
8.32502
6.36545
4.54665
1.91707
-0.549345
-3.90223
-7.06424
-11.0026
-14.727
-19.0083
-22.6196
-26.2819
-28.9399
-30.7912
-31.5145
-30.7529
-29.5097
-26.5793
-24.8703
-21.8824
-21.7143
-20.7877
-20.8935
-20.2632
-20.2584
-18.9926
-18.6961
-17.68
-17.5535
-17.2904
-17.351
-16.7775
-16.5674
-15.9947
-15.6757
-15.2452
-14.9266
-14.3435
-13.9799
-13.1908
-12.8082
-11.6259
-11.2255
-9.50814
-9.11626
-6.68083
-6.27568
-2.99657
-2.57903
1.81257
2.15499
8.16372
8.49304
16.0982
16.7835
25.9342
27.0731
37.747
39.0863
51.2283
52.2714
65.8538
13.0579
20.6346
14.8484
18.8544
16.0359
17.9386
16.8925
17.5962
17.6643
17.6312
18.2136
18.0177
18.678
18.4117
19.1167
18.8061
19.4154
19.3515
19.3843
19.7233
19.3524
19.9065
19.3898
20.0237
19.3729
20.0977
19.3358
20.149
19.2357
20.1662
19.141
20.1265
19.0972
19.9526
19.1587
19.6128
19.3289
19.2008
19.4072
18.9392
19.3623
18.7676
19.2845
18.6286
19.251
18.4802
19.2318
18.3529
19.1444
18.2669
18.9615
18.2355
18.6358
18.407
18.2636
18.483
18.0249
18.4417
17.8485
18.4128
17.694
18.3871
17.5389
18.2898
17.3609
18.1335
17.2573
17.8917
17.2541
17.6287
17.2943
17.4021
17.3466
17.2998
17.3552
17.1842
17.2749
16.9542
17.0743
16.5698
16.5844
15.7728
15.3788
13.9935
12.7508
10.4132
7.86089
4.18976
-0.188653
-5.99387
-13.3592
-22.7609
-34.5022
-48.6107
-65.6074
-84.1428
-104.258
-123.361
-139.041
-145.274
-141.465
-133.159
-114.162
-91.234
-64.6394
-42.5088
-22.3741
-6.82562
6.68995
12.8686
18.8414
17.2938
18.962
18.0365
19.01
18.0665
18.5339
17.4257
17.7631
16.375
16.7334
16.1626
16.2833
15.8942
15.7464
15.307
14.791
14.248
13.382
12.7263
11.3955
10.3299
8.37673
6.72188
4.10188
1.69241
-1.80793
-5.05483
-9.28229
-13.3331
-18.0799
-22.3282
-26.8124
-30.3677
-33.3761
-34.7873
-35.1798
-33.6259
-31.0784
-27.4001
-24.5442
-22.6361
-21.1025
-20.7922
-19.7743
-19.3736
-17.9767
-17.1649
-16.3054
-15.9412
-16.2378
-15.8839
-16.227
-15.9042
-15.8749
-15.535
-15.443
-15.0792
-14.8941
-14.4694
-14.0933
-13.6502
-12.899
-12.4593
-11.1216
-10.8178
-8.68752
-8.52389
-5.49974
-5.41724
-1.52035
-1.57255
3.76202
3.53329
10.3006
10.3279
18.4005
18.7696
28.0782
28.7085
39.6113
40.1246
52.854
12.6644
20.722
14.6368
18.9476
15.9202
17.9872
16.8259
17.5971
17.6165
17.6424
18.1845
17.9799
18.6849
18.3313
19.1384
18.7672
19.4133
19.3929
19.3536
19.804
19.3357
19.9675
19.3869
20.0736
19.3654
20.1379
19.3109
20.1914
19.2179
20.2168
19.1276
20.1759
19.0984
19.9967
19.1761
19.6659
19.3775
19.2558
19.5099
19.0015
19.5239
18.8155
19.5049
18.6633
19.4799
18.5209
19.4355
18.4351
19.3363
18.4108
19.1387
18.4438
18.8065
18.5738
18.4055
18.671
18.1247
18.6723
17.9911
18.6346
17.7757
18.6009
17.6104
18.6114
17.5321
18.4738
17.4628
18.2267
17.4957
17.9842
17.6885
17.7052
17.6282
17.5462
17.613
17.4007
17.6017
17.32
17.5567
17.1592
17.3088
16.6786
16.4805
15.3913
14.4384
12.5309
10.3869
7.27595
3.46692
-1.58712
-8.18441
-16.7666
-27.895
-41.4589
-57.9962
-77.1436
-99.0904
-122.31
-143.701
-154.63
-154.042
-146.705
-138.145
-109.854
-81.5498
-51.8331
-30.9938
-9.78961
3.22851
17.0674
16.8592
21.1604
19.2989
18.4196
18.4838
17.7022
18.0156
16.5914
16.8033
15.8894
15.9908
15.9109
16.0754
15.9796
15.9658
15.7914
15.3582
14.9948
14.2006
13.7081
12.5713
11.6971
10.0333
8.60469
6.27148
4.08854
0.840649
-2.3744
-6.54352
-10.8688
-16.0928
-21.0424
-26.3495
-30.9738
-34.9212
-37.5418
-37.9959
-37.1747
-32.4422
-28.5485
-21.8131
-21.3639
-20.7305
-21.3536
-21.5768
-22.1006
-20.4876
-19.3881
-17.3649
-17.1397
-17.329
-17.913
-17.6845
-17.1151
-16.8006
-16.2871
-16.2715
-16.1995
-15.9753
-15.6819
-15.4368
-15.2093
-14.6963
-14.5158
-13.5004
-13.423
-11.7896
-11.9559
-9.49277
-9.78011
-6.70051
-7.15829
-2.71088
-3.34397
2.25358
2.15099
8.87629
9.5421
17.2751
18.0689
27.6631
28.1415
40.2119
14.4533
22.7756
15.757
20.1772
16.5939
18.5875
17.1375
17.7605
17.7054
17.6269
18.1745
17.877
18.6077
18.2187
19.0119
18.6326
19.3253
19.2957
19.3045
19.8096
19.2506
20.011
19.2742
20.1235
19.2585
20.1963
19.2496
20.2389
19.1755
20.2634
19.0958
20.2417
19.0763
20.0858
19.1753
19.7118
19.4112
19.2383
19.5652
18.9346
19.5847
18.7257
19.5439
18.5639
19.5212
18.4159
19.4753
18.3198
19.3557
18.2885
19.1243
18.3191
18.7647
18.488
18.2884
18.5888
17.9929
18.5803
17.7623
18.5492
17.6841
18.471
17.528
18.4372
17.3541
18.3713
17.2722
18.2666
17.3667
17.9581
17.5703
17.6253
17.7158
17.5471
17.7801
17.5406
17.7931
17.502
17.8974
17.5394
17.9146
17.4632
17.5685
16.8558
16.3373
14.9898
13.3577
10.913
7.6825
3.46139
-2.35691
-9.87618
-20.1226
-32.769
-48.7996
-67.3486
-89.64
-114.04
-138.695
-154.408
-159.016
-155.445
-148.456
-128.162
-103.925
-70.2033
-46.1968
-23.7519
-4.1007
11.9818
19.4271
20.1823
23.0575
20.2752
20.5974
19.9286
20.2037
19.3493
18.6864
16.9681
17.0956
16.4861
16.777
16.7566
16.7361
16.6923
16.2545
16.0745
15.3259
15.117
14.0953
13.5114
11.917
10.7241
8.51026
6.54021
3.37323
0.284432
-4.00602
-8.42919
-14.2064
-19.8035
-26.3422
-32.2316
-37.9416
-41.9321
-44.5709
-44.6253
-41.6287
-34.6007
-27.2529
-21.9674
-19.3757
-19.5028
-19.3087
-20.0221
-19.7393
-18.2547
-16.0645
-14.5622
-15.4603
-15.6025
-17.0913
-17.0058
-17.1018
-16.2997
-16.4542
-16.0479
-16.5011
-16.0518
-16.1833
-15.9191
-15.7885
-15.5602
-14.9202
-14.9034
-13.5091
-13.9208
-11.6838
-12.1806
-9.61295
-10.5368
-6.44461
-7.8685
-2.96588
-3.8696
2.01752
1.51714
8.51528
7.70066
16.5246
15.6038
27.4569
14.1962
23.0635
15.8541
20.4524
16.8283
18.7847
17.3906
17.7998
17.8988
17.6628
18.2287
17.9193
18.6815
18.2103
19.0874
18.6425
19.283
19.3644
19.2378
19.9079
19.2188
20.1056
19.21
20.2202
19.1388
20.2675
19.1355
20.3219
19.0898
20.3435
19.0514
20.2809
19.07
20.1025
19.2023
19.7395
19.4842
19.2611
19.6799
18.9549
19.7469
18.74
19.7461
18.5804
19.7182
18.4486
19.6555
18.3899
19.5235
18.4056
19.2801
18.4774
18.8921
18.6776
18.3641
18.8193
18.051
18.8007
17.8299
18.7483
17.6647
18.7248
17.5655
18.6931
17.556
18.5223
17.5165
18.2962
17.5636
18.0573
17.6925
17.811
17.8743
17.6354
18.0488
17.64
18.0513
17.7131
18.145
17.8507
18.2484
17.9023
18.0502
17.5457
17.1792
16.2151
14.924
13.031
10.3459
6.90436
1.99855
-4.32091
-13.1632
-24.2705
-38.5664
-55.4271
-75.605
-98.2423
-122.372
-140.642
-149.245
-148.744
-146.684
-131.303
-106.333
-75.9797
-49.2204
-32.1172
-8.98216
8.09637
20.0081
17.3097
21.7227
20.2706
19.1277
17.7402
19.25
17.4246
18.0406
16.4878
16.1953
16.1549
16.516
16.6181
16.9414
17.1215
16.7497
16.6642
15.8643
15.7348
14.8914
14.548
13.3491
12.3977
10.5549
8.92026
6.17123
3.28713
-0.670545
-5.03719
-10.8009
-16.8541
-23.8684
-30.6118
-37.5221
-43.1768
-46.9863
-49.7859
-45.1986
-38.2125
-23.6343
-19.3966
-18.9339
-20.6913
-22.1518
-24.695
-23.1343
-21.6863
-17.0203
-15.0382
-15.9869
-17.9608
-18.4028
-17.4786
-17.2369
-16.1818
-16.8633
-16.9274
-16.9799
-16.5576
-16.6921
-16.622
-16.7377
-16.7248
-16.2281
-16.2467
-15.3561
-15.8861
-14.1489
-14.6174
-12.9784
-14.1833
-10.7479
-12.6549
-9.01461
-10.1543
-5.60022
-5.08934
-0.82887
-0.0867031
5.01903
5.42519
14.6044
15.7946
24.9128
16.7416
21.4373
17.3829
19.1865
17.6635
17.8175
17.8818
17.562
18.1409
17.7511
18.6449
18.0068
19.0477
18.4777
19.2148
19.3117
19.1789
19.9197
19.1508
20.1869
19.1103
20.3046
19.0356
20.3485
19.0384
20.4144
18.984
20.4376
18.9558
20.39
18.9895
20.1954
19.1607
19.7691
19.5303
19.1877
19.7816
18.8615
19.8141
18.6553
19.7927
18.4929
19.7734
18.353
19.7196
18.2872
19.5835
18.3066
19.3169
18.3981
18.8841
18.6542
18.2691
18.7917
17.9102
18.7854
17.6759
18.7433