/*--------------------------------*- C++ -*----------------------------------*\
| =========                 |                                                 |
| \\      /  F ield         | OpenFOAM: The Open Source CFD Toolbox           |
|  \\    /   O peration     | Version:  4.1                                   |
|   \\  /    A nd           | Web:      www.OpenFOAM.org                      |
|    \\/     M anipulation  |                                                 |
\*---------------------------------------------------------------------------*/
FoamFile
{
    version     2.0;
    format      ascii;
    class       volScalarField;
    location    "20";
    object      p;
}
// * * * * * * * * * * * * * * * * * * * * * * * * * * * * * * * * * * * * * //

dimensions      [0 2 -2 0 0 0 0];

internalField   nonuniform List<scalar> 
6750
(
-171.46
-107.531
-194.482
-199.006
-230.336
-242.565
-251.328
-256.448
-258.681
-259.763
-251.904
-227.415
-237.082
-126.635
-263.692
-171.088
-106.383
-194.051
-199.38
-231.405
-243.864
-253.026
-258.19
-260.652
-257.172
-249.645
-227.796
-236.19
-125.643
-263.76
-170.741
-105.414
-193.778
-199.788
-232.198
-244.848
-254.459
-259.729
-264.587
-256.825
-247.769
-222.846
-235.091
-124.732
-263.893
-170.293
-104.143
-193.419
-200.29
-233.183
-246.095
-255.442
-262.217
-264.944
-260.436
-251.217
-217.185
-234.058
-123.991
-263.591
-169.867
-102.838
-193.102
-200.771
-234.06
-246.979
-256.486
-262.858
-264.188
-260.175
-251.78
-223.584
-233.611
-124.299
-263.457
-169.491
-101.553
-192.777
-201.187
-234.774
-247.68
-257.324
-260.85
-263.959
-261.809
-250.29
-222.76
-232.776
-123.9
-263.178
-169.259
-100.543
-192.507
-201.478
-235.305
-248.466
-258.587
-262.359
-264.938
-260.711
-247.195
-222.313
-232.907
-123.727
-263.146
-169.229
-100.277
-192.443
-201.584
-235.469
-248.689
-258.984
-261.765
-264.975
-260.553
-247.025
-218.748
-231.072
-123.003
-262.997
-169.389
-100.823
-192.663
-201.581
-235.401
-248.664
-258.93
-261.721
-265.193
-259.075
-245.368
-225.751
-232.521
-123.769
-262.862
-169.731
-101.989
-193.056
-201.399
-235.016
-248.183
-258.001
-262.053
-265.28
-261.361
-247.509
-222.866
-231.774
-123.594
-262.552
-170.196
-103.393
-193.494
-201.092
-234.421
-247.489
-257.177
-263.165
-265.598
-260.291
-248.181
-224.558
-232.345
-123.654
-262.537
-170.692
-104.773
-193.908
-200.71
-233.672
-246.701
-256.212
-262.705
-266.243
-260.397
-249.03
-216.773
-232.568
-122.963
-262.387
-171.191
-106.094
-194.348
-200.301
-232.779
-245.547
-255.408
-260.284
-266.127
-257.35
-246.29
-220.09
-233.202
-123.184
-262.408
-171.572
-107.096
-194.681
-199.959
-232.075
-244.642
-254.234
-258.89
-263.056
-258.362
-248.94
-223.645
-234.271
-123.804
-262.105
-171.971
-108.262
-195.165
-199.646
-231.076
-243.421
-252.759
-257.406
-262.567
-260.491
-251.155
-221.919
-234.773
-124.375
-261.835
-231.016
-81.7863
-194.803
-198.474
-230.188
-243.526
-253.281
-259.268
-265.745
-261.374
-241.721
-201.525
-238.076
-105.484
-356.461
-230.555
-80.7092
-194.261
-198.693
-231.347
-244.824
-255.145
-261.268
-266.611
-259.621
-239.718
-203.244
-237.405
-105.016
-357.102
-230.158
-79.9967
-194.007
-198.965
-232.048
-245.626
-256.317
-262.73
-267.869
-259.744
-237.647
-200.813
-234.335
-104.765
-357.718
-229.638
-78.9476
-193.572
-199.304
-233.003
-246.719
-257.112
-263.799
-266.375
-258.231
-241.124
-198.255
-234.062
-104.097
-358.01
-229.153
-77.9498
-193.193
-199.651
-233.809
-247.463
-258.022
-264.731
-264.472
-253.968
-240.714
-201.5
-234.804
-104.143
-358.396
-228.726
-76.9533
-192.747
-199.95
-234.478
-248.143
-258.827
-265.221
-261.876
-250.562
-241.528
-204.078
-233.745
-103.789
-358.347
-228.484
-76.1727
-192.329
-200.165
-234.958
-248.736
-259.992
-264.979
-265.365
-253.829
-235.48
-201.202
-232.407
-103.702
-358.342
-228.473
-75.962
-192.202
-200.24
-235.079
-248.878
-260.347
-264.632
-265.351
-253.455
-235.448
-203.977
-224.435
-103.358
-357.673
-228.641
-76.3679
-192.515
-200.262
-235.035
-248.883
-260.311
-264.554
-265.808
-250.158
-233.135
-206.108
-231.534
-103.813
-357.964
-229.026
-77.2557
-193.043
-200.151
-234.697
-248.504
-259.411
-264.55
-264.841
-249.711
-235.293
-204.914
-232.236
-103.538
-357.607
-229.561
-78.3418
-193.593
-199.965
-234.146
-247.897
-258.662
-264.475
-266.482
-253.372
-235.748
-201.732
-233.216
-103.466
-357.341
-230.133
-79.3959
-194.053
-199.718
-233.468
-247.282
-257.862
-263.941
-268.152
-257.783
-237.251
-196.386
-232.451
-103.019
-356.617
-230.717
-80.4869
-194.557
-199.478
-232.611
-246.334
-257.306
-263.296
-270.028
-260.153
-234.935
-197.475
-232.118
-103.277
-355.914
-231.156
-81.2251
-194.861
-199.274
-231.999
-245.649
-256.442
-262.282
-269.434
-260.168
-237.711
-199.227
-234.542
-103.34
-355.002
-231.65
-82.3228
-195.452
-199.129
-230.913
-244.467
-254.766
-260.42
-270.065
-261.779
-238.893
-196.366
-234.883
-103.427
-354.086
-319.588
-33.7664
-190.204
-198.006
-228.286
-243.309
-253.173
-258.225
-263.876
-253.594
-237.368
-201.655
-245.863
-47.6144
-534.683
-319.03
-33.0021
-189.628
-197.889
-229.195
-244.154
-254.514
-259.416
-263.443
-252.735
-236.426
-201.925
-243.486
-47.6228
-536.461
-318.606
-32.7415
-189.426
-197.963
-229.642
-244.53
-255.146
-260.04
-262.38
-251.911
-236.741
-204.251
-239.986
-47.3573
-538.943
-318.027
-32.1917
-188.904
-198.007
-230.349
-245.247
-255.721
-260.626
-261.317
-249.295
-239.602
-205.813
-241.29
-47.8132
-539.661
-317.523
-31.8329
-188.428
-198.164
-230.897
-245.725
-256.157
-260.922
-260.041
-244.484
-239.635
-206.795
-243.45
-48.4679
-540.706
-317.08
-31.4514
-187.786
-198.266
-231.363
-246.147
-256.547
-260.81
-258.617
-240.089
-236.74
-209.988
-242.918
-48.9797
-540.86
-316.87
-31.188
-187.153
-198.371
-231.69
-246.424
-257.19
-260.24
-260.712
-244.07
-233.389
-205.048
-241.62
-49.1583
-540.941
-316.864
-31.1248
-186.918
-198.394
-231.764
-246.408
-257.204
-259.856
-260.095
-244.123
-233.167
-212.537
-234.466
-49.008
-540.633
-316.989
-31.249
-187.361
-198.447
-231.754
-246.468
-257.193
-259.92
-259.942
-242.002
-232.679
-209.017
-241.432
-49.5575
-540.522
-317.364
-31.54
-188.073
-198.432
-231.525
-246.345
-256.721
-259.979
-258.734
-238.247
-233.406
-210.714
-242.252
-49.307
-540.001
-317.917
-31.9578
-188.792
-198.44
-231.146
-246.037
-256.283
-260.502
-260.064
-242.72
-236.364
-207.312
-242.979
-48.6937
-539.585
-318.518
-32.3502
-189.315
-198.381
-230.694
-245.695
-255.948
-260.518
-261.724
-247.685
-236.872
-205.897
-241.3
-47.9184
-538.353
-319.163
-32.9337
-189.879
-198.429
-230.066
-245.092
-255.545
-260.275
-263.041
-250.671
-234.789
-204.192
-240.039
-47.4425
-537.33
-319.63
-33.2197
-190.109
-198.418
-229.69
-244.802
-255.16
-259.907
-264.367
-251.651
-234.84
-202.188
-243.168
-47.7551
-534.649
-320.225
-34.0129
-190.716
-198.605
-228.83
-244.065
-253.896
-258.962
-265.605
-252.993
-235.395
-201.813
-245.602
-47.6458
-532.752
-395.118
-7.60626
-177.753
-200.756
-226.588
-243.383
-254.992
-259.371
-264.548
-256.911
-257.04
-225.181
-255.964
47.4646
-739.832
-394.627
-7.09315
-177.351
-200.336
-226.93
-243.693
-255.559
-259.547
-264.925
-257.811
-256.071
-225.174
-253.472
44.736
-743.986
-394.308
-7.09446
-177.263
-200.305
-227.208
-243.958
-256.174
-260.385
-265.485
-259.434
-256.932
-227.179
-251.15
43.6072
-749.625
-393.845
-7.01466
-176.803
-200.115
-227.567
-244.38
-256.873
-261.408
-265.284
-259.291
-258.418
-228.93
-251.817
39.8016
-752.384
-393.505
-7.33915
-176.352
-200.181
-227.924
-244.776
-257.229
-262.041
-263.57
-255.796
-255.816
-227.409
-251.927
36.4604
-754.555
-393.206
-7.75547
-175.665
-200.167
-228.147
-245.05
-257.017
-262.751
-261.616
-251.414
-249.421
-228.412
-250.163
33.3909
-755.582
-393.128
-8.29493
-174.979
-200.253
-228.301
-245.19
-256.979
-262.52
-262.891
-253.93
-250.668
-223.788
-247.775
31.8666
-755.915
-393.108
-8.57994
-174.699
-200.257
-228.331
-245.148
-256.901
-261.902
-262.345
-253.882
-248.994
-231.266
-243.496
31.0396
-756.561
-393.135
-8.31423
-175.17
-200.333
-228.373
-245.216
-256.914
-262.041
-262.357
-252.409
-250.257
-226.273
-247.795
31.5921
-755.698
-393.382
-7.74101
-175.895
-200.339
-228.282
-245.167
-256.856
-262.204
-261.456
-249.391
-247.951
-227.271
-249.466
33.0014
-754.987
-393.757
-7.33555
-176.641
-200.46
-228.16
-245.037
-257.031
-262.207
-262.909
-254.038
-253.666
-226.876
-251.351
35.8309
-753.901
-394.181
-7.06297
-177.111
-200.484
-227.905
-244.766
-257.052
-261.581
-264.646
-257.699
-256.964
-228.578
-251.549
39.1195
-751.688
-394.692
-7.20084
-177.592
-200.751
-227.612
-244.447
-256.62
-260.966
-265.299
-258.592
-256.615
-227.466
-251.208
42.7747
-749.172
-395.045
-7.25469
-177.687
-200.837
-227.383
-244.283
-256.183
-260.308
-265.261
-257.532
-255.851
-225.732
-253.436
43.9737
-743.542
-395.562
-7.82364
-178.099
-201.3
-227.045
-244.022
-255.577
-260.149
-265.108
-257.414
-257.371
-226.42
-256.212
46.6246
-739.53
-476.553
-25.9286
-165.818
-207.944
-225.754
-243.629
-255.869
-263.401
-270.586
-273.592
-281.293
-267.501
-311.059
101.058
-969.653
-476.109
-25.2091
-165.61
-207.285
-225.437
-243.32
-255.22
-264.156
-273.767
-275.81
-279.864
-267.596
-305.708
93.4379
-977.527
-475.863
-25.1285
-165.659
-207.222
-225.598
-243.579
-255.504
-266.428
-277.371
-277.427
-279.493
-269.416
-298.036
90.1353
-987.082
-475.49
-25.0176
-165.372
-206.878
-225.558
-243.797
-255.5
-267.84
-279.899
-276.555
-280.788
-270.133
-290.943
82.5472
-994.16
-475.288
-25.5184
-165.111
-206.966
-225.853
-244.119
-256.639
-267.691
-278.097
-273.829
-277.457
-268.492
-285.045
75.2587
-997.955
-475.098
-26.2161
-164.623
-206.929
-225.977
-244.166
-256.908
-266.584
-276.786
-272.77
-269.87
-267.928
-279.8
68.3843
-1000.62
-475.112
-27.1519
-164.145
-207.093
-226.089
-244.383
-256.68
-265.696
-277.072
-273.878
-271.248
-265.881
-276.548
64.0785
-1001.02
-475.013
-27.7262
-163.946
-207.115
-226.105
-244.342
-256.607
-265.26
-276.25
-273.464
-268.05
-269.936
-274.017
61.5449
-1002.37
-474.979
-27.3645
-164.304
-207.21
-226.199
-244.493
-256.671
-265.084
-274.887
-273.656
-269.744
-266.482
-276.093
63.83
-1001.13
-475.186
-26.3547
-164.776
-207.17
-226.17
-244.462
-256.683
-264.94
-274.446
-272.499
-268.328
-266.613
-278.834
67.7314
-1000.49
-475.416
-25.6656
-165.325
-207.321
-226.212
-244.518
-256.797
-265.784
-275.941
-273.136
-275.143
-267.304
-283.774
74.0074
-998.245
-475.682
-25.2557
-165.592
-207.32
-225.989
-244.34
-256.008
-265.723
-277.339
-274.953
-279.245
-268.931
-289.613
80.9558
-994.628
-476.078
-25.4462
-165.887
-207.696
-226.036
-244.17
-255.87
-264.893
-275.844
-276.361
-279.071
-268.837
-296.662
88.1286
-988.626
-476.349
-25.6077
-165.834
-207.788
-225.878
-243.893
-255.57
-263.258
-272.857
-274.775
-279.155
-267.098
-304.768
91.5366
-979.465
-476.802
-26.3894
-166.033
-208.424
-226.11
-244.016
-255.877
-262.546
-270.28
-272.949
-280.977
-267.689
-310.651
98.2197
-972.473
-570.612
-63.9188
-161.568
-220.274
-227.278
-243.539
-262.218
-267.67
-280.534
-297.588
-330.045
-334.344
-462.84
143.724
-1194.77
-570.088
-62.9675
-161.323
-219.093
-226.125
-241.411
-260.307
-271.839
-285.926
-298.655
-326.792
-332.841
-446.685
128.778
-1214.08
-569.833
-62.813
-161.388
-218.874
-226.147
-240.76
-261.425
-274.969
-291.072
-301.193
-327.247
-337.73
-430.769
127.103
-1241.26
-569.406
-62.4332
-161.161
-218.243
-225.671
-240.38
-260.827
-275.729
-291.954
-305.095
-326.22
-338.006
-405.651
108.814
-1267.41
-569.2
-62.7097
-161.09
-218.362
-225.864
-242.001
-258.984
-272.479
-287.894
-306.348
-322.997
-338.762
-378.612
90.0319
-1277.69
-568.961
-63.0618
-160.879
-218.414
-226.009
-242.806
-260.23
-270.983
-284.907
-304.107
-316.965
-338.393
-359.037
70.8897
-1284.83
-568.932
-63.7433
-160.728
-218.686
-226.235
-243.028
-259.924
-270.661
-284.481
-302.064
-316.328
-338.857
-347.592
58.6464
-1285.05
-568.658
-64.333
-160.711
-218.772
-226.214
-243.36
-259.375
-268.886
-283.919
-298.598
-313.834
-339.625
-342.36
53.0275
-1287.47
-568.641
-64.2179
-160.94
-218.914
-226.477
-243.639
-259.407
-268.922
-283.642
-297.741
-313.807
-338.376
-345.966
57.4666
-1285.54
-568.994
-63.4122
-161.025
-218.835
-226.456
-243.673
-259.731
-268.575
-283.384
-300.174
-314.607
-337.614
-356.434
68.2803
-1285.09
-569.237
-63.0697
-161.29
-219.005
-226.592
-243.61
-259.324
-269.857
-285.174
-303.258
-320.435
-337.899
-374.555
86.4287
-1279.49
-569.473
-62.9177
-161.355
-218.972
-226.364
-242.602
-259.691
-271.787
-288.703
-303.047
-323.979
-337.092
-400.81
105.466
-1269.95
-569.891
-63.3663
-161.56
-219.567
-226.691
-242.436
-260.625
-272.329
-288.957
-300.23
-325.874
-337.282
-426.744
124.306
-1247.71
-570.153
-63.5951
-161.478
-219.764
-226.551
-242.551
-259.888
-270.313
-285.351
-298.594
-325.283
-332.254
-443.329
128.167
-1219.88
-570.664
-64.5737
-161.675
-220.819
-227.367
-244.129
-261.301
-266.988
-281.311
-298.547
-329.029
-333.337
-457.605
143.072
-1201.55
-674.122
-97.3664
-166.906
-238.805
-233.356
-249.43
-273.328
-270.041
-296.288
-325.517
-431.884
-382.195
-879.341
134.846
-1496.22
-673.411
-96.2731
-166.357
-236.722
-230.628
-244.372
-273.24
-275.948
-298.81
-325.236
-418.735
-377.571
-805.338
117.306
-1525.08
-673.102
-96.0988
-166.258
-236.068
-229.438
-242.006
-274.708
-282.403
-301.186
-329.578
-410.346
-380.424
-708.786
130.979
-1569.7
-672.507
-95.4985
-165.881
-234.746
-227.717
-237.637
-268.881
-282.925
-304.499
-335.306
-399.464
-389.21
-593.111
106.797
-1617.16
-672.205
-95.5869
-165.86
-234.607
-227.891
-236.719
-259.042
-273.868
-304.661
-338.37
-390.165
-400.273
-533.109
76.6923
-1629.97
-671.786
-95.6232
-165.815
-234.633
-228.247
-240.916
-255.132
-268.384
-303.093
-338.041
-381.363
-405.694
-490.385
53.5038
-1640.98
-671.639
-96.0546
-165.875
-235.04
-228.621
-243.378
-253.804
-266.528
-301.378
-336.595
-377.268
-411.467
-468.539
38.1636
-1639.54
-671.033
-96.6794
-166.095
-235.119
-228.777
-243.604
-252.801
-265.18
-299.249
-334.117
-374.599
-412.548
-457.896
31.9406
-1644.95
-671.069
-96.7734
-166.269
-235.381
-229.241
-244.336
-254.886
-265.693
-298.855
-333.146
-376.238
-412.468
-465.774
37.1632
-1640.99
-671.792
-96.0723
-166.059
-235.336
-229.418
-244.129
-254.457
-266.153
-300.656
-335.131
-380.345
-407.668
-486.568
50.277
-1641.76
-672.15
-96.072
-166.173
-235.652
-229.584
-242.196
-257.271
-269.94
-302.764
-336.369
-388.832
-402.012
-525.452
72.0781
-1633.01
-672.431
-96.1517
-166.162
-235.777
-229.353
-241.341
-264.548
-276.92
-304.511
-334.429
-398.392
-392.658
-583.277
101.088
-1620.91
-672.972
-96.7974
-166.457
-236.928
-230.341
-243.749
-271.046
-278.411
-302.5
-329.752
-409.409
-382.669
-688.525
126.854
-1580.32
-673.267
-97.0228
-166.496
-237.446
-230.9
-245.675
-269.958
-274.285
-301.695
-326.159
-417.912
-379.776
-794.76
115.167
-1533.88
-673.936
-98.0934
-166.934
-239.286
-232.884
-250.039
-268.656
-270.094
-300.972
-327.341
-431.382
-384.068
-865.574
127.915
-1509.46
-790.218
-124.469
-179.434
-264.413
-249.753
-268.789
-291.583
-291.877
-347.158
-384.22
-663.726
-376.054
-1929.41
95.7107
-1559.15
-789.185
-123.157
-178.457
-261.471
-244.807
-262.775
-293.555
-295.961
-342.699
-380.327
-627.172
-361.839
-1817.03
82.4099
-1606.73
-788.722
-122.891
-178.092
-260.03
-241.362
-260.074
-295.76
-300.883
-342.872
-388.357
-607.277
-406.466
-1731.03
175.606
-1739.94
-787.79
-122.05
-177.374
-257.435
-237.065
-251.393
-288.675
-299.195
-345.879
-390.811
-553.804
-427.222
-1269.34
220.724
-1985.39
-787.262
-122.008
-177.258
-256.532
-236.829
-245.896
-275.34
-289.151
-346.663
-394.064
-519.271
-457.275
-898.472
214.93
-2052.46
-786.559
-121.847
-177.3
-256.414
-238.954
-245.412
-267.924
-283.061
-343.946
-393.213
-492.023
-475.06
-724.757
151.129
-2089.94
-786.307
-122.152
-177.467
-256.654
-239.914
-248.809
-264.718
-279.963
-339.929
-393.229
-480.262
-489.701
-662.345
106.337
-2074.49
-785.312
-122.867
-177.854
-256.808
-240.664
-249.994
-261.959
-279.048
-336.884
-391.581
-473.771
-491.216
-636.661
88.9393
-2082.69
-785.349
-123.142
-178.078
-257.333
-241.243
-251.647
-264.064
-280.157
-336.532
-392.016
-480.106
-492.474
-657.53
104.852
-2078.85
-786.504
-122.423
-177.692
-257.425
-241.298
-249.807
-266.295
-281.017
-341.301
-392.37
-491.103
-480.115
-714.802
143.325
-2090.41
-787.087
-122.592
-177.751
-257.976
-240.754
-249.2
-272.475
-285.549
-345.782
-394.091
-517.661
-462.251
-864.363
209.456
-2064.68
-787.522
-122.826
-177.758
-258.422
-240.014
-252.06
-283.815
-294.426
-347.271
-391.452
-549.624
-429.701
-1213.8
232.84
-2005.56
-788.354
-123.674
-178.297
-260.667
-242.322
-260.042
-291.575
-298.94
-346.54
-390.241
-603.579
-411.989
-1690.71
201.116
-1792.71
-788.783
-123.959
-178.556
-261.904
-244.851
-263.107
-289.81
-295.312
-348.333
-382.739
-624.641
-360.624
-1825.89
93.408
-1629.7
-789.751
-125.205
-179.386
-264.599
-249.119
-268.554
-285.977
-291.488
-354.362
-386.793
-660.125
-373.538
-1914.37
114.292
-1584.4
-922.802
-149.952
-196.763
-297.77
-280.531
-299.361
-334.777
-326.362
-446.366
-421.025
-867.851
-279.867
-1925.57
-76.6479
-2125.64
-921.441
-148.317
-195.405
-294.37
-274.192
-294.351
-334.004
-328.681
-435.323
-418.479
-830.38
-267.856
-1835.24
-93.1398
-2178.71
-920.789
-147.877
-194.789
-292.392
-269.383
-292.991
-336.813
-331.614
-434.295
-431.203
-806.946
-306.963
-2166
-91.2189
-2189.63
-919.46
-146.716
-193.622
-288.639
-261.346
-283.735
-328.058
-333.03
-431.298
-441.428
-717.844
-393.995
-1816.75
35.564
-2556.2
-918.595
-146.502
-193.226
-286.366
-258.378
-277.486
-312.586
-328.783
-428.7
-451.337
-654.08
-469.118
-1249.98
183.266
-2607.92
-917.491
-146.173
-193.102
-285.66
-260.838
-273.476
-304.392
-324.505
-423.612
-455.049
-612.021
-515.55
-947.429
156.952
-2665.21
-917.003
-146.457
-193.33
-285.982
-263.39
-273.808
-301.305
-321.251
-420.478
-460.567
-597.052
-543.536
-869.953
115.229
-2639.16
-915.692
-147.145
-193.692
-286.081
-264.148
-273.654
-299.152
-319.426
-417.833
-458.9
-585.635
-549.175
-824.878
106.575
-2658.51
-915.654
-147.6
-194.093
-286.79
-265.075
-276.154
-301.148
-320.484
-419.277
-461.698
-599.812
-552.927
-862.557
125.045
-2650.75
-917.19
-146.915
-193.704
-286.951
-264.808
-275.355
-304.084
-322.318
-424.062
-457.651
-615.342
-527.761
-938.969
158.671
-2673.8
-918.224
-147.131
-193.752
-287.685
-263.043
-278.369
-310.417
-326.517
-430.662
-455.709
-656.822
-483.842
-1212.84
199.565
-2625.98
-918.9
-147.548
-193.952
-289.093
-263.448
-282.681
-323.918
-331.897
-435.017
-446.452
-715.123
-404.622
-1796.37
82.171
-2572.2
-920.118
-148.692
-194.902
-292.612
-269.507
-292.363
-335.572
-333.671
-439.889
-437.711
-805.884
-323.63
-2207.15
-53.8223
-2222.07
-920.734
-149.127
-195.418
-294.525
-274.127
-294.604
-333.042
-329.779
-441.293
-424.129
-833.852
-270.938
-1878.38
-80.4234
-2201.25
-922.028
-150.679
-196.659
-297.771
-280.237
-298.699
-331.289
-326.343
-452.267
-425.21
-869.046
-276.155
-1933.35
-39.3307
-2158.22
-1071.86
-181.786
-218.282
-341.182
-326.445
-343.77
-404.179
-379.844
-575.914
-449.379
-1087.74
-366.366
-1928.93
7.14691
-2750.24
-1070.35
-179.741
-216.665
-337.378
-319.774
-337.407
-399.171
-381.414
-558.945
-448.862
-1040.08
-376.049
-1879.52
-8.20802
-2822.17
-1069.57
-179.051
-215.928
-335.128
-315.299
-334.327
-400.688
-385.769
-556.418
-468.528
-1036.13
-365.274
-2275.9
-75.1486
-2833.99
-1067.99
-177.498
-214.436
-330.941
-306.719
-323.484
-393.649
-389.611
-544.581
-489.116
-900.875
-448.597
-2178.94
100.489
-3244.78
-1066.85
-177.026
-213.731
-327.94
-301.047
-317.25
-379.694
-387.387
-536.777
-505.733
-797.098
-526.086
-1590.35
253.561
-3293.41
-1065.4
-176.472
-213.175
-325.965
-299.752
-313.889
-368.808
-383.613
-525.376
-512.844
-732.595
-569.668
-1139.88
225.518
-3376.09
-1064.57
-176.726
-213.274
-325.902
-301.981
-313.289
-365.659
-381.33
-522.424
-526.039
-725.451
-600.888
-1101.95
170.285
-3338.37
-1063.21
-177.225
-213.397
-325.749
-302.759
-312.941
-363.914
-378.355
-518.328
-521.498
-706.073
-607.311
-1026.62
156.673
-3378.65
-1062.94
-177.881
-213.989
-326.551
-304.11
-314.927
-366.513
-379.729
-524.702
-529.276
-731.631
-620.159
-1073.34
184.594
-3351.4
-1064.51
-177.452
-213.862
-327.023
-303.806
-314.446
-370.403
-381.996
-530.707
-521.957
-748.756
-588.243
-1156.46
226.376
-3376.87
-1066.14
-177.731
-214.125
-328.585
-304.056
-317.598
-378.49
-386.289
-543.025
-516.368
-805.458
-539.394
-1555.62
267.378
-3326.53
-1067.03
-178.368
-214.631
-330.982
-307.449
-321.361
-392.55
-391.479
-552.543
-499.961
-905.61
-460.454
-2211.27
116.021
-3261.82
-1068.48
-179.928
-215.956
-335.145
-315.575
-333.044
-405.411
-391.63
-565.047
-480.71
-1034.96
-358.753
-2359.68
-73.6013
-2848.57
-1069.23
-180.605
-216.626
-337.453
-320.256
-337.733
-402.352
-386.534
-565.052
-459.145
-1055.21
-370.023
-1927.71
-0.801068
-2839.28
-1070.69
-182.572
-218.18
-341.27
-327.081
-344.282
-405.626
-382.849
-581.031
-456.624
-1101.16
-364.456
-1962.75
25.9965
-2783.81
-1234.88
-228.733
-245.13
-399.834
-390.59
-412.988
-501.376
-453.655
-728.211
-530.195
-1257.84
-485.791
-2134.46
193.385
-3509.61
-1233.4
-226.363
-243.359
-395.728
-383.787
-404.998
-490.95
-451.983
-706.7
-536.724
-1200.92
-529.874
-2142.35
112.467
-3611.56
-1232.56
-225.433
-242.603
-393.309
-379.799
-399.652
-488.326
-456.442
-700.448
-546.353
-1225.05
-497.307
-2497.15
-54.027
-3636.54
-1230.94
-223.544
-240.939
-388.929
-372.157
-387.539
-480.083
-459.044
-675.603
-555.21
-1067.87
-564.258
-2589.33
175.97
-4024.11
-1229.67
-222.781
-240.039
-385.709
-366.253
-376.985
-469.458
-459.022
-662.433
-564.409
-947.705
-610.924
-2069.31
310.598
-4087.47
-1228.1
-221.965
-239.065
-382.841
-361.896
-370.852
-458.98
-452.695
-645.109
-569.586
-861.938
-603.229
-1376.7
273.311
-4259.16
-1227.02
-222.104
-238.907
-382.044
-362.131
-370.761
-454.285
-450.926
-641.019
-586.62
-866.999
-601.667
-1542.2
154.938
-4083.38
-1225.79
-222.398
-238.743
-381.574
-362.471
-372.012
-450.745
-448.357
-634.84
-580.806
-845.225
-641.146
-1307.97
262.388
-4339.28
-1225.23
-223.279
-239.384
-382.456
-364.055
-373.73
-453.914
-450.552
-646.852
-590.706
-869.72
-672.956
-1367.55
297.885
-4213.09
-1226.37
-223.337
-239.651
-383.485
-364.714
-373.287
-459.712
-452.332
-658.311
-583.672
-894.668
-641.162
-1455.48
332.727
-4236.53
-1228.36
-223.78
-240.299
-385.977
-367.832
-377.363
-469.252
-458.602
-676.923
-579.328
-963.524
-606.404
-1996.81
359.7
-4192.03
-1229.47
-224.549
-241.021
-388.899
-372.74
-385.224
-480.317
-463.663
-691.667
-568.006
-1092.49
-562
-2644.4
186.697
-4052.26
-1230.94
-226.452
-242.56
-393.321
-380.562
-398.78
-493.661
-464.517
-714.103
-555.722
-1246.08
-478.806
-2514.6
-66.7659
-3665.41
-1231.71
-227.382
-243.269
-395.837
-384.755
-405.621
-495.785
-459.235
-717.009
-543.788
-1227.9
-525.894
-2170.91
121.772
-3619.95
-1233.13
-229.683
-245.015
-400.074
-391.905
-414.778
-506.552
-459.3
-738.482
-536.197
-1280.33
-489.416
-2162.99
222.566
-3552.41
-1408.3
-295.69
-276.439
-473.999
-471.791
-502.201
-628.007
-568.761
-896.325
-638.256
-1489.71
-601.354
-2599.08
619.456
-4327.62
-1406.94
-293.223
-274.581
-469.882
-464.872
-493.718
-613.594
-559.277
-864.181
-638.032
-1416.75
-654.435
-2645.38
325.443
-4445.83
-1406.1
-292.154
-273.84
-467.526
-461.088
-488.318
-606.338
-555.554
-853.536
-631.46
-1405.58
-602.665
-2938.3
-11.8178
-4502.31
-1404.55
-290.119
-272.104
-463.238
-453.897
-477.45
-590.553
-545.185
-815.803
-629.815
-1228.69
-665.441
-3133.82
155.987
-4905.11
-1403.27
-289.148
-271.135
-460.166
-448.564
-467.833
-576.313
-537.736
-795.083
-633.258
-1101.05
-684.031
-2640.6
314.311
-5084.67
-1401.74
-288.135
-269.938
-457.048
-443.389
-459.599
-562.309
-529.858
-774.217
-635.889
-1024.45
-636.269
-1715.9
252.283
-5358.8
-1400.56
-288.118
-269.558
-455.794
-442.04
-457.81
-557.805
-527.566
-766.881
-647.699
-1046.36
-558.874
-2061.09
-91.4913
-4945.11
-1399.43
-288.326
-269.213
-455.114
-441.674
-458.773
-556.353
-525.443
-757.351
-644.947
-1017.38
-664.31
-1722.5
226.432
-5639.19
-1398.61
-289.388
-269.711
-455.998
-443.341
-460.88
-560.409
-529.056
-769.832
-648.32
-1020.38
-700.162
-1795.02
370.311
-5480.48
-1399.06
-289.984
-270.234
-457.387
-445.168
-462.679
-566.826
-532.224
-792.311
-650.627
-1074.92
-702.118
-1890.3
436.383
-5406.96
-1400.94
-290.688
-271.264
-460.339
-449.78
-469.145
-579.286
-540.012
-817.231
-655.189
-1154.1
-670.298
-2588.47
373.289
-5410.03
-1402.28
-291.419
-272.081
-463.3
-454.84
-477.651
-593.897
-549.214
-840.394
-655.402
-1292.13
-636.688
-3206.06
182.698
-4996.62
-1403.7
-293.349
-273.699
-467.624
-462.231
-489.223
-611.953
-560.971
-875.106
-646.139
-1453.75
-572.534
-2893.42
3.86546
-4630.61
-1404.46
-294.404
-274.387
-470.062
-466.18
-495.37
-619.911
-565.51
-882.982
-644.095
-1454.9
-634.678
-2641.96
334.61
-4515.89
-1405.71
-296.766
-276.203
-474.302
-473.426
-504.826
-635.558
-576.358
-916.047
-643.683
-1521.88
-593.108
-2613.44
609.492
-4436.76
-1582.12
-388.802
-317.946
-566.487
-580.292
-617.183
-788.325
-726.526
-1125.79
-790.783
-1812.55
-697.632
-3271.28
824.595
-5077.33
-1580.95
-386.49
-316.092
-562.647
-573.545
-608.654
-772.36
-710.573
-1083.13
-767.928
-1709.81
-731.803
-3316.28
369.362
-5253.47
-1580.14
-385.403
-315.372
-560.534
-569.969
-603.751
-763.559
-700.213
-1061.38
-736.832
-1653.63
-651.649
-3546.82
-53.9578
-5353.06
-1578.74
-383.453
-313.657
-556.619
-563.186
-594.237
-745.834
-680.712
-1010.77
-716.529
-1457.45
-726.976
-3782.19
-33.9363
-5836.09
-1577.53
-382.419
-312.689
-553.916
-558.415
-586.677
-731.356
-664.798
-972.244
-707.996
-1316.15
-708.89
-3177.09
295.913
-6122.4
-1576.11
-381.361
-311.441
-550.975
-553.333
-579.113
-716.957
-652.187
-945.346
-719.056
-1289.93
-629.222
-2170.47
171.34
-6535.96
-1574.96
-381.208
-310.934
-549.624
-551.301
-576.296
-711.835
-648.384
-937.292
-716.515
-1352.66
-556.523
-2471
-200.742
-5868.25
-1573.88
-381.336
-310.508
-548.858
-550.44
-576.213
-711.508
-649.29
-929.384
-718.076
-1288.73
-634.264
-2467.1
110.446
-6702.57
-1573.24
-382.224
-310.823
-549.653
-552.04
-578.436
-716.002
-653.59
-938.731
-709.155
-1287
-681.075
-2314.94
330.702
-6969.02
-1573.05
-383.226
-311.326
-551.017
-554.358
-581.609
-723.876
-661.917
-974.676
-728.379
-1375.53
-732.126
-2498.07
630.493
-6472.77
-1574.02
-384.462
-312.501
-553.856
-559.275
-588.538
-737.998
-674.159
-1012.52
-741.576
-1501.64
-694.698
-3307.15
254.981
-6576.44
-1575.36
-385.181
-313.356
-556.512
-563.983
-595.79
-752.669
-688.977
-1051.43
-750.613
-1654.32
-655.199
-3830.1
31.9642
-5711.31
-1576.7
-386.797
-314.919
-560.379
-570.814
-605.525
-771.072
-707.719
-1097.67
-756.463
-1773.21
-611.939
-3411.74
101.853
-5434.93
-1577.45
-387.759
-315.572
-562.528
-574.446
-610.705
-780.051
-717.993
-1114.44
-774.202
-1793.21
-665.502
-3274.79
488.627
-5261.61
-1578.48
-389.865
-317.303
-566.367
-581.319
-619.681
-796.591
-734.607
-1155.66
-793.156
-1875.25
-632.635
-3269.14
930.382
-5139.48
-1747.73
-505.999
-366.379
-670.438
-701.765
-737.331
-953.746
-878.418
-1360.72
-939.518
-2167.87
-775.935
-3974.38
999.09
-6387.95
-1746.7
-503.85
-364.54
-666.94
-695.268
-728.864
-936.985
-858.647
-1312.21
-894.551
-2038.13
-778.715
-3984.02
455.121
-6672.25
-1745.92
-502.745
-363.804
-665.065
-691.838
-724.37
-927.655
-846.446
-1283.71
-850.254
-1960.68
-702.226
-4404.33
-172.013
-6916.94
-1744.63
-500.896
-362.118
-661.578
-685.482
-715.885
-910.389
-825.384
-1228.6
-799.741
-1728.41
-792.083
-4269.51
-11.3616
-7861.59
-1743.45
-499.819
-361.145
-659.25
-681.217
-709.929
-897.645
-809.141
-1185.38
-764.685
-1535.92
-650.439
-3385.05
481.278
-7989.87
-1742.09
-498.757
-359.905
-656.639
-676.564
-703.639
-885.261
-796.947
-1163.56
-786.282
-1581.94
-660.728
-2651.57
85.1315
-8548.66
-1740.93
-498.477
-359.334
-655.381
-674.477
-700.936
-880.164
-792.116
-1157.93
-773.463
-1642.91
-626.853
-2885.34
-293.078
-7510.31
-1739.84
-498.519
-358.861
-654.616
-673.411
-700.292
-879.389
-794.587
-1158.34
-780.472
-1593.96
-610.866
-3078
-300.65
-8106.82
-1739.12
-499.261
-359.063
-655.289
-674.855
-702.483
-884.003
-798.451
-1167.49
-768.691
-1596.42
-670.137
-2826.15
22.5001
-9523.98
-1738.66
-500.231
-359.418
-656.472
-677.098
-705.958
-892.13
-808.77
-1202.27
-803.367
-1694.27
-751.06
-2972.94
825.874
-8858.42
-1738.84
-501.715
-360.452
-658.928
-681.68
-712.47
-906.276
-823.626
-1247.5
-829.822
-1875.48
-761.085
-3649.08
471.176
-8904.73
-1739.63
-502.765
-361.297
-661.203
-685.85
-718.605
-919.439
-839.455
-1290.01
-858.687
-2053.29
-758.03
-4299.38
-158.263
-7949.78
-1740.88
-504.109
-362.745
-664.528
-692.037
-727.129
-937.05
-859.447
-1340.73
-890.006
-2173.11
-709.397
-4176.96
-74.1916
-7227.76
-1741.66
-504.863
-363.386
-666.389
-695.375
-731.728
-946.056
-870.707
-1362.88
-918.694
-2204.96
-737.608
-3969.58
441.012
-6880.01
-1742.54
-506.577
-364.973
-669.715
-701.706
-740.188
-962.825
-889.57
-1409
-955.187
-2314.19
-744.51
-4086.1
862.962
-6622.79
-1862.76
-683.66
-443.475
-784.277
-880.975
-902.802
-1210.99
-1072.92
-1761.34
-1093.34
-2827.64
-652.215
-5063.61
1815.79
-8501.02
-1861.92
-681.877
-441.667
-781.397
-875.028
-895.733
-1195.08
-1055.77
-1714.96
-1050.93
-2692.26
-643.353
-4999.84
1104.19
-8941.62
-1861.21
-680.883
-440.883
-779.906
-871.732
-892.286
-1185.88
-1046.6
-1686.54
-1018.28
-2616.42
-577.79
-5457.61
565.787
-9462.7
-1860.09
-679.311
-439.218
-777.076
-865.815
-885.66
-1169.59
-1030.85
-1634.81
-977.556
-2396.44
-686.468
-4839.48
743.126
-10769.1
-1859
-678.306
-438.189
-775.217
-861.748
-881.472
-1157.89
-1020.04
-1592.37
-939.223
-2141.95
-621.258
-3990.24
813.299
-11123
-1857.78
-677.335
-436.928
-773.065
-857.264
-876.792
-1146.32
-1011.2
-1570.47
-952.047
-2225.89
-641.839
-3730.72
337.331
-11068.6
-1856.69
-676.95
-436.247
-771.936
-854.93
-874.647
-1140.83
-1006.78
-1561.59
-941.879
-2242.06
-603.202
-3923.35
599.772
-9577.82
-1855.66
-676.857
-435.67
-771.142
-853.355
-873.716
-1138.31
-1007.68
-1562.16
-951.806
-2255.42
-592.668
-3957.17
437.921
-10105.9
-1854.91
-677.326
-435.679
-771.441
-854.111
-875.222
-1142.09
-1010.32
-1575.82
-942.967
-2262.77
-659.416
-4018.5
714.054
-11998.3
-1854.38
-678.019
-435.817
-772.152
-855.576
-877.678
-1147.99
-1017.34