/*--------------------------------*- C++ -*----------------------------------*\
| =========                 |                                                 |
| \\      /  F ield         | OpenFOAM: The Open Source CFD Toolbox           |
|  \\    /   O peration     | Version:  4.1                                   |
|   \\  /    A nd           | Web:      www.OpenFOAM.org                      |
|    \\/     M anipulation  |                                                 |
\*---------------------------------------------------------------------------*/
FoamFile
{
    version     2.0;
    format      ascii;
    class       surfaceScalarField;
    location    "20";
    object      phi;
}
// * * * * * * * * * * * * * * * * * * * * * * * * * * * * * * * * * * * * * //

dimensions      [0 3 -1 0 0 0 0];

internalField   nonuniform List<scalar> 
19125
(
136.751
-2.72894
1568.72
123.638
-9.7717
1411.85
100.082
-3.73522
1103.52
94.5179
5.91207
970.956
82.7277
16.7931
855.83
57.0622
26.085
677.027
47.4267
43.9897
664.727
-5.03974
59.1714
527.435
-124.52
0.14647
335.6
-225.162
-102.654
-82.9236
-164.878
53.7134
-221.437
-87.2955
-29.5568
543.695
-104.255
-9.10707
1055.05
-104.358
-7.16083
1411.53
0.175944
1878.67
135.882
-3.56174
1566.15
122.651
-12.1913
1418.53
100.281
-3.78131
1130.4
95.3958
8.05539
1000.68
84.9666
19.9901
868.424
62.4301
31.635
675.378
48.3155
57.9924
624.078
-20.1767
107.538
486.056
-173.16
76.7346
280.923
-299.556
-122.942
-64.7939
-222.674
4.46588
-146.477
-88.5286
-108.707
486.334
-102.728
-13.3826
1073.58
-104.872
-7.97189
1407.71
-0.202597
1857.21
135.145
-4.04185
1564.32
122.14
-13.7039
1427.73
100.859
-3.68615
1152.11
96.796
8.82177
1018.02
87.2957
20.9991
869.695
70.209
31.0007
676.506
61.3812
59.5016
571.687
27.6498
129.829
435.804
85.9547
-13.1466
258.445
33.7665
-171.883
-98.3413
-129.716
130.188
-241.689
-84.3103
-51.8051
339.016
-98.7959
-10.6234
1066.48
-106.098
-4.15594
1397.71
-1.29601
1817.42
134.541
-4.08174
1557.85
122.216
-14.5131
1434.32
102.186
-3.5029
1172.21
98.6719
8.58638
1033.69
90.0314
19.6917
869.174
76.0594
26.8374
670.634
74.1667
53.873
552.098
134.18
61.5904
420.624
232.083
-166.328
93.4495
189.454
-229.369
-368.952
-11.0252
223.711
-411.807
-73.7147
81.9765
512.677
-95.4255
-7.32971
1077.87
-105.189
0.869043
1422.57
-1.16791
1828.57
134.236
-3.54123
1546.89
122.091
-13.7162
1443.81
103.162
-3.28277
1194.99
99.9183
7.30101
1050.12
92.7217
15.3657
869.079
77.0956
24.873
662.718
82.8397
37.6301
544.851
139.622
-12.6745
396.004
-27.6504
-107.609
-125.495
-236.415
-105.625
-343.161
-163.507
109.072
-147.692
-80.1
22.2305
807.446
-101.999
-8.512
1078.4
-105.294
-1.68057
1430.69
-1.17589
1834.06
134.431
-2.29102
1529.46
121.779
-10.08
1452.51
103.654
-2.48936
1218.99
100.651
5.02205
1068.12
93.1915
9.83478
872.136
77.361
22.7478
660.63
66.7291
29.2084
509.595
16.0008
3.85116
351.293
-268.357
70.2982
-118.526
-356.73
35.3467
-76.3526
-135.705
-164.435
320.365
-80.7902
-43.6209
781.811
-101.527
-12.3063
1078.14
-105.099
-4.28441
1443.88
-0.695859
1833.44
135.459
-0.457607
1504.85
121.492
-2.77026
1455.08
103.69
-0.469541
1238.48
100.941
2.08967
1086.52
93.4659
3.47826
879.76
85.6375
11.4792
668.34
70.9236
13.7481
450.046
66.5609
-17.5074
312.435
29.9084
55.7946
27.2016
-71.4859
59.7095
-300.81
-122.217
-161.974
-323.64
-81.7161
-29.3939
497.104
-100.571
-14.0667
1075.78
-105.975
-3.95591
1443.75
-0.792823
1820.31
136.079
1.49072
1494.39
121.661
5.60941
1452.37
103.834
2.1215
1241.42
101.094
-0.75895
1091.69
92.9834
-2.29349
882.486
88.6742
-3.55188
677.272
75.9798
-10.371
427.354
15.0844
1.47858
247.866
62.5591
-7.74359
90.5161
165.474
-107.146
-281.055
-23.3319
-53.4286
-397.554
-78.7664
146.52
5.18007
-96.6769
8.37218
1047.31
-105.649
2.46689
1430.03
-0.872074
1793.54
135.257
3.18951
1510.9
121.601
12.04
1454.35
103.777
3.95851
1234.92
101.211
-3.70099
1083.66
93.5156
-8.07833
879.992
87.9303
-17.7232
670.744
72.7233
-28.8754
432.912
9.55428
26.8021
271.817
-62.9384
14.4007
60.2712
-204.135
-43.4638
-311.288
-243.757
25.0996
-114.737
-84.6768
42.1359
420.377
-102.203
5.73289
1082.04
-105.779
1.42598
1447.43
-1.23214
1824.35
134.482
4.26699
1534.45
121.925
15.0269
1450.72
103.732
4.62945
1214.53
101.031
-6.00973
1064.88
93.5399
-13.2318
873.04
81.2196
-24.359
659.016
65.3997
-33.8837
484.801
51.8528
15.3944
348.852
-135.899
101.841
-26.1659
-269.158
77.9342
-230.825
-144.714
-134.41
351.764
-79.4264
-34.1959
772.318
-101.774
3.6733
1084.42
-104.326
-2.06199
1446.86
-0.764823
1839.97
134.462
4.64794
1551.19
122.259
15.3859
1442.06
103.254
4.70268
1190.23
100.357
-7.3856
1046.64
93.2215
-17.5475
867.928
77.7022
-26.7593
658.417
78.3075
-45.0281
536.842
130.101
-55.0384
396.382
-5.50939
140.748
-45.2273
-222.619
191.512
-381.831
-169.067
-232.244
-126.309
-78.849
-105.91
816.462
-101.75
3.02108
1089.54
-104.437
-5.09526
1438.41
-0.705797
1838.8
134.912
4.45729
1561.37
122.448
14.2615
1432.57
102.365
4.68391
1167.06
99.228
-7.76094
1029.73
91.1284
-19.428
866.215
76.1963
-29.9926
664.846
76.5579
-51.9539
552.98
135.632
-123.31
426.24
204.398
23.1365
99.2355
142.843
150.461
-397.013
-26.94
-171.236
-416.276
-71.4172
1.47069
576.259
-94.461
5.80001
1093.53
-104.127
-0.29548
1433.06
-0.448485
1833.27
135.622
3.84765
1567.21
122.431
12.5286
1426.17
101.086
4.56261
1146.85
97.4593
-7.23179
1013.77
88.4309
-18.8703
865.447
71.2769
-30.5111
673.012
64.9
-53.4121
564.685
39.4355
-108.851
432.923
81.8576
-48.4732
247.89
42.6381
99.146
-133.921
-102.066
-73.6473
-283.889
-77.3288
65.7517
370.588
-95.9638
10.3184
1084.29
-104.435
4.56962
1409.41
-1.13382
1822.67
136.435
2.90157
1568.54
122.997
9.93896
1417.12
100.568
4.2632
1125.06
96.1301
-5.36282
996.009
86.267
-16.1153
863.803
64.2327
-25.5735
672.44
51.7878
-41.8594
611.851
-17.2771
-59.4545
476.185
-175.71
32.787
263.815
-275.686
48.8427
-88.6257
-198.685
-146.714
-198.157
-84.1525
6.91248
485.604
-99.6531
6.23721
1089.19
-103.069
4.60131
1419.45
-1.14328
1862.32
137.358
1570.74
124.014
1410.78
100.392
1098.5
95.2551
966.19
84.1039
850.92
58.9567
673.78
51.5199
652.742
-0.546213
517.776
-103.347
329.913
-173.977
-115.856
-142.516
-257.415
-80.6664
546.162
-100.35
1071.88
-102.196
1423.64
1884.29
418.628
-7.07003
1446.32
380.741
-25.5352
1458.9
316.046
-15.9555
1173.12
289.291
8.84901
993.778
268.39
45.4799
861.655
225.668
60.6943
698.982
231.524
121.661
621.356
179.394
149.681
519.795
84.3286
3.30296
378.317
-11.395
-126.374
57.3094
-108.697
74.7597
-67.5153
-143.238
9.30097
610.527
-202.646
-28.4007
1130.18
-275.407
-12.5275
1488.24
6.37819
1974.59
415.547
-9.16229
1445.46
377.71
-31.5277
1462.36
316.419
-17.3681
1193.1
291.435
13.3581
1021.16
273.884
54.4222
877.032
237.428
70.3939
702.133
235.887
149.312
597.968
173.498
227.784
470.341
47.8994
92.4957
317.326
-108.536
-113.801
79.0631
-196.713
54.7956
-38.3399
-148.804
-72.9342
520.657
-200.824
-41.8003
1139
-277.282
-13.5213
1485.16
7.81213
1956.41
413.182
-10.3257
1444.73
375.517
-35.0246
1468.89
317.153
-17.852
1210.96
294.037
15.399
1039.1
279.895
56.6791
881.579
255.654
67.4013
703.739
260.224
151.411
565.015
264.803
241.082
417.925
330.658
40.4932
244.589
321.202
-216.969
14.2796
67.0078
136.135
-68.8363
-91.5073
42.2115
382.383
-194.765
-4.16522
1132.1
-282.789
-8.44189
1480.65
6.89715
1919.56
411.088
-10.3425
1439.5
374.823
-36.7065
1472.26
320.401
-18.2002
1226.98
298.54
15.7685
1055.18
287.737
52.1983
884.457
266.931
62.0375
696.802
274.939
142.707
552.792
354.399
178.304
403.939
461.153
-67.0461
94.231
442.669
-341.553
-225.885
134.493
212.569
-180.07
-105.53
223.604
571.306
-192.785
7.70256
1153.26
-283.907
0.908177
1504.34
5.56017
1928.74
409.941
-8.81172
1429.3
374.002
-34.17
1477.22
322.391
-17.543
1245.94
301.435
13.8941
1072.95
294.413
40.0462
888.252
269.613
59.9637
689.591
292.721
113.046
551.401
376.766
114.29
375.97
235.912
-33.4589
-18.2335
-46.9036
-228.151
-173.752
-166.273
133.953
50.2898
-156.225
128.033
892.967
-205.364
-21.9254
1157.17
-286.398
-2.50116
1515.13
1.94262
1933.76
410.278
-5.44218
1412.1
373.59
-24.7135
1479.74
323.158
-13.5649
1265.44
303.416
9.79134
1091.97
296.037
24.5157
895.044
274.551
51.873
690.204
281.796
84.0018
531.391
330.467
71.4249
345.484
24.678
144.331
9.46613
-335.454
122.539
-66.9154
-264.3
-109.552
492.712
-171.848
-87.8719
905.261
-208.174
-67.8381
1160.38
-286.602
-8.60973
1528.41
-1.25781
1932.98
413.224
-0.92497
1387.23
374.572
-6.77731
1475.8
322.714
-3.47387
1280.24
303.969
4.60759
1110.45
295.264
7.91306
905.066
288.08
26.1432
701.251
289.376
38.4512
494.297
328.645
21.6996
322.887
345.591
82.4917
72.0909
211.996
102.958
-147.637
-25.3297
-79.1555
-116.714
-136.647
-33.733
554.279
-201.734
-82.5902
1155.62
-287.13
-7.06262
1527.6
-3.97335
1920.74
415.201
3.6288
1376.38
375.908
13.6464
1471.24
322.937
9.19998
1281.72
304.592
-0.413516
1115.06
292.728
-5.82631
908.088
293.937
-8.26836
710.472
303.336
-25.6412
482.042
298.306
-16.6095
291.201
368.816
-0.245326
102.737
454.936
-132.101
-132.119
299.048
-148.592
-172.232
22.9455
129.605
117.939
-185.103
60.7212
1112.04
-280.182
4.16266
1513.89
-0.220703
1898.33
412.809
7.91024
1392.89
374.463
29.6319
1476.71
323.01
18.0805
1277.5
304.868
-5.88592
1107.27
294.68
-20.1223
904.474
293.542
-40.7471
704.359
297.046
-79.324
483.088
295.302
-49.3925
306.339
305.89
-40.8432
90.2753
96.7867
-97.7048
-136.585
-130.811
-51.3205
15.5844
-135.362
68.3426
486.188
-205.288
51.6125
1161.07
-284.755
1.60478
1529.45
-2.78996
1926.19
410.607
10.8287
1416.53
373.932
37.5232
1479.51
323.469
21.291
1261.78
304.506
-10.2208
1088.18
296.545
-34.2441
895.122
280.797
-56.8166
690.831
278.686
-104.542
512.127
316.506
-88.2905
349.927
167.791
23.6818
58.017
-214.801
179.956
-125.897
-282.884
-128.134
496.657
-162.967
-170.775
891.517
-209.196
15.3286
1166.93
-283.37
-7.84899
1530.49
-5.77416
1940.53
410.78
11.935
1432.79
374.632
38.9602
1476.77
322.766
21.3416
1242.04
302.673
-12.4836
1069
295.757
-46.3409
886.939
271.755
-61.0328
686.633
288.294
-128.253
544.012
366.357
-154.491
384.516
276.708
38.4302
29.6686
-26.9285
288.872
-187.113
-174.851
-200.897
94.3723
-152.119
-286.531
909.486
-204.224
-12.5109
1169.48
-283.651
-12.1578
1522.15
-9.48785
1939.18
412.34
11.5029
1442.06
375.753
36.4633
1471.66
321.052
20.3425
1222.76
299.983
-12.5267
1050.85
290.508
-52.2128
881.561
267.958
-64.8906
691.252
279.364
-138.775
552.095
363.948
-222.437
409.6
438.095
-26.6936
90.2096
385.039
189.351
-244.438
107.347
-171.267
-168.213
-107.883
-140.364
645.321
-189.683
-9.25392
1172.07
-281.132
-2.35074
1514.7
-11.0504
1933.93
414.737
9.9779
1446.5
376.697
32.3937
1468.28
317.982
19.2465
1206.66
295.729
-11.0388
1034.54
283.154
-51.5027
877.31
259.346
-67.3009
699.229
267.518
-141.29
559.025
286.153
-222.759
414.608
343.305
-60.3122
224.353
336.67
102.02
-39.9596
103.224
-120.451
-101.263
-80.8864
-20.4768
434.809
-188.048
26.1533
1156.04
-278.028
5.08585
1491.95
-11.3287
1926.04
417.316
7.5701
1446.63
379.093
25.9661
1461.77
317.424
17.1874
1188.79
293.38
-7.24927
1016.26
277.535
-43.8895
872.035
243.344
-58.8314
698.16
246.825
-120.034
587.113
193.021
-151.365
458.592
70.5252
33.7941
292.2
-37.1472
83.6411
37.414
-119.021
-177.824
-58.9151
-128.587
-66.4811
541.17
-193.411
19.3249
1160.84
-271.681
6.15002
1496.66
-8.83686
1963.1
420.543
1447.04
382.251
1458.47
317.12
1169.1
291.294
988.839
272.027
856.04
232.018
694.39
243.28
607.844
195.479
506.782
139.102
349.141
101.998
-16.5899
-36.8428
-75.9107
-121.645
639.909
-193.452
1154.26
-269.05
1500.67
1982.04
705.683
-9.79543
1151.55
673.361
-32.3174
1500.76
572.501
-31.13
1281.84
498.668
-6.39215
1067.42
462.333
49.1412
882.955
429.436
58.6727
715.192
440.906
133.741
574.2
444.283
138.484
471.69
461.947
12.853
342.85
427.706
-9.6352
105.688
173.776
107.178
188.634
-139.962
70.567
919.987
-357.995
-73.9995
1376.12
-570.556
-9.70586
1703.28
24.0705
1897.6
700.109
-12.4941
1154.06
666.754
-39.2841
1502.69
570.822
-35.4865
1293.39
499.786
-2.78247
1088.58
467.926
60.0687
897.964
439.576
67.1538
722.002
446.502
163.926
560.856
457.879
181.173
416.274
477.139
12.0004
298.918
468.278
-67.5546
145.842
240.71
128.153
168.252
-108.659
125.261
815.33
-357.87
-66.1993
1380.41
-575.416
-10.7479
1703.74
30.791
1883.97
696.386
-13.9964
1155.28
661.708
-42.7012
1506.99
569.233
-37.7223
1305.67
500.367
0.268656
1104.91
473.874
61.9008
906.239
453.413
67.9212
723.431
463.082
166.714
552.558
517.942
173.668
370.568
611.625
-30.0791
192.984
647.67
-143.109
53.7873
410.008
176.082
120.895
-45.4854
213.941
749.196
-371.358
14.1709
1377.6
-599.685
-0.907467
1699.14
20.1559
1847.33
692.473
-13.8663
1152.69
658.329
-43.9056
1507.61
571.5
-39.6964
1315.79
505.618
1.87051
1119.46
482.923
57.0976
911.955
463.822
67.73
716.093
477.09
154.791
551.446
541.631
160.632
352.432
598.824
-36.741
43.6977
582.489
-238.288
-114.372
293.881
167.795
116.823
-120.747
284.132
915.741
-366.709
26.8983
1386.5
-593.104
8.5953
1721.24
14.1514
1859.38
690.224
-11.5864
1144.28
655.854
-39.8208
1507.5
571.891
-38.3083
1328.52
508.491
1.29628
1136.92
488.321
45.994
919.525
469.012
62.0597
714.569
498.469
126.44
550.293
540.798
162.642
331.628
407.816
47.8028
30.2022
155.116
-178.014
18.6714
-63.0934
3.16864
433.124
-206.549
177.339
1143.21
-375.547
-29.2136
1382.28
-593.684
5.62709
1736.24
7.32975
1865.65
690.071
-6.89733
1128.35
655.5
-28.0158
1502.5
571.726
-29.6042
1340.51
509.701
0.301828
1154.98
490.909
29.6052
930.224
476.358
47.4803
719.334
503.119
88.0967
542.971
550.769
131.244
329.229
398.888
144.736
64.4113
-34.6629
114.966
73.652
-232.839
-48.942
742.997
-227.174
-63.3744
1140.31
-379.998
-101.538
1385.53
-591.283
-4.20064
1749.53
2.3857
1866.8
693.942
-1.44466
1104.25
659.607
-7.69332
1489.81
571.036
-8.43525
1347.65
508.594
1.78894
1171.4
489.515
10.374
943.375
484.512
21.3799
732.353
503.715
34.8156
528.373
556.592
57.5858
343.667
582.39
69.2654
121.76
502.92
64.3491
-17.5508
209.327
-10.9935
138.928
-143.351
-8.21875
851.799
-373.898
-99.4376
1384.06
-594.012
-4.62511
1748.13
-2.14247
1854.22
696.744
3.94543
1093.01
663.124
14.9602
1482.21
571.747
17.8557
1346.8
509.264
4.51745
1174.81
486.417
-5.56011
946.867
486.455
-9.30288
741.115
500.521
-22.4023
525.192
526.152
-21.3985
344.551
577.281
-33.8742
154.744
632.949
-120.869
-2.57078
546.445
-131.89
35.1656
63.4878
35.5857
557.09
-363.823
79.0007
1360.92
-595.035
4.29264
1736.18
-4.91212
1832.57
693.53
9.85974
1108.53
658.996
33.5955
1492.61
571.483
36.3927
1346.47
509.719
5.10515
1168.45
488.931
-22.5858
942.286
487.308
-38.6053
735.282
500.812
-77.2374
524.418
533.885
-96.2289
348.093
553.923
-100.684
137.045
440.308
-147.74
3.89792
175.586
-69.5972
218.012
-136.059
26.9792
806.438
-373.025
90.652
1386.39
-588.303
-1.00642
1750.03
-8.13799
1862.08
690.758
14.2202
1131.42
656.009
43.8438
1504.01
572.537
43.2337
1338.41
510.598
3.84121
1151.38
492.083
-38.925
929.974
480.595
-56.5977
720.31
497.493
-116.619
534.608
541.575
-140.086
349.7
458.018
-57.2024
98.0885
19.0719
120.531
44.7735
-218.772
-26.1713
691.072
-214.608
-207.954
1122.29
-376.62
31.0258
1388.57
-584.526
-14.8297
1752.22
-10.9911
1876.46
691.634
16.009
1146.2
657.146
46.7422
1508.36
572.895
43.3538
1326.17
509.654
2.69069
1133.39
490.563
-51.2381
918.342
472.56
-64.2156
712.253
496.979
-145.981
548.953
545.89
-158.791
354.307
445.332
2.87284
70.1489
170.281
198.09
10.3766
-63.0762
-158.207
459.763
-202.311
-312.974
1153.74
-371.721
-19.7467
1389.67
-588.439
-18.3879
1742.42
-17.0246
1873.29
694.426
15.5896
1153.54
660.243
44.5746
1508.01
572.867
40.3435
1313.15
507.242
3.39755
1115.76
485.876
-57.5985
909.286
467.084
-65.138
710.965
480.693
-160.13
552.632
540.48
-177.798
368.818
573.904
3.00061
56.6538
535.153
105.724
-113.325
256.557
-199.309
151.481
-133.787
-249.887
972.575
-362.723
-16.7154
1397.98
-589.383
-7.17453
1730.15
-23.4833
1866.34
698.703
13.5913
1155.24
664.069
40.4454
1507.04
570.878
37.2664
1302.93
502.237
5.62137
1100.95
477.287
-57.7025
902.363
458.378
-64.722
717.72
466.948
-161.137
551.46
512.383
-184.881
376.252
597.212
-21.014
163.536
635.147
30.4793
-2.65415
396.512
-168.455
106.516
-54.5135
-159.485
795.429
-363.613
55.2993
1393.12
-593.374
5.21472
1709.32
-33.3877
1856.63
702.672
10.4632
1153.34
669.436
32.9172
1502.54
572.714
32.1378
1290.64
501.966
8.27289
1084.36
471.621
-48.4732
893.149
445.621
-57.1793
716.615
453.596
-137.333
555.332
463.372
-141.277
405.211
482.502
-11.7627
263.815
480.38
-35.2382
105.25
258.244
-169.462
164.226
-100.819
-97.4362
838.181
-349.889
69.1257
1396.08
-568.044
5.90005
1714.13
-25.4545
1894.06
708.369
1150.34
676.201
1500.52
574.429
1279.23
500.872
1063.05
465.487
877.222
435.584
708.613
448.825
562.106
456.915
454.047
491.407
302.474
455.86
53.9853
189.532
203.504
-133.434
954.383
-349.634
1394.49
-563.073
1715.57
1908.86
907.114
-9.27067
796.239
956.978
-30.9655
1458.87
849.408
-41.1778
1398.56
724.047
-31.0986
1197.78
649.327
14.9179
951.14
613.775
36.829
738.064
606.087
73.5242
561.173
655.833
-2.17904
435.493
759.857
-49.4267
259.758
634.09
75.816
210.589
81.5625
136.138
711.584
-484.88
39.6258
1471.48
-866.292
-60.1867
1775.35
-987.607
43.3563
1806.67
53.3211
1553.14
901.401
-11.556
801.367
946.796
-36.194
1462.52
842.843
-47.8629
1404.03
721.11
-30.3754
1209.59
650.675
22.0043
961.312
617.995
50.038
741.472
618.386
98.3924
535.596
689.018
-29.7069
373.169
812.425
-112.789
238.872
755.948
70.0789
208.055
213.834
208.044
638.459
-449.373
105.855
1412.31
-866.353
-41.9799
1779.18
-992.613
52.4754
1820.89
68.0393
1551.99
898.272
-12.9902
803.886
939.875
-37.1342
1466.33
837.557
-51.3958
1411.52
718.367
-27.6485
1221.37
650.936
25.2412
970.433
624.878
53.6274
745.899
637.823
109.298
528.706
716.616
-27.7875
289.855
841.608
-145.87
101.071
801.342
21.567
142.564
260.172
233.423
636.685
-450.335
157.278
1408.28
-900.369
16.023
1769.63
-1018.99
54.522
1815.72
43.2165
1537.2
893.808
-12.7298
804.253
933.475
-35.5294
1466.34
835.632
-54.0232
1416.26
722.056
-26.0504
1231.43
655.392
27.6854
976.174
632.623
49.4091
743.08
658.474
112.427
522.465
698.771
43.0158
241.33
707.065
-116.723
6.25429
577.874
-129.75
166.134
79.7083
104.013
744.397
-498.244
161.781
1489.19
-874.124
13.7065
1764.69
-1005.91
52.506
1855.04
25.8502
1559.59
890.908
-10.5944
799.054
929.53
-29.2877
1462.64
832.886
-51.0882
1422.22
722.458
-24.5077
1245.81
656.609
27.5959
985.463
635.601
36.618
748.368
674.348
101.726
522.245
688.653
125.188
235.149
558.921
-27.7004
70.9094
216.134
-163.453
395.159
-194.498
-76.3937
1024.16
-535.993
82.8569
1563.63
-862.831
-30.3991
1753.22
-1001.51
42.576
1884.85
15.7013
1566.87
889.005
-6.42944
787.629
928.889
-18.2695
1451.6
831.476
-38.5775
1425.41
720.729
-19.1734
1260.4
659.942
21.192
997.414
639.345
22.1044
754.442
678.828
69.7416
535.471
740.853
122.659
269.731
655.768
63.6992
58.0946
166.584
28.4063
370.975
-276.348
-14.8883
1124.42
-534.828
-59.6351
1541.28
-856.786
-78.0741
1755.16
-997.939
25.7233
1907.53
9.99617
1569.68
890.18
-2.52054
769.541
935.053
-4.58696
1431.26
832.411
-11.203
1422.91
717.136
-5.01408
1272.52
659.347
10.3531
1012
642.238
7.98591
763.579
669.279
27.2753
543.797
748.66
59.8896
327.052
813.894
28.5181
91.7062
684.333
5.57213
134.842
149.216
-5.61492
664.771
-471.064
-8.54347
1420.99
-856.334
-64.3446
1755.6
-1001.42
9.97182
1908.98
4.32265
1557.67
891.024
2.12449
760.264
939.422
8.66997
1420.55
834.501
21.6911
1418.83
717.437
12.755
1274.1
658.459
0.346792
1015.85
643.158
-5.53106
769.932
655.444
-7.94014
548.119
721.592
-6.83848
345.129
807.054
-18.1818
115.98
792.162
-93.6706
111.562
384.934
-105.783
542.56
-367.229
13.3496
1287.36
-874.598
51.8747
1752.06
-1010.99
-12.1148
1894.66
-10.8597
1539.98
889.671
8.41254
771.102
933.722
22.1532
1435.08
832.602
45.6354
1423.65
717.776
25.4913
1270.54
660.581
-11.4858
1011.31
644.415
-19.2679
765.184
658.298
-45.6704
548.263
728.498
-76.7954
347.848
793.883
-57.2265
110.702
645.478
-92.7602
151.39
137.682
-69.7747
689.799
-458.818
20.5313
1395.75
-851.092
72.8118
1757.72
-998.029
-29.5563
1914.41
-15.165
1564.69
889.922
12.8348
788.541
929.427
32.6777
1453.98
832.752
55.6388
1425.09
720.925
30.3557
1258.35
663.553
-21.3992
997.258
641.911
-30.6242
753.307
665.871
-81.6047
546.58
737.565
-113.184
314.391
713.005
-11.5501
76.9701
259.809
103.699
301.508
-222.921
48.41
1055.62
-518.161
-92.9197
1530.98
-847.37
33.0042
1757.59
-993.038
-47.3189
1915.65
-17.5622
1578.13
892.489
14.6078
799.058
931.26
38.2964
1463.97
834.567
57.0041
1421.5
723.341
30.7894
1244.18
660.754
-24.7859
984.315
636.521
-41.5705
747.431
669.358
-107.123
541.633
714.326
-79.1219
275.275
629.567
71.2099
72.1462
264.772
123.865
355.003
-179.525
-68.5123
1020.98
-525.551
-157.787
1564.63
-853.763
-6.32206
1757.2
-996.969
-57.187
1895.5
-25.7703
1575.09
895.778
14.3753
803.357
935.967
39.1823
1466.93
837.699
53.2831
1415.14
723.876
30.7093
1229.67
658.705
-24.064
973.735
633.402
-46.6796
741.378
657.345
-117.624
539.189
704.04
-25.5604
268.56
699.923
114.112
17.869
534.964
-0.0776813
175.578
43.6721
-205.155
779.417
-500.136
-152.924
1511.52
-865.377
-12.3212
1769.22
-1002.1
-58.0771
1867.76
-42.1055
1567.65
900.433
12.4794
802.251
942.798
37.5699
1466.29
839.963
48.914
1410.13
720.503
32.1325
1218.99
653.889
-22.0818
966.994
628.356
-46.4423
743.015
637.998
-113.921
538.115
711.277
-14.2398
291.652
823.775
101.005
64.1457
766.129
-51.5455
106.46
230.671
-205.011
641.831
-453.578
-104.017
1430.77
-888.908
38.8808
1777.25
-1014.18
-55.4873
1832.01
-67.48
1549.77
903.68
9.80385
799.169
949.99
31.724
1462.07
845.525
41.5261
1402.49
723.401
31.8079
1206.81
653.701
-16.0917
956.859
622.6
-36.9598
738.233
620.661
-89.6468
532.997
687.003
-21.7711
346.4
807.823
51.78
192.221
743.407
-63.2321
181.355
207.358
-145.061
640.326
-443.02
-38.0374
1422.58
-854.678
59.3048
1787.32
-986.839
-45.0946
1835.89
-52.5932
1565.47
909.383
793.697
960.179
1458.15
851.979
1396.91
726.052
1194.52
651.685
945.33
616.94
731.758
608.122
547.699
659.759
404.705
758.977
227.02
606.779
206.909
61.401
733.233
-481.621
1486.05
-854.945
1784.21
-981.841
1824.11
1568.11
986.238
-6.59422
547.483
1128.87
-28.5917
1323.25
1066.15
-43.8925
1469.97
916.421
-54.0881
1356.93
796.354
-34.7643
1074.13
731.18
-6.69897
796.911
712.313
-105.624
606.744
790.727
-198.802
412.814
757.846
4.95783
277.826
210.425
184.086
695.376
-601.269
61.399
1502.73
-1131.72
-19.7839
2005.97
-1429.99
-15.7632
2088.63
-1227.28
135.192
1556.11
82.13
1192.52
982.951
-7.82913
551.719
1117.77
-30.8542
1329.96
1054.55
-50.3316
1473.69
907.225
-56.6692
1359.5
790.432
-30.4396
1073.78
725.832
14.6551
784.718
717.396
-115.722
554.129
819.571
-285.242
357.433
835.06
-23.9057
252.246
323.099
255.96
648.142
-538.055
119.156
1441.86
-1125.37
1.8264
1978.01
-1422.34
-22.5443
2082.93
-1233.5
153.85
1613.39
104.073
1209.87
982.077
-9.0599
553.629
1111.64
-28.1132
1334.02
1047.15
-52.8289
1478.51
900.386
-53.9508
1365.41
788.583
-26.207
1078
737.039
30.5647
781.534
718.807
-65.2603
496.475
796.346
-289.206
216.279
773.924
-76.2318
175.816
241.653
239.035
691.76
-594.206
127.659
1464.04
-1159.54
30.5883
1944.85
-1434.52
-6.13989
2028.21
-1244.48
136.627
1642.89
73.7267
1240.9
979.004
-8.87968
555.186
1104.09
-21.9396
1335.08
1041.1
-53.6705
1480.08
899.441
-49.507
1368.65
789.315
-20.8198
1080.91
761.526
30.6765
770.756
744.761
28.674
445.294
704.109
-167.345
160.12
511.778
-129.283
251.636
3.79187
54.1155
859.038
-670.65
3.13597
1543.36
-1142.71
38.0465
1953.8
-1397.16
0.803277
2012.2
-1240.76
119.406
1715.87
42.4995
1274.95
976.6
-7.90165
553.356
1100.02
-12.7813
1330.06
1036.37
-48.338
1480.54
898.317
-42.6801
1377.03
784.553
-12.736
1091.14
769.092
15.9296
778.574
796.375
85.3548
438.28
692.578
-18.7626
190.362
311.477
-85.7089
408.435
-240.555
-70.2085
1071.51
-762.131
-95.1184
1643.99
-1134.49
10.2044
1963.83
-1377.5
-12.0235
2009.07
-1241.02
97.6285
1770.14
25.8274
1276.32
973.1
-5.74511
548.501
1098.47
-3.518
1316.97
1034.05
-34.5023
1476
896.753
-30.8929
1385.91
783.253
-4.98931
1103.17
754.035
2.61743
796.971
816.234
72.8093
485.817
847.294
43.4659
176.441
524.23
-4.2576
299.706
-163.101
-7.5382
995.635
-758.032
-16.1106
1640.34
-1124.6
-34.3741
1952.43
-1365.86
-24.8955
2009.29
-1242.88
67.9375
1814.24
13.0008
1278.93
970.363
-4.45922
540.457
1103.2
0.318224
1294.59
1036.89
-9.59841
1464.32
894.637
-8.36063
1392.23
783.293
2.95879
1115.4
738.038
0.484989
810.966
784.865
35.516
534.262
899.027
31.1631
225.192
815.479
-16.2492
187.244
236.896
-22.5722
728.458
-580.381
-5.11543
1471.05
-1117.87
-10.585
1934.69
-1363.77
-22.111
1998.72
-1241.44
29.3121
1825.28
8.20087
1267.38
967.59
-0.130475
535.394
1105.21
-0.160333
1283.41
1039.54
17.8343
1457.06
895.026
18.7376
1391.52
786.44
8.82503
1118.57
736.218
4.12486
816.513
762.442
8.37026
549.039
884.552
8.94397
245.236
849.372
-42.8097
177.719
332.847
-76.2109
681.724
-486.776
-49.7979
1406.87
-1111.48
1.8827
1899.59
-1382.09
10.2155
1990.35
-1246.45
-31.9217
1820.25
-9.43963
1261.97
968.672
6.41152
539.403
1100.59
4.7175
1298.28
1035.83
39.3237
1466.92
893.944
39.3052
1391.85
787.611
11.6267
1114.84
737.505
5.70824
813.706
762.336
-25.8445
557.645
879.476
-18.9222
258.572
808.443
-31.7408
170.665
230.486
-62.6953
715.83
-565.887
-28.5094
1464.88
-1107.53
10.2305
1929.05
-1361.63
19.0324
2003.01
-1243.25
-69.7374
1833.84
-15.0544
1271.08
973.647
9.43617
547.697
1098.67
14.673
1319
1034.64
51.2001
1477.25
897.345
48.7899
1386.15
788.059
15.4074
1102.76
741.051
-0.47429
806.496
786.043
-60.6358
536.378
871.087
-5.91543
216.338
631.772
44.0835
240.459
-63.7244
28.4739
905.833
-717.759
71.2604
1609.88
-1113.27
-16.813
1953.54
-1359.28
9.48231
2013.15
-1243.32
-95.5808
1825.53
-24.1149
1281.35
977.922
10.0352
552.114
1101.78
23.9585
1330.83
1037.87
55.5215
1481.08
900.766
52.418
1377.66
786.698
21.8737
1091.92
755.204
-17.6045
796.053
798.459
-53.2983
491.039
777.196
95.3965
195.224
429.881
115.821
347.721
-178.877
-24.8985
1017.13
-739.719
16.5203
1636.56
-1123.3
-33.9332
1965.34
-1370.51
-0.0792426
2013.97
-1241.98
-115.102
1786.49
-38.7897
1280.6
980.488
9.80141
553.377
1106.47
29.8035
1335.11
1043.19
53.8852
1480.06
902.886
53.9427
1368.44
790.186
26.91
1081.4
757.924
-29.0355
785.07
764.03
0.920447
478.862
742.051
211.444
174.49
520.757
102.176
252.807
-12.5292
-179.69
863.653
-672.876
-101.437
1557.72
-1131.72
-23.7206
1960.15
-1389.18
9.67654
2016.92
-1241.41
-128.863
1733.75
-65.9866
1278.6
983.514
8.25975
551.411
1114.15
32.0163
1333.44
1049.61
50.6477
1477.92
903.087
55.2775
1364.17
790.736
29.8955
1076.36
742.296
-24.7225
787.141
725.905
50.4298
504.996
789.346
240
199.653
751.098
48.6388
155.93
220.703
-228.125
685.29
-598.799
-110.781
1470.68
-1148.64
8.08533
1948.81
-1423.95
30.4025
2031.84
-1245.5
-143.703
1668.39
-96.4447
1252.34
984.363
6.78138
549.196
1120.35
29.1691
1328.93
1057.18
43.5942
1472.72
909.375
52.2064
1357.68
794.068
32.2538
1069.81
729.993
-7.35913
784.944
710.214
64.5874
538.617
803.654
180.886
312.073
824.589
-3.16637
223.091
320.203
-178.029
635.645
-533.754
-55.6308
1439.13
-1114.31
32.1284
1979.1
-1412.23
25.2127
2090.43
-1234.62
-124.556
1639.13
-75.1387
1222.47
987.532
544.832
1131.18
1321.96
1068.31
1468.65
917.725
1354.4
798.368
1067.69
729.81
791.889
705.488
581.612
781.251
376.334
736.901
277.198
186.99
707.432
-606.517
1508.51
-1122.49
2008.64
-1421.28
2099.94
-1230.36
1588.55
1207.47
1006.67
-5.18571
462.751
1175.24
-29.0602
1161.5
1177.72
-45.3114
1475.79
1033.63
-75.7671
1514.7
866.014
-79.4334
1251.36
759.11
-150.568
935.356
742.688
-341.925
709.145
713.4
-185.985
467.706
210.495
170.596
705.477
-637.097
114.17
1489.44
-1300.24
-22.9415
2167.15
-1600.64
-3.41049
2307.38
-1794.11
79.5289
2278.51
-1266.05
330.926
911.31
192.388
959.035
1005
-5.63488
464.089
1165.23
-29.0803
1169.74
1162.24
-50.0315
1481.41
1013.68
-80.0871
1512.38
846.188
-74.538
1236.37
737.619
-155.55
898.269
741.936
-436.625
644.51
766.561
-282.076
428.899
285.004
246.517
657.881
-585.789
193.64
1439.46
-1265.28
-9.23373
2107.64
-1565.73
0.50114
2274.54
-1759.9
91.8618
2264.77
-1284.92
426.472
1042.86
284.031
971.309
1005.94
-7.07186
464.478
1161.53
-24.0291
1173.38
1154.16
-49.4073
1485.26
1000.6
-74.865
1513.75
846.197
-69.1108
1226.98
721.001
-99.5841
850.764
674.224
-418.7
525.327
634.775
-346.033
319.684
90.9162
248.464
717.727
-722.952
186.443
1512.82
-1315.85
-35.0918
2082.8
-1587.52
-27.3528
2244.37
-1749.81
47.6085
2234.76
-1328.88
449.443
1198.99
243.205
1070.47
1004.31
-7.18867
465.252
1154.47
-14.7765
1175.67
1144.77
-45.8071
1486.18
991.533
-63.6283
1510.65
852.012
-63.2438
1214.57
735.421
-5.89869
793.662
563.632
-243.455
441.836
285.511
-295.768
387.974
-265.097
125.037
925.671
-886.121
54.9487
1611.56
-1361.67
-81.9066
2065.72
-1597.61
-35.1021
2197.48
-1710.15
9.20757
2163.14
-1332.23
387.045
1400.34
119.513
1203.62
1003.18
-7.52085
465.124
1151.23
-4.1433
1171.39
1139.15
-36.6537
1483.47
989.767
-47.9995
1510.78
850.196
-52.1162
1219.59
780.945
49.078
792.848
547.81
-3.68275
431.642
79.6223
-159.217
521.997
-458.271
-28.4447
1099.81
-964.208
-43.922
1676.32
-1376.43
-82.7609
2057.07
-1588.8
-26.4808
2167.59
-1663.17
4.08041
2088.56
-1305.02
296.237
1502.81
47.9538
1224.13
999.94
-7.10667
464.617
1148.34
3.79457
1160.63
1136.09
-22.789
1474.39
992.991
-30.0178
1511.02
843.106
-36.3881
1237.32
805.048
41.2828
842.823
750.307
89.5653
447.309
397.962
-47.863
417.43
-255.57
-77.5704
1002.36
-904.473
-34.7999
1635.41
-1352.88
-27.5913
2033.58
-1561.58
-19.078
2153.72
-1618.26
8.80978
2061.25
-1296.06
192.932
1595.34
8.95109
1229.21
996.332
-7.18839
463.822
1149.6
2.32076
1142.79
1138.97
-5.03499
1457.2
997.483
-5.80132
1509.51
836.955
-9.56057
1249.1
778.893
22.9716
887.338
825.153
68.9597
508.607
668.264
-2.19645
336.413
23.096
-75.1788
830.019
-779.089
-45.3868
1541.23
-1334.63
-11.0771
2010.08
-1563.22
-12.0728
2156.28
-1600.67
-2.29603
2047.27
-1286.9
76.0001
1628.44
7.57508
1205.65
991.047
-0.733422
461.779
1147.28
-5.15079
1134.66
1139.99
10.5062
1448.81
999.564
19.8327
1506.31
839.566
18.731
1250.28
761.057
19.5241
898.468
816.913
30.5032
531.638
718.375
18.6891
322.887
64.5766
-40.1473