/*--------------------------------*- C++ -*----------------------------------*\
| =========                 |                                                 |
| \\      /  F ield         | OpenFOAM: The Open Source CFD Toolbox           |
|  \\    /   O peration     | Version:  4.1                                   |
|   \\  /    A nd           | Web:      www.OpenFOAM.org                      |
|    \\/     M anipulation  |                                                 |
\*---------------------------------------------------------------------------*/
FoamFile
{
    version     2.0;
    format      ascii;
    class       volVectorField;
    location    "20";
    object      U;
}
// * * * * * * * * * * * * * * * * * * * * * * * * * * * * * * * * * * * * * //

dimensions      [0 1 -1 0 0 0 0];

internalField   nonuniform List<vector> 
6750
(
(3.7051 -0.00994058 17.9641)
(0.484227 -0.036494 15.633)
(1.73882 -0.0150386 12.1337)
(0.826225 0.0214478 10.8873)
(1.14961 0.0651058 9.5686)
(0.763165 0.0971253 7.45436)
(0.520311 0.158951 7.58504)
(0.545953 0.183325 5.69803)
(-0.649281 -0.166298 2.91482)
(-2.31255 -0.284091 -2.80782)
(-2.75621 0.823638 -3.03302)
(-0.647559 -0.000679957 6.53892)
(-1.83058 -0.0251673 11.6192)
(0.378426 -0.0268115 15.7961)
(-4.37269 0.000901632 20.7041)
(3.69092 -0.0192256 17.9305)
(0.48136 -0.0676853 15.727)
(1.72434 -0.0236778 12.4655)
(0.836485 0.0429541 11.2249)
(1.16091 0.114496 9.68822)
(0.803831 0.182078 7.41126)
(0.596941 0.318745 7.02966)
(0.492829 0.461327 5.26021)
(-0.993043 0.165008 2.36556)
(-2.90087 -0.70461 -2.34345)
(-4.00722 -0.169206 -1.48477)
(-0.660902 -0.389841 5.96637)
(-1.81836 -0.0731724 11.8738)
(0.393221 -0.048954 15.7577)
(-4.41788 0.00112358 20.4451)
(3.67733 -0.0213224 17.9066)
(0.479566 -0.07151 15.844)
(1.71844 -0.0201583 12.7234)
(0.848894 0.0480472 11.4132)
(1.18172 0.113653 9.68793)
(0.83718 0.179055 7.41479)
(0.734015 0.331401 6.35857)
(0.667164 0.763331 4.79279)
(-0.188334 0.56676 2.58984)
(2.23987 -0.618753 -2.19372)
(-1.71912 0.362455 -3.30173)
(-0.735403 -0.786403 4.8246)
(-1.74529 -0.0762663 11.864)
(0.42689 -0.0401903 15.6402)
(-4.51262 -0.00512742 19.9667)
(3.669 -0.0236781 17.8303)
(0.47929 -0.0815097 15.9345)
(1.7223 -0.0205999 12.9645)
(0.86883 0.0505241 11.5839)
(1.20548 0.120557 9.66558)
(0.873331 0.164172 7.3434)
(0.840413 0.342944 6.13518)
(0.818743 0.665169 4.64925)
(2.07891 -0.679547 0.456796)
(3.2371 -1.5218 -5.29348)
(0.836729 0.882807 -5.92547)
(-0.613676 0.338519 6.4709)
(-1.66567 -0.0402522 11.9191)
(0.42719 -0.00267166 15.9066)
(-4.47704 -0.00732682 20.1095)
(3.67026 -0.0221231 17.7053)
(0.478244 -0.081522 16.0627)
(1.72274 -0.0190514 13.2335)
(0.884429 0.0458018 11.7598)
(1.21875 0.100577 9.6467)
(0.922579 0.139238 7.26)
(0.810701 0.260141 6.01972)
(1.03626 0.0121064 4.27163)
(2.05338 -1.13738 -2.62957)
(-2.64911 -0.969982 -4.87645)
(-2.87573 1.62909 -2.26781)
(-0.433679 0.411798 9.27346)
(-1.84193 -0.0478321 11.8762)
(0.428031 0.00489309 15.9854)
(-4.46984 -0.00686078 20.1781)
(3.6873 -0.0173447 17.5087)
(0.476453 -0.0717058 16.1874)
(1.7193 -0.0175445 13.5185)
(0.892881 0.0360065 11.9534)
(1.228 0.0721072 9.66428)
(0.925562 0.142914 7.2322)
(0.793767 0.169626 5.52737)
(0.742419 -0.0524224 3.60733)
(-0.472985 -0.0662519 -2.56381)
(-5.63887 -0.343876 -0.437419)
(-2.35381 -0.370959 2.95429)
(-0.45334 -0.10704 8.60235)
(-1.84525 -0.0404763 11.8561)
(0.435157 -0.0197472 16.1303)
(-4.46653 -0.00500808 20.1759)
(3.72754 -0.00819515 17.2326)
(0.475301 -0.0397142 16.2435)
(1.7141 -0.00970664 13.7548)
(0.894087 0.0201381 12.1557)
(1.23565 0.0371917 9.74041)
(0.924785 0.106951 7.30521)
(0.972373 0.141574 4.73302)
(0.655917 -0.0147881 3.25078)
(0.526699 0.748786 -0.251199)
(0.288927 0.847828 -4.3517)
(-1.8943 -1.39743 -4.31794)
(-0.543519 -0.419416 6.09805)
(-1.8219 -0.115358 11.8694)
(0.435944 -0.0318367 16.1414)
(-4.49589 -0.00408541 20.02)
(3.74818 0.00299918 17.1156)
(0.475973 0.00883244 16.2202)
(1.71612 0.00479798 13.7942)
(0.894295 0.00378684 12.2151)
(1.23955 0.00279734 9.7705)
(0.910584 0.0248862 7.4027)
(1.04255 0.0169476 4.40346)
(0.726261 -0.133769 2.35501)
(-0.631844 -0.0410034 0.849097)
(2.15054 -0.221583 -3.96816)
(1.52352 -0.515916 -5.49461)
(-1.1258 0.527907 1.13235)
(-1.76954 -0.0146151 11.8143)
(0.481463 -0.00389352 16.0162)
(-4.55607 -0.00443298 19.6901)
(3.71853 0.0137245 17.3009)
(0.476134 0.0534568 16.2287)
(1.71598 0.0184968 13.7126)
(0.894801 -0.0127563 12.1254)
(1.24102 -0.0292461 9.74692)
(0.920336 -0.0667915 7.32461)
(1.01793 -0.139833 4.5007)
(0.677629 0.141802 2.66575)
(-1.04743 -0.0820512 0.148269)
(0.092568 -0.859893 -4.48314)
(-4.72102 0.0819381 -1.08513)
(-0.505661 0.612872 5.23784)
(-1.87233 0.0791372 11.9435)
(0.433267 0.0211142 16.1882)
(-4.48195 -0.00596356 20.0657)
(3.68441 0.0219045 17.5657)
(0.477927 0.0803647 16.1608)
(1.72111 0.0253741 13.4663)
(0.893732 -0.0286169 11.92)
(1.23599 -0.0609315 9.67826)
(0.924057 -0.130469 7.20215)
(0.882305 -0.170958 5.22836)
(0.619257 0.172734 3.66537)
(0.336575 0.266487 -1.43648)
(-3.33451 0.180561 -2.88232)
(-2.66999 0.0402848 3.47826)
(-0.385713 0.00220304 8.49665)
(-1.86238 0.00567785 11.9267)
(0.437471 -6.16956e-05 16.1656)
(-4.44183 -0.00629289 20.2502)
(3.67149 0.0257373 17.7556)
(0.480153 0.0875701 16.037)
(1.72456 0.026305 13.1775)
(0.885744 -0.0387428 11.7235)
(1.22689 -0.0875639 9.63447)
(0.925437 -0.142466 7.20757)
(0.817647 -0.212146 5.92906)
(0.940712 -0.0341364 4.25893)
(1.84639 0.896041 -1.58)
(-1.89165 0.809443 -5.52644)
(-3.20181 -1.52959 -2.07552)
(-0.356053 -0.489358 9.31557)
(-1.8554 0.0261909 11.9952)
(0.431314 -0.0275834 16.0738)
(-4.44238 -0.00381154 20.2324)
(3.67368 0.0264282 17.8725)
(0.481685 0.0853538 15.9093)
(1.72487 0.0268244 12.9037)
(0.871637 -0.044105 11.542)
(1.21433 -0.109811 9.63185)
(0.889285 -0.160963 7.27779)
(0.82487 -0.290785 6.15581)
(0.897374 -0.584661 4.69928)
(1.97578 0.65109 0.604777)
(2.75685 1.27689 -5.64118)
(0.315386 -1.14555 -6.00879)
(-0.523993 -0.535604 7.09562)
(-1.66016 0.0118614 12.0742)
(0.430214 -0.0227202 16.0233)
(-4.44387 -0.00312406 20.1634)
(3.68453 0.023248 17.9422)
(0.482361 0.0739473 15.8215)
(1.72176 0.0251126 12.6611)
(0.852129 -0.0426671 11.3676)
(1.19248 -0.106523 9.64032)
(0.852602 -0.170999 7.37609)
(0.73822 -0.29901 6.27435)
(0.754212 -0.768844 4.76534)
(-0.0487468 -0.424311 2.507)
(2.01895 0.61194 -2.47859)
(-1.22625 -0.581578 -3.8682)
(-0.64194 0.448239 5.02597)
(-1.69462 0.0530828 12.0366)
(0.433819 0.0170138 15.7709)
(-4.46992 -0.00369553 20.0256)
(3.69989 0.020549 17.9611)
(0.484518 0.0690716 15.7065)
(1.72839 0.0275725 12.4019)
(0.84057 -0.0389514 11.1743)
(1.17222 -0.109167 9.63763)
(0.823393 -0.177442 7.37725)
(0.611489 -0.300734 6.88399)
(0.574332 -0.47032 5.15659)
(-1.05981 0.0155636 2.17311)
(-2.87719 0.402121 -2.66074)
(-3.44962 -0.385235 -2.3187)
(-0.662323 0.231226 5.96234)
(-1.75653 0.0574178 12.0343)
(0.400269 0.0322465 15.8857)
(-4.37291 -0.00783554 20.501)
(3.71533 0.0104882 17.9906)
(0.487633 0.0369483 15.6166)
(1.74318 0.0168132 12.0733)
(0.830615 -0.0196419 10.8352)
(1.1606 -0.0631655 9.51578)
(0.785374 -0.0966511 7.41792)
(0.533557 -0.154542 7.4566)
(0.648877 -0.181839 5.59602)
(-0.730788 0.30895 2.89806)
(-1.6906 0.0158424 -2.76371)
(-2.23413 -1.29234 -3.63534)
(-0.625087 -0.0806104 6.50924)
(-1.74984 0.0129022 11.7876)
(0.388332 0.0171515 15.9266)
(-4.32249 -0.00428225 20.7641)
(10.263 -0.0260508 17.32)
(2.28281 -0.0999017 16.1094)
(4.84851 -0.0669987 12.6725)
(2.8931 0.0299111 10.961)
(3.36963 0.183826 9.67816)
(2.74725 0.241564 7.76713)
(2.33022 0.496619 7.35025)
(2.90653 0.533966 6.12756)
(1.00783 -0.252297 4.46395)
(0.550158 -0.561894 0.646181)
(-0.676296 0.682523 -1.78079)
(-0.819905 0.263882 6.0533)
(-3.9511 -0.0781796 12.1531)
(1.79723 -0.0519471 15.8675)
(-12.3511 0.0234372 21.6619)
(10.2255 -0.0497506 17.2958)
(2.2502 -0.177008 16.1666)
(4.82296 -0.105065 12.9467)
(2.91564 0.0679047 11.2919)
(3.39327 0.310073 9.8398)
(2.85389 0.41737 7.76991)
(2.4813 0.839722 6.98412)
(2.84995 1.1141 5.62169)
(0.893078 0.26362 3.76778)
(-0.0268237 -0.642699 0.586378)
(-2.45494 0.223205 -1.51715)
(-0.913628 -0.269702 5.33303)
(-3.97191 -0.260097 12.3039)
(1.83271 -0.083482 15.8186)
(-12.4635 0.0446147 21.4392)
(10.1943 -0.054636 17.2784)
(2.22507 -0.182688 16.2564)
(4.8077 -0.0943766 13.1774)
(2.93792 0.0824636 11.4935)
(3.43165 0.309923 9.86799)
(2.95344 0.38478 7.79087)
(2.78858 0.843374 6.47453)
(3.08884 1.4508 4.95424)
(2.72995 0.694446 3.0929)
(4.69019 -0.781288 -0.190399)
(2.49845 0.543277 -1.8565)
(0.0737497 -0.472315 3.27075)
(-3.88136 -0.155293 12.1689)
(1.89438 -0.0739904 15.7061)
(-12.6967 0.0418427 21.0253)
(10.1703 -0.0603969 17.2091)
(2.20816 -0.208584 16.3146)
(4.81479 -0.104385 13.3891)
(2.99429 0.0901319 11.6751)
(3.4775 0.323304 9.87755)
(3.08307 0.364811 7.72912)
(2.91905 0.866061 6.25741)
(3.26669 1.26627 4.77053)
(4.60034 -0.191643 1.53964)
(5.84143 -1.6724 -3.035)
(3.95647 0.77086 -3.17813)
(-0.0981279 1.04242 5.37293)
(-3.76588 0.0920075 12.3732)
(1.81583 -0.0121062 16.0038)
(-12.6242 0.0387146 21.1321)
(10.1683 -0.0557944 17.0881)
(2.1973 -0.204717 16.4009)
(4.81309 -0.101365 13.6332)
(3.03094 0.0866522 11.8693)
(3.50619 0.26392 9.89375)
(3.20887 0.336326 7.63418)
(2.85132 0.736158 6.20784)
(3.70966 0.731006 4.57949)
(4.68666 -0.566957 -0.255768)
(0.709255 -2.12406 -2.82015)
(-2.18285 1.73191 -0.74134)
(-0.715615 1.37195 9.12438)
(-4.03265 -0.0340601 12.4255)
(1.75239 0.0135715 16.1129)
(-12.6065 0.02093 21.1874)
(10.199 -0.0424168 16.8921)
(2.19911 -0.178173 16.4715)
(4.80426 -0.0951544 13.8881)
(3.04704 0.0692723 12.0803)
(3.5353 0.185903 9.94384)
(3.21949 0.337667 7.61316)
(2.94583 0.541799 5.90199)
(3.3426 0.548221 4.1756)
(4.03219 0.408581 -0.087926)
(-3.33016 -0.265856 -1.10715)
(-4.46946 -0.38259 4.34506)
(-0.872946 0.0184238 9.19935)
(-4.16126 -0.196235 12.4433)
(1.75508 -0.0361845 16.2685)
(-12.6007 0.00405049 21.1749)
(10.2779 -0.018494 16.6142)
(2.22721 -0.0973127 16.4734)
(4.79294 -0.0552557 14.0905)
(3.04125 0.0403018 12.292)
(3.55496 0.0878737 10.0388)
(3.18689 0.240766 7.71368)
(3.2608 0.384332 5.35009)
(3.25774 0.264176 3.68127)
(4.01908 0.911506 0.781643)
(3.82734 1.37072 -2.34757)
(0.766086 -0.548444 -2.67321)
(-0.441387 -0.832685 5.44547)
(-4.06562 -0.631552 12.3889)
(1.80001 -0.064748 16.2549)
(-12.6684 -0.0224974 21.0357)
(10.3192 0.0076872 16.4961)
(2.24841 0.0214196 16.4361)
(4.79782 0.017389 14.1178)
(3.03996 0.0123046 12.3493)
(3.57027 0.00313328 10.0703)
(3.11657 0.0571837 7.81709)
(3.45126 0.0532746 5.16503)
(3.39672 -0.0151755 3.101)
(3.17343 0.1138 1.09859)
(5.23927 -0.181416 -2.29067)
(4.93368 -0.580833 -3.25506)
(2.85205 0.313063 -0.309099)
(-4.01577 -0.0643218 11.8666)
(2.07253 -0.00693648 16.0686)
(-12.8063 -0.0120007 20.7682)
(10.2614 0.0333696 16.6818)
(2.22298 0.131105 16.4719)
(4.79794 0.0841943 14.0526)
(3.04358 -0.017753 12.2578)
(3.57207 -0.0701886 10.0375)
(3.15707 -0.153485 7.74817)
(3.40366 -0.349733 5.19396)
(3.31032 -0.175193 3.3411)
(3.08109 -0.184725 1.06357)
(4.05513 -1.18558 -2.40427)
(-2.09305 -0.836774 -0.991611)
(-0.113973 1.09636 4.5476)
(-4.20746 0.515848 12.4634)
(1.8308 0.0420489 16.2913)
(-12.6345 -0.000497759 21.0814)
(10.1953 0.0551317 16.9469)
(2.2027 0.200204 16.4581)
(4.80978 0.117551 13.8399)
(3.04991 -0.0479632 12.0408)
(3.55606 -0.155275 9.95007)
(3.21037 -0.302668 7.6075)
(3.08188 -0.525673 5.64043)
(3.19168 -0.379905 4.09696)
(3.66093 -0.113697 0.754701)
(0.405089 0.107582 -2.16297)
(-5.3808 0.0225186 4.61224)
(-0.520036 -0.274411 9.08392)
(-4.24744 0.132834 12.5227)
(1.79688 -0.0167215 16.3023)
(-12.5465 -0.0262835 21.2477)
(10.1735 0.0658647 17.1341)
(2.206 0.220286 16.3873)
(4.81905 0.120947 13.5819)
(3.03509 -0.0668708 11.8272)
(3.5285 -0.229055 9.87975)
(3.21773 -0.333411 7.58996)
(2.88072 -0.653017 6.11485)
(3.61445 -0.617929 4.60825)
(4.42054 0.289663 0.437425)
(1.97423 1.83366 -3.03943)
(-2.8138 -1.39494 -0.378525)
(-0.501751 -1.65705 9.28358)
(-4.07708 0.017837 12.5653)
(1.78601 -0.0767322 16.2028)
(-12.5454 -0.0422379 21.24)
(10.183 0.0682027 17.2457)
(2.22115 0.218486 16.3006)
(4.82244 0.120193 13.3338)
(3.00324 -0.0729411 11.6278)
(3.49939 -0.292826 9.84419)
(3.12443 -0.357142 7.66425)
(2.89381 -0.785542 6.25301)
(3.41407 -1.11178 4.84977)
(4.59011 0.146412 1.48215)
(5.37977 1.37807 -3.32242)
(3.17189 -0.972076 -3.15391)
(-0.0571245 -1.45125 6.17251)
(-3.74643 -0.13717 12.5794)
(1.83483 -0.0517135 16.1286)
(-12.5503 -0.0617804 21.185)
(10.2123 0.0600876 17.3072)
(2.24132 0.188943 16.244)
(4.81718 0.106477 13.1211)
(2.94906 -0.0676809 11.4432)
(3.4574 -0.290001 9.81935)
(3.00197 -0.36485 7.74991)
(2.8163 -0.783009 6.39618)
(3.24528 -1.39659 4.91456)
(2.99662 -0.504503 2.90213)
(4.74282 0.741675 -0.711939)
(2.86217 -0.773635 -2.25341)
(0.340638 -0.208241 3.771)
(-3.77719 0.0554224 12.4122)
(1.93039 0.0178672 15.8443)
(-12.6015 -0.0642331 21.0869)
(10.2473 0.0535656 17.3186)
(2.26892 0.180561 16.1556)
(4.83411 0.114248 12.89)
(2.92928 -0.0562734 11.2372)
(3.42239 -0.297331 9.78573)
(2.90887 -0.402274 7.73623)
(2.55134 -0.812431 6.84873)
(3.04736 -1.11711 5.49494)
(1.06434 -0.0692623 3.53661)
(0.293526 0.56501 0.311515)
(-1.02987 -0.76241 -1.86131)
(-0.622263 -0.132175 5.36739)
(-3.85674 0.185628 12.5158)
(1.88309 0.0411189 15.9606)
(-12.3622 -0.0622911 21.5016)
(10.2874 0.027674 17.338)
(2.30314 0.101078 16.1017)
(4.86057 0.0712076 12.6194)
(2.90736 -0.0244076 10.9054)
(3.3997 -0.179334 9.61947)
(2.80086 -0.237263 7.72831)
(2.41077 -0.506862 7.20321)
(3.1213 -0.546822 6.00724)
(1.05584 0.411646 4.32137)
(1.91148 0.195838 -0.086843)
(0.504381 -1.21671 -1.98637)
(-0.478538 -0.471711 6.16349)
(-3.80503 0.0524069 12.3866)
(1.85486 0.0272255 16.016)
(-12.2376 -0.0317541 21.7321)
(15.2031 -0.0367318 15.0704)
(5.33446 -0.132774 16.8627)
(7.93654 -0.134988 13.7169)
(5.56791 -0.0380046 11.4112)
(5.48495 0.200388 9.7181)
(4.96045 0.24538 7.9666)
(4.70386 0.565972 6.65056)
(5.24589 0.54159 5.60306)
(4.62326 -0.0340148 4.16277)
(5.81223 0.00572941 1.01813)
(3.71298 0.597314 0.422077)
(0.876348 0.376176 7.62382)
(-5.55052 -0.279371 13.2572)
(0.7228 -0.0406048 17.6393)
(-19.8864 0.0802705 22.5921)
(15.163 -0.0685078 15.0759)
(5.2425 -0.223109 16.8821)
(7.88776 -0.208456 13.8926)
(5.57403 -0.0314112 11.6973)
(5.49783 0.339527 9.90287)
(5.08106 0.399786 8.03723)
(4.80387 0.916008 6.49498)
(5.26735 0.993449 5.00423)
(4.92053 0.169725 3.52592)
(5.86532 -0.0976719 1.55219)
(4.55879 0.654633 0.765525)
(1.57091 0.442743 6.34978)
(-5.55066 -0.543454 13.3225)
(0.700907 -0.0704224 17.6265)
(-20.0072 0.185041 22.4062)
(15.1362 -0.0741119 15.0769)
(5.17726 -0.223657 16.9371)
(7.84841 -0.195628 14.0635)
(5.57214 -0.0017719 11.8996)
(5.51188 0.342969 9.97798)
(5.20389 0.364405 8.05536)
(4.98931 0.935825 6.26846)
(5.44482 1.05069 4.5021)
(6.12384 -0.0248849 2.57066)
(7.69136 -0.686149 0.756565)
(6.79775 0.805683 0.373964)
(3.01949 0.927366 5.17118)
(-5.50268 -0.146862 13.3016)
(0.330031 -0.044683 17.6456)
(-20.2287 0.148568 21.9867)
(15.108 -0.0816952 15.0288)
(5.12152 -0.253859 16.9533)
(7.83445 -0.226166 14.2129)
(5.63051 0.00586765 12.0806)
(5.56994 0.349484 10.0338)
(5.35098 0.393118 7.96298)
(5.07829 0.938986 6.21326)
(5.66011 0.901872 4.37158)
(6.43239 -0.313882 0.747122)
(7.1694 -0.927085 -1.87842)
(5.73839 1.0911 -0.758417)
(1.44331 1.47939 7.37469)
(-5.52132 0.271541 13.5581)
(0.422345 0.031243 17.8831)
(-20.1664 0.0894861 22.0922)
(15.1019 -0.0744115 14.9203)
(5.09214 -0.241394 16.9777)
(7.81509 -0.221844 14.3963)
(5.65007 0.0137716 12.2871)
(5.61527 0.293442 10.1047)
(5.4295 0.370795 7.89803)
(5.11552 0.803247 6.23656)
(6.09639 0.905348 3.95369)
(5.94054 -0.0951328 -0.000161595)
(3.5096 -1.71146 -0.822611)
(-0.49722 0.763629 1.96867)
(-0.215131 1.73877 10.9009)
(-5.73214 -0.0011784 13.5772)
(0.401884 0.0631896 18.02)
(-20.1521 0.0631372 22.1517)
(15.1212 -0.0547325 14.7277)
(5.10383 -0.205763 16.963)
(7.79671 -0.207904 14.5804)
(5.65577 0.00122374 12.5042)
(5.63713 0.223389 10.2078)
(5.4678 0.326329 7.93497)
(5.23778 0.62207 6.09561)
(6.07919 0.926765 3.71757)
(6.17381 0.711921 0.396266)
(3.19936 -0.0425696 -0.0631644)
(-4.39356 -0.670942 6.86803)
(-0.358668 0.159174 11.1021)
(-5.96327 -0.311728 13.6202)
(0.468916 -0.000843789 18.1639)
(-20.1591 0.0240009 22.1478)
(15.1784 -0.0231024 14.444)
(5.19037 -0.108914 16.8735)
(7.79428 -0.122414 14.7118)
(5.63636 0.00146621 12.7087)
(5.63287 0.108478 10.339)
(5.4446 0.206099 8.08492)
(5.4298 0.357487 5.81862)
(5.93707 0.555606 3.70253)
(6.45469 0.788933 0.970282)
(6.84073 1.00537 -0.764832)
(4.21697 0.214144 0.162673)
(1.17257 -0.614123 6.90504)
(-5.79482 -0.873867 13.5548)
(0.453038 -0.0464063 18.1618)
(-20.2256 0.000937645 22.0109)
(15.2077 0.00621455 14.3176)
(5.24941 0.022303 16.8094)
(7.80961 0.0294349 14.7184)
(5.63541 0.0195058 12.7556)
(5.64899 0.00976638 10.3759)
(5.36063 0.0382061 8.19065)
(5.55228 0.0411898 5.73463)
(5.74614 0.0933671 3.58558)
(5.96356 0.0433489 1.3637)
(7.20725 -0.24348 -0.503842)
(6.91925 -0.429656 -0.52722)
(5.85785 0.133801 2.66442)
(-5.72297 -0.0713334 13.0628)
(0.557538 0.00118064 18.0453)
(-20.3745 -0.0209475 21.7715)
(15.167 0.0390441 14.5044)
(5.17731 0.145888 16.8954)
(7.79824 0.168581 14.6877)
(5.64233 0.0305245 12.6716)
(5.65137 -0.07364 10.327)
(5.41317 -0.145682 8.1213)
(5.52137 -0.298964 5.72772)
(5.7807 -0.339756 3.678)
(6.08421 -0.454273 1.15606)
(6.617 -1.10816 -0.508481)
(3.0537 -1.0117 1.32239)
(1.49759 0.554842 6.30135)
(-5.91813 0.783218 13.5944)
(0.585361 0.03713 18.165)
(-20.2111 -0.0384442 22.0883)
(15.1203 0.0713536 14.7731)
(5.10944 0.231813 16.9714)
(7.80471 0.238971 14.5463)
(5.66665 0.0276071 12.4588)
(5.64579 -0.179794 10.2038)
(5.48541 -0.288554 7.95542)
(5.30864 -0.563298 5.92791)
(5.90118 -0.733197 3.88631)
(6.11179 -0.601146 0.761301)
(4.60115 -0.298091 -0.347352)
(-4.52908 0.230315 6.62541)
(0.0288916 -0.383673 10.9051)
(-6.04264 0.288181 13.6775)
(0.611616 -0.0456272 18.1731)
(-20.121 -0.0501343 22.2462)
(15.1086 0.0877052 14.9531)
(5.11019 0.260523 16.9819)
(7.82686 0.245945 14.3599)
(5.6618 0.0149012 12.2406)
(5.62939 -0.257409 10.0899)
(5.46444 -0.346465 7.87655)
(5.15853 -0.747586 6.16827)
(6.03147 -0.855437 4.12066)
(6.08111 -0.0859674 0.454469)
(4.25126 1.43214 -0.873215)
(-0.80798 -0.614358 2.51337)
(-0.0336902 -1.88981 11.1077)
(-5.77895 0.0416907 13.7021)
(0.508806 -0.120404 18.0822)
(-20.1043 -0.0786738 22.2226)
(15.1212 0.0923672 15.0498)
(5.14874 0.266642 16.9543)
(7.85021 0.243375 14.1734)
(5.6463 0.0167933 12.0308)
(5.59084 -0.31992 10.0032)
(5.39449 -0.378499 7.90393)
(5.10848 -0.896375 6.20834)
(5.71987 -0.929597 4.42401)
(6.30015 0.100786 0.75661)
(6.78513 0.750364 -1.98159)
(5.0785 -1.14629 -0.536027)
(1.19937 -1.648 8.2259)
(-5.52357 -0.23828 13.7582)
(0.485194 -0.0835924 17.9844)
(-20.106 -0.107206 22.1573)
(15.1542 0.0814221 15.088)
(5.21078 0.231887 16.9365)
(7.86738 0.207809 14.0234)
(5.59067 0.0200666 11.8477)
(5.5362 -0.324112 9.93192)
(5.25417 -0.347904 7.99643)
(5.05166 -0.904479 6.22034)
(5.4749 -1.07241 4.47524)
(5.93468 -0.0651866 2.34409)
(7.59342 0.437553 0.0946293)
(6.6289 -1.0234 0.0420016)
(2.81787 -1.16039 5.83315)
(-5.45101 0.0848272 13.573)
(0.431428 0.00566919 17.7534)
(-20.1535 -0.166859 22.0725)
(15.1843 0.073638 15.0796)
(5.28045 0.228002 16.8809)
(7.90921 0.216426 13.8528)
(5.59565 0.0453672 11.6424)
(5.52623 -0.331924 9.84606)
(5.1343 -0.388466 7.98384)
(4.88611 -0.91867 6.39524)
(5.35031 -1.01343 4.87918)
(4.93112 -0.170662 3.23518)
(6.01697 -0.0537171 1.00279)
(4.69929 -0.902314 0.633092)
(1.7478 -0.606074 6.703)
(-5.50327 0.490659 13.5751)
(0.817711 0.0456503 17.7332)
(-19.9268 -0.195959 22.4954)
(15.2269 0.0389045 15.0684)
(5.37432 0.134427 16.8619)
(7.95932 0.138073 13.6798)
(5.58864 0.0444646 11.3559)
(5.51528 -0.200835 9.65186)
(4.9986 -0.241465 7.9042)
(4.80505 -0.603151 6.50224)
(5.3296 -0.554951 5.43845)
(4.78472 0.0222583 3.68861)
(6.37426 -0.370375 0.0612208)
(3.81487 -1.01842 0.409186)
(1.02489 -0.504936 8.11694)
(-5.4966 0.274025 13.5357)
(0.835591 0.024254 17.759)
(-19.7957 -0.0845276 22.6901)
(17.8533 -0.0351992 10.907)
(8.67908 -0.132094 16.9582)
(10.8911 -0.182523 15.1545)
(8.65831 -0.149669 12.6059)
(7.58586 0.050041 10.149)
(7.03539 0.13889 8.12192)
(6.7614 0.303135 6.25119)
(6.91901 0.0662557 5.01154)
(7.75114 -0.156125 3.56261)
(9.4888 0.320771 1.34394)
(4.52918 0.586861 3.64235)
(-2.2194 0.1391 13.0183)
(-9.92032 -0.252613 17.8271)
(-5.98769 0.156119 20.901)
(-24.6272 0.173456 20.0994)
(17.8475 -0.0639398 10.9575)
(8.54377 -0.210651 16.9814)
(10.7991 -0.276555 15.2378)
(8.60415 -0.194799 12.7963)
(7.56838 0.1141 10.303)
(7.08758 0.271483 8.20469)
(6.79805 0.517741 6.1043)
(7.16725 -0.0861223 4.37372)
(8.25523 -0.39926 3.20698)
(10.1417 0.531841 1.7135)
(6.65806 0.98157 2.82602)
(-1.40882 0.322284 11.9144)
(-9.90125 -0.40908 17.845)
(-6.03247 0.31117 20.9228)
(-24.7319 0.412987 19.9788)
(17.8492 -0.068524 10.9831)
(8.46072 -0.199797 17.0226)
(10.7308 -0.265903 15.3425)
(8.55201 -0.150692 12.961)
(7.55681 0.134635 10.4137)
(7.10788 0.293485 8.21756)
(6.93036 0.589545 6.13941)
(7.46977 -0.251689 3.85048)
(8.584 -0.875593 1.76333)
(10.4536 0.228024 0.414712)
(7.39564 1.33983 2.20162)
(-1.15621 0.847042 11.6403)
(-10.1237 -0.0461927 17.7757)
(-6.6206 0.300069 20.7959)
(-24.7826 0.330267 19.5713)
(17.8406 -0.0755441 10.9722)
(8.37204 -0.215341 17.0194)
(10.6772 -0.310077 15.4204)
(8.55999 -0.157665 13.1074)
(7.62933 0.148499 10.4866)
(7.13816 0.307756 8.14486)
(7.07463 0.635692 6.16363)
(7.7788 -0.0678633 3.56776)
(7.8822 -0.773553 0.239022)
(8.14816 -0.0117344 -0.74523)
(4.61371 1.21905 3.25008)
(-2.40793 0.89828 13.2222)
(-9.9245 0.205343 17.7087)
(-6.25767 0.298338 21.0484)
(-24.8627 0.167613 19.7385)
(17.8373 -0.0683321 10.8916)
(8.32925 -0.186108 16.992)
(10.6347 -0.299086 15.5237)
(8.53531 -0.1377 13.2943)
(7.66347 0.161926 10.5868)
(7.13167 0.247052 8.17465)
(7.15185 0.628284 6.11784)
(8.03785 0.556467 3.50054)
(7.40695 -0.521848 0.694268)
(5.3322 -1.41579 1.10193)
(-0.719965 -0.0409664 7.57956)
(-3.28899 0.964635 14.8271)
(-9.86391 -0.0603635 17.5985)
(-6.08913 0.293333 21.2449)
(-24.9391 0.120365 19.821)
(17.8294 -0.0494985 10.7253)
(8.33744 -0.143244 16.8923)
(10.6105 -0.274257 15.609)
(8.52097 -0.136876 13.4833)
(7.63979 0.149079 10.7248)
(7.22784 0.164591 8.24362)
(7.14944 0.523605 6.10009)
(8.1154 0.840809 3.65363)
(8.52537 0.266597 1.09255)
(6.39458 -0.273728 1.51459)
(-2.83101 -0.69055 9.75226)
(-3.12608 -0.0918737 14.575)
(-9.93435 -0.274782 17.6281)
(-5.93073 0.179566 21.3965)
(-25.0143 0.0588787 19.8503)
(17.8182 -0.0241971 10.4671)
(8.44207 -0.0644198 16.6949)
(10.6368 -0.15734 15.6385)
(8.50997 -0.0800326 13.6482)
(7.57205 0.0887992 10.8902)
(7.28172 0.0836377 8.38667)
(7.15953 0.257692 6.05083)
(7.90447 0.547713 3.98378)
(8.90588 0.363743 1.80008)
(9.53169 0.422624 0.298866)
(5.63167 0.398606 2.76039)
(-1.85808 -0.426907 12.2648)
(-9.83973 -0.610379 17.6672)
(-6.0144 0.113979 21.3682)
(-25.0409 0.0588346 19.7034)
(17.8071 -0.00437412 10.3411)
(8.50609 0.0111808 16.5877)
(10.6674 0.0333284 15.6135)
(8.52468 0.0246331 13.6785)
(7.56467 0.0288071 10.9323)
(7.27 0.00885649 8.47771)
(7.18811 0.0507511 6.06186)
(7.57052 0.139205 4.12129)
(8.63205 -0.00892281 2.13735)
(9.6301 -0.34058 0.382032)
(8.07461 -0.376573 1.19928)
(0.825069 0.0936699 9.87838)
(-10.078 -0.0507177 17.629)
(-6.22406 -0.00505942 21.2162)
(-25.0705 -0.01922 19.4535)
(17.8163 0.0296366 10.5029)
(8.42186 0.0878061 16.7361)
(10.6311 0.207757 15.6361)
(8.51974 0.117906 13.6189)
(7.57598 -0.0261075 10.8777)
(7.30574 -0.0732169 8.4162)
(7.18212 -0.141942 6.05184)
(7.63805 -0.225215 4.10767)
(8.70967 -0.218894 1.92724)
(9.30041 -0.71342 0.533229)
(5.0073 -0.90358 3.393)
(-1.54296 0.239674 11.8458)
(-9.86154 0.566515 17.6803)
(-5.88055 -0.128851 21.4092)
(-25.069 -0.0947594 19.8023)
(17.8317 0.0643062 10.7491)
(8.34499 0.164073 16.9179)
(10.6177 0.304243 15.596)
(8.54243 0.170094 13.4477)
(7.62261 -0.102271 10.7235)
(7.32512 -0.143188 8.24596)
(7.10942 -0.368445 6.08027)
(7.87097 -0.641654 3.93459)
(8.67252 -0.370127 1.43966)
(7.57372 -0.166952 1.18181)
(-1.9364 0.254752 8.82388)
(-2.80923 -0.0764986 14.3833)
(-9.88461 0.268999 17.6426)
(-5.77357 -0.20638 21.4499)
(-25.0289 -0.0784756 19.9688)
(17.8415 0.0795102 10.9023)
(8.35284 0.203375 17.0074)
(10.6518 0.319952 15.5075)
(8.55605 0.170013 13.2613)
(7.66303 -0.139253 10.5752)
(7.22266 -0.201825 8.14448)
(7.08817 -0.552965 6.15881)
(7.9795 -0.639361 3.82037)
(8.04391 0.208758 1.1098)
(6.29751 1.17183 0.954399)
(-0.587973 0.170364 7.6553)
(-3.10054 -0.943093 14.8672)
(-9.81137 0.0915002 17.6436)
(-5.95014 -0.321443 21.3233)
(-24.9453 -0.123118 19.9218)
(17.8474 0.0851422 10.9707)
(8.40564 0.228983 17.0274)
(10.7011 0.322972 15.4006)
(8.58233 0.178664 13.0742)
(7.64864 -0.138905 10.4573)
(7.19155 -0.264931 8.08917)
(7.04238 -0.655754 6.19587)
(7.7778 -0.242575 3.8618)
(8.00057 0.572687 0.505364)
(7.88655 0.194318 -0.633005)
(3.90013 -0.959227 3.79301)
(-2.51208 -0.868895 13.6648)
(-9.85493 -0.154431 17.7733)
(-6.14532 -0.321586 21.1494)
(-24.8599 -0.162481 19.8302)
(17.8577 0.0746868 10.9715)
(8.5002 0.209125 17.0245)
(10.7582 0.274151 15.3212)
(8.57806 0.164022 12.9239)
(7.57992 -0.130897 10.3724)
(7.14981 -0.258087 8.14836)
(6.9695 -0.663704 6.15962)
(7.42688 -0.045278 3.98603)
(8.50676 0.713011 1.31653)
(10.147 -0.178756 -0.215044)
(6.89249 -1.29921 2.19999)
(-1.3161 -0.834118 12.0399)
(-10.0271 0.0340555 17.8595)
(-6.47602 -0.318468 20.9204)
(-24.7857 -0.325329 19.6944)
(17.8574 0.0681731 10.9383)
(8.58723 0.216804 16.9794)
(10.8287 0.280212 15.216)
(8.63399 0.20128 12.7562)
(7.59165 -0.119009 10.2513)
(7.13105 -0.266901 8.13649)
(6.85992 -0.620289 6.07539)
(7.15204 -0.110928 4.23328)
(8.22347 0.426704 2.69329)
(10.0825 -0.364769 1.30998)
(6.4312 -0.971478 2.86987)
(-1.33799 -0.308463 12.1015)
(-9.8177 0.391035 17.9513)
(-5.86883 -0.324923 21.0547)
(-24.7334 -0.409651 20.1166)
(17.8648 0.0368313 10.8825)
(8.72258 0.134145 16.9534)
(10.9205 0.182698 15.133)
(8.68531 0.150883 12.5626)
(7.60601 -0.058138 10.0858)
(7.06582 -0.145187 8.03518)
(6.80495 -0.379914 6.12212)
(6.91676 -0.137439 4.76542)
(7.84255 0.156191 3.12066)
(9.38065 -0.360891 1.12194)
(4.03395 -0.708964 3.99666)
(-2.20049 -0.144528 13.3201)
(-9.84867 0.257195 17.9681)
(-5.82384 -0.163051 21.0644)
(-24.6262 -0.169874 20.2552)
(19.16 -0.0248495 7.03722)
(10.7039 -0.125311 15.7945)
(12.8509 -0.19906 16.3318)
(11.3147 -0.255042 14.3419)
(9.3762 -0.181255 11.2541)
(8.51479 -0.0758078 8.47898)
(7.93833 -0.44988 6.40209)
(8.11408 -0.797686 4.77223)
(9.6533 -0.0157541 2.27485)
(7.45875 0.707994 3.34325)
(-2.8386 0.217661 12.432)
(-10.4503 -0.0881046 20.0746)
(-16.0994 -0.026164 22.1905)
(-12.0567 0.522875 19.6764)
(-26.5608 0.273005 14.7709)
(19.1942 -0.0438278 7.10163)
(10.5783 -0.189099 15.8547)
(12.7242 -0.292372 16.371)
(11.1852 -0.346472 14.4164)
(9.29539 -0.20468 11.3288)
(8.46159 0.00716579 8.46785)
(7.8808 -0.724717 5.97565)
(8.28515 -1.42861 4.01405)
(10.1078 0.0431156 2.14762)
(8.74313 1.3326 2.90913)
(-1.55134 0.49527 11.6039)
(-10.3495 -0.126226 19.8434)
(-16.0059 -0.13904 22.2493)
(-12.0238 0.948997 19.9749)
(-26.7538 0.618631 14.8826)
(19.2208 -0.0470547 7.13228)
(10.5195 -0.161638 15.8998)
(12.6448 -0.276921 16.4341)
(11.099 -0.296193 14.516)
(9.22615 -0.142521 11.423)
(8.48898 0.151832 8.54978)
(8.11493 -0.588707 5.79366)
(8.07192 -1.80173 2.65315)
(9.77085 -0.32785 0.471081)
(7.73329 1.52422 2.74891)
(-2.35055 0.856497 12.2142)
(-10.8665 0.132275 20.0368)
(-16.1887 -0.103789 22.1156)
(-12.1848 0.818079 19.9762)
(-26.8353 0.531029 14.9907)
(19.2402 -0.0523224 7.15086)
(10.4322 -0.151224 15.904)
(12.5573 -0.315529 16.4623)
(11.0514 -0.306817 14.5954)
(9.25145 -0.14867 11.4793)
(8.47841 0.192836 8.55712)
(8.68614 -0.131449 5.63519)
(8.07787 -1.45887 1.83942)
(7.63483 -0.593201 -0.206767)
(4.06709 1.17027 4.49478)
(-4.08333 0.531355 13.5716)
(-10.8662 0.205768 20.2835)
(-15.756 0.0368638 22.073)
(-11.8585 0.700291 20.6221)
(-27.07 0.294124 15.36)
(19.2463 -0.0489736 7.11427)
(10.3908 -0.0978394 15.8489)
(12.5042 -0.289568 16.4932)
(10.9954 -0.253347 14.7321)
(9.28206 -0.089204 11.5879)
(8.34522 0.149356 8.65274)
(8.97537 0.433032 5.6517)
(8.95875 -0.418249 1.76296)
(6.50231 -0.782238 0.755069)
(0.687347 -0.512528 7.80785)
(-6.18447 -0.489055 15.5155)
(-10.8564 0.239042 20.3583)
(-15.5338 -0.0307204 21.9069)
(-11.7158 0.642756 21.1096)
(-27.2306 0.195385 15.4535)
(19.2264 -0.0383203 7.02281)
(10.3738 -0.0457033 15.6991)
(12.479 -0.252986 16.4787)
(10.9641 -0.224945 14.871)
(9.27804 -0.0527975 11.7184)
(8.32132 0.0332776 8.72448)
(8.65315 0.533156 5.96394)
(9.73778 0.218616 2.41278)
(9.22115 -0.155571 0.0595887)
(2.69317 -0.270366 6.79297)
(-6.36098 -0.490953 15.5993)
(-10.661 -0.136939 20.109)
(-15.4432 -0.0989519 21.9048)
(-11.615 0.446813 21.4822)
(-27.3657 0.089555 15.4928)
(19.1741 -0.0291653 6.87376)
(10.4254 0.00286469 15.4375)
(12.5252 -0.133732 16.3927)
(10.9763 -0.124562 14.9786)
(9.22098 -0.00394734 11.8813)
(8.37634 -0.00738001 8.78582)
(8.23956 0.29187 6.19882)
(9.45402 0.267535 3.38055)
(10.6732 0.070902 0.137459)
(7.77949 0.139008 2.70795)
(-2.46056 0.207152 12.2814)
(-10.5383 -0.208433 19.6905)
(-15.4058 -0.186169 21.8591)
(-11.6197 0.320899 21.5505)
(-27.3816 0.0736907 15.3696)
(19.1362 -0.0195542 6.79122)
(10.441 -0.00242421 15.3033)
(12.5514 0.0272165 16.3263)
(11.0078 0.0318031 14.9846)
(9.19905 0.0384641 11.9258)
(8.46986 0.0169151 8.83968)
(8.10264 0.10718 6.28247)
(9.0884 0.0807104 3.63763)
(10.725 -0.242825 0.356997)
(8.45628 -0.36655 2.08667)
(-0.909147 -0.178605 11.1124)
(-10.0663 0.0147973 19.082)
(-15.6745 -0.0456832 21.8104)
(-11.7858 -0.00376336 21.3824)
(-27.3618 7.32397e-05 15.2234)
(19.1726 0.0195592 6.87319)
(10.3935 0.00231947 15.4819)
(12.5014 0.171083 16.4119)
(10.976 0.177771 14.9636)
(9.20538 0.0594585 11.8784)
(8.48884 0.026362 8.794)
(8.11215 -0.0149445 6.29489)
(9.07105 0.0162243 3.71754)
(10.6488 -0.221855 0.474158)
(7.59747 -0.514406 2.80477)
(-2.38627 -0.455248 12.2224)
(-10.3087 0.0678679 19.5435)
(-15.3943 0.143279 21.8944)
(-11.5941 -0.341989 21.6334)
(-27.4168 -0.0895811 15.4285)