/*--------------------------------*- C++ -*----------------------------------*\
| =========                 |                                                 |
| \\      /  F ield         | OpenFOAM: The Open Source CFD Toolbox           |
|  \\    /   O peration     | Version:  4.1                                   |
|   \\  /    A nd           | Web:      www.OpenFOAM.org                      |
|    \\/     M anipulation  |                                                 |
\*---------------------------------------------------------------------------*/
FoamFile
{
    version     2.0;
    format      ascii;
    class       volScalarField;
    location    "7";
    object      epsilon;
}
// * * * * * * * * * * * * * * * * * * * * * * * * * * * * * * * * * * * * * //

dimensions      [0 2 -3 0 0 0 0];

internalField   nonuniform List<scalar> 
204246
(
0.598526
0.688955
0.687722
0.687691
0.686276
0.6862
0.685933
0.686522
0.686501
0.687544
0.687755
0.688263
0.68749
0.688076
0.68762
0.688321
0.688327
0.686875
0.689037
0.689254
0.690316
0.690723
0.691551
0.692085
0.693045
0.693976
0.695156
0.696597
0.698656
0.701043
0.703144
0.705981
0.708289
0.711683
0.713975
0.719228
0.720625
0.731129
0.738357
0.754916
0.780542
0.830176
0.927117
1.11858
1.47927
2.09734
2.96462
3.53723
3.71051
3.78615
3.81459
3.84706
3.85803
3.85434
3.86396
3.83893
3.8303
3.79739
3.77386
3.74825
3.73235
3.71814
3.70665
3.70051
3.70567
3.71761
3.72916
3.7619
3.78197
3.819
3.83086
3.87338
3.90004
3.92225
3.95462
3.97614
4.00765
4.0295
4.06114
4.08847
4.12322
4.1525
4.18919
4.21818
4.25725
4.28675
4.32647
4.34411
4.40061
4.4168
4.46727
4.48444
4.53632
4.5511
4.60654
4.62044
4.67366
4.68942
4.73867
4.75985
4.8027
4.83092
4.87159
4.90213
4.94409
4.97476
5.00641
5.06234
5.08694
5.13999
5.16556
5.22361
5.25399
5.30715
5.3476
5.39675
5.43703
5.4891
5.53039
5.5842
5.62688
5.6825
5.72737
5.7681
5.8437
5.87624
5.9482
5.98482
6.05653
6.09744
6.16883
6.21237
6.2848
6.33075
6.40493
6.45298
6.52844
6.57853
6.65636
6.70836
6.76872
6.85851
6.90501
6.99395
7.04252
7.13301
7.18214
7.27532
7.32485
7.42068
7.47016
7.56854
7.61751
7.71881
7.76771
7.87178
7.92044
8.00304
8.09664
8.15719
8.25221
8.31086
8.40934
8.46554
8.5677
8.62086
8.72802
8.77715
8.88986
8.93568
9.05593
9.0975
9.22736
9.26597
9.40996
9.44256
9.57534
9.67438
9.76822
9.89608
9.9849
10.1436
10.2369
10.4305
10.5403
10.7745
10.9158
11.1966
11.3844
11.6868
11.8813
12.0507
12.0721
0.0414319
0.105883
0.101892
0.0993434
0.100876
0.098904
0.100611
0.09951
0.101435
0.100494
0.102644
0.10168
0.103282
0.101523
0.103525
0.101712
0.103938
0.102422
0.10211
0.104379
0.102748
0.105172
0.103633
0.106262
0.105538
0.108884
0.108428
0.112429
0.111736
0.116639
0.11586
0.120974
0.120175
0.125696
0.125298
0.134583
0.138122
0.151342
0.176547
0.211803
0.296367
0.430352
0.70613
1.16201
1.86635
2.27681
2.35278
2.19988
1.66699
1.10884
0.920414
0.821213
0.769656
0.688175
0.659593
0.663553
0.642104
0.649343
0.643594
0.665053
0.667253
0.701752
0.712332
0.755915
0.767577
0.808263
0.819674
0.857039
0.868443
0.901299
0.911852
0.93537
0.953334
0.971292
0.987374
1.00597
1.02251
1.04336
1.06133
1.07108
1.09601
1.09824
1.12348
1.12214
1.14973
1.15146
1.17972
1.18254
1.19217
1.21407
1.21391
1.23801
1.23717
1.25979
1.25655
1.28108
1.27655
1.30079
1.29619
1.32178
1.31823
1.34618
1.34702
1.37831
1.38042
1.41461
1.41648
1.44078
1.46733
1.47129
1.50723
1.50863
1.54691
1.54679
1.58777
1.58866
1.6323
1.63624
1.6807
1.68536
1.732
1.73751
1.78872
1.79707
1.82974
1.87033
1.87743
1.93196
1.94047
1.99607
2.00457
2.06439
2.07469
2.13715
2.14866
2.21439
2.227
2.29613
2.31026
2.38592
2.40398
2.45506
2.51746
2.534
2.61453
2.63305
2.71674
2.73629
2.82363
2.84444
2.9361
2.95874
3.05136
3.07363
3.172
3.19659
3.30248
3.3313
3.40104
3.4887
3.51432
3.61911
3.6445
3.75034
3.77595
3.88084
3.90579
4.00915
4.03268
4.1334
4.15591
4.25334
4.27429
4.37112
4.39665
4.4885
4.51229
4.55316
4.62476
4.63084
4.70078
4.69894
4.75353
4.74449
4.78323
4.76797
4.80606
4.79404
4.93453
5.06284
5.54919
5.84262
5.99294
0.00424237
0.00920928
0.00819742
0.00769868
0.00793361
0.00769239
0.00793804
0.00775364
0.00792305
0.00771775
0.00789171
0.00770367
0.0078967
0.00766942
0.0079621
0.00774676
0.00807991
0.00790004
0.00789663
0.0082623
0.00809074
0.00851058
0.00835866
0.00882992
0.00878811
0.00938886
0.0093888
0.0101389
0.0101257
0.0110747
0.0110772
0.0124268
0.012685
0.0150409
0.0162543
0.0211124
0.0266565
0.0394216
0.0617656
0.103884
0.184976
0.334983
0.6148
1.0951
1.69787
1.88055
1.7985
1.28753
0.709214
0.510893
0.454046
0.438142
0.435981
0.434541
0.436086
0.447517
0.456212
0.472838
0.480856
0.497272
0.510228
0.539577
0.566594
0.608849
0.640081
0.687711
0.719235
0.763722
0.788841
0.828957
0.852681
0.888053
0.910738
0.938329
0.958833
0.979651
0.99959
1.01405
1.03255
1.04297
1.05962
1.06792
1.08223
1.09052
1.10517
1.11494
1.12893
1.13932
1.15366
1.16424
1.17811
1.18916
1.20199
1.21211
1.22437
1.23325
1.24524
1.25339
1.26533
1.27332
1.28488
1.293
1.30568
1.31591
1.33048
1.34297
1.35831
1.37065
1.38674
1.39906
1.41492
1.4274
1.44321
1.45609
1.47237
1.4853
1.50227
1.51607
1.53343
1.54731
1.56565
1.57975
1.5996
1.61337
1.63085
1.64817
1.66268
1.68273
1.69575
1.71727
1.72925
1.75243
1.76321
1.78737
1.79722
1.82161
1.83103
1.8556
1.86478
1.8895
1.89817
1.91657
1.93168
1.94123
1.96046
1.96571
1.98443
1.98806
2.00458
2.00641
2.0203
2.02005
2.03003
2.02749
2.03286
2.02743
2.03162
2.02024
2.01357
2.01139
1.99004
1.9888
1.95932
1.95551
1.91968
1.91352
1.87248
1.86491
1.82012
1.81155
1.76351
1.7545
1.70335
1.69378
1.64347
1.63441
1.58015
1.55594
1.53658
1.49388
1.48794
1.44118
1.43647
1.3927
1.39002
1.35333
1.35467
1.3344
1.34404
1.33208
1.3401
1.22284
1.17876
0.000875386
0.00128467
0.00119393
0.00115107
0.00116259
0.00114355
0.00116122
0.00114708
0.00115796
0.00113887
0.00114674
0.00112685
0.00113716
0.0011208
0.0011414
0.00112785
0.00115143
0.0011404
0.00114283
0.00117379
0.00116447
0.00120363
0.00119612
0.00124317
0.00124443
0.00130577
0.00131152
0.00139671
0.00141132
0.00157029
0.00163036
0.00194529
0.00220137
0.0029961
0.00409192
0.00666206
0.0112656
0.0208168
0.0395999
0.0765161
0.148361
0.283095
0.526519
0.930584
1.32703
1.41631
1.33989
0.924296
0.450279
0.295761
0.242439
0.219522
0.208098
0.188363
0.167384
0.160595
0.154776
0.153166
0.151286
0.15323
0.156923
0.170464
0.184657
0.213312
0.240682
0.29055
0.336702
0.408776
0.468032
0.548098
0.607766
0.681274
0.739416
0.796373
0.847512
0.890764
0.937762
0.970739
1.01228
1.035
1.06904
1.08553
1.11396
1.12773
1.15187
1.16426
1.18541
1.19712
1.21722
1.22773
1.24625
1.25646
1.27206
1.28041
1.29293
1.29933
1.3097
1.31459
1.32153
1.32449
1.32741
1.32855
1.33008
1.33123
1.33413
1.33744
1.34255
1.34817
1.35479
1.36117
1.36817
1.37341
1.38015
1.38362
1.39019
1.39227
1.39859
1.40054
1.40631
1.40781
1.41303
1.41384
1.41851
1.41855
1.41989
1.42203
1.42077
1.42227
1.41975
1.4208
1.41626
1.4168
1.40996
1.40986
1.40011
1.39901
1.38645
1.38417
1.36899
1.36567
1.34578
1.33642
1.32232
1.30368
1.29351
1.26725
1.25848
1.22725
1.21701
1.18256
1.17094
1.13324
1.12018
1.0796
1.0653
1.02285
1.00794
0.961409
0.939167
0.905493
0.871953
0.847902
0.805754
0.789625
0.744843
0.729253
0.686275
0.671685
0.632533
0.619274
0.584062
0.572463
0.54133
0.531449
0.504214
0.495933
0.472114
0.461556
0.446906
0.434012
0.425371
0.410197
0.405804
0.390692
0.387138
0.377364
0.37699
0.376459
0.390194
0.402776
0.42618
0.43392
0.439792
0.000925709
0.00092365
0.000919183
0.000916975
0.000917028
0.000916033
0.000916505
0.000915947
0.000916315
0.000915582
0.000915828
0.000915095
0.000915433
0.000914912
0.000915576
0.000915132
0.000915905
0.000915554
0.000915804
0.000917006
0.000916798
0.000918589
0.000918451
0.000921352
0.000922032
0.000927114
0.000929638
0.00094009
0.000949509
0.000978196
0.00101891
0.00111828
0.00129836
0.00169762
0.00249034
0.00417486
0.00762955
0.0147628
0.0293279
0.0584643
0.115749
0.223605
0.416861
0.731924
1.0305
1.09813
1.04522
0.752212
0.336831
0.171063
0.112017
0.0854464
0.0732058
0.0639163
0.0534519
0.0439206
0.0386352
0.0367348
0.0350565
0.0349482
0.0348625
0.0374221
0.0424496
0.0524284
0.0635546
0.0776139
0.0912139
0.110185
0.133426
0.167274
0.208238
0.261828
0.330126
0.404141
0.488518
0.562015
0.643245
0.706647
0.778517
0.828695
0.892244
0.930544
0.984135
1.01094
1.05272
1.07202
1.10457
1.11966
1.14488
1.15825
1.17758
1.1903
1.20366
1.21434
1.22079
1.22842
1.23093
1.23406
1.23365
1.23356
1.22837
1.22239
1.21022
1.20065
1.18592
1.17745
1.16284
1.15598
1.14849
1.14125
1.13873
1.13054
1.12893
1.11818
1.1156
1.10231
1.09832
1.0839
1.07894
1.06304
1.05739
1.03974
1.03351
1.01309
1.00329
0.987712
0.971876
0.95961
0.938431
0.92881
0.90403
0.89485
0.86808
0.858278
0.830203
0.8199
0.790638
0.779801
0.749807
0.738665
0.707043
0.691914
0.667863
0.646645
0.628128
0.602103
0.588589
0.55983
0.548867
0.520178
0.509723
0.482454
0.472607
0.447062
0.437982
0.414549
0.406415
0.384483
0.374462
0.36012
0.347862
0.338913
0.325314
0.320454
0.307889
0.304041
0.293947
0.291079
0.283126
0.281056
0.275111
0.273829
0.26974
0.269218
0.266762
0.2669
0.26597
0.265921
0.267641
0.267778
0.270683
0.271288
0.274212
0.274788
0.27705
0.277369
0.280667
0.28193
0.289346
0.294255
0.303545
0.307273
0.309956
0.00091208
0.000912961
0.000911382
0.000910919
0.000910612
0.000910412
0.000910344
0.000910264
0.000910247
0.000910191
0.000910191
0.000910145
0.000910147
0.000910132
0.000910128
0.000910104
0.000910127
0.000910119
0.000910121
0.000910104
0.000910089
0.000910178
0.000910311
0.000910566
0.000910953
0.000911904
0.000913406
0.000916431
0.000921877
0.000933506
0.000957404
0.00101055
0.00112489
0.00137716
0.00191911
0.0030915
0.00559353
0.0108677
0.0218778
0.0442528
0.0887664
0.173201
0.325245
0.574714
0.83463
0.900319
0.873022
0.67437
0.341689
0.132205
0.0660089
0.0417831
0.0319666
0.0270207
0.0235447
0.01935
0.0156136
0.0147227
0.0145419
0.015143
0.0172625
0.0221898
0.03054
0.0435078
0.0592878
0.0667905
0.0696136
0.0695425
0.0678646
0.0654439
0.0659009
0.072926
0.0902947
0.116972
0.153677
0.19954
0.257983
0.319229
0.389546
0.453545
0.528524
0.588043
0.658597
0.70776
0.768805
0.808351
0.858112
0.886466
0.921319
0.945133
0.966054
0.984605
0.994754
1.00665
1.00995
1.01454
1.01351
1.01419
1.00926
1.00635
0.993176
0.983031
0.961876
0.945674
0.919601
0.901558
0.87365
0.85504
0.83317
0.813362
0.79784
0.778591
0.769716
0.749355
0.741804
0.719736
0.711211
0.68849
0.679215
0.655888
0.646353
0.622729
0.613082
0.588237
0.576405
0.557044
0.541206
0.526197
0.507216
0.495864
0.474799
0.466316
0.444971
0.43691
0.416544
0.408953
0.38967
0.382512
0.364516
0.357883
0.340596
0.332544
0.320465
0.310524
0.301922
0.290615
0.285125
0.273574
0.269345
0.258725
0.255016
0.245662
0.242442
0.234313
0.23157
0.224652
0.222408
0.216309
0.213611
0.21009
0.206959
0.205017
0.201846
0.200849
0.198291
0.197662
0.195957
0.195688
0.194834
0.194939
0.194761
0.195605
0.195803
0.197542
0.198134
0.20067
0.201704
0.20482
0.206836
0.210338
0.213334
0.217252
0.221219
0.225614
0.230585
0.235473
0.241384
0.246638
0.253276
0.25855
0.263928
0.266304
0.26765
0.000912824
0.000912036
0.000910932
0.000910504
0.00091011
0.00090992
0.000909835
0.000909788
0.00090975
0.000909739
0.000909866
0.000910111
0.000910208
0.000910226
0.000910238
0.00091024
0.000910226
0.000910227
0.000910215
0.000910191
0.000910191
0.000910184
0.000910182
0.000910178
0.00091018
0.00091031
0.000910727
0.000911789
0.000914244
0.00091993
0.000932729
0.000961948
0.00102735
0.00117489
0.00150069
0.00222169
0.00379675
0.00719255
0.0144673
0.0296418
0.0607341
0.121424
0.233927
0.422586
0.668131
0.753588
0.751282
0.632429
0.382787
0.143629
0.0582734
0.0272907
0.0167273
0.0132467
0.0121522
0.0119392
0.012047
0.0135079
0.0174134
0.0252514
0.0397641
0.0649749
0.105907
0.161342
0.223569
0.24736
0.254882
0.251099
0.228735
0.174668
0.114235
0.075419
0.0596598
0.054932
0.0543984
0.0610571
0.0779027
0.104011
0.137164
0.175476
0.222929
0.270922
0.328028
0.378923
0.437369
0.485055
0.537559
0.576205
0.615651
0.647669
0.672245
0.695595
0.705349
0.716798
0.71941
0.722421
0.72048
0.72058
0.7142
0.710503
0.696256
0.686181
0.664829
0.648829
0.621902
0.602879
0.573146
0.552898
0.52842
0.506531
0.487731
0.466514
0.455072
0.435053
0.427054
0.407788
0.400156
0.382172
0.374734
0.357593
0.350525
0.334388
0.327781
0.312133
0.304939
0.293216
0.284767
0.275944
0.266656
0.260464
0.250665
0.246704
0.237261
0.233795
0.22537
0.222343
0.21487
0.21221
0.205651
0.203344
0.197412
0.194705
0.19096
0.1877
0.185341
0.181837
0.180529
0.177245
0.176192
0.173442
0.172608
0.170375
0.169743
0.167998
0.167564
0.166287
0.166044
0.165157
0.164824
0.164829
0.164635
0.164897
0.164919
0.165713
0.165923
0.167143
0.167583
0.169287
0.169998
0.172203
0.173201
0.175935
0.177252
0.180504
0.182139
0.185878
0.187832
0.191849
0.194474
0.1986
0.20191
0.206199
0.210117
0.214597
0.219121
0.223937
0.229047
0.234195
0.239616
0.244388
0.248486
0.250478
0.251473
0.000911262
0.000910652
0.000909999
0.000909712
0.000909541
0.000909419
0.000909387
0.000909403
0.000909531
0.000909584
0.000909618
0.000909622
0.000909623
0.000909605
0.000909599
0.000909601
0.000909578
0.000909573
0.000909573
0.000909563
0.000909559
0.000909552
0.000909564
0.000909692
0.000909992
0.000910506
0.000911256
0.000912365
0.000914186
0.000917654
0.000925017
0.000941486
0.00097865
0.00106341
0.00125353
0.00168097
0.00263016
0.00471009
0.00924833
0.0189107
0.0392305
0.0801476
0.159201
0.299389
0.517504
0.651657
0.668974
0.607601
0.43629
0.203169
0.0714262
0.0298245
0.0155924
0.0112068
0.0103348
0.010451
0.0119891
0.0164912
0.0268954
0.0486809
0.0895268
0.157653
0.260606
0.394933
0.548306
0.642969
0.677379
0.683592
0.676502
0.630942
0.547197
0.422645
0.273087
0.148952
0.0794692
0.054061
0.0440971
0.0429584
0.0464944
0.0598692
0.0812141
0.106969
0.135891
0.16529
0.199786
0.234491
0.273815
0.309043
0.343958
0.376539
0.401881
0.427568
0.441479
0.452608
0.45498
0.457017
0.455334
0.455244
0.449787
0.446848
0.435743
0.428634
0.412927
0.401971
0.382526
0.369524
0.348316
0.334874
0.317811
0.303495
0.290738
0.27692
0.269325
0.256786
0.251707
0.240664
0.236267
0.226747
0.22281
0.214288
0.21077
0.20312
0.19998
0.192892
0.189656
0.184513
0.181077
0.177213
0.173721
0.171022
0.167445
0.165794
0.162396
0.161124
0.158129
0.157065
0.154472
0.153567
0.151336
0.150573
0.148598
0.147706
0.146556
0.145479
0.144859
0.143779
0.143441
0.142537
0.142315
0.141654
0.141539
0.141113
0.141101
0.140927
0.141028
0.140999
0.141403
0.141494
0.142094
0.14266
0.143272
0.144263
0.144976
0.146397
0.147355
0.149191
0.150405
0.152638
0.154181
0.156864
0.158821
0.162015
0.164454
0.168172
0.171124
0.175364
0.178834
0.183479
0.187418
0.192258
0.196501
0.201411
0.205959
0.211005
0.215838
0.220997
0.226051
0.231199
0.236123
0.240589
0.244039
0.245938
0.246777
0.000912112
0.000911101
0.000910489
0.000909948
0.000909699
0.000909501
0.000909436
0.000909371
0.000909349
0.000909411
0.000909701
0.000909978
0.000910034
0.000910038
0.000910036
0.000910037
0.000910029
0.000910017
0.00091002
0.000910007
0.000910008
0.000909998
0.000909992
0.000910067
0.000910302
0.000910647
0.000911065
0.000911594
0.000912465
0.000914196
0.000917829
0.000925913
0.000944066
0.000985929
0.00108091
0.00129819
0.00178859
0.00288252
0.00531886
0.0106195
0.0221017
0.0460639
0.0946248
0.186323
0.345661
0.54798
0.61488
0.60291
0.494973
0.307914
0.119572
0.044557
0.0201184
0.0130339
0.0116618
0.0118722
0.0145539
0.0221997
0.0389337
0.0712444
0.130004
0.226462
0.366591
0.533398
0.697587
0.818535
0.88988
0.922875
0.937796
0.938347
0.924561
0.886755
0.821634
0.718143
0.560125
0.356049
0.157632
0.0795216
0.0491947
0.0419555
0.0409366
0.0457281
0.0584146
0.0773843
0.0988374
0.119934
0.142017
0.16424
0.188411
0.214232
0.236372
0.258436
0.272588
0.282102
0.284217
0.28553
0.284532
0.284414
0.281017
0.279147
0.272419
0.26822
0.259103
0.253028
0.242142
0.235069
0.223422
0.21628
0.207082
0.199764
0.193209
0.186294
0.182393
0.176145
0.173566
0.168251
0.166086
0.161552
0.159622
0.155558
0.153827
0.150195
0.14866
0.145358
0.143843
0.141413
0.139914
0.138129
0.136683
0.135476
0.134056
0.133321
0.132029
0.131544
0.130441
0.130071
0.129168
0.128888
0.128172
0.127976
0.12742
0.127192
0.127021
0.126833
0.126846
0.126776
0.126889
0.126937
0.127287
0.127393
0.12795
0.12816
0.128914
0.129234
0.130186
0.130659
0.13181
0.132483
0.133755
0.134739
0.136067
0.13736
0.138824
0.140416
0.142064
0.143974
0.145844
0.14816
0.150334
0.153066
0.155595
0.158767
0.161749
0.165448
0.168955
0.173222
0.177285
0.182091
0.186594
0.191837
0.196741
0.202308
0.207455
0.213183
0.218382
0.224058
0.229013
0.234327
0.238588
0.242953
0.245607
0.247518
0.248216
0.000912447
0.000911307
0.000910833
0.000910448
0.00091026
0.000910116
0.000910072
0.000910047
0.000910023
0.000910024
0.000910023
0.000909989
0.000909993
0.000909994
0.000909964
0.000909971
0.000909967
0.000909945
0.000909943
0.000909943
0.000909929
0.000909915
0.000909915
0.000909906
0.000909905
0.000909971
0.000910169
0.000910564
0.000911214
0.000912351
0.000914413
0.000918685
0.000927879
0.000948689
0.000995498
0.00110267
0.00134623
0.00189497
0.00313105
0.00585309
0.0118504
0.0246543
0.0514908
0.104661
0.204272
0.369895
0.540053
0.57941
0.551191
0.433375
0.253835
0.0970997
0.0395237
0.0223425
0.0190162
0.0196801
0.0266121
0.043861
0.0763559
0.128289
0.205984
0.310032
0.438696
0.572647
0.693749
0.781878
0.855415
0.932653
0.998163
1.01578
1.01656
0.999754
0.963476
0.918559
0.884294
0.849598
0.778804
0.619535
0.360933
0.143882
0.0667775
0.0445303
0.0381458
0.0387077
0.0442386
0.0567251
0.0734822
0.0917214
0.109666
0.128159
0.144512
0.162085
0.176725
0.191248
0.196668
0.198825
0.198838
0.198973
0.197726
0.196898
0.193815
0.191628
0.187117
0.18373
0.178104
0.17401
0.167907
0.163887
0.159107
0.155216
0.151632
0.148014
0.145832
0.142617
0.141204
0.138415
0.137227
0.134761
0.133665
0.131351
0.13032
0.128181
0.127236
0.125285
0.124377
0.12288
0.122063
0.120959
0.120235
0.11951
0.118869
0.118442
0.117887
0.117678
0.117246
0.117121
0.116825
0.116768
0.116591
0.116591
0.116527
0.116527
0.116692
0.116749
0.11708
0.117219
0.117687
0.117917
0.118525
0.118873
0.11963
0.120105
0.121021
0.121652
0.122726
0.123547
0.1248
0.125837
0.127268
0.128612
0.130237
0.131956
0.133823
0.135899
0.138064
0.140522
0.143071
0.145889
0.148812
0.152014
0.155372
0.159025
0.162897
0.167067
0.17151
0.176247
0.181301
0.186629
0.192112
0.197979
0.203821
0.210109
0.216172
0.222696
0.228741
0.235146
0.240753
0.246533
0.251129
0.255594
0.258396
0.260324
0.261016
0.000913455
0.000912054
0.000911451
0.000910964
0.000910669
0.000910454
0.00091035
0.00091025
0.000910212
0.00091017
0.000910169
0.000910158
0.000910117
0.000910118
0.000910108
0.000910072
0.000910072
0.00091006
0.000910039
0.000910038
0.000910037
0.000910034
0.000910031
0.000910014
0.000910013
0.000910006
0.000910024
0.000910151
0.000910472
0.000911118
0.000912333
0.000914651
0.000919181
0.00092869
0.000949185
0.000995506
0.0011007
0.00133987
0.00188715
0.00311055
0.00585879
0.0118599
0.0248511
0.0517152
0.105315
0.20304
0.364662
0.516367
0.549916
0.522818
0.421405
0.263714
0.113936
0.0543408
0.037745
0.0353393
0.0395815
0.0536396
0.0819456
0.125449
0.185549
0.257037
0.332013
0.405205
0.477394
0.56684
0.679605
0.814285
0.948953
1.00817
1.02073
1.01743
0.99334
0.944582
0.888358
0.869434
0.871338
0.897415
0.910148
0.879943
0.718025
0.40881
0.156181
0.0792439
0.0519249
0.046049
0.04558
0.0504636
0.0617722
0.0784079
0.0957007
0.112593
0.127057
0.140913
0.152104
0.159063
0.160919
0.161577
0.161422
0.161206
0.159966
0.158613
0.156215
0.153988
0.150865
0.148116
0.144545
0.141621
0.138422
0.135619
0.133128
0.130658
0.128953
0.126879
0.125715
0.123899
0.122999
0.121339
0.120514
0.118899
0.118113
0.116547
0.11581
0.114379
0.113692
0.112586
0.112018
0.111254
0.110801
0.110353
0.110034
0.109845
0.109653
0.1096
0.109547
0.109571
0.109611
0.109781
0.109858
0.110146
0.110306
0.110656
0.111001
0.111427
0.111905
0.112426
0.113057
0.113687
0.114454
0.115214
0.116121
0.11703
0.118098
0.119188
0.120446
0.121732
0.123182
0.124717
0.126383
0.128154
0.130037
0.132044
0.134139
0.136408
0.138818
0.141401
0.144224
0.147261
0.150539
0.154128
0.157932
0.162086
0.166502
0.171255
0.17633
0.181689
0.187473
0.193469
0.199722
0.206332
0.212978
0.220058
0.226924
0.234232
0.24103
0.248134
0.254313
0.260582
0.265412
0.270105
0.272829
0.274844
0.275506
0.000912554
0.000911864
0.000910977
0.000910675
0.000910401
0.000910297
0.000910228
0.000910189
0.000910145
0.000910132
0.000910161
0.000910194
0.000910284
0.000910322
0.000910327
0.000910329
0.00091031
0.000910317
0.00091032
0.000910318
0.000910336
0.000910335
0.000910314
0.000910315
0.000910309
0.000910298
0.000910297
0.000910292
0.00091036
0.000910605
0.000911179
0.000912331
0.000914603
0.000919179
0.000928613
0.000948907
0.000993726
0.00109433
0.00132414
0.00184025
0.00301066
0.00559695
0.0113029
0.0234345
0.0487146
0.0979384
0.188669
0.3342
0.488485
0.52649
0.516386
0.449194
0.326796
0.187104
0.1006
0.0715844
0.0667378
0.0697594
0.0836165
0.107345
0.140087
0.18181
0.23557
0.306084
0.400588
0.524036
0.674653
0.84147
0.995519
1.04899
1.05799
1.04632
1.00578
0.937658
0.854454
0.766637
0.723941
0.716103
0.733798
0.795853
0.897293
0.931459
0.910891
0.757224
0.436752
0.165413
0.0805166
0.0572302
0.0518888
0.0515922
0.0564755
0.067786
0.0834064
0.100226
0.115533
0.129314
0.139231
0.143442
0.144564
0.144892
0.144809
0.144664
0.144123
0.143342
0.141876
0.139969
0.137423
0.134757
0.132026
0.129585
0.127246
0.12515
0.123375
0.12176
0.120362
0.119079
0.117931
0.116868
0.115801
0.114724
0.113618
0.112508
0.111454
0.11045
0.109518
0.108694
0.107938
0.107393
0.106887
0.106619
0.106367
0.106263
0.106205
0.106195
0.106268
0.106414
0.106564
0.106737
0.107024
0.107282
0.107634
0.108003
0.108502
0.108954
0.109567
0.110143
0.110852
0.111568
0.112399
0.113266
0.114224
0.115288
0.116408
0.117686
0.119016
0.120534
0.122083
0.123877
0.125669
0.127721
0.129811
0.132153
0.134558
0.137275
0.140075
0.143121
0.146402
0.149819
0.153646
0.15757
0.16202
0.16656
0.17174
0.176959
0.182955
0.188886
0.195747
0.202458
0.209878
0.217351
0.225245
0.23333
0.241474
0.249862
0.257883
0.266065
0.273274
0.280443
0.285928
0.291169
0.294131
0.296332
0.297022
0.000913507
0.000912622
0.000911767
0.000911414
0.000911033
0.000910882
0.00091072
0.000910654
0.000910631
0.000910624
0.000910599
0.000910599
0.000910592
0.000910553
0.000910553
0.000910536
0.0009105
0.000910499
0.000910467
0.000910445
0.000910443
0.000910437
0.000910434
0.000910431
0.000910428
0.000910421
0.000910461
0.000910624
0.000910949
0.000911423
0.000912082
0.000912963
0.00091432
0.000916592
0.000920834
0.000929287
0.000947014
0.000985267
0.00107134
0.00126373
0.0017033
0.00268508
0.00488837
0.00967358
0.0199818
0.0410031
0.0826534
0.157188
0.280018
0.43589
0.509282
0.518963
0.497874
0.431131
0.332554
0.229929
0.164458
0.141211
0.139706
0.149088
0.176761
0.22206
0.294639
0.394175
0.53281
0.687978
0.851944
0.972859
1.03721
1.05072
1.04374
1.00684
0.945327
0.862337
0.772439
0.675275
0.583262
0.49291
0.453243
0.44602
0.461767
0.506903
0.592957
0.656076
0.670717
0.654334
0.554891
0.370121
0.179508
0.107375
0.084024
0.0756961
0.0745645
0.0754005
0.0815669
0.0928495
0.107361
0.121645
0.133794
0.139662
0.141842
0.142647
0.142855
0.142849
0.14255
0.141626
0.1401
0.138088
0.135684
0.133247
0.130608
0.12832
0.125967
0.1242
0.12225
0.120999
0.119346
0.118429
0.116985
0.116149
0.114679
0.113725
0.112206
0.111316
0.11003
0.109319
0.108315
0.107786
0.107182
0.106879
0.106632
0.106506
0.106487
0.106471
0.106628
0.106767
0.107002
0.107162
0.10759
0.107802
0.108307
0.108651
0.109265
0.109732
0.110409
0.111058
0.111806
0.11262
0.11347
0.1145
0.115481
0.116765
0.117945
0.119502
0.120889
0.122742
0.124349
0.126501
0.12838
0.130698
0.132958
0.13549
0.138169
0.141012
0.144156
0.147407
0.151109
0.154803
0.159135
0.16339
0.168399
0.173345
0.179184
0.184909
0.191705
0.198301
0.206149
0.213734
0.222294
0.230847
0.240002
0.249323
0.258828
0.268555
0.277956
0.287496
0.295976
0.30431
0.310704
0.316676
0.319983
0.322412
0.323141
0.000913478
0.000912064
0.000911361
0.000910902
0.000910604
0.000910425
0.000910329
0.000910271
0.000910253
0.000910198
0.000910177
0.000910177
0.000910171
0.000910138
0.000910139
0.000910127
0.000910121
0.000910114
0.000910102
0.000910158
0.000910374
0.00091064
0.000910705
0.000910713
0.000910714
0.000910703
0.000910704
0.000910699
0.000910695
0.000910764
0.000910991
0.000911445
0.000912189
0.000913526
0.000915833
0.000919995
0.000927764
0.000943223
0.000975658
0.0010452
0.00120068
0.00154538
0.00232083
0.00401847
0.00773807
0.0155233
0.0316385
0.0624304
0.119026
0.21011
0.342143
0.462034
0.518286
0.534935
0.531809
0.508338
0.468136
0.426419
0.417159
0.422438
0.456535
0.51496
0.609858
0.711058
0.827948
0.918454
0.983546
0.996561
0.987634
0.944566
0.869063
0.77264
0.67478
0.576721
0.491973
0.411097
0.349414
0.29107
0.247244
0.222169
0.219901
0.224818
0.250761
0.297097
0.379621
0.476582
0.572975
0.606165
0.606283
0.560527
0.461054
0.330852
0.204272
0.140416
0.118835
0.11048
0.109696
0.110107
0.115415
0.124555
0.136894
0.146127
0.149967
0.151352
0.152001
0.152053
0.152059
0.151526
0.150029
0.148286
0.145707
0.143526
0.14045
0.138507
0.135467
0.133958
0.130987
0.129714
0.127296
0.126273
0.124042
0.123037
0.120726
0.119722
0.117788
0.116809
0.115505
0.114781
0.113956
0.113352
0.113122
0.112713
0.112699
0.112506
0.112547
0.112474
0.112606
0.112579
0.112855
0.112856
0.113297
0.113482
0.11393
0.114349
0.114794
0.115425
0.115933
0.116811
0.117401
0.118582
0.119337
0.120827
0.121808
0.12361
0.124823
0.126905
0.128364
0.130754
0.132539
0.135069
0.137334
0.140076
0.142872
0.14593
0.14929
0.152721
0.156745
0.160637
0.165363
0.169866
0.175376
0.180638
0.187142
0.193314
0.200974
0.208218
0.217187
0.225673
0.235592
0.245342
0.256081
0.266828
0.278099
0.289461
0.300746
0.312085
0.32243
0.332518
0.340352
0.347661
0.351524
0.354434
0.355256
0.00091401
0.000912217
0.000911445
0.000910885
0.000910541
0.000910311
0.000910183
0.000910087
0.000910053
0.000909999
0.000909991
0.000909991
0.000909958
0.000909958
0.000910027
0.000910054
0.000910067
0.000910074
0.000910089
0.000910121
0.000910168
0.000910258
0.000910375
0.000910467
0.000910482
0.000910486
0.000910484
0.000910489
0.000910574
0.000910802
0.000911191
0.00091178
0.000912612
0.000913802
0.000915524
0.000918136
0.000922384
0.000929606
0.000942881
0.000968274
0.00102077
0.00113163
0.00137613
0.0019083
0.00308247
0.00557192
0.0108634
0.0213593
0.0418494
0.077875
0.138605
0.228718
0.349231
0.452003
0.516209
0.555321
0.583075
0.611311
0.636802
0.672595
0.711286
0.759903
0.810753
0.865527
0.901098
0.906477
0.888497
0.840796
0.758798
0.658464
0.536149
0.421774
0.31911
0.232699
0.172361
0.12548
0.0992679
0.074163
0.0627302
0.0522344
0.0509021
0.0510728
0.0573775
0.0685542
0.0929451
0.129459
0.194733
0.273818
0.360846
0.447396
0.515861
0.547343
0.549336
0.528488
0.479716
0.407591
0.330063
0.254594
0.211381
0.190658
0.184901
0.181897
0.182265
0.182319
0.185189
0.186237
0.187002
0.18693
0.186236
0.185886
0.184288
0.183459
0.180258
0.178883
0.174841
0.173395
0.168923
0.167099
0.162525
0.160733
0.156771
0.155292
0.151856
0.15064
0.147867
0.146281
0.144617
0.14345
0.143065
0.142104
0.142222
0.141351
0.141534
0.140675
0.140684
0.139341
0.139078
0.137259
0.13688
0.134919
0.134573
0.133221
0.132379
0.131835
0.131054
0.130992
0.130559
0.130733
0.130616
0.131322
0.131445
0.132734
0.133148
0.13489
0.135562
0.13772
0.138635
0.141232
0.142658
0.145286
0.147482
0.150231
0.153185
0.156128
0.159819
0.163063
0.167494
0.171187
0.176454
0.180772
0.186995
0.19216
0.199531
0.205741
0.214445
0.221875
0.232145
0.241122
0.252533
0.263224
0.275759
0.287914
0.301235
0.314457
0.327957
0.341614
0.354243
0.366942
0.376635
0.386213
0.390884
0.39459
0.395604
0.000914583
0.000912391
0.00091153
0.000910842
0.000910438
0.000910223
0.000910004
0.000909918
0.000909847
0.000909826
0.000909805
0.000909792
0.000909736
0.000909724
0.000909721
0.000909702
0.0009097
0.000909693
0.000909694
0.000909686
0.00090968
0.000909767
0.000910003
0.000910152
0.000910171
0.000910174
0.000910165
0.00091016
0.000910158
0.000910156
0.000910205
0.000910396
0.00091075
0.000911376
0.000912338
0.000913973
0.000916466
0.000920486
0.000927116
0.000938269
0.000958421
0.000996337
0.00107305
0.00123082
0.00156933
0.0022782
0.00379194
0.00683314
0.0129564
0.0241925
0.0444264
0.0768317
0.12689
0.194571
0.283588
0.377881
0.452852
0.518519
0.562282
0.608799
0.641603
0.677443
0.68671
0.686084
0.658207
0.609306
0.523514
0.437599
0.332009
0.252366
0.171332
0.125501
0.0835491
0.0589591
0.0404883
0.0270436
0.0208829
0.0145929
0.0119269
0.00904685
0.00841664
0.00821679
0.00903013
0.0107326
0.0149064
0.0212974
0.0331506
0.0499224
0.0752836
0.112531
0.167438
0.236066
0.304299
0.382983
0.454027
0.531028
0.60088
0.637188
0.639904
0.620264
0.579196
0.514056
0.45157
0.38933
0.358691
0.334862
0.325759
0.312446
0.304288
0.296134
0.287192
0.283485
0.277561
0.276565
0.272802
0.272834
0.269059
0.2682
0.262252
0.260179
0.253551
0.251675
0.247485
0.247119
0.246442
0.245978
0.247482
0.247827
0.251954
0.252734
0.258968
0.260436
0.266929
0.268095
0.27087
0.269899
0.269995
0.264594
0.262139
0.251623
0.248265
0.237719
0.231545
0.224811
0.216431
0.213085
0.204987
0.202639
0.195972
0.194302
0.189134
0.188072
0.184127
0.183536
0.180615
0.180429
0.178469
0.17866
0.178397
0.178357
0.179516
0.179834
0.182189
0.182773
0.186207
0.187389
0.191858
0.193706
0.199331
0.202119
0.208923
0.21292
0.221029
0.226178
0.235755
0.242114
0.253454
0.261759
0.274206
0.28504
0.298781
0.312083
0.326883
0.342317
0.357609
0.374461
0.389298
0.406102
0.418025
0.431206
0.437396
0.442278
0.44361
0.000917372
0.000913462
0.000912242
0.000911463
0.000910787
0.000910556
0.000910262
0.000910195
0.000910088
0.000910059
0.000909997
0.000909995
0.000909961
0.000909961
0.000909932
0.000909934
0.000909896
0.000909894
0.000909894
0.00090988
0.000909882
0.00090986
0.000909878
0.000909869
0.00090987
0.000909861
0.000909853
0.0009099
0.000910094
0.000910421
0.000910836
0.000911286
0.000911812
0.000912462
0.000913422
0.000914805