/*--------------------------------*- C++ -*----------------------------------*\
| =========                 |                                                 |
| \\      /  F ield         | OpenFOAM: The Open Source CFD Toolbox           |
|  \\    /   O peration     | Version:  4.1                                   |
|   \\  /    A nd           | Web:      www.OpenFOAM.org                      |
|    \\/     M anipulation  |                                                 |
\*---------------------------------------------------------------------------*/
FoamFile
{
    version     2.0;
    format      ascii;
    class       volScalarField;
    location    "7";
    object      k;
}
// * * * * * * * * * * * * * * * * * * * * * * * * * * * * * * * * * * * * * //

dimensions      [0 2 -2 0 0 0 0];

internalField   nonuniform List<scalar> 
204246
(
0.748956
0.820756
0.821605
0.819729
0.820485
0.818884
0.819987
0.819175
0.820468
0.820013
0.82145
0.820525
0.821462
0.820082
0.821574
0.8203
0.822164
0.821016
0.820893
0.822917
0.821915
0.824098
0.823184
0.824921
0.824384
0.826448
0.826084
0.828838
0.828609
0.832382
0.832176
0.8363
0.836243
0.840821
0.841029
0.846567
0.848
0.854479
0.862303
0.874055
0.896207
0.934564
1.01162
1.15126
1.39728
1.76337
2.21559
2.4555
2.53254
2.55929
2.57541
2.58596
2.59402
2.59289
2.5911
2.58526
2.57622
2.56509
2.55045
2.54344
2.53212
2.53055
2.51994
2.52313
2.52005
2.53152
2.53208
2.55107
2.55613
2.5768
2.58297
2.59701
2.61295
2.61866
2.63712
2.64248
2.66061
2.66605
2.68514
2.69115
2.71251
2.71924
2.74137
2.74876
2.77007
2.77846
2.79999
2.80851
2.82735
2.83875
2.85582
2.86768
2.88517
2.89692
2.91388
2.92621
2.94207
2.95516
2.96925
2.98467
2.99692
3.01333
3.02551
3.04291
3.05544
3.0739
3.08591
3.10395
3.11894
3.13562
3.15204
3.16848
3.18793
3.20282
3.22495
3.23874
3.26112
3.27559
3.29832
3.31331
3.33656
3.35207
3.37617
3.39202
3.41518
3.43439
3.45576
3.47657
3.49759
3.52004
3.54069
3.56413
3.58491
3.60926
3.63032
3.65556
3.67695
3.70282
3.72482
3.75137
3.77383
3.79985
3.82432
3.84971
3.87479
3.90056
3.92595
3.95226
3.97778
4.00472
4.03021
4.05773
4.08302
4.11126
4.13651
4.16525
4.19054
4.21963
4.24432
4.27363
4.2985
4.32712
4.35288
4.38063
4.40735
4.43404
4.462
4.48746
4.51713
4.54132
4.57319
4.59597
4.63072
4.65253
4.6916
4.71144
4.75534
4.77907
4.81913
4.85179
4.89013
4.93235
4.97204
5.02492
5.0698
5.13478
5.18949
5.26782
5.33696
5.42065
5.49113
5.5326
5.54977
0.163377
0.244158
0.237024
0.23333
0.234825
0.232363
0.234335
0.23301
0.235384
0.23425
0.236959
0.23583
0.238274
0.236497
0.239196
0.237195
0.24032
0.238559
0.238218
0.241284
0.239441
0.242997
0.241383
0.245392
0.244852
0.250167
0.250115
0.256723
0.256596
0.264811
0.264713
0.273341
0.273287
0.283005
0.284016
0.300137
0.30694
0.329138
0.364672
0.412686
0.514584
0.665356
0.951525
1.38163
1.8887
2.04227
2.04739
1.87533
1.45931
1.13521
1.03478
0.988238
0.972068
0.959368
0.95664
0.985854
0.998461
1.04444
1.0631
1.12526
1.15235
1.21947
1.25532
1.32979
1.36944
1.43742
1.4737
1.53377
1.56859
1.62036
1.6513
1.69351
1.71534
1.7494
1.76566
1.79213
1.80444
1.82645
1.83668
1.85586
1.86562
1.88395
1.8938
1.90933
1.92125
1.93604
1.9475
1.95954
1.96483
1.97759
1.982
1.99312
1.99741
2.00935
2.01385
2.02791
2.03297
2.04821
2.05387
2.07105
2.07794
2.09816
2.10711
2.13011
2.14047
2.16543
2.17649
2.19728
2.2165
2.23285
2.25704
2.26927
2.29658
2.30869
2.3376
2.35049
2.38177
2.39564
2.42827
2.44312
2.47749
2.49333
2.53027
2.54766
2.57927
2.6063
2.63387
2.66588
2.69258
2.7272
2.75417
2.79227
2.81982
2.86031
2.88936
2.93179
2.96287
3.00718
3.04096
3.08773
3.12523
3.16656
3.21337
3.25406
3.30294
3.34733
3.39705
3.4455
3.49605
3.54883
3.60043
3.6575
3.7085
3.77045
3.82343
3.88999
3.94586
4.01758
4.06837
4.14792
4.20411
4.27765
4.34623
4.41351
4.49289
4.5544
4.64239
4.69955
4.79266
4.84809
4.94209
4.99877
5.08591
5.14613
5.2365
5.29587
5.38454
5.42714
5.52683
5.56585
5.66138
5.69695
5.78795
5.82017
5.90803
5.93729
6.03148
6.06556
6.23756
6.38799
6.81189
7.07879
7.19214
0.0154019
0.0345908
0.0322092
0.0310573
0.0316126
0.0311008
0.0316976
0.0312551
0.0316097
0.0311069
0.0315125
0.0311199
0.0316336
0.0311903
0.0319374
0.0314852
0.0323351
0.0319481
0.0319723
0.0329649
0.0326225
0.033816
0.0335456
0.0349117
0.0349153
0.0366807
0.0368495
0.0389666
0.0391422
0.0419608
0.0423344
0.0464383
0.0475821
0.0541994
0.0576332
0.0698059
0.0819085
0.10835
0.149138
0.219353
0.34076
0.540144
0.872324
1.37314
1.81052
1.90591
1.81009
1.3511
0.94772
0.830821
0.804057
0.801304
0.812405
0.830226
0.855498
0.892073
0.929893
0.97706
1.01416
1.06063
1.1072
1.17516
1.24502
1.33415
1.41296
1.51168
1.59086
1.68817
1.76294
1.85809
1.93112
2.01806
2.08609
2.15885
2.21965
2.2784
2.33216
2.37521
2.41819
2.4497
2.48038
2.50539
2.52468
2.549
2.56326
2.58721
2.59525
2.61887
2.63279
2.63881
2.65598
2.66002
2.67556
2.67899
2.69487
2.69671
2.7125
2.71403
2.72801
2.72843
2.74018
2.74076
2.75311
2.75588
2.77251
2.77753
2.79882
2.80806
2.82035
2.83647
2.84247
2.86139
2.86657
2.88543
2.89072
2.91006
2.91637
2.93535
2.942
2.96155
2.96858
2.98873
2.99624
3.01721
3.02702
3.04107
3.05601
3.0653
3.08338
3.09116
3.10992
3.11803
3.13642
3.14464
3.16221
3.17038
3.18725
3.19556
3.21204
3.22063
3.2359
3.24325
3.25508
3.26202
3.27191
3.27826
3.2862
3.29003
3.2967
3.2968
3.30102
3.29845
3.29955
3.29114
3.29178
3.27731
3.2767
3.25204
3.23996
3.22565
3.19381
3.18531
3.14071
3.12889
3.07574
3.06064
3.00027
2.98278
2.9169
2.89734
2.8264
2.80537
2.73008
2.70815
2.63242
2.61123
2.52982
2.49183
2.4549
2.39006
2.37388
2.30101
2.28603
2.21571
2.20296
2.1407
2.13316
2.09049
2.09418
2.06578
2.07063
1.93177
1.88007
0.00630463
0.00748018
0.00716457
0.00701044
0.00705348
0.00698576
0.00705999
0.00701373
0.00705649
0.00698498
0.00701283
0.00693286
0.00697007
0.00691109
0.00699077
0.00694184
0.00703504
0.00699551
0.00701318
0.00713702
0.00710674
0.00726724
0.00724503
0.0074408
0.00745567
0.00770529
0.00773961
0.00808312
0.00815457
0.00876761
0.00899052
0.0101114
0.0108844
0.0133398
0.0162038
0.0228928
0.0334796
0.0543988
0.0920049
0.159872
0.280164
0.483277
0.812079
1.28817
1.60363
1.65572
1.55352
1.14352
0.715007
0.568007
0.506399
0.476077
0.459963
0.430714
0.40059
0.391833
0.381436
0.379287
0.375278
0.381893
0.392818
0.429185
0.463182
0.53271
0.597591
0.719558
0.831515
1.00369
1.14458
1.33479
1.48015
1.65798
1.79976
1.94428
2.077
2.19674
2.32
2.41471
2.52074
2.59051
2.67692
2.7286
2.7976
2.83596
2.89026
2.91991
2.96302
2.98627
3.02218
3.03876
3.06637
3.07811
3.09505
3.10135
3.11031
3.1126
3.11634
3.11554
3.11551
3.10849
3.10039
3.08242
3.06825
3.04933
3.03917
3.02842
3.02423
3.01991
3.0182
3.01755
3.01657
3.01591
3.01314
3.0111
3.00584
3.00212
2.99603
2.99213
2.98667
2.9823
2.97618
2.97059
2.96412
2.95664
2.94868
2.9402
2.92966
2.92139
2.90724
2.89947
2.88085
2.87404
2.85113
2.8434
2.8165
2.8074
2.77616
2.7654
2.73
2.7178
2.67435
2.65306
2.62067
2.58299
2.55853
2.5075
2.48754
2.42844
2.4064
2.34282
2.31883
2.25081
2.22475
2.15282
2.12498
2.05047
2.02166
1.94134
1.90229
1.83962
1.78413
1.73495
1.66643
1.62955
1.55361
1.52369
1.44727
1.4189
1.34799
1.32178
1.2572
1.23374
1.17588
1.15533
1.10401
1.08623
1.04031
1.01941
0.989005
0.963961
0.943935
0.915188
0.902399
0.872979
0.863493
0.842606
0.838944
0.834295
0.847808
0.865259
0.89559
0.905211
0.912616
0.0058931
0.0059416
0.00591666
0.00590657
0.00590683
0.00590209
0.00590437
0.00590176
0.00590354
0.00590033
0.00590187
0.0058994
0.00590151
0.00589924
0.00590266
0.00590059
0.00590467
0.0059031
0.00590482
0.00591122
0.00591045
0.00591995
0.00591959
0.00593397
0.00593728
0.00596105
0.0059712
0.00601585
0.00604833
0.00615433
0.00627873
0.00659048
0.00709027
0.00819119
0.0102248
0.0144322
0.0225817
0.0385911
0.0692547
0.126334
0.229948
0.408342
0.698274
1.11661
1.39189
1.44021
1.36278
1.03816
0.586013
0.353925
0.260354
0.212239
0.188404
0.166543
0.142403
0.121856
0.111339
0.107649
0.104754
0.104901
0.105425
0.113675
0.127993
0.154673
0.183826
0.220792
0.256796
0.307759
0.370187
0.461859
0.572561
0.718435
0.902941
1.098
1.31389
1.5032
1.70892
1.87286
2.05524
2.1901
2.35184
2.45727
2.59023
2.6646
2.76715
2.81934
2.89514
2.93108
2.98484
3.01193
3.04883
3.06738
3.08845
3.09795
3.10135
3.10334
3.10277
3.10056
3.09275
3.07865
3.05538
3.02606
2.98976
2.95326
2.91382
2.87973
2.84261
2.81291
2.78584
2.7587
2.74105
2.71645
2.70549
2.67434
2.6624
2.62555
2.61105
2.57238
2.55648
2.51535
2.49833
2.45389
2.43589
2.38585
2.36128
2.32228
2.28509
2.25395
2.20639
2.18105
2.12597
2.10339
2.04424
2.02065
1.9595
1.93513
1.87222
1.847
1.78316
1.75747
1.69097
1.65864
1.60532
1.56208
1.51874
1.46711
1.4325
1.37405
1.348
1.28741
1.26334
1.20488
1.18198
1.1267
1.10529
1.05391
1.03432
0.985814
0.963145
0.92849
0.901936
0.877419
0.847967
0.832646
0.803548
0.792815
0.767361
0.758674
0.737567
0.730595
0.713605
0.708288
0.69507
0.691307
0.681489
0.67914
0.67204
0.669271
0.668067
0.665716
0.666187
0.664858
0.665624
0.664058
0.664536
0.662842
0.663775
0.664067
0.673433
0.679065
0.69216
0.696929
0.700813
0.0058842
0.0058823
0.00587612
0.00587405
0.00587284
0.005872
0.00587173
0.0058714
0.0058714
0.00587112
0.00587113
0.00587104
0.00587104
0.00587094
0.00587112
0.00587106
0.00587105
0.00587092
0.005871
0.00587131
0.00587127
0.00587164
0.00587192
0.00587322
0.0058747
0.00587845
0.00588364
0.00589417
0.00591137
0.00594765
0.00601702
0.00616727
0.00647545
0.00713936
0.00852252
0.0114432
0.0174725
0.0296862
0.0539285
0.100298
0.186382
0.337376
0.586999
0.957378
1.24085
1.29784
1.24991
1.00137
0.599003
0.279771
0.162479
0.114314
0.0927807
0.0813161
0.0722764
0.0611712
0.0522551
0.0502531
0.049915
0.0519132
0.0582791
0.0723598
0.0955587
0.130585
0.171539
0.189417
0.196261
0.196228
0.193913
0.191071
0.197144
0.226203
0.282071
0.362641
0.473099
0.611409
0.784848
0.962313
1.16089
1.34104
1.54718
1.71321
1.90331
2.03894
2.20006
2.30635
2.43313
2.50633
2.59164
2.64842
2.69618
2.73501
2.75349
2.76993
2.77142
2.77436
2.76819
2.76621
2.74661
2.73148
2.69054
2.65701
2.59806
2.55045
2.48118
2.42975
2.35807
2.30644
2.24848
2.19524
2.15077
2.10066
2.07138
2.0223
2.00033
1.94503
1.92172
1.86471
1.83993
1.78189
1.75673
1.69825
1.67294
1.61204
1.58254
1.53292
1.49486
1.45453
1.41007
1.37745
1.32845
1.30296
1.25131
1.22982
1.17883
1.15838
1.10978
1.09036
1.04465
1.02648
0.98245
0.961552
0.928525
0.903699
0.878251
0.850908
0.832212
0.802832
0.790405
0.761596
0.750483
0.724589
0.714676
0.691653
0.682913
0.662724
0.655194
0.636974
0.628615
0.616192
0.607002
0.598237
0.588496
0.583029
0.573637
0.570085
0.562097
0.559361
0.553258
0.551333
0.547091
0.545969
0.543468
0.543111
0.542255
0.542652
0.542829
0.544558
0.546537
0.549032
0.552765
0.556056
0.56137
0.565401
0.572261
0.577261
0.585675
0.591514
0.601338
0.607665
0.615246
0.618231
0.620179
0.00588102
0.00587955
0.00587369
0.00587183
0.00587033
0.00586958
0.00586927
0.00586903
0.00586894
0.0058688
0.00586879
0.00586877
0.00586874
0.00586862
0.00586864
0.00586856
0.00586853
0.00586869
0.00586907
0.00586938
0.00586957
0.00586969
0.00586967
0.00586963
0.00586966
0.00587017
0.00587162
0.00587513
0.00588267
0.00589946
0.00593568
0.0060159
0.00619039
0.0065762
0.00741142
0.00922651
0.0131026
0.0212135
0.0379081
0.0710172
0.13495
0.251514
0.452159
0.764853
1.08701
1.17352
1.1611
0.99581
0.667017
0.303209
0.139037
0.0758769
0.0528518
0.0448311
0.0422532
0.0417902
0.0422326
0.0466393
0.0579366
0.0801635
0.120644
0.189627
0.299097
0.443652
0.582281
0.625433
0.637959
0.620594
0.558162
0.423713
0.282745
0.208121
0.17889
0.172455
0.176562
0.209473
0.272816
0.360943
0.470664
0.595992
0.749513
0.900699
1.07616
1.2303
1.40418
1.54484
1.69607
1.80638
1.91663
2.00299
2.06936
2.12714
2.15125
2.17256
2.17506
2.17881
2.17228
2.17011
2.15004
2.13528
2.0946
2.0625
2.00386
1.9563
1.88426
1.82907
1.75097
1.69321
1.62681
1.56554
1.51113
1.45173
1.41409
1.36054
1.33693
1.28343
1.26081
1.20993
1.18779
1.13902
1.11789
1.07167
1.05174
1.00676
0.985597
0.95005
0.925798
0.897558
0.871537
0.849815
0.822444
0.806847
0.779265
0.767711
0.741429
0.731052
0.707295
0.697948
0.676672
0.668342
0.648853
0.639728
0.625796
0.615439
0.605056
0.594124
0.586782
0.575478
0.570765
0.559926
0.55581
0.54634
0.54277
0.534566
0.531515
0.524509
0.521956
0.515919
0.513169
0.509392
0.506443
0.50422
0.501369
0.500389
0.498116
0.497557
0.496246
0.496146
0.495804
0.496274
0.496628
0.498236
0.499015
0.501695
0.502831
0.506429
0.508007
0.512052
0.514648
0.518807
0.52235
0.526747
0.531359
0.53631
0.541992
0.547486
0.554219
0.560387
0.567881
0.573863
0.579406
0.581908
0.583299
0.00586898
0.0058669
0.00586455
0.0058635
0.00586292
0.00586266
0.0058627
0.00586306
0.00586381
0.00586399
0.00586401
0.00586396
0.00586397
0.00586392
0.0058638
0.0058638
0.00586376
0.00586373
0.00586374
0.00586373
0.0058637
0.00586374
0.0058642
0.00586529
0.00586713
0.00586976
0.00587323
0.00587783
0.0058846
0.00589611
0.0059185
0.0059653
0.00606659
0.00629101
0.00678425
0.00787432
0.0102534
0.0153516
0.0261378
0.0481741
0.0922338
0.175838
0.326979
0.575227
0.923729
1.08882
1.10532
1.01069
0.759575
0.414518
0.165364
0.0797642
0.0486463
0.0388819
0.0370315
0.0375557
0.0421118
0.0548176
0.0835561
0.142736
0.251343
0.427014
0.68121
0.993519
1.32153
1.49788
1.56411
1.57496
1.5484
1.42788
1.22463
0.936991
0.60212
0.336366
0.210141
0.163524
0.148438
0.149969
0.173898
0.23058
0.31024
0.401492
0.504985
0.610761
0.733791
0.854835
0.987986
1.10538
1.2199
1.32323
1.40375
1.48007
1.52076
1.54593
1.55005
1.55397
1.54874
1.54721
1.53034
1.51892
1.48552
1.46102
1.414
1.37771
1.32003
1.2775
1.21501
1.17096
1.11853
1.0718
1.02938
0.98445
0.956552
0.917275
0.899854
0.863458
0.848066
0.815951
0.801986
0.772899
0.760266
0.733826
0.722363
0.697605
0.686015
0.666754
0.654701
0.639377
0.62735
0.615446
0.60324
0.594421
0.582258
0.575658
0.563865
0.558881
0.54785
0.543377
0.533458
0.529437
0.520313
0.51601
0.509261
0.504511
0.499318
0.494288
0.490365
0.485219
0.4825
0.477391
0.475307
0.470643
0.468828
0.464801
0.463269
0.459885
0.458644
0.455872
0.454632
0.45326
0.452018
0.451622
0.450833
0.450812
0.450723
0.45154
0.451928
0.453618
0.454512
0.457138
0.458668
0.462263
0.464516
0.469117
0.472083
0.477732
0.48134
0.487696
0.492131
0.498676
0.50378
0.5103
0.515959
0.522507
0.528668
0.535182
0.541589
0.547984
0.554183
0.559666
0.56399
0.566238
0.567344
0.00587632
0.00587068
0.00586821
0.00586573
0.00586465
0.00586385
0.00586351
0.00586321
0.00586321
0.00586383
0.00586559
0.00586835
0.00587129
0.00587237
0.00587264
0.00587275
0.00587276
0.0058728
0.00587282
0.00587282
0.00587277
0.00587266
0.00587271
0.00587269
0.00587268
0.00587284
0.00587374
0.00587569
0.00587944
0.00588616
0.00589859
0.00592325
0.00597478
0.00608811
0.00633806
0.00689926
0.00814535
0.0108772
0.0168246
0.0293583
0.0554036
0.107034
0.205683
0.380087
0.663673
0.971811
1.05918
1.03824
0.881386
0.597072
0.273224
0.111503
0.0586644
0.0432395
0.0404314
0.041406
0.0493941
0.0709213
0.11662
0.202168
0.35136
0.579761
0.88809
1.23577
1.56821
1.82048
1.97981
2.05099
2.07991
2.0792
2.04254
1.94862
1.78532
1.53628
1.16872
0.722546
0.346743
0.20937
0.158359
0.149151
0.152548
0.18304
0.24142
0.316519
0.397776
0.478004
0.564679
0.652516
0.745764
0.84106
0.922377
1.00118
1.05209
1.07981
1.08588
1.08939
1.08632
1.08538
1.07425
1.06655
1.04417
1.02783
0.996831
0.973357
0.936106
0.908949
0.869227
0.841787
0.809039
0.780957
0.755286
0.728638
0.711528
0.688228
0.67761
0.656611
0.647512
0.62915
0.620922
0.604186
0.596674
0.581446
0.574639
0.560588
0.553956
0.5427
0.536165
0.527035
0.520815
0.513586
0.507313
0.501612
0.495676
0.491081
0.485305
0.481914
0.47595
0.47336
0.467809
0.465482
0.460408
0.458011
0.454128
0.451696
0.448669
0.446214
0.44385
0.441446
0.439783
0.437458
0.436372
0.434313
0.433527
0.431918
0.431361
0.430291
0.429992
0.429518
0.429365
0.429478
0.429485
0.43024
0.430515
0.431795
0.43242
0.434255
0.435251
0.437827
0.439308
0.44269
0.444745
0.449044
0.451835
0.457099
0.460722
0.466926
0.471403
0.478268
0.483619
0.490802
0.496801
0.504132
0.510471
0.517711
0.524169
0.531326
0.537725
0.544419
0.550186
0.555516
0.559285
0.56142
0.562363
0.00588102
0.00587525
0.00587312
0.00587146
0.00587066
0.00587003
0.00586978
0.00586959
0.00586937
0.00586931
0.00586931
0.00586921
0.00586913
0.00586913
0.00586913
0.00586899
0.005869
0.00586896
0.00586894
0.00586921
0.00586964
0.00586992
0.00586999
0.00587002
0.00587003
0.00587008
0.00587023
0.00587094
0.00587264
0.00587639
0.00588361
0.00589801
0.00592663
0.005987
0.00611581
0.00640067
0.00703263
0.00843038
0.011521
0.0181688
0.0323535
0.0613876
0.119244
0.227379
0.417614
0.712738
0.972928
1.02767
0.987975
0.813146
0.530719
0.234057
0.103711
0.0651573
0.057762
0.0595071
0.0760829
0.116629
0.191166
0.305703
0.469281
0.683108
0.944926
1.22234
1.48439
1.69872
1.88845
2.07561
2.20157
2.23498
2.23633
2.20661
2.14214
2.0486
1.94483
1.80381
1.57308
1.20097
0.68512
0.313255
0.185212
0.151383
0.143995
0.153603
0.188141
0.246782
0.318183
0.392245
0.465643
0.541922
0.611803
0.685555
0.746963
0.800235
0.818382
0.825453
0.825498
0.825775
0.821247
0.817386
0.805715
0.796006
0.778325
0.763397
0.741121
0.723164
0.698976
0.68112
0.661193
0.644072
0.628162
0.612173
0.60059
0.586098
0.578192
0.565269
0.559259
0.547415
0.541883
0.530702
0.525456
0.514909
0.509986
0.500125
0.495394
0.487116
0.482683
0.475777
0.47167
0.466154
0.46226
0.457777
0.453991
0.450447
0.446676
0.443932
0.439973
0.438043
0.434147
0.432437
0.428864
0.427163
0.424333
0.4227
0.420439
0.418903
0.417088
0.415662
0.414288
0.413052
0.412091
0.411072
0.410529
0.409833
0.409602
0.409333
0.409342
0.409493
0.409952
0.410719
0.411494
0.413044
0.414186
0.41645
0.418038
0.420988
0.423207
0.426717
0.429488
0.433544
0.436946
0.441554
0.445717
0.451014
0.455936
0.462067
0.467738
0.474665
0.480936
0.488443
0.495201
0.503109
0.510208
0.51829
0.525428
0.533109
0.539762
0.546485
0.551989
0.55698
0.560411
0.562447
0.563275
0.00588311
0.00587745
0.0058742
0.00587247
0.00587075
0.00586993
0.00586929
0.00586889
0.00586868
0.00586859
0.00586856
0.00586839
0.00586833
0.00586832
0.00586818
0.0058681
0.00586808
0.00586792
0.00586788
0.00586786
0.00586777
0.00586774
0.00586774
0.00586773
0.00586771
0.00586782
0.00586837
0.00586961
0.00587167
0.00587516
0.0058808
0.00589001
0.00590594
0.00593592
0.00599583
0.00612422
0.00640528
0.0070282
0.00842596
0.0114922
0.0182233
0.0324665
0.0620831
0.120405
0.230598
0.420078
0.715427
0.952992
1.00104
0.965285
0.813496
0.562697
0.283648
0.142485
0.102872
0.0966021
0.105289
0.134925
0.194558
0.286151
0.411243
0.561253
0.725879
0.896998
1.07326
1.28178
1.52418
1.79875
2.06755
2.19044
2.21954
2.21917
2.19303
2.13224
2.04763
1.94885
1.8641
1.80491
1.74596
1.59056
1.24401
0.720037
0.340003
0.225205
0.186074
0.180088
0.186848
0.220336
0.278422
0.352429
0.424806
0.495593
0.557248
0.617781
0.665871
0.692597
0.699827
0.702263
0.701716
0.700661
0.695664
0.689717
0.679618
0.66935
0.655469
0.642231
0.626004
0.611739
0.596662
0.583051
0.570568
0.558506
0.548923
0.538541
0.531071
0.521897
0.515663
0.507292
0.50161
0.493605
0.488208
0.480415
0.475229
0.467747
0.462902
0.45655
0.452134
0.447005
0.44302
0.438954
0.435474
0.432281
0.42918
0.426506
0.423643
0.421428
0.418652
0.416953
0.414261
0.412896
0.410439
0.409253
0.407343
0.40632
0.404844
0.404034
0.402926
0.402315
0.401571
0.40115
0.400805
0.400606
0.400586
0.400692
0.401162
0.401648
0.402493
0.403417
0.404652
0.40609
0.407572
0.409494
0.411195
0.413574
0.415753
0.418601
0.421429
0.425052
0.428498
0.433077
0.437248
0.442686
0.447733
0.454021
0.459992
0.467061
0.47397
0.481731
0.48931
0.497673
0.505768
0.514509
0.522858
0.531663
0.539957
0.548276
0.555838
0.562964
0.568914
0.573998
0.577474
0.579542
0.580329
0.00588134
0.00587854
0.00587446
0.00587308
0.00587178
0.00587126
0.00587089
0.00587069
0.00587046
0.00587038
0.00587035
0.00587027
0.00587024
0.0058702
0.00587009
0.00587014
0.00587014
0.00587016
0.00587016
0.00587005
0.0058701
0.00587007
0.00587004
0.00587
0.00587003
0.00587002
0.00587
0.00587009
0.00587076
0.00587229
0.00587517
0.00588026
0.00588925
0.00590551
0.00593625
0.00599747
0.00612475
0.00639815
0.00700307
0.00833049
0.0112808
0.0176519
0.0312945
0.0592001
0.114743
0.217404
0.396717
0.669058
0.921965
0.981415
0.971268
0.873123
0.682815
0.445648
0.258397
0.187679
0.174623
0.179552
0.208508
0.260358
0.335062
0.431557
0.555429
0.713327
0.917163
1.16676
1.45179
1.74124
2.02053
2.16354
2.19846
2.19475
2.15354
2.06819
1.95915
1.83997
1.72152
1.65611
1.64789
1.66385
1.68753
1.68406
1.58219
1.27211
0.740827
0.35228
0.236687
0.208346
0.204214
0.214091
0.250148
0.310641
0.383087
0.456862
0.521423
0.580061
0.621687
0.639642
0.644604
0.646014
0.645696
0.644718
0.641689
0.637156
0.629661
0.62004
0.60769
0.594528
0.580853
0.568057
0.555616
0.544269
0.534145
0.524939
0.516627
0.508988
0.501867
0.495229
0.48864
0.482193
0.475666
0.469222
0.462901
0.456781
0.450883
0.445401
0.440167
0.435672
0.431387
0.42792
0.424493
0.421602
0.41875
0.416099
0.41372
0.411405
0.409297
0.407081
0.405188
0.403307
0.401767
0.400042
0.398874
0.397572
0.396674
0.395519
0.39484
0.394053
0.393564
0.393103
0.392911
0.39283
0.392856
0.393262
0.393778
0.394608
0.395594
0.396911
0.398304
0.400069
0.401951
0.404191
0.406465
0.409363
0.412144
0.415524
0.419004
0.422871
0.427133
0.431741
0.436812
0.442308
0.44835
0.454725
0.461841
0.46909
0.477249
0.48535
0.494202
0.503008
0.512389
0.521712
0.531282
0.540711
0.550063
0.559025
0.567347
0.574976
0.581285
0.5866
0.590074
0.592211
0.592967
0.00588154
0.00587735
0.00587325
0.00587162
0.00586991
0.00586926
0.00586864
0.00586855
0.00586906
0.00587094
0.00587271
0.00587311
0.00587317
0.00587312
0.00587304
0.00587304
0.00587289
0.00587285
0.00587286
0.00587286
0.00587286
0.00587279
0.00587281
0.00587278
0.00587267
0.00587272
0.00587307
0.00587376
0.00587505
0.00587675
0.00587919
0.00588259
0.00588809
0.0058972
0.0059133
0.00594267
0.0059991
0.00611179
0.00635133
0.00686532
0.00800655
0.0104979
0.0159645
0.0275078
0.0515112
0.0983968
0.186953
0.337423
0.57311
0.846197
0.967196
0.988017
0.961676
0.864155
0.71482
0.543501
0.411694
0.358573
0.355198
0.376073
0.438414
0.537864
0.691083
0.888058
1.14753
1.41695
1.68904
1.88635
2.03224
2.07436
2.07425
2.03559
1.9583
1.84291
1.71301
1.56709
1.42914
1.28921
1.18591
1.15326
1.15916
1.19389
1.25129
1.26016
1.2483
1.16896
0.959116
0.636131
0.389089
0.314955
0.296191
0.292
0.295906
0.316598
0.360675
0.422462
0.490535
0.554095
0.602161
0.62529
0.6341
0.637299
0.637943
0.637625
0.635279
0.6299
0.621861
0.61158
0.599359
0.586825
0.573194
0.56097
0.548272
0.53816
0.527278
0.519476
0.510139
0.503863
0.495593
0.489881
0.481816
0.475864
0.467657
0.461831
0.454442
0.449281
0.443083
0.438638
0.433706
0.430144
0.426503
0.423471
0.420773
0.417767
0.415641
0.412846
0.411222
0.408476
0.407181
0.4048
0.403705
0.401794
0.400831
0.399356
0.398567
0.397431
0.396794
0.396026
0.395558
0.395279
0.395144
0.395182
0.395505
0.396278
0.396939
0.39826
0.399365
0.401237
0.402668
0.404792
0.406872
0.409188
0.411933
0.414741
0.418124
0.421581
0.425813
0.429805
0.434946
0.439695
0.445653
0.451346
0.458351
0.464993
0.4732
0.480889
0.490321
0.499114
0.509358
0.519093
0.529899
0.540304
0.551362
0.561945
0.572719
0.582852
0.592436
0.60104
0.608201
0.614121
0.617864
0.620194
0.620971
0.00588644
0.00587961
0.00587649
0.00587452
0.00587308
0.0058722
0.00587171
0.00587135
0.00587122
0.00587118
0.00587102
0.00587092
0.00587091
0.00587076
0.00587072
0.00587068
0.0058706
0.00587057
0.00587053
0.00587054
0.00587049
0.00587044
0.00587055
0.00587115
0.00587183
0.0058723
0.00587254
0.00587297
0.00587346
0.00587405
0.00587487
0.00587677
0.00587982
0.00588526
0.00589447
0.00591067
0.00593881
0.00599058
0.00609065
0.00629106
0.00671616
0.00762429
0.00961217
0.0138626
0.0229378
0.0413304
0.077971
0.144937
0.262421
0.442777
0.689246
0.895497
0.993786
1.02797
1.02807
0.999433
0.94979
0.898985
0.89115
0.905194
0.968602
1.07163
1.2305
1.39239
1.57514
1.71801
1.84878
1.8889
1.88643
1.84
1.74351
1.61051
1.46567
1.31182
1.17571
1.03939
0.924278
0.808169
0.718467
0.659004
0.651544
0.656231
0.695437
0.761762
0.878526
0.992152
1.03599
1.04165
1.02208
0.940933
0.798461
0.615463
0.470425
0.423703
0.413756
0.411826
0.419054
0.441678
0.487407
0.544979
0.602295
0.641865
0.658444
0.665097
0.667769
0.667974
0.667375
0.663773
0.65602
0.646935
0.634404
0.622771
0.607392
0.595795
0.580288
0.570694
0.556099
0.547975
0.534777
0.528366
0.516837
0.511362
0.49971
0.493648
0.482685
0.477016
0.468919
0.464145
0.458244
0.453437
0.449504
0.444794
0.442506
0.437714
0.435712
0.431239
0.429377
0.425275
0.423646
0.419961
0.418554
0.415639
0.41406
0.411939
0.410369
0.40879
0.407293
0.406232
0.404993
0.404543
0.40391
0.403842
0.403745
0.404228
0.40478
0.405779
0.40659
0.408222
0.40937
0.411197
0.413153
0.415228
0.417958
0.420592
0.424069
0.427228
0.431659
0.435386
0.440705
0.445252
0.451486
0.456965
0.46448
0.471024
0.479962
0.487797
0.49823
0.507389
0.518857
0.529247
0.541434
0.552637
0.565179
0.576761
0.589044
0.600378
0.611391
0.621282
0.629431
0.636431
0.640362
0.64309
0.643906
0.0058878
0.00587979
0.00587633
0.0058738
0.00587232
0.00587129
0.00587076
0.00587019
0.00586992
0.00586966
0.00586961
0.00586955
0.00586936
0.00586923
0.00586923
0.00586911
0.005869
0.00586896
0.00586895
0.00586889
0.0058688
0.0058688
0.00586879
0.00586869
0.00586867
0.00586871
0.00586885
0.0058695
0.00587069
0.00587267
0.00587511
0.00587841
0.00588247
0.0058879
0.00589536
0.00590667
0.00592436
0.00595307
0.00600139
0.00608609
0.00624648
0.00656233
0.00722338
0.00860993
0.0115858
0.0177369
0.0304503
0.0548288
0.100651
0.177877
0.302637
0.479983
0.703991
0.886475
0.997759
1.06494
1.11285
1.16273
1.20821
1.26929
1.33413
1.41474
1.49908
1.58874
1.66291
1.68321
1.66857
1.61268
1.5032
1.36261
1.18256
0.996039
0.810542
0.637298
0.49987
0.379839
0.30562
0.239369
0.208468
0.186331
0.184792
0.186498
0.204233
0.230242
0.284164
0.356627
0.472742
0.587039
0.706729
0.811065
0.881405
0.912309
0.914056
0.895136
0.849248
0.778035
0.697813
0.652924
0.645853
0.643517
0.650844
0.663061
0.690156
0.717381
0.749355
0.76217
0.768093
0.769775
0.769367
0.769357
0.765545
0.761205
0.748747
0.73921
0.721071
0.711004
0.691935
0.681603
0.660931
0.649752
0.630974
0.623263
0.607517
0.601024
0.586705
0.578762
0.568406
0.562044
0.556808
0.549376
0.547251
0.539729
0.537981
0.529965
0.527265
0.517327
0.513498
0.502208
0.498113
0.486732
0.482872
0.473719
0.468663
0.462127
0.456788
0.452207
0.446958
0.444467
0.439669
0.438168
0.434772
0.433881
0.431766
0.431396
0.430343
0.430397
0.430125
0.43078
0.431337
0.432234
0.434128
0.435203
0.438389
0.439761
0.443905
0.445739
0.450817
0.453167
0.459272
0.462398
0.469678
0.47393
0.482615
0.488213
0.498408
0.505469
0.517355
0.526123
0.53903
0.549604
0.563438
0.575412
0.589691
0.602628
0.616636
0.62995
0.642582
0.65491
0.664219
0.673418
0.677789
0.68125
0.682229
0.0058893
0.00587966
0.00587579
0.00587265
0.00587082
0.00586986
0.00586893
0.00586857
0.00586821
0.00586806
0.00586794
0.00586792
0.00586775
0.00586768
0.00586768
0.00586758
0.00586748
0.00586748
0.00586743
0.00586731
0.00586731
0.00586731
0.00586718
0.00586719
0.00586718
0.00586705
0.00586705
0.005867
0.00586699
0.0058672
0.00586769
0.00586894
0.00587088
0.00587419
0.005879
0.00588679
0.00589809
0.00591577
0.00594336
0.005987
0.00605992
0.00618545
0.00641938
0.00686721
0.00777763
0.00961099
0.0134142
0.0208554
0.0354268
0.0613238
0.106405
0.176008
0.279741
0.415911
0.586719
0.760846
0.894608
1.00827
1.08343
1.1629
1.21784
1.28378
1.30909
1.31405
1.28314
1.21991
1.09365
0.95525
0.778121
0.627795
0.457614
0.345035
0.248712
0.185338
0.138712
0.0988589
0.0773954
0.057762
0.0491491
0.0399443
0.0382028
0.0377019
0.0407777
0.0464071
0.0592541
0.0765265
0.106038
0.1422
0.193564
0.263905
0.356507
0.463975
0.564959
0.67923
0.775437
0.875812
0.957205
1.05882
1.10962
1.11646
1.10608
1.07042
1.03501
1.0219
1.02314
1.02067
1.02212
1.02179
1.02094
1.02264
1.02026
1.02017
1.01204
1.01177
1.00502
1.00547
0.995303
0.992066
0.973316
0.962768
0.93523
0.924848
0.907602
0.903512
0.893928
0.887421
0.886777
0.88494
0.889807
0.889014
0.897708
0.89737
0.905718
0.904179
0.906329
0.896896
0.890298
0.864361
0.852924
0.814551
0.799665
0.76221
0.741292
0.715171
0.688062
0.671349
0.644169
0.633836
0.609265
0.600918
0.580627
0.573981
0.557096
0.551741
0.53758
0.533248
0.521583
0.518252
0.510572
0.505773
0.502244
0.497922
0.496992
0.49392
0.493794
0.49255
0.493137
0.493133
0.496184
0.497112
0.502293
0.504645
0.51191
0.515393
0.5246
0.529246
0.540453
0.547315
0.559539
0.569288
0.582674
0.595178
0.609303
0.624138
0.638215
0.654568
0.667781
0.683876
0.694173
0.706258
0.711837
0.716057
0.717272
0.00590125
0.00588372
0.00587815
0.00587452
0.00587156
0.00587056
0.00586931
0.00586908
0.00586888
0.0058692
0.00586921
0.00586931
0.00586928
0.00586918
0.00586912
0.00586926
0.00586922
0.00586923
0.00586914
0.00586911
0.00586923
0.00586919
0.00586935
0.0058693
0.00586937
0.00586937
0.00586934
0.00586932
0.00586964
0.00587048
0.0058722
0.00587454
0.00587782
0.00588159
0.00588653
0.0058927
0.00590183
0.00591509
0.00593544
0.00596577
0.00601127
0.00608014
0.00618823
0.00636344
0.00666853
0.0072154
0.00826714
0.0102502
0.0141293
0.0211592
0.0339183
0.0546529
0.0876623
0.133706
0.194848
0.270685
0.348998
0.441735
0.516376
0.591344
0.626852
0.638777
0.620601
0.589309
0.519699
0.460625
0.375436
0.314859
0.230988
0.180708
0.121698
0.0933098
0.0626715
0.047634
0.0354391
0.0271713
0.0232272
0.0184922
0.0165398
0.0140213
0.0132156
0.0128415
0.0130734
0.0137162
0.0156326
0.0185462
0.0238832
0.0310204
0.0417714
0.0569473
0.0765665
0.10397
0.136216
0.182002
0.244242
0.338923
0.442119
0.583766
0.736125
0.928095
1.09295
1.2705
1.40856
1.55947
1.68983
1.74401
1.75096
1.73969
1.70954
1.67401
1.63466
1.6099
1.56972
1.55337
1.53709
1.53851
1.53461
1.53755
1.53334
1.53456
1.52105
1.5174
1.50955
1.51469
1.51977
1.52745
1.54771
1.5618
1.59634
1.61421
1.6627
1.68532
1.74493
1.76911
1.81448
1.82809
1.84252
1.83908
1.83836
1.80184
1.77615
1.72211
1.6705
1.62785
1.55407
1.52101
1.45032
1.42378
1.35607
1.3318
1.26866
1.24607
1.1855
1.16375
1.10411
1.08243
1.02324
1.00155
0.949844
0.917753
0.880714
0.841596