/*--------------------------------*- C++ -*----------------------------------*\
| =========                 |                                                 |
| \\      /  F ield         | OpenFOAM: The Open Source CFD Toolbox           |
|  \\    /   O peration     | Version:  4.1                                   |
|   \\  /    A nd           | Web:      www.OpenFOAM.org                      |
|    \\/     M anipulation  |                                                 |
\*---------------------------------------------------------------------------*/
FoamFile
{
    version     2.0;
    format      ascii;
    class       volScalarField;
    location    "7";
    object      p;
}
// * * * * * * * * * * * * * * * * * * * * * * * * * * * * * * * * * * * * * //

dimensions      [0 2 -2 0 0 0 0];

internalField   nonuniform List<scalar> 
204246
(
-12.0884
-22.369
-23.0541
-23.3342
-23.6659
-23.8558
-24.0256
-24.1447
-24.2432
-24.2973
-24.3247
-24.2986
-24.2449
-24.1448
-24.1432
-24.2384
-24.5332
-24.6325
-24.4804
-24.4121
-24.3762
-24.3626
-24.3277
-24.3094
-24.2847
-24.2849
-24.2744
-24.2756
-24.2381
-24.2145
-24.1509
-24.1183
-24.082
-24.1441
-24.3043
-24.6382
-24.8839
-24.9915
-25.136
-25.2418
-25.2565
-25.0443
-24.6323
-24.0636
-23.7012
-24.0075
-26.1068
-30.9788
-39.6415
-48.0685
-53.1613
-57.8991
-62.6463
-65.2459
-67.1759
-68.8452
-69.6028
-70.174
-70.2991
-70.2104
-69.4804
-68.5177
-67.1026
-65.4056
-63.3727
-61.3795
-59.4854
-57.868
-56.476
-55.3618
-54.3458
-53.244
-52.4682
-51.76
-51.4545
-50.9758
-50.9882
-50.9866
-51.0812
-51.2148
-51.5701
-51.7325
-51.8938
-52.0943
-52.5389
-53.2536
-54.2979
-55.159
-55.4898
-56.1078
-56.3106
-56.9598
-57.3308
-58.2569
-58.2837
-59.1239
-59.2715
-59.7012
-60.0697
-60.5404
-60.8519
-61.0815
-61.1793
-61.2894
-61.3947
-62.6261
-63.1446
-63.0756
-63.3849
-63.2484
-63.9369
-63.9049
-64.0939
-64.3146
-64.5562
-64.5355
-65.1834
-65.0146
-65.6433
-65.359
-65.8479
-65.6696
-66.8883
-67.481
-67.3861
-67.8657
-67.6251
-68.3902
-68.541
-68.6944
-68.6386
-69.3676
-69.2062
-69.9152
-69.7114
-70.3979
-70.0968
-70.6429
-70.4467
-71.7764
-72.4504
-72.4298
-72.9977
-72.781
-73.5151
-73.3458
-74.1284
-73.9008
-74.6546
-74.5227
-75.3648
-75.592
-75.6826
-75.3499
-75.8064
-75.2463
-76.539
-76.8988
-76.3647
-76.5625
-75.9866
-75.4903
-74.7959
-74.0495
-72.9926
-71.7736
-70.1417
-68.2671
-65.9261
-63.3221
-60.2971
-57.0781
-52.4675
-47.8335
-42.4426
-36.5708
-29.7474
-21.8214
-13.2188
-3.40928
7.58471
20.2318
34.5897
51.1357
69.8369
90.9611
114.387
140.682
170.796
210.309
270.329
366.013
494.698
-18.0259
-19.6664
-21.3455
-22.5221
-23.2746
-23.6773
-23.9399
-24.0952
-24.2224
-24.2846
-24.3495
-24.333
-24.3154
-24.2278
-24.2064
-24.2561
-24.4303
-24.5084
-24.4836
-24.449
-24.4073
-24.3849
-24.3539
-24.3307
-24.3076
-24.2956
-24.2855
-24.2741
-24.2549
-24.2323
-24.1836
-24.1343
-24.1068
-24.1517
-24.2544
-24.4102
-24.6046
-24.8211
-25.0516
-25.2913
-25.4891
-25.5454
-25.3599
-24.9047
-24.3608
-24.2812
-25.5493
-29.0494
-36.344
-44.8009
-51.531
-56.5219
-60.7755
-63.8385
-66.3997
-68.2122
-69.5307
-70.3229
-70.8865
-70.9734
-70.6241
-69.9579
-68.8228
-67.1787
-65.1859
-63.1256
-61.1472
-59.3141
-57.6465
-56.1819
-54.8979
-53.7872
-52.83
-52.0702
-51.514
-51.1442
-50.9434
-50.8323
-50.7997
-51.0013
-51.2634
-51.4735
-51.6712
-51.8807
-52.2916
-52.8631
-53.5564
-54.2549
-54.8827
-55.4303
-55.9403
-56.4712
-57.0015
-57.5744
-58.098
-58.566
-58.9824
-59.3997
-59.8661
-60.2849
-60.6051
-60.8659
-61.0668
-61.2794
-61.5756
-62.0335
-62.4683
-62.7753
-63.0374
-63.267
-63.5023
-63.7159
-63.9358
-64.1708
-64.3744
-64.5732
-64.833
-65.0577
-65.2828
-65.4269
-65.6245
-65.9003
-66.3504
-66.81
-67.1525
-67.4597
-67.73
-68.0254
-68.2934
-68.5123
-68.7449
-69.0203
-69.2863
-69.583
-69.8502
-70.0953
-70.267
-70.4723
-70.7852
-71.2856
-71.8145
-72.2387
-72.6101
-72.9294
-73.2406
-73.5677
-73.8778
-74.1952
-74.496
-74.876
-75.259
-75.6633
-75.8614
-76.088
-76.1594
-76.4537
-76.6919
-76.9553
-77.0981
-77.13
-77.1145
-76.7543
-76.4925
-75.882
-75.2436
-74.2886
-73.111
-71.6071
-69.8145
-67.716
-65.2292
-62.3575
-58.8722
-54.9242
-50.3353
-45.2204
-39.2348
-32.395
-24.8112
-16.2747
-6.83424
3.84612
15.8282
29.5675
45.1122
62.7359
82.0507
102.825
124.679
149.704
185.617
251.049
347.781
-23.9231
-22.8137
-22.6475
-22.9398
-23.3197
-23.6396
-23.8905
-24.0723
-24.2052
-24.2915
-24.3388
-24.3499
-24.3384
-24.3121
-24.3021
-24.3217
-24.3832
-24.4261
-24.4365
-24.4311
-24.4114
-24.3849
-24.3556
-24.3298
-24.3093
-24.2937
-24.2773
-24.2629
-24.2424
-24.2128
-24.1756
-24.146
-24.1451
-24.1782
-24.2323
-24.3065
-24.416
-24.5816
-24.7884
-25.0397
-25.3174
-25.5799
-25.7454
-25.7623
-25.8009
-26.6888
-29.7178
-33.5008
-39.1708
-46.7459
-52.5396
-57.1479
-61.3014
-64.4426
-66.536
-68.1449
-69.546
-70.5731
-71.1707
-71.3377
-71.1636
-70.6511
-69.6704
-68.139
-66.2027
-64.1086
-62.0726
-60.1201
-58.3195
-56.6919
-55.2641
-54.0408
-53.0095
-52.1947
-51.5763
-51.1503
-50.8779
-50.7113
-50.7138
-50.841
-51.0518
-51.3018
-51.5452
-51.892
-52.3154
-52.8717
-53.389
-53.981
-54.5751
-55.143
-55.6965
-56.2564
-56.8155
-57.3606
-57.8992
-58.3963
-58.8439
-59.29
-59.7259
-60.1401
-60.4912
-60.7853
-61.0527
-61.3322
-61.6413
-61.9579
-62.2672
-62.5734
-62.8577
-63.1204
-63.3424
-63.5631
-63.7886
-64.0244
-64.2384
-64.4786
-64.7083
-64.947
-65.1675
-65.3871
-65.6159
-65.9026
-66.2182
-66.5447
-66.8799
-67.198
-67.5045
-67.7876
-68.0577
-68.3141
-68.5628
-68.8141
-69.082
-69.358
-69.6281
-69.8789
-70.1135
-70.3609
-70.6658
-71.0333
-71.4209
-71.8024
-72.1748
-72.5186
-72.8508
-73.169
-73.4886
-73.7965
-74.1211
-74.4527
-74.8068
-75.1056
-75.3701
-75.564
-75.7566
-75.9481
-76.2344
-76.4264
-76.4787
-76.4561
-76.2816
-76.0326
-75.628
-75.1059
-74.3841
-73.4388
-72.2249
-70.6921
-68.9073
-66.75
-64.2875
-61.3627
-58.0688
-54.2361
-49.8565
-44.7773
-38.9661
-32.4306
-25.003
-16.6756
-7.33401
3.06463
14.7539
27.9246
42.9363
59.8825
78.6989
98.7493
119.709
142.159
170.824
213.968
271.165
-26.335
-25.0119
-24.2377
-23.9301
-23.8648
-23.9398
-24.0467
-24.1615
-24.262
-24.3356
-24.3672
-24.3717
-24.371
-24.3762
-24.3832
-24.3937
-24.4077
-24.4218
-24.4277
-24.4268
-24.4185
-24.4014
-24.379
-24.3543
-24.3367
-24.3189
-24.3013
-24.2822
-24.2489
-24.2081
-24.1719
-24.1557
-24.1558
-24.169
-24.1914
-24.2302
-24.2891
-24.3808
-24.5175
-24.7058
-24.9506
-25.241
-25.5369
-25.8007
-26.1859
-27.6228
-31.5922
-36.5658
-42.8196
-50.0494
-55.1458
-58.8758
-61.6259
-64.2413
-66.4219
-68.2102
-69.5255
-70.6467
-71.4051
-71.9033
-71.901
-71.5059
-70.7198
-69.3387
-67.478
-65.3109
-63.1039
-60.9267
-58.9288
-57.1454
-55.5728
-54.2293
-53.1046
-52.2041
-51.514
-51.0172
-50.6848
-50.5073
-50.4478
-50.5431
-50.7386
-50.9752
-51.2505
-51.5944
-52.0235
-52.5504
-53.0845
-53.6612
-54.2403
-54.8152
-55.3857
-55.9636
-56.544
-57.1058
-57.6541
-58.1676
-58.6578
-59.1191
-59.5686
-59.9743
-60.3485
-60.6683
-60.9756
-61.279
-61.5921
-61.8706
-62.1491
-62.4265
-62.7104
-62.9814
-63.2037
-63.453
-63.6462
-63.9008
-64.0939
-64.3603
-64.584
-64.8274
-65.0452
-65.305
-65.5437
-65.8578
-66.1223
-66.4285
-66.739
-67.0447
-67.3825
-67.6407
-67.9487
-68.1879
-68.4806
-68.71
-69.0082
-69.253
-69.5501
-69.7813
-70.0643
-70.3155
-70.669
-70.9701
-71.3183
-71.6823
-72.0294
-72.4224
-72.7462
-73.1246
-73.4305
-73.806
-74.1116
-74.525
-74.8416
-75.2425
-75.4968
-75.8418
-76.0493
-76.4706
-76.6421
-76.9056
-77.136
-77.256
-77.3035
-77.214
-77.0664
-76.7841
-76.4054
-75.8798
-75.1255
-74.1355
-72.7574
-71.0434
-68.9182
-66.4128
-63.4654
-60.0749
-56.1551
-51.6665
-46.4668
-40.5444
-33.8524
-26.298
-17.8554
-8.4109
2.10369
13.8645
26.9622
41.5058
57.4682
74.8824
93.9316
115.723
142.981
177.717
216.11
-27.81
-26.4988
-25.5434
-24.9157
-24.5469
-24.3828
-24.3257
-24.3327
-24.3604
-24.3811
-24.3921
-24.3907
-24.3918
-24.4015
-24.4094
-24.4156
-24.419
-24.4196
-24.4172
-24.4116
-24.401
-24.3845
-24.3596
-24.3346
-24.3041
-24.2979
-24.2902
-24.2664
-24.2318
-24.1819
-24.1445
-24.1214
-24.1123
-24.1064
-24.1092
-24.1206
-24.1456
-24.1881
-24.2617
-24.3866
-24.5732
-24.8281
-25.1377
-25.5148
-26.1396
-27.8653
-31.6392
-36.8649
-43.5807
-51.0293
-56.5891
-60.4511
-62.8682
-64.7803
-66.6778
-68.3664
-69.8156
-70.9608
-71.8964
-72.5823
-73.0263
-72.9633
-72.2197
-70.9175
-69.0411
-66.7346
-64.3072
-61.9249
-59.7279
-57.7587
-56.0068
-54.4965
-53.2293
-52.2218
-51.4395
-50.8764
-50.5002
-50.294
-50.2372
-50.3077
-50.475
-50.7315
-51.0194
-51.3814
-51.8024
-52.2899
-52.8067
-53.3744
-53.9457
-54.5286
-55.1106
-55.7003
-56.2967
-56.8727
-57.4379
-57.9656
-58.4805
-58.9542
-59.4189
-59.8322
-60.2273
-60.5649
-60.9034
-61.2134
-61.5295
-61.7884
-62.0604
-62.3215
-62.5883
-62.8619
-63.0771
-63.3386
-63.5294
-63.789
-63.9767
-64.2469
-64.4571
-64.7152
-64.9296
-65.1993
-65.4385
-65.744
-66.0041
-66.3069
-66.607
-66.8977
-67.234
-67.4949
-67.8096
-68.0533
-68.3549
-68.5874
-68.889
-69.1265
-69.4278
-69.6575
-69.9532
-70.1954
-70.538
-70.8256
-71.1682
-71.507
-71.8475
-72.2263
-72.5501
-72.921
-73.2445
-73.6012
-73.938
-74.3031
-74.6518
-74.9985
-75.314
-75.5992
-75.8685
-76.1133
-76.3994
-76.6426
-76.802
-76.8957
-76.8945
-76.7937
-76.5614
-76.1687
-75.6339
-74.9231
-74.1136
-73.1016
-71.9151
-70.4348
-68.6551
-66.4949
-63.9389
-60.9204
-57.412
-53.3439
-48.6551
-43.3297
-37.2511
-30.3451
-22.5224
-13.719
-3.88942
6.95293
18.7511
31.3903
44.8435
59.2118
75.0956
93.8484
117.21
145.219
173.177
-28.8879
-27.6134
-26.5902
-25.8204
-25.2775
-24.936
-24.7314
-24.6314
-24.579
-24.5558
-24.5293
-24.509
-24.4895
-24.4785
-24.4719
-24.4678
-24.4664
-24.4605
-24.4526
-24.4449
-24.4342
-24.4182
-24.4008
-24.3749
-24.3559
-24.3358
-24.3141
-24.294
-24.2604
-24.2227
-24.188
-24.1598
-24.1331
-24.1142
-24.0948
-24.077
-24.0675
-24.0642
-24.0807
-24.1362
-24.244
-24.4158
-24.699
-25.1615
-25.9107
-27.6769
-31.5513
-36.6114
-43.3886
-50.9079
-57.3521
-61.365
-63.799
-65.4712
-67.0018
-68.4793
-69.7865
-70.978
-72.0036
-72.855
-73.4712
-73.7058
-73.3594
-72.3359
-70.6013
-68.3478
-65.7644
-63.1105
-60.5801
-58.3109
-56.3862
-54.7271
-53.3169
-52.1709
-51.2675
-50.6206
-50.1896
-49.9471
-49.8542
-49.9438
-50.1387
-50.3444
-50.6815
-51.0705
-51.5055
-52.0146
-52.5404
-53.1129
-53.6919
-54.2763
-54.8626
-55.4588
-56.0646
-56.6504
-57.2282
-57.77
-58.3022
-58.7906
-59.2686
-59.6962
-60.1129
-60.4676
-60.8275
-61.141
-61.4605
-61.7176
-61.9858
-62.2441
-62.4949
-62.7542
-62.9738
-63.2293
-63.4273
-63.6803
-63.8729
-64.1353
-64.348
-64.6088
-64.8288
-65.099
-65.3388
-65.6323
-65.8911
-66.1915
-66.4836
-66.7668
-67.0922
-67.3588
-67.6717
-67.9233
-68.2236
-68.4642
-68.7609
-69.0007
-69.2971
-69.5326
-69.8285
-70.0723
-70.3998
-70.6754
-71.0079
-71.3351
-71.6722
-72.0435
-72.3772
-72.7541
-73.0885
-73.4699
-73.8124
-74.209
-74.5608
-74.9589
-75.2893
-75.6874
-76.0079
-76.4356
-76.6646
-76.969
-77.3274
-77.5661
-77.8261
-77.9155
-77.9997
-78.0405
-77.9585
-77.7569
-77.26
-76.5215
-75.4956
-74.1929
-72.5696
-70.6179
-68.2893
-65.5643
-62.3893
-58.7333
-54.5047
-49.6875
-44.1966
-37.9197
-30.7742
-22.6688
-13.5924
-3.56639
7.28871
18.8458
31.0491
43.9612
58.0658
74.5478
94.2111
116.91
138.435
-29.6528
-28.4102
-27.3716
-26.5401
-25.9027
-25.4396
-25.1187
-24.911
-24.7768
-24.6869
-24.6191
-24.5676
-24.5349
-24.5174
-24.501
-24.4888
-24.4763
-24.4658
-24.452
-24.4387
-24.4235
-24.4063
-24.3803
-24.3569
-24.3175
-24.307
-24.2977
-24.2712
-24.238
-24.2005
-24.1702
-24.1408
-24.1138
-24.0873
-24.0677
-24.0462
-24.017
-23.9868
-23.9637
-23.9627
-23.9978
-24.0922
-24.2989
-24.716
-25.4431
-26.9544
-30.6049
-35.6689
-42.3381
-49.8667
-56.693
-61.1518
-63.6343
-65.6815
-66.9624
-68.3104
-69.6469
-70.9395
-72.1393
-73.2094
-74.0609
-74.5827
-74.5639
-73.8765
-72.2858
-70.0513
-67.3846
-64.5576
-61.8095
-59.3065
-57.13
-55.2896
-53.7481
-52.4707
-51.4615
-50.6942
-50.1796
-49.8716
-49.7507
-49.7588
-49.8682
-50.1725
-50.4488
-50.8372
-51.2712
-51.7682
-52.2872
-52.8484
-53.428
-54.0189
-54.6122
-55.2133
-55.8281
-56.4269
-57.0141
-57.5666
-58.1133
-58.6175
-59.1086
-59.5523
-59.9838
-60.3606
-60.7297
-61.0559
-61.3766
-61.6444
-61.9173
-62.1725
-62.4169
-62.6707
-62.8881
-63.1419
-63.3396
-63.5859
-63.7813
-64.0332
-64.2505
-64.507
-64.736
-65.0025
-65.2477
-65.5314
-65.7891
-66.0778
-66.3678
-66.6563
-66.9695
-67.2451
-67.5488
-67.8128
-68.1031
-68.3571
-68.6395
-68.8892
-69.1681
-69.4141
-69.693
-69.9503
-70.2489
-70.5214
-70.8343
-71.1504
-71.4809
-71.8218
-72.1593
-72.5114
-72.8586
-73.2172
-73.5738
-73.9403
-74.302
-74.6617
-75.011
-75.3526
-75.6936
-76.0214
-76.3558
-76.6436
-76.8691
-77.0595
-77.1764
-77.2118
-77.1364
-76.957
-76.7247
-76.4091
-76.0776
-75.6103
-74.9831
-74.1101
-72.9586
-71.4734
-69.6274
-67.3803
-64.7066
-61.5708
-57.9202
-53.7476
-48.959
-43.4666
-37.184
-30.0417
-22.0252
-13.1583
-3.52004
6.79985
17.7463
29.3968
42.1358
56.751
73.5771
92.3542
109.583
-30.1863
-28.9884
-27.9701
-27.1277
-26.4507
-25.9258
-25.5304
-25.2517
-25.053
-24.9141
-24.8122
-24.7373
-24.6733
-24.6269
-24.5921
-24.5669
-24.5427
-24.5236
-24.5066
-24.4907
-24.4738
-24.4544
-24.4386
-24.4141
-24.4019
-24.3644
-24.332
-24.308
-24.2749
-24.2422
-24.2069
-24.1725
-24.1353
-24.1028
-24.0686
-24.0345
-23.9951
-23.9481
-23.9062
-23.878
-23.8688
-23.8933
-24.0028
-24.301
-24.9439
-26.1773
-28.7133
-33.89
-40.078
-47.5082
-54.6649
-60.2773
-63.656
-65.609
-67.0736
-68.3731
-69.6969
-71.0197
-72.2989
-73.4877
-74.5234
-75.2781
-75.6228
-75.4069
-74.0594
-71.9853
-69.2914
-66.2661
-63.2828
-60.5369
-58.0661
-56.0011
-54.2704
-52.8084
-51.6154
-50.7049
-50.1071
-49.6934
-49.524
-49.5197
-49.6278
-49.7664
-50.1146
-50.4973
-50.9171
-51.4395
-51.9861
-52.5648
-53.1594
-53.7693
-54.375
-54.983
-55.6037
-56.2081
-56.8003
-57.3582
-57.9112
-58.426
-58.9299
-59.3882
-59.8272
-60.2235
-60.6016
-60.9409
-61.265
-61.5463
-61.829
-62.088
-62.3304
-62.5767
-62.7917
-63.0395
-63.2383
-63.4756
-63.6741
-63.9134
-64.1297
-64.3791
-64.6104
-64.8731
-65.1199
-65.3961
-65.652
-65.9365
-66.2249
-66.5187
-66.8161
-67.1053
-67.3992
-67.6773
-67.9604
-68.2271
-68.5035
-68.762
-69.0347
-69.29
-69.5626
-69.8287
-70.1096
-70.3875
-70.6867
-71.0024
-71.3297
-71.6719
-72.0162
-72.3777
-72.7345
-73.1122
-73.4836
-73.8765
-74.2588
-74.6607
-75.0492
-75.4582
-75.8436
-76.2385
-76.5956
-76.9781
-77.3728
-77.7466
-78.1043
-78.4112
-78.6773
-78.8682
-78.9418
-78.8899
-78.6436
-78.2306
-77.6218
-76.816
-75.7672
-74.4524
-72.8186
-70.8376
-68.4649
-65.6746
-62.4054
-58.6469
-54.3203
-49.3562
-43.705
-37.3254
-30.2084
-22.3602
-13.8308
-4.6701
5.11444
15.619
27.1538
40.181
54.8288
70.7581
85.0132
-30.4493
-29.3008
-28.3262
-27.5045
-26.8296
-26.2785
-25.8415
-25.5064
-25.2585
-25.0718
-24.9259
-24.8128
-24.7355
-24.6774
-24.6302
-24.5944
-24.5604
-24.531
-24.5035
-24.4828
-24.4627
-24.4427
-24.4157
-24.3938
-24.3564
-24.3422
-24.3254
-24.2946
-24.264
-24.231
-24.2027
-24.1708
-24.1398
-24.1056
-24.0749
-24.0399
-23.9948
-23.945
-23.8957
-23.8519
-23.8174
-23.8108
-23.8662
-24.0686
-24.5672
-25.5521
-27.3226
-31.5242
-37.2228
-44.1746
-51.3381
-57.6588
-62.2043
-64.9789
-66.947
-67.9408
-69.2528
-70.6175
-71.9962
-73.3008
-74.458
-75.3808
-75.8524
-75.5651
-74.9428
-73.2233
-70.7448
-67.798
-64.7434
-61.7596
-59.1193
-56.9658
-55.0294
-53.342
-52.0136
-50.9802
-50.224
-49.7661
-49.6061
-49.5093
-49.5578
-49.7339
-50.0186
-50.4071
-50.8118
-51.2783
-51.8156
-52.384
-52.9613
-53.5483
-54.1481
-54.7517
-55.368
-55.9749
-56.5711
-57.1352
-57.6903
-58.2158
-58.7272
-59.1984
-59.648
-60.0621
-60.4496
-60.8033
-61.1337
-61.4287
-61.7131
-61.9774
-62.2258
-62.4719
-62.6994
-62.9351
-63.1373
-63.3679
-63.5671
-63.7985
-64.0152
-64.2506
-64.486
-64.7379
-64.9887
-65.2524
-65.5129
-65.7904
-66.0765
-66.3688
-66.6623
-66.9562
-67.246
-67.5262
-67.8054
-68.0734
-68.3432
-68.602
-68.8639
-69.1185
-69.3783
-69.6377
-69.9037
-70.1789
-70.469
-70.7669
-71.0792
-71.3999
-71.7329
-72.073
-72.4236
-72.7812
-73.1488
-73.5204
-73.8993
-74.2774
-74.6612
-75.0413
-75.4277
-75.8102
-76.2027
-76.5764
-76.9066
-77.2028
-77.4486
-77.675
-77.8406
-77.9674
-78.0447
-78.0684
-78.108
-78.0582
-77.8903
-77.5336
-76.9585
-76.1175
-74.9744
-73.4883
-71.6233
-69.3418
-66.5846
-63.3355
-59.5401
-55.1481
-50.1327
-44.472
-38.1723
-31.2429
-23.7105
-15.5862
-6.8526
2.60953
13.0354
24.6985
37.6341
51.4521
63.5993
-30.4742
-29.4256
-28.5327
-27.7738
-27.1277
-26.5879
-26.1412
-25.7841
-25.5082
-25.2938
-25.1301
-25.0015
-24.8948
-24.8082
-24.7408
-24.6889
-24.6457
-24.6111
-24.5794
-24.5488
-24.5247
-24.5006
-24.4822
-24.4566
-24.4416
-24.4026
-24.3645
-24.3355
-24.3018
-24.2712
-24.2368
-24.2023
-24.1634
-24.1288
-24.0926
-24.055
-24.0119
-23.9643
-23.9191
-23.8763
-23.8399
-23.824
-23.8604
-24.0059
-24.3802
-25.1428
-26.5156
-29.6371
-34.3777
-40.3196
-47.291
-53.9596
-59.6079
-63.6705
-65.9533
-67.9034
-69.3287
-70.4938
-71.8429
-73.179
-74.401
-75.4
-75.9986
-75.9802
-75.3082
-73.8858
-71.7022
-68.9592
-65.9713
-62.9948
-60.3128
-57.955
-55.9099
-54.2233
-52.7819
-51.4979
-50.5723
-50.0191
-49.6914
-49.5586
-49.5962
-49.7096
-49.8787
-50.176
-50.5659
-51.0508
-51.5762
-52.131
-52.7062
-53.2924
-53.9053
-54.5128
-55.1324
-55.7504
-56.3486
-56.9135
-57.4637
-57.9929
-58.5082
-58.99
-59.4549
-59.8802
-60.2794
-60.643
-60.9776
-61.2821
-61.5712
-61.8464
-62.1037
-62.3565
-62.5918
-62.8212
-63.0358
-63.257
-63.4658
-63.6864
-63.9009
-64.1276
-64.3608
-64.6071
-64.8574
-65.1171
-65.3764
-65.651
-65.934
-66.2241
-66.5202
-66.8179
-67.115
-67.3996
-67.6863
-67.9575
-68.2325
-68.4937
-68.7602
-69.0147
-69.2775
-69.5332
-69.8009
-70.0636
-70.3455
-70.6432
-70.9542
-71.2803
-71.6157
-71.9675
-72.3221
-72.6963
-73.0718
-73.4668
-73.86
-74.271
-74.6769
-75.0999
-75.5165
-75.9492
-76.367
-76.7988
-77.2314
-77.6578
-78.0847
-78.484
-78.8534
-79.1548
-79.3761
-79.5025
-79.5122
-79.4259
-79.2379
-78.9435
-78.514
-77.9089
-77.0829
-75.986
-74.565
-72.7618
-70.5111
-67.7881
-64.5453
-60.7444
-56.3714
-51.4163
-45.892
-39.8097
-33.1831
-25.9995
-18.218
-9.7151
-0.307199
10.1764
21.7346
33.9403
44.5465
-30.2226
-29.3194
-28.5252
-27.8294
-27.2325
-26.7148
-26.2857
-25.9235
-25.6334
-25.3981
-25.2149
-25.064
-24.9486
-24.8578
-24.7829
-24.7202
-24.6644
-24.6194
-24.5832
-24.551
-24.5188
-24.4912
-24.4617
-24.4417
-24.4134
-24.3885
-24.3646
-24.3292
-24.2973
-24.2645
-24.2368
-24.2058
-24.1763
-24.143
-24.1122
-24.0781
-24.0375
-23.9965
-23.9575
-23.9205
-23.8874
-23.8773
-23.9111
-24.0348
-24.337
-24.9532
-26.0718
-28.2234
-31.8089
-36.8602
-42.8599
-49.2501
-55.3156
-60.4148
-64.074
-66.665
-68.5811
-70.2332
-71.6352
-72.881
-74.0114
-74.9665
-75.5837
-75.5004
-75.1181
-73.9442
-72.0518
-69.5952
-66.833
-63.9884
-61.2939
-58.8674
-56.7843
-55.0287
-53.4758
-52.2059
-51.1986
-50.4521
-49.9415
-49.6787
-49.5454
-49.682
-49.876
-50.0842
-50.4533
-50.9363
-51.4594
-52.0352
-52.5982
-53.1545
-53.7313
-54.3239
-54.9139
-55.5105
-56.1128
-56.6859
-57.2358
-57.7634
-58.2782
-58.7627
-59.2333
-59.6683
-60.081
-60.4579
-60.8052
-61.1208
-61.4211
-61.7023
-61.9656
-62.2233
-62.4664
-62.6984
-62.9201
-63.1386
-63.3498
-63.5656
-63.7771
-63.9964
-64.2227
-64.4612
-64.7066
-64.9606
-65.2196
-65.4925
-65.7716
-66.059
-66.354
-66.6517
-66.9467
-67.2347
-67.5194
-67.7933
-68.0634
-68.3246
-68.582
-68.8334
-69.0812
-69.3288
-69.58
-69.8404
-70.1124
-70.3919
-70.6868
-70.9938
-71.3154
-71.6483
-71.9939
-72.3513
-72.7207
-73.1002
-73.4899
-73.8867
-74.292
-74.7023
-75.1217
-75.5464
-75.9797
-76.4118
-76.8322
-77.251
-77.6576
-78.0525
-78.4269
-78.8058
-79.1738
-79.5193
-79.8172
-80.0236
-80.1178
-80.0845
-79.9092
-79.5796
-79.0632
-78.3216
-77.3028
-75.949
-74.1896
-71.9896
-69.301
-66.0933
-62.3592
-58.096
-53.3176
-48.0346
-42.2516
-35.945
-29.0519
-21.4456
-12.9732
-3.51533
6.90826
17.8534
27.2927
-29.7835
-29.031
-28.361
-27.7664
-27.2531
-26.8051
-26.4161
-26.0852
-25.8024
-25.5744
-25.3797
-25.2233
-25.087
-24.9789
-24.8908
-24.816
-24.7531
-24.7026
-24.6626
-24.6234
-24.5862
-24.5534
-24.5287
-24.5014
-24.4904
-24.4456
-24.4048
-24.3725
-24.3366
-24.3064
-24.2737
-24.2421
-24.2051
-24.1725
-24.1381
-24.1014
-24.0648
-24.0319
-24.004
-23.9776
-23.9587
-23.9589
-24.0008
-24.116
-24.368
-24.8646
-25.7635
-27.3587
-29.952
-33.7813
-38.7524
-44.4293
-50.249
-55.6585
-60.2165
-63.8266
-66.5959
-68.754
-70.4928
-71.9356
-73.1319
-74.0876
-74.8142
-75.4336
-74.5932
-73.4876
-71.8595
-69.7409
-67.3058
-64.7346
-62.2063
-59.8435
-57.7224
-55.8855
-54.3032
-53.0429
-51.9495
-51.106
-50.5107
-50.1563
-49.9406
-49.8988
-49.9943
-50.1739
-50.5076
-50.9586
-51.3632
-51.825
-52.3534
-52.9343
-53.5364
-54.1095
-54.6891
-55.2744
-55.868
-56.4385
-56.9867
-57.522
-58.0397
-58.534
-59.0146
-59.4594
-59.8827
-60.2663
-60.6251
-60.9509
-61.2607
-61.5483
-61.8233
-62.0888
-62.3404
-62.5795
-62.808
-63.0313
-63.2437
-63.4579
-63.6668
-63.8817
-64.1019
-64.3349
-64.5744
-64.8247
-65.08
-65.3507
-65.6289
-65.9151
-66.211
-66.5112
-66.8129
-67.1074
-67.4016
-67.6798
-67.9564
-68.2201
-68.4826
-68.7342
-68.9855
-69.2277
-69.4764
-69.724
-69.9881
-70.2645
-70.5541
-70.8607
-71.18
-71.5163
-71.8608
-72.2251
-72.5961
-72.9862
-73.381
-73.7932
-74.2085
-74.6405
-75.0749
-75.5254
-75.976
-76.4439
-76.9159
-77.3825
-77.8408
-78.2825
-78.7138
-79.127
-79.5245
-79.9011
-80.2555
-80.5731
-80.8362
-81.0157
-81.0903
-81.0385
-80.8347
-80.4429
-79.8154
-78.8953
-77.6143
-75.9284
-73.789
-71.1671
-68.0594
-64.467
-60.4058
-55.885
-50.905
-45.4347
-39.3991
-32.6559
-25.0588
-16.5096
-7.04119
2.896
11.4365
-29.1017
-28.5172
-27.9903
-27.5081
-27.0794
-26.7069
-26.3654
-26.0638
-25.8134
-25.5897
-25.4091
-25.2506
-25.123
-25.0137
-24.9221
-24.8438
-24.774
-24.7143
-24.6665
-24.6258
-24.5854
-24.5483
-24.512
-24.4841
-24.4478
-24.431
-24.4051
-24.3676
-24.3337
-24.2989
-24.2705
-24.2401
-24.2135
-24.1844
-24.1573
-24.1303
-24.1026
-24.0766
-24.0532
-24.0362
-24.0268
-24.0403
-24.0909
-24.2051
-24.4301
-24.8452
-25.5691
-26.7972
-28.7437
-31.596
-35.4144
-40.1113
-45.325
-50.5784
-55.388
-59.529
-62.9709
-65.768
-68.0079
-69.8024
-71.2196
-72.2811
-72.9562
-73.1409
-73.1619
-72.4352
-71.1693
-69.4399
-67.386
-65.155
-62.8837
-60.696
-58.6683
-56.852
-55.2517
-53.9008
-52.7606
-51.8321
-51.1237
-50.638
-50.3386
-50.1896
-50.2116
-50.3351
-50.5373
-50.8594
-51.3266
-51.9087
-52.4103
-52.8289
-53.3256
-53.8669
-54.4519
-55.0504
-55.6471
-56.2127
-56.7606
-57.295
-57.8184
-58.3023
-58.7735
-59.2234
-59.6542
-60.0539
-60.4311
-60.7672
-61.0865
-61.386
-61.6708
-61.9416
-62.2009
-62.4458
-62.6801
-62.9069
-63.1232
-63.3383
-63.5469
-63.7571
-63.9714
-64.1956
-64.4276
-64.6708
-64.9219
-65.1885
-65.4633
-65.7475
-66.0404
-66.3403
-66.6419
-66.9404
-67.2365
-67.5195
-67.7961
-68.0609
-68.319
-68.5682
-68.81
-69.0446
-69.2775
-69.5184
-69.7731
-70.0347
-70.3099
-70.6009
-70.9087
-71.2306
-71.5665
-71.9196
-72.2862
-72.6686
-73.0629
-73.47
-73.8869
-74.3154
-74.7541
-75.2059
-75.6716
-76.1558
-76.6478
-77.1484
-77.6508
-78.1567
-78.662
-79.1603
-79.6463
-80.1202
-80.5782
-81.0125
-81.4144
-81.7697
-82.0602
-82.2632
-82.3551
-82.3015
-82.0572
-81.5653
-80.7581
-79.5825
-77.9883
-75.9438
-73.4453
-70.4974
-67.1203
-63.3273
-59.1191
-54.4622
-49.2716
-43.3884
-36.6422
-28.9297
-20.2903
-11.1746
-3.33072
-28.2391
-27.8302
-27.4663
-27.1217
-26.8118
-26.5442
-26.2914
-26.059
-25.8455
-25.6554
-25.4879
-25.3416
-25.212
-25.1035
-25.0081
-24.9247
-24.8521
-24.7884
-24.734
-24.6871
-24.6457
-24.6082
-24.5769
-24.5437
-24.5176
-24.4799
-24.4422
-24.4123
-24.3734
-24.3433
-24.3119
-24.2832
-24.2499
-24.219
-24.1884
-24.1592
-24.1309
-24.1084
-24.095
-24.0871
-24.0929
-24.1191
-24.1795
-24.2961
-24.5047
-24.8657
-25.4643
-26.4296
-27.9218
-30.1047
-33.0617
-36.7854
-41.1142
-45.8088
-50.4713
-54.8132
-58.6366
-61.8884
-64.595
-66.8039
-68.5595
-69.8988
-70.8231
-71.3023
-71.4167
-71.0266
-70.139
-68.8203
-67.1727
-65.3063
-63.3302
-61.3685
-59.4978
-57.7747
-56.2238
-54.8685
-53.7028
-52.7323
-51.949
-51.3561
-50.927
-50.6535
-50.5476
-50.5772
-50.7201
-50.9715
-51.3106
-51.736
-52.2189
-52.7431
-53.3015
-53.8432
-54.3576
-54.8523
-55.3711
-55.9067
-56.4464
-56.9925
-57.5235
-58.0401
-58.5431
-59.0016
-59.4397
-59.8428
-60.2182
-60.5661
-60.9004
-61.2086
-61.5086
-61.7904
-62.0582
-62.3152
-62.558
-62.7928
-63.0141
-63.2322
-63.4395
-63.6465
-63.8548
-64.072
-64.297
-64.5351
-64.7801
-65.0422
-65.3145
-65.5969
-65.8883
-66.1884
-66.4942
-66.7974
-67.1028
-67.3931
-67.6778
-67.9459
-68.2074
-68.4567
-68.7017
-68.9318
-69.1594
-69.3848
-69.6273
-69.8814
-70.147
-70.4293
-70.7286
-71.0456
-71.3734
-71.7227
-72.0837
-72.465
-72.8563
-73.2654
-73.6821
-74.1145
-74.5539
-75.0092
-75.4739
-75.9601
-76.4586
-76.9682
-77.4884
-78.0207
-78.5653
-79.1156
-79.669
-80.2215
-80.7712
-81.3127
-81.8408
-82.3467
-82.8205
-83.246
-83.603
-83.8622
-83.983
-83.9089
-83.5728
-82.9099
-81.863
-80.3922
-78.4887
-76.1582
-73.4273
-70.3222
-66.8538
-62.9944
-58.6531
-53.6466
-47.7654
-40.8696
-32.9897
-24.5638
-17.2486
-27.1753
-26.9521
-26.7682
-26.5755
-26.3937
-26.234
-26.0588
-25.8978
-25.7332
-25.5789
-25.4474
-25.3184
-25.2085
-25.1083
-25.0181
-24.9373
-24.8655
-24.8002
-24.7443
-24.6964
-24.6508
-24.6081
-24.5678
-24.5357
-24.5017
-24.4785
-24.4465
-24.4126
-24.3711
-24.3369
-24.3057
-24.2735
-24.2465
-24.2208
-24.1945
-24.1655
-24.1458
-24.1385
-24.134
-24.137
-24.1496
-24.1826
-24.2489
-24.3659
-24.563
-24.8877
-25.4008
-26.1896
-27.3652
-29.0627
-31.3799
-34.3501
-37.9011
-41.9085
-46.109
-50.2745
-54.1848
-57.6931
-60.736
-63.3048
-65.4065
-67.0627
-68.2819
-69.0685
-69.4752
-69.3992
-68.8697
-67.9439
-66.6913
-65.1962
-63.5465
-61.8513
-60.1791
-58.5895
-57.1167
-55.7898
-54.6185
-53.6154
-52.773
-52.1016
-51.5766
-51.2181
-51.0066
-50.9206
-50.9575
-51.1145
-51.3747
-51.7238
-52.1393
-52.5968
-53.0799
-53.5909
-54.1294
-54.6835
-55.2522
-55.7995
-56.3109
-56.7831
-57.2535
-57.7375
-58.2494
-58.7204
-59.1679
-59.6009
-60.0089
-60.3665
-60.7124
-61.0322
-61.3344
-61.6252
-61.9013
-62.1695
-62.4213
-62.6655
-62.8929
-63.1174
-63.3266
-63.534
-63.7385
-63.9487
-64.1653
-64.396
-64.6336
-64.8895
-65.156
-65.4345
-65.7231
-66.0206
-66.3258
-66.6311
-66.9407
-67.2378
-67.5296
-67.8029
-68.0667
-68.3142
-68.556
-68.7817
-69.0001
-69.2159
-69.4484
-69.6904
-69.9434
-70.2121
-70.5019
-70.8091
-71.1293
-71.4702
-71.8261
-72.203
-72.5932
-73.0028
-73.4233
-73.8605
-74.3065
-74.7681
-75.2383
-75.7299
-76.2353
-76.7559
-77.2918
-77.8448
-78.4162
-79.0026
-79.6051
-80.2188
-80.8432
-81.4731
-82.1071
-82.7396
-83.3671
-83.9816
-84.569
-85.1059
-85.5597
-85.8793
-86.0022
-85.8516
-85.3579
-84.4655
-83.1531
-81.4216
-79.3014
-76.8344
-74.0577
-70.9646
-67.4761
-63.3884
-58.4277
-52.3842
-45.261
-37.4562
-30.5468
-25.9535
-25.9168
-25.9288
-25.9127
-25.8823
-25.8434
-25.7784
-25.7115
-25.6434
-25.5414
-25.441
-25.3417
-25.245
-25.1536
-25.07
-24.9924
-24.9226
-24.8585
-24.8007
-24.7485
-24.7012
-24.6604
-24.6249
-24.5892
-24.5603
-24.5284
-24.5066
-24.4669
-24.4342
-24.3866
-24.3492
-24.3217
-24.2927
-24.2609
-24.2288
-24.2031
-24.1808
-24.1659
-24.1653
-24.1699
-24.1892
-24.2304
-24.3021
-24.419
-24.6059
-24.9005
-25.3496
-26.0152
-26.9756
-28.3317
-30.1719
-32.5552
-35.4671
-38.8516
-42.5342
-46.3456
-50.1048
-53.6505
-56.8679
-59.6961
-62.0953
-64.0632
-65.5887
-66.6861
-67.3711
-67.6401
-67.452
-66.8932
-66.0167
-64.8821
-63.5582
-62.134
-60.675
-59.2397
-57.8754
-56.6171
-55.4775
-54.4744
-53.6053
-52.8832
-52.2954
-51.85
-51.5192
-51.3309
-51.2622
-51.3076
-51.4602
-51.7121
-52.0514
-52.4539
-52.9019
-53.3799
-53.8755
-54.3837
-54.8946
-55.4236
-55.9621
-56.488
-57.0164
-57.5339
-58.0347
-58.4765
-58.9088
-59.3262
-59.7376
-60.1
-60.4645
-60.8042
-61.1284
-61.4398
-61.7311
-62.0087
-62.2718
-62.5331
-62.7705
-63.006
-63.2193
-63.4301
-63.6324
-63.8383
-64.0465
-64.2696
-64.4983
-64.7471
-65.0091
-65.2825
-65.5665
-65.8577
-66.1616
-66.4633
-66.7794
-67.0856
-67.3898
-67.6664
-67.9383
-68.186
-68.4347
-68.6574
-68.8701
-69.0712
-69.29
-69.5214
-69.7618
-70.0166
-70.2947
-70.5906
-70.899
-71.2303
-71.5766
-71.9469
-72.3303
-72.736
-73.1532
-73.5905
-74.0365
-74.5004
-74.9725
-75.4683
-75.9794
-76.5077
-77.0549
-77.6221
-78.2119
-78.8217
-79.4581
-80.1154
-80.7965
-81.4944
-82.2114
-82.945
-83.6986
-84.4708
-85.254
-86.0287
-86.7712
-87.4426
-87.9929
-88.3389
-88.4006
-88.0985
-87.3888
-86.2592
-84.7317
-82.8544
-80.6946
-78.2926
-75.6198
-72.4908
-68.5615
-63.4871
-57.2191
-50.0526
-43.5268
-24.528
-24.7292
-24.9377
-25.1143
-25.2444
-25.3411
-25.3945
-25.4172
-25.4076
-25.377
-25.3323
-25.267
-25.2008
-25.126
-25.0549
-24.9841
-24.9205
-24.8588
-24.802
-24.7542
-24.708
-24.663
-24.622
-24.586
-24.5503
-24.5217
-24.4914
-24.468
-24.432
-24.3968
-24.3546
-24.3159
-24.2803
-24.2485
-24.2256
-24.1975
-24.1731
-24.1645
-24.1663
-24.1829
-24.2143
-24.2642
-24.3391
-24.4535
-24.6283
-24.8967
-25.2945
-25.871
-26.6826
-27.8063
-29.3123
-31.2594
-33.6627
-36.52
-39.7205
-43.1409
-46.6448
-50.0824
-53.3286
-56.2928
-58.9039
-61.1264
-62.9348
-64.3299
-65.3437
-65.9791
-66.1047
-65.866
-65.3039
-64.4719
-63.4266
-62.2467
-60.9953
-59.7248
-58.4829
-57.3024
-56.2055
-55.2177
-54.343
-53.5943
-52.9632
-52.4539
-52.0469
-51.7907
-51.6338
-51.581
-51.6281
-51.7778
-52.0183
-52.3353
-52.7134
-53.1393
-53.6062
-54.0987
-54.6074
-55.1244
-55.6437
-56.1522
-56.6565
-57.1561
-57.6675
-58.156
-58.6304
-59.0732
-59.5123
-59.907
-60.283
-60.6156
-60.9357
-61.2439
-61.5433
-61.8263
-62.1018
-62.3771
-62.6238
-62.8692
-63.0955
-63.3172
-63.5249
-63.7345
-63.9371
-64.1543
-64.3729
-64.6133
-64.8648
-65.1278
-65.4043
-65.6875
-65.9921
-66.2848
-66.6073
-66.9138
-67.2268
-67.5149
-67.8024
-68.0524
-68.3057
-68.5271
-68.7494
-68.9486
-69.1612
-69.3787
-69.6059
-69.847
-70.1092
-70.3931
-70.6881
-71.0092
-71.343
-71.704
-72.0777
-72.4765
-72.8865
-73.3193
-73.7605
-74.2228
-74.6922
-75.1882
-75.7002
-76.2318
-76.7853
-77.3607
-77.9612
-78.5827
-79.2414
-79.9253
-80.6462
-81.3916
-82.1733
-82.9852
-83.8408
-84.7345
-85.67
-86.6307
-87.6035
-88.5648
-89.4846
-90.2839
-90.8881
-91.1953
-91.1265
-90.6317
-89.7098
-88.3903
-86.7586
-84.9221
-82.9488
-80.7574
-78.0022
-74.15
-68.9867
-62.6417
-56.5313
-22.9424
-23.4078
-23.835
-24.2121
-24.5286
-24.775
-24.9636
-25.0981
-25.1858
-25.2366
-25.2452