/*--------------------------------*- C++ -*----------------------------------*\
| =========                 |                                                 |
| \\      /  F ield         | OpenFOAM: The Open Source CFD Toolbox           |
|  \\    /   O peration     | Version:  4.1                                   |
|   \\  /    A nd           | Web:      www.OpenFOAM.org                      |
|    \\/     M anipulation  |                                                 |
\*---------------------------------------------------------------------------*/
FoamFile
{
    version     2.0;
    format      ascii;
    class       volScalarField;
    location    "22";
    object      p;
}
// * * * * * * * * * * * * * * * * * * * * * * * * * * * * * * * * * * * * * //

dimensions      [0 2 -2 0 0 0 0];

internalField   nonuniform List<scalar> 
6750
(
-156.517
-74.0545
-156.589
-152.325
-175.798
-181.796
-187.715
-192.96
-192.592
-192.152
-192.447
-187.968
-200.774
-102.646
-243.862
-156.259
-73.1715
-156.173
-152.329
-176.214
-182.267
-188.309
-192.845
-192.408
-191.943
-192.498
-188.265
-200.491
-101.828
-243.941
-156.037
-72.4178
-155.898
-152.424
-176.567
-182.643
-188.83
-192.784
-192.627
-191.962
-192.794
-188.149
-200.441
-101.245
-244.14
-155.756
-71.4213
-155.52
-152.524
-177.008
-183.065
-189.464
-192.63
-193.905
-192.915
-193.243
-188.412
-200.637
-100.71
-244.11
-155.522
-70.3969
-155.184
-152.657
-177.41
-183.485
-189.992
-192.97
-194.93
-193.067
-193.124
-187.55
-200.874
-100.388
-244.215
-155.35
-69.3897
-154.849
-152.764
-177.786
-183.875
-190.844
-193.676
-195.105
-193.161
-193.402
-187.917
-201.074
-100.058
-244.285
-155.299
-68.601
-154.58
-152.827
-178.009
-184.167
-191.137
-193.358
-195.731
-193.79
-194.228
-188.924
-201.274
-99.8094
-244.414
-155.345
-68.3898
-154.511
-152.849
-178.117
-184.304
-191.551
-193.469
-195.927
-193.677
-194.362
-189.483
-201.28
-99.6648
-244.484
-155.452
-68.794
-154.697
-152.873
-178.068
-184.223
-191.507
-193.454
-195.647
-193.765
-194.364
-189.267
-201.411
-99.7799
-244.405
-155.658
-69.6784
-155.049
-152.857
-177.885
-183.979
-190.993
-193.423
-194.784
-193.486
-194.539
-188.216
-201.577
-100.048
-244.309
-155.954
-70.7553
-155.463
-152.81
-177.584
-183.647
-190.341
-193.182
-195.283
-193.483
-193.684
-187.485
-201.523
-100.262
-244.28
-156.284
-71.8201
-155.862
-152.731
-177.238
-183.277
-189.806
-192.938
-194.154
-193.16
-193.966
-188.568
-201.523
-100.552
-244.231
-156.634
-72.8449
-156.294
-152.689
-176.858
-182.938
-189.348
-193.475
-193.496
-193.089
-193.65
-188.337
-201.495
-101.052
-244.302
-156.901
-73.6144
-156.606
-152.632
-176.552
-182.622
-188.982
-193.981
-193.698
-193.378
-193.35
-188.736
-201.611
-101.683
-244.145
-157.193
-74.5093
-157.058
-152.671
-176.178
-182.187
-188.436
-194.113
-193.822
-193.584
-193.542
-189.173
-202.069
-102.607
-244.12
-215.873
-54.8569
-160.936
-153.285
-176.7
-182.09
-188.068
-190.013
-192.806
-197.159
-199.803
-190.565
-210.88
-75.0678
-342.094
-215.549
-54.0351
-160.407
-153.177
-177.168
-182.632
-188.845
-190.243
-193.909
-197.19
-198.985
-190.018
-210.26
-74.3391
-342.491
-215.292
-53.4764
-160.134
-153.212
-177.517
-183.044
-189.358
-191.275
-194.366
-196.163
-198.965
-188.685
-209.765
-73.7788
-343.211
-214.97
-52.6447
-159.674
-153.219
-177.953
-183.482
-189.858
-191.448
-194.145
-195.076
-198.727
-188.11
-209.513
-73.3204
-343.102
-214.736
-51.8317
-159.262
-153.286
-178.334
-183.871
-190.205
-191.827
-194.411
-194.335
-198.2
-186.896
-209.52
-73.1289
-343.36
-214.608
-51.0048
-158.797
-153.325
-178.68
-184.148
-190.898
-191.658
-194.653
-195.348
-198.64
-187.977
-209.942
-72.7799
-343.674
-214.667
-50.3356
-158.379
-153.352
-178.87
-184.401
-190.993
-191.764
-194.624
-195.723
-198.838
-188.977
-210.498
-72.5728
-344.056
-214.786
-50.1409
-158.258
-153.359
-178.956
-184.519
-191.408
-192.376
-195.561
-195.64
-198.855
-189.393
-210.807
-72.2225
-344.637
-214.865
-50.4682
-158.541
-153.39
-178.908
-184.401
-191.313
-191.827
-195.711
-195.85
-198.863
-189.624
-210.887
-72.5189
-344.111
-215.047
-51.1903
-159.041
-153.404
-178.738
-184.131
-190.926
-190.732
-194.97
-195.666
-198.804
-188.597
-210.547
-72.6756
-343.819
-215.36
-52.065
-159.586
-153.423
-178.456
-183.881
-190.405
-191.318
-194.856
-195.306
-199.417
-187.652
-210.462
-72.8475
-343.66
-215.729
-52.9053
-160.053
-153.41
-178.12
-183.546
-190.035
-191.191
-195.009
-195.843
-199.79
-188.531
-210.566
-72.908
-343.53
-216.143
-53.7628
-160.563
-153.464
-177.735
-183.156
-189.632
-191.189
-195.522
-197.384
-200.432
-189.554
-211.16
-73.2893
-343.772
-216.455
-54.336
-160.867
-153.465
-177.422
-182.765
-189.217
-189.966
-195.163
-199.36
-200.499
-190.725
-211.798
-73.7943
-343.148
-216.826
-55.1753
-161.434
-153.625
-176.988
-182.223
-188.426
-189.373
-194.022
-198.891
-200.691
-191.579
-212.566
-74.5294
-342.869
-318.098
-11.3143
-160.847
-156.243
-177.856
-183.323
-188.568
-188.63
-193.264
-199.182
-206.062
-192.117
-225.106
-8.63417
-521.593
-317.62
-10.7741
-160.275
-155.962
-178.336
-184.005
-189.475
-189.518
-195.05
-199.757
-205.44
-192.068
-224.405
-8.19711
-522.239
-317.286
-10.6118
-160.053
-155.944
-178.699
-184.5
-190.229
-191.613
-196.076
-198.688
-204.069
-191.182
-223.336
-7.75897
-523.447
-316.875
-10.2203
-159.527
-155.812
-179.1
-184.948
-190.662
-191.146
-194.844
-197.442
-203.274
-190.116
-222.672
-7.78599
-522.757
-316.646
-9.91468
-159.034
-155.799
-179.448
-185.277
-190.92
-191.073
-193.783
-196.871
-202.931
-188.339
-221.856
-7.91422
-523.001
-316.648
-9.4936
-158.387
-155.734
-179.683
-185.428
-191.056
-190.661
-193.751
-197.487
-203.456
-188.941
-222.099
-7.50907
-523.404
-316.916
-9.07086
-157.744
-155.715
-179.844
-185.606
-191.196
-190.681
-192.806
-196.705
-203.834
-189.654
-222.757
-7.22036
-524.067
-317.108
-8.91827
-157.514
-155.698
-179.865
-185.734
-191.244
-191.744
-193.45
-196.256
-203.409
-189.741
-222.701
-6.48049
-525.157
-317.105
-9.08771
-157.959
-155.746
-179.826
-185.598
-190.88
-190.784
-193.557
-197.681
-203.951
-190.087
-223.241
-7.06647
-524.109
-317.237
-9.41923
-158.674
-155.802
-179.668
-185.359
-190.483
-189.88
-194.411
-197.688
-202.805
-189.001
-222.605
-7.23734
-523.424
-317.59
-9.79044
-159.405
-155.934
-179.516
-185.257
-190.769
-190.724
-193.966
-197.331
-202.666
-188.702
-222.649
-7.41604
-523.151
-318.047
-10.0948
-159.935
-156.009
-179.223
-184.978
-190.549
-190.638
-194.557
-197.439
-203.204
-189.907
-223.319
-7.12902
-522.92
-318.609
-10.5179
-160.503
-156.224
-178.905
-184.604
-190.344
-191.192
-195.395
-198.543
-204.792
-191.333
-224.359
-6.97323
-523.724
-319.029
-10.7065
-160.74
-156.29
-178.595
-184.152
-189.724
-188.969
-194.399
-200.115
-206.07
-191.872
-225.527
-7.27603
-522.553
-319.58
-11.2919
-161.346
-156.655
-178.19
-183.574
-188.948
-188.469
-192.641
-199.48
-205.744
-191.925
-226.348
-7.62273
-522.042
-420.76
16.8808
-151.21
-164.215
-179.544
-186.949
-190.472
-189.173
-192.368
-197.932
-205.139
-190.015
-229.708
72.7664
-700.64
-420.32
17.2016
-150.793
-163.841
-179.851
-187.511
-191.042
-190.415
-193.453
-198.404
-205.113
-190.022
-228.994
71.6536
-702.302
-420.073
17.1094
-150.651
-163.819
-180.193
-187.969
-192.1
-191.811
-194.069
-196.987
-205.032
-189.888
-227.159
70.8622
-704.688
-419.764
17.0675
-150.194
-163.626
-180.492
-188.386
-192.577
-191.619
-192.727
-195.555
-204.856
-189.544
-227.043
69.0915
-704.677
-419.744
16.8258
-149.735
-163.586
-180.769
-188.543
-192.702
-190.329
-192.013
-195.763
-204.585
-188.264
-226.07
67.5453
-705.507
-419.983
16.7485
-149.071
-163.456
-180.839
-188.605
-191.975
-190.235
-192.58
-196.475
-203.455
-188.253
-225.975
66.8083
-705.863
-420.375
16.6624
-148.38
-163.406
-180.93
-188.678
-192.233
-188.702
-192.048
-196.301
-203.352
-188.432
-225.866
66.4654
-706.725
-420.559
16.5729
-148.109
-163.365
-180.867
-188.844
-192.346
-191.078
-192.386
-194.282
-201.376
-187.57
-225.078
66.7577
-707.411
-420.517
16.6937
-148.602
-163.435
-180.862
-188.67
-191.568
-190.057
-191.929
-196.608
-202.855
-188.34
-226.302
66.8537
-706.791
-420.589
17.0262
-149.343
-163.51
-180.729
-188.455
-190.803
-190.169
-192.074
-197.181
-202.883
-187.903
-226.64
67.3528
-705.828
-420.893
17.3522
-150.095
-163.718
-180.768
-188.468
-192.201
-189.631
-192.252
-197.287
-204.503
-188.139
-227.005
68.2459
-705.517
-421.289
17.6294
-150.589
-163.831
-180.557
-188.373
-192.231
-190.973
-192.401
-195.758
-204.442
-188.84
-227.903
69.8334
-704.546
-421.814
17.5793
-151.084
-164.135
-180.388
-188.099
-192.177
-191.312
-193.399
-196.803
-205.196
-189.301
-228.427
71.6695
-704.605
-422.181
17.5783
-151.23
-164.218
-180.102
-187.677
-191.152
-189.559
-192.996
-198.126
-204.958
-189.248
-230.274
72.4857
-702.189
-422.718
17.1172
-151.683
-164.705
-179.91
-187.311
-190.842
-189.107
-191.94
-197.251
-204.818
-189.178
-231.267
73.6301
-700.584
-533.527
-3.0304
-141.55
-181.848
-185.631
-194.611
-197.969
-193.802
-196
-189.778
-196.434
-182.503
-245.247
118.464
-892.144
-533.216
-2.61857
-141.373
-181.481
-185.719
-194.922
-198.018
-194.064
-196.854
-191.871
-196.887
-181.946
-243.622
116.118
-894.778
-533.113
-2.63344
-141.355
-181.43
-185.96
-195.297
-198.738
-194.372
-197.108
-192.31
-195.067
-181.88
-240.609
114.268
-897.886
-532.998
-2.60454
-141.126
-181.239
-186.1
-195.667
-199.021
-194.651
-194.516
-191.528
-195.43
-182.879
-239.58
111.713
-898.917
-533.241
-2.7619
-140.915
-181.186
-186.271
-195.785
-199.09
-193.048
-194.602
-190.462
-196.277
-183.431
-237.441
108.746
-900.349
-533.627
-2.80729
-140.542
-181.048
-186.226
-195.886
-198.548
-193.716
-194.616
-191.366
-195.775
-183.574
-236.463
106.8
-900.47
-534.003
-3.13925
-140.141
-181.002
-186.249
-195.957
-198.815
-193.122
-194.854
-192.986
-196.245
-182.878
-234.862
105.216
-901.868
-534.188
-3.40754
-139.956
-180.988
-186.138
-196.015
-198.807
-194.544
-194.538
-192.438
-194.423
-181.611
-234.135
105.001
-901.545
-534.215
-3.19202
-140.288
-181.12
-186.218
-195.916
-198.387
-193.319
-195.245
-193.571
-196.11
-182.778
-235.568
106.02
-901.932
-534.315
-2.65723
-140.752
-181.233
-186.178
-195.77
-197.628
-193.491
-194.54
-193.523
-196.405
-183.593
-237.515
108.07
-900.47
-534.583
-2.23575
-141.246
-181.488
-186.375
-195.848
-198.921
-193.267
-195.782
-192.746
-197.391
-183.668
-239.029
110.314
-900.317
-534.882
-1.95386
-141.527
-181.639
-186.287
-195.816
-198.959
-194.81
-194.972
-192.692
-196.35
-182.905
-241.208
113.534
-898.797
-535.296
-2.13272
-141.826
-181.988
-186.32
-195.657
-199.093
-194.553
-197.145
-193.234
-196.957
-182.199
-242.914
116.353
-897.834
-535.562
-2.27303
-141.849
-182.121
-186.141
-195.324
-198.337
-193.835
-196.832
-192.459
-197.938
-181.963
-246.013
118.295
-894.652
-535.996
-2.92699
-142.086
-182.648
-186.211
-195.24
-198.546
-194.076
-196.584
-190.273
-197.868
-182.172
-247.984
120.88
-891.999
-658.786
-48.7613
-141.727
-209.904
-199.608
-209.461
-213.582
-205.14
-206.679
-190.351
-195.256
-186.757
-310.891
168.562
-1096.44
-658.592
-48.3502
-141.616
-209.603
-199.561
-209.63
-213.364
-205.104
-207.464
-194.234
-197.721
-184.871
-304.066
161.979
-1105.59
-658.625
-48.2639
-141.633
-209.537
-199.668
-209.916
-213.684
-205.685
-207.268
-195.829
-195.681
-184.19
-296.657
158.495
-1116.47
-658.762
-47.9223
-141.548
-209.353
-199.658
-210.157
-213.633
-205.949
-204.727
-194.895
-194.354
-185.644
-289.702
150.147
-1123.4
-659.148
-47.7155
-141.57
-209.278
-199.718
-210.282
-213.522
-205.058
-203.416
-193.401
-194.564
-187.285
-282.113
139.734
-1127.38
-659.485
-47.5079
-141.498
-209.148
-199.627
-210.336
-213.176
-205.084
-203.32
-194.17
-194.657
-187.791
-276.569
132.405
-1127.61
-659.844
-47.6267
-141.424
-209.143
-199.651
-210.439
-213.395
-205.5
-204.404
-197.297
-194.632
-186.96
-272.361
127.077
-1128.73
-660.077
-47.7165
-141.377
-209.179
-199.586
-210.393
-213.23
-205.938
-204.309
-197.814
-195.172
-185.161
-270.601
126.264
-1127.11
-660.257
-47.6068
-141.532
-209.356
-199.763
-210.472
-213.327
-205.103
-205.153
-197.593
-196.033
-186.988
-273.47
127.965
-1128.86
-660.446
-47.4159
-141.693
-209.512
-199.838
-210.453
-212.957
-204.596
-204.31
-195.879
-196.78
-188.116
-278.307
134.114
-1127.77
-660.725
-47.4196
-141.932
-209.827
-200.143
-210.706
-213.895
-205.688
-205.47
-196.096
-197.506
-188.104
-284.713
142.01
-1127.69
-660.977
-47.4623
-142.059
-210.041
-200.22
-210.761
-214.142
-206.807
-206.134
-197.329
-197.095
-186.294
-292.721
152.962
-1123.68
-661.316
-47.879
-142.285
-210.441
-200.468
-210.844
-214.651
-207.033
-208.798
-198.567
-199.141
-185.677
-300.771
161.749
-1116.72
-661.51
-48.1078
-142.316
-210.625
-200.471
-210.679
-214.363
-206.356
-208.402
-196.781
-201.57
-185.756
-308.194
165.18
-1105.55
-661.872
-48.7955
-142.538
-211.145
-200.767
-210.821
-214.899
-206.982
-208.137
-193.606
-200.761
-187.749
-315.218
171.629
-1096.13
-791.66
-94.9107
-153.849
-245.793
-224.03
-233.783
-240.737
-225.97
-231.856
-202.091
-212.473
-187.955
-472.457
204.619
-1361.82
-791.61
-94.5898
-153.724
-245.544
-223.851
-233.93
-240.484
-226.409
-231.659
-205.688
-214.909
-187.995
-450.904
198.815
-1374.5
-791.881
-94.4357
-153.722
-245.476
-223.855
-234.169
-240.571
-227.378
-232.628
-206.967
-213.702
-188.008
-429.12
198.379
-1390.68
-792.155
-93.9753
-153.665
-245.299
-223.729
-234.309
-240.273
-227.673
-230.911
-205.316
-213.112
-194.481
-405.489
191.397
-1409.9
-792.574
-93.6549
-153.743
-245.227
-223.722
-234.471
-239.951
-227.666
-228.141
-203.563
-209.647
-198.391
-385.663
176.643
-1419.33
-792.935
-93.2987
-153.785
-245.124
-223.625
-234.52
-239.556
-227.669
-228.286
-204.45
-209.018
-200.711
-369.346
164.245
-1418.79
-793.344
-93.1764
-153.889
-245.168
-223.692
-234.713
-239.769
-228.291
-230.452
-209.07
-207.728
-199.782
-357.637
156.587
-1421.37
-793.623
-93.1127
-153.938
-245.26
-223.711
-234.733
-239.583
-228.229
-230.117
-210.487
-209.639
-199.793
-350.483
156.297
-1417.76
-793.879
-93.1767
-154.023
-245.485
-223.981
-235
-239.985
-228.133
-230.297
-209.692
-209.59
-201.637
-359.515
158.666
-1422.99
-794.1
-93.2748
-154.094
-245.696
-224.175
-235.115
-239.989
-227.616
-228.87
-206.782
-211.691
-201.614
-371.609
167.47
-1419.65
-794.421
-93.5299
-154.306
-246.095
-224.624
-235.521
-241.012
-228.815
-230.85
-207.108
-214.173
-199.214
-389.37
180.68
-1419.91
-794.677
-93.7252
-154.424
-246.385
-224.895
-235.691
-241.708
-229.446
-233.683
-208.98
-217.987
-194.885
-410.168
197.212
-1410.7
-795.006
-94.1994
-154.691
-246.863
-225.384
-236.014
-242.667
-230.051
-236.228
-211.071
-219.385
-189.123
-436.713
205.12
-1391.44
-795.169
-94.4209
-154.782
-247.099
-225.566
-236.022
-242.847
-229.453
-234.908
-210.437
-221.466
-188.015
-457.949
205.83
-1374.85
-795.515
-95.01
-155.069
-247.638
-226.097
-236.345
-243.634
-229.865
-235.66
-208.197
-221.288
-189.231
-478.815
211.897
-1361.49
-934.55
-139.065
-172.485
-286.594
-259.26
-268.623
-282.972
-259.711
-284.887
-224.072
-293.213
-173.837
-990.921
333.726
-1647.4
-934.515
-138.832
-172.366
-286.36
-258.887
-268.596
-282.295
-260.298
-283.141
-226.708
-288.274
-178.46
-898.196
329.025
-1686.9
-934.888
-138.7
-172.361
-286.304
-258.805
-268.787
-282.078
-261.121
-282.139
-227.36
-286.141
-185.22
-826.269
327.362
-1748.59
-935.282
-138.211
-172.312
-286.144
-258.522
-268.802
-281.299
-261.365
-278.046
-224.195
-278.286
-194.903
-693.017
308.033
-1798.42
-935.864
-137.83
-172.397
-286.118
-258.451
-269.006
-280.674
-261.796
-273.324
-224.999
-266.066
-211.241
-576.154
283.687
-1836.28
-936.334
-137.371
-172.469
-286.075
-258.317
-269.061
-280.017
-261.961
-272.797
-224.37
-260.352
-217.867
-521.02
263.373
-1833.72
-936.852
-137.163
-172.63
-286.187
-258.437
-269.369
-280.172
-262.696
-275.12
-229.522
-258.554
-219.89
-501.135
242.14
-1823.99
-937.185
-137.083
-172.74
-286.343
-258.559
-269.531
-280.101
-262.852
-275.066
-233.156
-259.591
-224.216
-493.184
237.043
-1813.77
-937.504
-137.266
-172.855
-286.619
-258.966
-269.983
-280.859
-263.044
-275.709
-229.747
-259.744
-221.886
-505.079
244.299
-1827.59
-937.74
-137.485
-172.961
-286.876
-259.305
-270.268
-281.407
-263.045
-274.96
-226.634
-263.536
-218.987
-525.926
266.466
-1836.28
-938.152
-137.815
-173.244
-287.374
-259.994
-270.907
-283.059
-264.191
-278.564
-227.611
-273.086
-212.339
-584.214
288.815
-1840.52
-938.503
-138.002
-173.392
-287.735
-260.501
-271.276
-284.453
-264.738
-283.52
-228.544
-287.073
-197.177
-706.905
314.23
-1801.57
-938.904
-138.472
-173.709
-288.316
-261.322
-271.95
-286.276
-265.694
-289.241
-232.669
-297.832
-188.708
-849.059
331.087
-1747.97
-939.088
-138.694
-173.839
-288.614
-261.708
-272.155
-287.101
-265.535
-291.064
-233.816
-301.245
-181.487
-915.524
329.096
-1684.81
-939.483
-139.25
-174.174
-289.227
-262.572
-272.825
-288.637
-266.018
-293.863
-232.93
-308.402
-178.756
-1007.69
329.238
-1642
-1087.31
-186.392
-195.417
-332.813
-304.73
-314.081
-343.399
-307.274
-373.172
-261.656
-464.051
-103.63
-1423.13
130.712
-1956.97
-1087.22
-186.183
-195.288
-332.514
-304.023
-313.619
-341.259
-306.964
-368.235
-266.432
-454.595
-121.958
-1405.45
179.464
-1969.22
-1087.65
-186.111
-195.287
-332.476
-303.85
-313.835
-340.578
-307.781
-366.358
-270.499
-443.671
-133.626
-1480.57
202.421
-2007.66
-1088.16
-185.592
-195.231
-332.315
-303.316
-313.68
-338.543
-307.933
-356.588
-275.265
-422.182
-182.079
-1379.11
287.333
-2240.32
-1088.92
-185.182
-195.337
-332.373
-303.166
-314.021
-337.259
-309.011
-343.202
-278.273
-386.155
-217.879
-1033.88
359.114
-2387.54
-1089.53
-184.609
-195.422
-332.415
-302.927
-314.139
-335.997
-310.146
-339.242
-277.849
-360.752
-250.811
-782.849
375.415
-2402.4
-1090.22
-184.359
-195.595
-332.637
-303.103
-314.64
-336.109
-311.289
-341.283
-278.144
-356.083
-266.77
-709.825
353.461
-2401.63
-1090.65
-184.261
-195.747
-332.874
-303.329
-314.951
-336.144
-311.893
-340.863
-280.069
-356.615
-275.626
-711.39
340.636
-2364.36
-1091.1
-184.519
-195.92
-333.238
-303.936
-315.628
-337.474
-312.558
-343.032
-277.409
-357.106
-267.771
-715.126
356.784
-2403.44
-1091.4
-184.789
-196.087
-333.534
-304.467
-316.049
-338.769
-312.743
-344.338
-278.053
-365.699
-252.758
-788.435
383.398
-2401.68
-1091.93
-185.152
-196.498
-334.149
-305.529
-316.981
-341.654
-313.455
-351.51
-280.085
-394.209
-219.78
-1045.66
368.271
-2384.77
-1092.42
-185.325
-196.696
-334.573
-306.344
-317.519
-344.254
-313.579
-364.447
-279.841
-437.046
-187.828
-1411.39
307.193
-2237.91
-1092.91
-185.857
-197.094
-335.308
-307.634
-318.633
-347.778
-314.792
-377.015
-277.002
-463.985
-138.326
-1521.53
218.851
-2007.28
-1093.12
-186.134
-197.266
-335.682
-308.258
-318.991
-349.379
-314.78
-381.226
-274.326
-477.38
-129.083
-1433.2
201.547
-1970.28
-1093.58
-186.778
-197.677
-336.469
-309.605
-320.273
-352.563
-316.441
-388.457
-272.539
-491.548
-115.238
-1458.95
148.986
-1945.84
-1245.89
-240.297
-221.274
-384.136
-357.148
-365.43
-417.695
-364.682
-485.313
-308.648
-629.418
-88.8013
-1047.51
177.624
-2881.04
-1245.71
-240.023
-221.076
-383.605
-355.813
-364.051
-412.433
-361.793
-479.911
-320.942
-610.028
-90.7897
-1229.24
34.0688
-2694.43
-1246.16
-240.007
-221.074
-383.562
-355.522
-364.262
-410.628
-362.074
-476.553
-333.953
-598.244
-87.1679
-1351.92
142.318
-2530.97
-1246.76
-239.419
-220.97
-383.3
-354.638
-363.778
-406.757
-360.546
-455.215
-341.752
-588.953
-131.493
-1738.43
64.9371
-2551.8
-1247.71
-238.971
-221.111
-383.439
-354.485
-364.391
-405.119
-361.954
-434.579
-346.337
-547.861
-235.572
-1543.98
234.612
-3059.95
-1248.49
-238.221
-221.202
-383.527
-354.156
-364.674
-403.194
-364.936
-421.438
-350.628
-491.655
-293.879
-1138.76
484.674
-3080.51
-1249.4
-237.893
-221.412
-383.888
-354.447
-365.569
-403.346
-367.995
-421.261
-356.346
-484.811
-342.94
-946.261
476.216
-3090.5
-1249.99
-237.704
-221.604
-384.205
-354.78
-366.048
-403.577
-368.847
-420.155
-357.274
-483.373
-359.832
-975.806
460.417
-3059.81
-1250.61
-238.028
-221.853
-384.735
-355.668
-367.059
-405.737
-370.009
-424.309
-357.44
-487.844
-344.799
-954.448
478.801
-3105.73
-1251.01
-238.397
-222.076
-385.138
-356.436
-367.57
-407.957
-369.331
-427.432
-354.592
-500.368
-298.373
-1142.15
495.906
-3087.3
-1251.67
-238.878
-222.652
-385.948
-357.971
-368.855
-412.439
-369.401
-443.468
-353.283
-561.028
-240.646
-1568.99
253.827
-3091.62
-1252.31
-239.118
-222.931
-386.487
-359.117
-369.528
-416.262
-369.008
-466.125
-350.177
-614.403
-137.09
-1830.45
81.1226
-2582.46
-1252.93
-239.811
-223.46
-387.504
-361.041
-371.298
-422.177
-371.954
-492.099
-345.018
-633.227
-96.1622
-1420.55
154.045
-2541.73
-1253.19
-240.188
-223.69
-388.001
-361.965
-371.85
-425.212
-372.934
-500.334
-334.526
-647.229
-103.746
-1295.98
53.151
-2654.54
-1253.74
-241.032
-224.247
-389.137
-364.108
-374.204
-431.596
-377.805
-509.687
-325.96
-676.046
-106.609
-1138.34
163.786
-2781.71
-1409.67
-303.647
-251.788
-443.428
-420.904
-425.802
-511.529
-437.928
-628.247
-386.068
-808.673
-232.902
-1094.7
847.319
-3998.01
-1409.36
-303.256
-251.441
-442.417
-418.439
-422.382
-500.832
-431.299
-616.341
-401.564
-785.726
-281.526
-1175.1
244.341
-4060.11
-1409.76
-303.311
-251.432
-442.299
-417.872
-422.023
-496.88
-428.199
-603.529
-409.858
-774.641
-243.941
-1295.81
158.083
-3597.95
-1410.39
-302.649
-251.23
-441.802
-416.39
-421.046
-490.278
-421.542
-577.013
-412.118
-768.978
-214.388
-1755.79
142.813
-3177.6
-1411.56
-302.158
-251.419
-442.01
-416.291
-422.171
-488.405
-420.944
-553.452
-425.564
-747.407
-367.137
-1962.94
360.829
-3711.52
-1412.54
-301.2
-251.496
-442.087
-415.865
-422.62
-486.642
-424.009
-534.78
-428.914
-669.206
-416.539
-1578.75
612.053
-3957.46
-1413.7
-300.773
-251.805
-442.631
-416.417
-424.125
-487.609
-430.596
-531.615
-444.236
-669.62
-475.544
-1249.96
685.304
-3942.69
-1414.49
-300.465
-252.047
-443.012
-416.89
-424.884
-488.278
-431.874
-529.671
-445.651
-671.137
-501.996
-1324.95
657.859
-3921.72
-1415.32
-300.874
-252.411
-443.794
-418.235
-426.383
-491.651
-433.982
-536.339
-447.021
-677.909
-474.222
-1261.8
702.379
-3967.65
-1415.86
-301.396
-252.701
-444.408
-419.337
-426.959
-494.704
-431.843
-543.936
-435.965
-688.104
-418.836
-1606.03
658.907
-3967.34
-1416.66
-302.066
-253.457
-445.517
-421.47
-428.623
-500.754
-431.455
-567.612
-435.181
-776.614
-368.145
-2018.52
391.955
-3795.87
-1417.47
-302.433
-253.857
-446.261
-423.007
-429.436
-505.661
-432.393
-596.327
-425.314
-813.578
-215.454
-1862.48
162.033
-3214.61
-1418.31
-303.33
-254.579
-447.719
-425.848
-432.062
-514.737
-439.995
-629.798
-425.21
-833.054
-249.114
-1365.36
192.02
-3579.84
-1418.65
-303.813
-254.888
-448.421
-427.247
-433.158
-520.201
-444.891
-648.77
-419.895
-850.624
-293.362
-1241.43
265.846
-3993.9
-1419.35
-304.93
-255.683
-450.154
-430.717
-437.618
-532.337
-455.219
-667.712
-408.815
-884.316
-249.465
-1171.67
821.218
-3935.64
-1573.97
-374.765
-283.603
-506.272
-490.496
-487.715
-616.992
-516.192
-803.679
-476.547
-1158.03
-465.34
-2054.05
1275.86
-4522.93
-1573.46
-374.152
-282.986
-504.47
-486.426
-481.072
-600.931
-506.974
-778.728
-487.439
-1110.65
-530.271
-1987.43
861.78
-4814.96
-1573.62
-374.261
-282.93
-504.122
-485.265
-479.031
-594.922
-500.362
-765.753
-495.743
-1119.03
-598.809
-1929.99
430.568
-4985.92
-1574.08
-373.546
-282.534
-503.192
-482.641
-477.164
-584.366
-490.97
-734.258
-500.858
-1050.75
-456.886
-2219.54
341.569
-4559.72
-1575.45
-373.02
-282.745
-503.46
-482.535
-479.555
-581.534
-490.018
-707.836
-528.291
-1032.66
-557.393
-2677.95
651.53
-4447.06
-1576.65
-371.838
-282.761
-503.463
-481.879
-480.482
-579.205
-489.834
-685.645
-532.277
-941.403
-624.968
-2283.14
783.542
-5123.8
-1578.07
-371.263
-283.189
-504.213
-482.803
-482.699
-581.468
-495.536
-683.718
-551.672
-941.912
-654.353
-1771.68
942.943
-5154.57
-1579.13
-370.801
-283.461
-504.629
-483.424
-483.807
-582.658
-496.503
-682.45
-553.33
-948.355
-698.595
-1866.96
908.389
-5130.99
-1580.24
-371.275
-283.989
-505.73
-485.459
-485.959
-588.098
-500.568
-693.946
-555.313
-957.614
-649.924
-1795.09
954.85
-5185.45
-1581.01
-371.955
-284.386
-506.65
-487.108
-486.699
-592.394
-498.593
-706.475
-540.402
-979.417
-611.976
-2350.79
787.896
-5164.73
-1582.03
-372.888
-285.346
-508.207
-490.134
-488.788
-601.232
-501.586
-738.678
-541.712
-1096.12
-553.639
-2788.11
639.502
-4519.61
-1583.05
-373.452
-285.927
-509.246
-492.223
-489.334
-608.165
-504.563
-772.995
-521.115
-1128.72
-449.63
-2276.2
312.795
-4605.08
-1584.19
-374.636
-286.959
-511.343
-496.48
-492.856
-621.682
-515.504
-814.369
-522.765
-1210.68
-608.134
-2007.12
432.868
-5011.64
-1584.7
-375.262
-287.395
-512.409
-498.697
-495.341
-629.803
-524.873
-834.924
-518.746
-1222.49
-565.481
-2116.18
844.928
-4820.18
-1585.61
-376.772
-288.562
-515.071
-504.033
-503.243
-648.24
-539.947
-868.933
-513.034
-1288.44
-508.852
-2228.97
1249.44
-4537.78
-1736.87
-464.842
-325.637
-583.243
-585.125
-571.967
-760.518
-614.285
-1058.76
-590.459
-1713.68
-586.495
-3555.37
1593.17
-5604.4
-1736.23
-464.028
-324.702
-580.566
-579.306
-562.169
-740.073
-602.792
-1023.73
-608.148
-1647.2
-700.57
-3530.56
1489.79
-5807.13
-1736.27
-464.146
-324.567
-579.857
-577.362
-557.656
-731.841
-593.932
-1011.43
-622.082
-1691.97
-908.18
-3329.05
1229.26
-6376.57
-1736.64
-463.399
-323.913
-578.287
-573.054
-552.95
-715.594
-583.966
-969.586
-620.188
-1507.03
-734.289
-3242.33
918.385
-6412.67
-1738.11
-462.868
-324.101
-578.531
-572.649
-556.194
-711.971
-585.783
-939.945
-655.22
-1462.42
-681.099
-3652.96
1163.52
-6140.46
-1739.51
-461.56
-324.053
-578.459
-571.723
-558.445
-708.151
-585.163
-906.211
-670.525
-1337.44
-801.741
-3190.03
1389.79
-6760.13
-1741.11
-460.892
-324.619
-579.455
-573.132
-561.9
-712.141
-590.135
-906.081
-686.657
-1329.93
-786.798
-2578.37
1482.29
-6819.13
-1742.38
-460.393
-324.945
-579.957
-573.963
-563.63
-713.91
-590.242
-903.877
-686.457
-1317.69
-857.407
-2608.14
1481.61
-6781.27
-1743.74
-460.96
-325.713
-581.441
-576.975
-566.692
-722.961
-595.522
-926.222
-687.785
-1337.26
-770.495
-2705.04
1508.84
-6821.32
-1744.81
-461.789
-326.307
-582.749
-579.488
-567.671
-729.701
-594.939
-949.47
-676.234
-1413.23
-751.358
-3548.58
1441.49
-6728.77
-1746.08
-463.003
-327.514
-584.901
-583.834
-569.985
-742.955
-599.941
-1000.43
-672.346
-1576.73
-552.14
-3999.81
1150.64
-6087.43
-1747.28
-463.813
-328.335
-586.336
-586.823
-569.966
-752.509
-602.146
-1042.62
-649.901
-1650.1
-667.777
-3375.35
987.669
-6442.73
-1748.71
-465.318
-329.789
-589.285
-593.114
-575.694
-772.124
-614.994
-1099.21
-658.726
-1884.16
-882.561
-3759.31
1265.62
-6266.57
-1749.42
-466.113
-330.4
-590.869
-596.444
-580.687
-783.573
-627.871
-1122.16
-650.198
-1894.33
-745.468
-4079
1585.97
-5628.48
-1750.52
-468.02
-332.021
-594.609
-603.885
-592.38
-807.784
-646.291
-1170.88
-637.824
-1993.31
-622.053
-4187.35
1720.63
-5405.17
-1885.94
-567.497
-368.634
-662.551
-679.298
-650.227
-896.056
-704.019
-1323.74
-709.512
-2256.38
-496.464
-4662.23
2242.12
-7285.54
-1885.13
-566.296
-367.246
-658.957
-671.587
-638.35
-871.424
-688.349
-1279.82
-743.421
-2197.04
-681.116
-5074.1
2003.73
-7343.36
-1885.01
-566.245
-366.955
-657.748
-668.734
-632.382
-860.479
-678.719
-1264.25
-760.274
-2233.21
-1058.11
-5327.45
1983.28
-7979.03
-1884.97
-565.364
-365.927
-655.254
-662.562
-623.923
-837.732
-667.789
-1207.41
-756.772
-1923.33
-798.659
-5048.3
1743.09
-8332.96
-1886.09
-564.83
-365.974
-655.041
-661.134
-625.102
-832.686
-673.664
-1181.99
-794.248
-1852.6
-582.572
-5336.83
1767.76
-8110.02
-1887.53
-563.374
-365.761
-654.567
-659.343
-626.992
-826.653
-674.149
-1138.94
-812.887
-1741
-868.972
-4677.04
2043.34
-9116.74
-1889.29
-562.499
-366.361
-655.596
-661.018
-631.519
-832.707
-680.58
-1146.11
-820.376
-1755.77
-814.864
-3822.23
2198.61
-9290.64
-1890.85
-561.885
-366.694
-656.136
-661.819
-633.474
-834.37
-678.652
-1136.58
-811.327
-1682.56
-883.381
-3792.62
2168.4
-9200.15
-1892.5
-562.486
-367.673
-657.998
-665.799
-637.563
-848.051
-683.91
-1172.9
-798.259
-1707.45
-783.24
-3999.26
2132.23
-9334.4
-1893.94
-563.469
-368.494
-659.752
-669.301
-638.939
-857.604
-683.219
-1211.37
-789.767
-1868.97
-805.84
-5180.15
1879.81
-9124.61
-1895.56
-565.073
-370.048
-662.763
-675.514
-642.238
-876.267
-689.253
-1287.59
-795.956
-2118.05
-505.433
-5512.01
1234.71
-8054.08
-1897.01
-566.273
-371.187
-664.956
-680.108
-643.488
-888.87
-689.681
-1331.86
-785.922
-2200.2
-766.312
-5211.71
1429.75
-8135.22
-1898.74
-568.282
-373.205
-669.114
-688.897
-653.115
-915.857
-704.757
-1407.28
-806.159
-2554.36
-1048.86
-5768.72
1493.14
-7749.88
-1899.7
-569.382
-374.072
-671.402
-693.551
-660.29
-931.227
-720.113
-1437.18
-799.388
-2595.84
-775.386
-5670.72
1604.54
-7016.52
-1901.04
-571.834
-376.297
-676.346
-703.412
-675.039
-961.273
-744.365
-1499.28
-773.388
-2710.07
-607.816
-5412.14
1866.75
-6908.57
-1996.53
-730.801
-445.539
-763.028
-848.629
-792.095
-1146.57
-842.461
-1719.47
-762.467
-2933.09
-148.745
-5608.44
3074.87
-10080.8
-1995.89
-729.628
-443.821
-759.337
-839.882
-780.822
-1119
-822.492
-1656.2
-794.599
-2821.48
-445.85
-6075.56
2505.79
-10153.1
-1995.82
-729.521
-443.397
-758.076
-836.209
-775.809
-1104.47
-812.676
-1628.88
-813.812
-2789.32
-938.362
-6938.65
2219.4
-10459.8
-1996.19
-728.554
-442.055
-755.296
-828.671
-766.852
-1075.19
-801.754
-1542.61
-841.941
-2437.97
-624.542
-6643.97
2269.99
-10462.9
-1997.6
-727.835
-441.864
-754.768
-825.823
-765.889
-1063.06
-809.986
-1514.86
-887.76
-2381.99
-379.406
-6647.63
2013.82
-10586.1
-1999.09
-726.452
-441.407
-753.984
-822.562
-765.908
-1050.15
-813.074
-1452.51
-930.682
-2252.78
-890.213
-6080.86
2683.13
-12209
-2000.75
-725.734
-441.918
-754.921
-823.869
-770.138
-1055.9
-819.766
-1468.46
-912.901
-2335.67
-832.592
-4998.14
3291.31
-12501.7
-2002.28
-725.462
-442.278
-755.587
-824.946
-771.902
-1058.39
-817.296
-1454.08
-918.773
-2258.75
-945.687
-5432.88
3391.21
-12211.9
-2003.95
-726.311
-443.506
-757.745
-830.397
-776.413
-1078.82
-819.712
-1508.96
-860.105
-2205.56
-733.118
-5715.78
2909.99
-12589.7
-2005.55
-727.583
-444.718
-759.884
-835.854
-778.405
-1096.23
-816.354
-1578.39
-849.652
-2553.78