/*--------------------------------*- C++ -*----------------------------------*\
| =========                 |                                                 |
| \\      /  F ield         | OpenFOAM: The Open Source CFD Toolbox           |
|  \\    /   O peration     | Version:  4.1                                   |
|   \\  /    A nd           | Web:      www.OpenFOAM.org                      |
|    \\/     M anipulation  |                                                 |
\*---------------------------------------------------------------------------*/
FoamFile
{
    version     2.0;
    format      ascii;
    class       surfaceScalarField;
    location    "22";
    object      phi;
}
// * * * * * * * * * * * * * * * * * * * * * * * * * * * * * * * * * * * * * //

dimensions      [0 3 -1 0 0 0 0];

internalField   nonuniform List<scalar> 
19125
(
104.686
-2.08208
1548.67
97.4413
-8.00963
1447.64
74.458
-4.10948
1169.31
61.9121
0.948085
995.395
50.3551
6.08573
881.861
36.2441
8.56678
698.12
32.3712
10.7862
677.033
50.2491
-4.08004
474.944
105.987
57.1983
29.8999
69.6583
15.7491
42.1355
8.04927
-0.731797
316.817
-40.0955
5.00464
617.906
-87.9243
-3.24808
1173.87
-101.48
-7.84117
1479.49
0.150277
1863.54
103.963
-2.63176
1546.39
96.6206
-10.1546
1451.7
74.4153
-4.53244
1191.48
61.9977
1.9208
1024.65
50.4536
7.44858
897.629
36.8292
10.09
701.295
31.0379
13.8934
642.429
45.0404
-7.31499
442.795
102.962
74.5941
31.3373
70.9544
39.9398
42.3277
7.1817
25.6565
252.526
-39.0448
-2.02036
581.559
-87.3552
-1.22478
1190.27
-101.963
-8.5707
1471.47
0.421904
1843.56
103.363
-2.8493
1544.83
96.0618
-11.5016
1459.17
74.5504
-4.66501
1211.19
62.4195
2.35681
1042.89
50.6655
7.93117
901.591
37.5149
10.2475
704.583
29.7051
15.3994
596.11
25.5052
-1.34733
435.747
69.1948
74.511
154.778
57.0677
58.8481
109.259
6.30588
44.5745
176.244
-39.3778
-9.96868
553.133
-87.899
2.02796
1189.9
-104.488
-6.93885
1459.3
0.0961758
1802.86
102.818
-2.6353
1538.78
95.8977
-12.2305
1463.61
75.1899
-4.47848
1229
63.1811
2.49515
1059.35
51.1597
7.68072
903.716
37.575
10.0361
701.668
29.9345
17.1268
574.57
19.4313
11.0535
444.663
32.7856
62.9641
282.79
22.268
53.9974
197.762
-3.86313
27.328
174.444
-43.0855
-10.3449
610.433
-88.6659
3.36597
1188.24
-103.751
-4.90095
1479.55
0.397435
1815.77
102.595
-1.9598
1528.06
95.5974
-11.5592
1470.29
75.6395
-3.99531
1249.79
63.7841
2.07714
1076.84
51.6745
6.4989
905.821
38.6416
8.87972
696.372
31.1769
18.8521
566.138
32.4435
9.34479
429.805
48.7494
24.0736
142.505
35.3002
60.6017
30.0334
-9.37001
37.0766
220.048
-48.0136
11.7566
800.264
-89.7944
2.99059
1176.65
-103.47
-3.64531
1487.97
0.477669
1822.47
102.854
-0.881919
1510.76
95.1945
-8.49279
1475.26
75.9155
-2.86641
1271.27
64.1504
1.27419
1095.73
52.3877
4.24499
910.06
40.4275
6.65215
694.957
38.3007
13.1444
532.576
57.7315
-7.18831
272.965
87.0999
38.3686
5.91792
59.706
63.7476
-44.9079
-3.03737
56.941
289.811
-47.6876
32.1853
738.295
-90.83
2.5068
1177.3
-103.613
-2.49201
1499.05
0.460518
1822.62
103.823
0.262535
1486.31
94.8645
-2.41149
1473.9
75.9739
-0.638666
1287.92
64.1093
0.550098
1114.51
52.1219
1.71578
918.698
41.6089
2.57977
704.296
34.7199
8.59724
482.465
46.1141
-15.7924
325.947
69.7754
38.4505
114.177
39.0429
47.5688
-43.6405
-12.0118
44.041
232.97
-46.8317
21.4781
617.903
-91.7191
1.72855
1190.72
-104.647
-0.97851
1499.56
0.169038
1808.59
104.316
1.28364
1476.2
94.9205
4.52527
1469.96
76.1209
2.03214
1289.91
64.1435
0.0980031
1119.54
52.2495
-0.89719
921.398
42.4242
-2.13054
712.719
39.4753
-2.11296
462.858
42.6674
-18.4575
264.719
73.254
9.6666
140.438
62.167
42.0961
-30.5724
-9.85914
19.3078
144.092
-44.0008
-15.9186
525.111
-92.5214
1.69651
1191.8
-106.77
1.11709
1489.26
-0.189009
1777.84
103.53
2.31531
1492.8
94.8824
9.89145
1473.81
75.9641
4.08116
1284.86
64.0703
-0.518761
1111.52
52.2852
-3.33662
918.548
41.089
-5.37374
706.039
40.7806
-13.6842
467.224
26.867
5.3211
210.82
4.4504
-2.6645
-138.901
28.6918
-10.3783
27.6323
-3.79533
4.45646
283.253
-44.4582
-31.1563
564.247
-91.6154
2.09829
1197.87
-104.507
2.63875
1503.69
-0.245191
1812.21
102.723
3.13326
1516.41
95.2057
12.4554
1474
75.8633
5.08907
1267.31
64.0906
-1.18299
1092.36
52.4306
-5.3439
910.654
40.212
-7.44383
693.713
36.349
-17.3738
510.324
45.6329
10.0697
289.248
28.8205
18.0059
-106.023
8.2248
-5.62574
111.361
-5.55593
-6.80249
413.188
-48.6315
-12.7987
724.338
-91.4212
1.05365
1180.62
-103.58
3.16867
1502.4
-0.151684
1828.39
102.587
3.53465
1533.07
95.5999
12.8239
1468.95
75.5663
5.43294
1245.62
63.7959
-1.57926
1073.33
51.9316
-6.56266
904.666
39.0746
-8.70158
692.273
31.2568
-14.7846
559.59
48.0215
-2.5039
422.556
100.121
-30.3737
135.812
72.533
4.76123
-2.47799
-10.0894
14.7199
222.787
-48.9893
8.10834
817.048
-90.3491
0.242836
1184.08
-103.836
4.48569
1494.85
-0.0462042
1825.79
102.908
3.50213
1542.99
95.9269
11.892
1462.21
75.1349
5.47063
1224.54
63.2496
-1.48919
1055.53
51.4424
-6.91039
901.203
37.6637
-8.72139
697.141
30.0515
-11.7971
575.471
21.237
8.74766
449.586
45.5692
-64.9268
272.461
36.9616
11.9277
156.469
-6.19014
15.922
172.599
-45.4645
11.3992
669.454
-89.4108
0.858463
1195.91
-104.41
6.94107
1488.25
0.198718
1818.42
103.534
3.07642
1548.36
96.119
10.4044
1457.94
74.5189
5.17002
1206.73
62.5499
-1.19418
1038.96
51.0645
-6.6284
898.183
38.2668
-8.83895
702.792
31.9659
-11.0924
590.163
30.1604
13.0757
441.961
88.9215
-118.817
122.081
96.8673
15.3513
77.8345
24.3406
37.7917
135.81
-40.5075
17.8281
572.167
-88.4225
3.72509
1200.7
-105.227
9.31989
1468.67
-0.133411
1805.8
104.191
2.3576
1549.37
96.7041
8.15307
1450.6
74.4044
4.56436
1187.03
62.1409
-0.390891
1020.43
50.9207
-5.5274
894.106
37.8509
-7.77474
700.577
34.1249
-9.96123
634.355
52.027
4.74224
429.751
131.992
-146.244
-31.6845
99.635
22.9698
-36.4396
11.5059
57.1817
169.279
-40.3068
14.2525
584.753
-88.49
5.59917
1201.07
-102.839
8.81748
1480.22
0.0960986
1846.16
104.964
1551.24
97.5367
1446.9
74.4496
1165.3
62.0485
991.319
50.7757
878.419
37.031
697.613
33.999
670.182
55.4353
474.865
100.458
-49.2638
48.9252
-26.1295
-2.29252
264.28
-42.6203
619.552
-89.7241
1184.98
-102.549
1487.94
1866.32
336.986
-5.37937
1491.64
293.825
-21.4107
1498.46
231.798
-15.9656
1236.43
184.078
-0.469394
1042.76
149.962
18.5998
909.38
100.691
27.5251
737.552
76.6822
37.5673
686.743
84.743
29.7562
444.108
106.352
150.176
-24.7623
29.5463
-157.913
85.5128
-44.8024
-130.813
409.76
-161.34
-11.5267
745.114
-265.904
-17.4405
1283.45
-323.315
-18.239
1542.67
5.23188
1898.49
334.278
-6.71813
1490.96
291.242
-26.8957
1500.22
231.937
-18.1031
1252.92
184.903
1.97413
1069.24
150.983
22.6698
927.479
102.771
33.079
743.953
78.8783
44.3623
659.528
74.0318
59.4648
417.933
143.069
178.594
-66.1179
82.8205
-80.1247
24.7875
-42.4028
-97.1621
344.097
-157.814
-48.7751
734.218
-265.018
-15.4447
1295.48
-325.375
-20.0126
1533.6
6.82772
1880.94
332.153
-7.06046
1490.4
289.178
-30.2445
1505.49
232.242
-19.1016
1269.12
186.231
3.38713
1087.49
152.23
23.5826
934.679
107.33
32.7914
749.77
81.1683
42.314
624.321
74.6233
54.492
447.265
166.312
156.932
84.7521
157.953
-15.7858
53.2794
-1.66861
-38.6834
277.386
-156.328
-65.3272
724.343
-268.914
-6.22093
1293.26
-335.519
-15.4538
1521.34
2.35324
1842.43
330.116
-6.11908
1485.67
288.136
-32.0549
1507.39
234.17
-19.4282
1283.29
188.858
4.0853
1103.97
153.756
22.6079
939.793
108.729
30.077
749.41
78.9501
43.275
603.388
71.9372
41.6001
464.568
146.221
80.0747
285.364
162.913
6.69743
158.589
18.7812
5.14024
274.752
-153.715
-35.1914
752.794
-265.966
2.45894
1291.81
-329.172
-10.5318
1537.83
2.93134
1855.36
329.097
-3.80431
1476.06
287.141
-30.0585
1510.25
235.355
-18.2417
1300.38
190.736
3.45566
1122.08
155.245
18.7925
945.126
111.579
24.5499
745.566
81.0745
45.4361
594.482
88.629
16.4802
447.371
170.456
-25.1506
165.904
145.912
28.9405
32.3357
-15.9722
62.7871
324.286
-157.653
39.1658
867.588
-265.627
10.4434
1276.64
-326.272
-8.43431
1546.51
4.63531
1863.01
329.549
-0.613507
1460.06
286.586
-21.8724
1510.04
235.888
-13.6754
1317.4
191.71
2.11344
1141.25
156.674
12.1841
951.704
113.206
18.2852
744.692
94.2666
32.3656
564.586
110.675
16.4448
256.594
136.093
1.39588
-46.0441
83.3313
-16.4751
53.2739
-32.7448
82.6069
386.069
-160.388
87.5175
817.586
-268.391
15.4873
1280.26
-326.85
-6.70821
1555.78
6.02433
1862.91
332.61
1.69674
1436.93
287.279
-6.10361
1503.46
235.622
-3.53571
1329.43
191.639
1.16659
1159.44
155.977
4.67138
961.873
117.23
6.55942
754.769
83.7223
20.447
527.893
130.906
-27.4136
322.623
156.231
75.7719
14.4788
46.26
17.2232
32.6348
-58.8661
59.9033
360.8
-169.287
59.414
756.428
-272.687
12.5179
1297.09
-332.11
-3.90726
1556.18
4.48351
1848.69
334.491
3.04291
1427.21
288.173
11.8897
1498.28
235.79
8.73342
1330.02
191.685
0.976904
1163.83
156.069
-2.76841
964.453
119.676
-7.07169
762.745
95.8736
-6.02781
513.137
136.074
-95.5386
292.645
151.521
77.7817
122.984
46.937
98.2207
-6.9813
-78.9668
14.9017
314.999
-181.907
-33.6531
721.119
-280.728
1.5072
1301.63
-344.181
3.40397
1545.4
-3.44125
1816.97
331.987
5.18795
1443.12
286.907
25.9081
1504.86
235.618
17.6999
1327.18
191.352
0.370473
1156.39
155.969
-9.74145
960.904
114.308
-15.7496
756.378
95.6476
-32.4544
512.313
57.6472
-46.0807
199.364
26.9251
66.2491
-96.6437
25.3163
79.0315
48.4337
-57.1575
3.67814
376.951
-171.787
-77.8308
723.053
-273.129
-4.60705
1305.33
-331.979
6.18231
1559.76
-4.53785
1851.72
329.499
7.50101
1465.75
286.418
32.7734
1510.21
235.684
21.528
1314.21
191.282
-0.575256
1137.7
156.499
-15.611
951.306
110.937
-20.4817
744.009
91.4149
-43.1818
540.574
50.6271
29.0057
254.951
26.6934
48.44
-64.2785
34.6452
24.7152
157.726
-39.1991
34.4263
456.285
-163.175
-32.0643
802.547
-270.107
-0.44017
1283.39
-326.432
6.47795
1558.43
-2.6767
1868.18
329.352
8.85829
1481.32
287.107
33.9167
1510.05
235.017
22.1878
1297.05
190.349
-1.09461
1118.52
155.321
-19.4238
943.507
110.6
-25.4244
741.937
78.8057
-38.7138
586.917
107.536
-3.75908
426.592
188.09
7.57411
96.1245
133.337
63.0783
13.9135
-32.9046
75.8691
347.586
-163.354
35.5862
879.847
-268.572
6.38157
1282.47
-327.336
8.67474
1551.42
-1.06655
1865.4
330.663
9.00136
1490.07
288.295
31.5062
1506.99
233.875
21.3858
1279.75
188.653
-0.563127
1100.21
153.983
-20.6908
937.14
108.345
-28.2077
745.563
78.8467
-35.0744
601.33
86.6459
-30.356
468.384
174.868
-91.8744
283.686
166.472
115.539
112.402
1.47905
140.005
273.454
-160.22
74.6391
792.099
-269.203
15.2427
1296.03
-330.785
14.8667
1543.64
-0.681805
1856.82
332.965
8.02251
1493.99
289.511
27.7253
1505.17
231.991
19.9309
1265.7
186.124
0.423655
1083.84
152.528
-20.3213
931.41
108.273
-29.8551
748.695
84.3476
-39.0721
618.087
98.9577
-59.92
456.915
195
-165.257
99.421
173.639
195.89
18.8443
-1.99813
191.316
260.136
-164.743
69.8133
739.737
-272.794
22.521
1301.48
-337.63
20.7269
1527.65
-5.35491
1843.76
335.279
6.18978
1493.89
291.711
21.9121
1499.98
231.775
17.2946
1249.6
184.83
2.33474
1065.46
151.389
-16.9761
924.202
103.731
-25.7144
744.095
83.1834
-37.0767
652.908
81.7425
-45.9272
417.199
143.378
-163.677
-94.8983
83.1269
222.991
-3.28923
-48.9056
186.127
306.5
-167.027
37.5595
735.128
-269.827
22.2743
1304.12
-328.08
19.537
1539.66
-4.03915
1881.51
338.174
1494.02
294.403
1498.55
231.652
1233.65
183.909
1039.37
149.961
906.394
100.007
738.38
75.2405
682.19
69.792
454.469
81.8274
-79.9286
10.684
37.7065
-63.3524
366.849
-171.206
746.062
-272.198
1292.71
-326.707
1548.48
1898.91
643.209
-8.14159
1247.5
579.704
-26.7
1569.87
463.325
-30.3512
1360.88
341.862
-11.5915
1166.08
258.933
27.0653
983.372
159.404
51.673
821.646
77.7255
78.9049
742.151
-22.6425
123.882
488.495
-125.462
-4.43032
36.9011
-161.164
-282.575
144.591
-219.977
-172.062
498.306
-387.33
-11.7644
921.563
-520.934
-31.5536
1426.51
-639.366
-19.3272
1665.27
11.7095
1761.3
638.055
-9.81972
1249.75
573.482
-32.9398
1571.02
461.657
-35.5852
1369.98
342.961
-9.58706
1185.93
261.521
34.0748
1001.91
164.568
62.0147
830.564
84.3472
96.4494
722.204
-14.2486
190.981
449.43
-90.6925
58.2845
-52.389
-145.82
-267.205
64.5448
-243.564
-180.985
450.765
-389.74
-59.0415
927.67
-523.481
-35.1116
1432.77
-644.385
-21.6632
1656.84
12.749
1747.32
634.205
-9.65364
1250.98
568.334
-36.1058
1574.52
460.059
-38.7044
1380.51
344.315
-7.95952
1201.6
265.755
35.0875
1012.23
178.33
59.8962
839.314
114.812
83.0913
701.198
92.3709
151.628
509.059
101.208
86.7842
47.4155
-12.5425
-138.06
37.8845
-225.668
-115.335
424.861
-395.209
-101.829
936.672
-538.279
-26.4397
1427.66
-664.042
-17.0301
1642.47
-0.358658
1710.82
629.976
-7.0311
1248.86
564.361
-37.4894
1574.39
461.424
-41.3877
1388.91
348.864
-7.39221
1215.96
269.699
33.2201
1020.83
183.652
52.4174
842.935
119.497
66.0651
684.57
119.705
75.0113
540.977
180.993
13.008
297.852
94.7487
-2.06164
108.835
-158.665
-26.8235
439.654
-378.122
-76.3507
946.772
-522.81
-16.6884
1426.75
-646.337
-12.6407
1656.97
1.30351
1726.19
627.215
-1.91646
1241.83
561.445
-34.228
1572.75
461.645
-40.4052
1399.2
351.321
-7.38071
1232.4
272.532
26.8947
1030.24
187.379
40.7071
842.43
115.695
57.1412
675.09
118.741
2.97321
516.363
195.841
-75.4389
177.252
104.266
21.4403
100.409
-144.245
53.3128
492.661
-360.21
25.1692
982.032
-516.123
3.01202
1412.85
-638.774
-12.1104
1668.63
8.03252
1734.99
627.051
3.35828
1229.03
560.873
-24.0598
1566.04
461.198
-31.3253
1407.99
351.8
-6.03523
1249.3
272.626
17.66
1040.11
184.544
29.6247
843.857
100.991
52.0491
653.232
18.301
35.0365
307.222
-15.8898
-115.906
28.6161
-41.6742
-107.5
208.001
-166.631
48.5198
515.819
-364.869
93.2318
947.761
-517.316
17.7819
1417.93
-638.284
-11.1813
1675.82
14.3499
1734.96
632.107
4.37764
1208.93
565.337
-6.02175
1552.19
460.578
-8.8327
1411.7
350.758
-0.925694
1264.15
271.975
6.55075
1051.77
190.522
11.4447
854.402
111.007
25.5404
633.917
82.9885
15.8973
369.782
-9.97681
1.33949
-9.79808
-147.77
-62.4896
125.419
-237.295
8.76613
490.079
-394.06
59.7242
946.7
-528.198
14.1643
1434.85
-651.123
-7.60729
1675.53
10.8455
1719.61
635.522
3.04607
1199.88
568.891
14.0025
1544.89
461.172
18.9318
1409.97
350.578
6.3718
1267.13
271.072
-3.69128
1054.2
194.853
-10.3195
860.729
130.577
-23.2719
626.226
153.529
-106.585
392.177
44.286
88.1016
145.468
-180.217
119.422
35.6135
-308.945
8.5621
443.931
-427.946
-36.0755
935.919
-546.627
-0.241952
1434.71
-672.274
4.07369
1659.36
-9.89094
1689.39
631.474
5.06952
1213.86
564.517
30.1202
1555.7
460.89
38.49
1411.25
350.582
11.3863
1261.68
270.88
-13.1197
1050.03
186.582
-25.025
855.383
101.682
-48.7475
622.689
-11.6814
-60.6182
266.762
-120.588
137.438
-37.072
-170.444
111.179
106.534
-248.615
-5.9894
469.674
-401.832
-84.7712
924.966
-527.934
-11.1596
1442.34
-650.449
8.29348
1678.05
-14.1255
1723.52
627.967
9.18309
1233.67
561.207
38.7797
1568.31
461.519
45.7604
1406.63
351.336
12.9731
1246.3
271.496
-20.6637
1038.69
180.002
-32.9685
843.447
84.7343
-45.2095
632.305
-39.5157
39.2192
279.365
-85.8005
65.5394
53.9068
-64.2046
-1.42608
248.737
-169.527
29.4276
526.191
-366.508
-17.8345
932.592
-516.233
1.77753
1420.17
-635.302
8.11266
1677.68
-7.55371
1742.04
628.793
12.1702
1246.45
562.392
41.019
1574.21
461.952
45.624
1397.63
350.824
13.0777
1229.54
271.973
-26.7099
1028.4
183.938
-42.5997
839.603
110.098
-52.99
668.538
108.916
-10.6593
477.653
172.477
32.6358
65.4675
71.1279
4.9527
108.884
-161.095
98.2881
510.948
-363.697
76.4823
988.132
-516.859
21.0924
1416.32
-636.856
9.07796
1670.45
-0.84837
1739.02
631.845
13.1372
1252.62
565.879
38.7517
1575.22
462.029
42.0375
1387.19
348.863
13.305
1213.15
269.673
-28.855
1018.47
182.332
-49.8041
840.109
115.762
-66.0154
680.928
131.548
-98.8741
540.813
198.408
-60.9335
310.399
82.7494
144.912
88.1049
-171.418
182.976
442.935
-377.689
112.671
962.181
-522.351
33.8462
1427.94
-643.289
15.0214
1658.63
1.72667
1729.65
636.433
12.1072
1253.7
570.383
34.8455
1575.12
460.944
38.196
1378.98
344.644
14.2493
1199.19
266.101
-28.6031
1009.7
179.509
-53.6123
839.096
117.206
-82.174
696.55
118.929
-164.322
520.642
114.261
-58.5015
101.66
-30.0316
270.429
37.6199
-233.042
211.665
434.457
-399.743
76.312
942.797
-539.123
42.1984
1432.5
-661.458
20.6396
1644.36
-10.8231
1714.27
640.522
9.56232
1251.64
575.891
27.9627
1571.49
462.818
32.2645
1368.6
343.572
15.3066
1183.65
262.457
-22.8204
999.534
166.627
-45.162
831.475
90.925
-71.6255
718.062
-4.27516
-106.835
454.913
-94.6256
-28.1266
-34.9223
-156.855
224.748
104.621
-250.159
149.216
462.252
-396.724
31.2705
926.734
-525.787
36.9368
1438.44
-642.868
18.9093
1658.47
-9.79472
1749.89
645.974
1248.63
582.466
1570.45
464.716
1360.06
342.598
1164.47
259.815
981.539
161.396
823.313
80.9443
740.317
-17.0572
500.836
-102.635
17.9357
-148.512
141.583
-230.012
486.626
-395.47
921.946
-524.712
1432.77
-638.544
1666.19
1763.89
901.404
-7.80168
899.76
940.742
-23.7912
1536.6
815.495
-37.1893
1495.04
615.252
-29.9306
1371.94
438.052
16.091
1153.75
271.113
62.0324
971.819
114.955
109.83
866.754
-127.365
172.238
676.319
-343.935
27.2911
277.848
-373.739
-228.895
231.017
-461.874
-188.148
625.841
-661.127
-38.6695
1132.52
-847.208
-27.6589
1622.15
-930.109
9.56054
1739.81
26.0399
1490.36
896.841
-8.95876
903.456
931.757
-27.4741
1539.79
809.036
-44.2744
1499.78
612.798
-31.3049
1383.54
438.753
23.5339
1168.51
273.231
76.1043
982.015
110.032
139.115
856.119
-134.134
236.605
629.229
-315.526
-12.5423
168.836
-367.065
-267.325
154.514
-486.563
-182.627
564.741
-663.695
-62.5878
1128.72
-849.058
-31.0587
1621.54
-935.449
14.4465
1738.34
29.095
1485.21
893.657
-8.09471
905.51
924.706
-27.0697
1543.07
803.282
-48.2219
1505.88
610.558
-31.2373
1394.26
442.896
24.8905
1178.53
291.411
74.8782
992.025
163.783
121.125
846.815
30.6361
206.291
672.52
-136.384
-30.4768
232.37
-318.167
-165.384
117.727
-506.799
-87.888
518.754
-676.906
-82.9252
1127.12
-874.171
-17.8777
1611.74
-956.655
16.2006
1723.2
7.97608
1460.7
888.738
-3.75649
906.013
917.613
-24.6354
1543.07
800.603
-51.8037
1509.5
613.851
-32.4022
1403.87
448.965
22.6311
1187.97
302.418
65.401
998.96
180.716
89.1967
838.201
126.579
108.117
693.289
-36.5785
2.50258
428.031
-271.953
-0.474675
179.3
-465.147
-20.2112
565.171
-655.674
-81.145
1135.52
-846.235
-14.7516
1614.18
-935.696
15.5481
1747.08
4.4618
1480.69
884.649
3.13277
903.076
912.291
-18.7549
1539.23
797.378
-50.3735
1512.68
613.838
-31.4519
1414.98
451.612
16.2781
1198.82
305.448
50.7179
1003.28
170.165
68.0976
831.473
86.469
34.8783
673.299
-71.4013
4.84088
332.784
-235.057
17.0608
246.53
-397.933
-5.58883
640.915
-629.876
-10.0578
1142.89
-835.054
-1.86816
1605.14
-928.32
8.97241
1768.47
9.35177
1488.01
883.17
8.03248
896.328
911.079
-9.53343
1528.91
795.234
-38.5984
1512.06
612.11
-24.3827
1425.35
449.234
9.3822
1209.88
300.188
35.0473
1008.57
128.399
68.8574
824.261
-116.496
48.8542
538.142
-291.304
-42.2562
250.523
-309.131
-105.541
348.432
-411.524
-58.6072
671.231
-630.145
27.7361
1128.59
-827.636
6.25
1607.31
-925.098
2.84225
1779.41
16.2613
1488.49
886.128
6.08194
884.09
918.156
0.179645
1510.44
796.562
-10.5111
1505.2
610.136
-6.2373
1432.42
446.544
4.10558
1220.63
302.733
14.0471
1019.21
154.15
33.0629
818.295
-57.8937
58.2753
572.406
-300.431
-9.08614
199.57
-411.426
-86.32
217.194
-502.058
-69.4189
591.523
-663.562
3.66604
1132.27
-843.913
1.7401
1619.71
-941.222
-2.18658
1777.86
10.3352
1472.33
887.812
1.96465
878.304
923.282
7.99657
1501.59
799.186
23.4388
1500.12
610.686
16.6645
1432.72
444.472
1.83454
1222.68
305.736
-9.60686
1023.12
185.004
-35.4799
815.502
120.84
-80.8551
595.471
-103.206
48.9265
311.503
-387.591
131.29
102.391
-547.295
59.4374
474.779
-685.785
-2.73464
1080.81
-854.804
0.686874
1604.79
-951.673
-5.78569
1759.83
-11.0677
1453.19
885.389
3.1964
886.953
917.114
16.831
1515.14
797.049
47.6649
1507.08
610.592
33.1503
1431.65
445.056
-1.69922
1219.1
298.95
-27.2536
1019.14
134.634
-63.3548
814.88
-120.491
-67.4726
508.506
-330.621
78.6799
143.305
-398.147
121.218
184.133
-494.986
66.8719
559.079
-662.074
-24.1263
1113.44
-840.409
-5.26771
1626.63
-939.575
-8.96182
1780.4
-18.3926
1477.91
884.838
7.85334
898.963
912.603
25.1008
1532.27
796.845
57.174
1512.87
612.603
39.6192
1424.07
447.264
-6.29497
1208.63
293.177
-38.2016
1008.48
92.7261
-45.4848
814.885
-188.856
1.18592
492.288
-320.751
24.045
240.438
-299.646
-20.4785
369.328
-403.502
35.7361
661.184
-624.914
14.6176
1115.26
-821.272
2.12001
1609.14
-920.686
-14.7111
1782.84
-11.3812
1497.75
887.913
11.4174
905.976
915.256
30.5327
1541.43
799.704
57.405
1512.94
614.671
40.3354
1413.85
451.086
-12.2008
1197.89
300.232
-49.941
1002.2
158.521
-64.4942
829.258
16.8027
-24.443
645
-145.647
9.7846
242.179
-260.796
-45.2422
248.797
-401.149
49.291
637.746
-625.71
80.3504
1146.96
-829.907
14.7325
1607.9
-923.858
-20.3531
1770.04
-6.462
1495.05
891.884
12.8046
908.509
921.158
32.2334
1544.24
803.638
52.6979
1509.41
615.725
38.4915
1402.91
449.734
-14.866
1187.13
300.974
-59.1299
998.058
174.195
-93.5717
836.783
138.35
-140.364
692.578
-9.55842
14.3635
453.724
-259.916
122.006
171.211
-454.134
124.321
562.121
-645.563
94.9274
1139.03
-839.412
20.6321
1615.89
-929.238
-19.8172
1747.92
-8.38636
1487.97
896.661
11.8491
907.114
928.861
31.5888
1543.56
807.006
47.7742
1505.76
613.323
37.5685
1393.79
444.779
-14.597
1177.98
293.92
-62.2921
993.116
167.382
-116.526
846.041
60.3353
-194.578
681.9
-123.858
14.6442
285.569
-332.81
217.582
150.993
-500.481
173.703
552.743
-669.533
71.437
1135.34
-867.757
35.6134
1615.74
-950.055
-17.5304
1724.37
-28.5503
1468.98
899.764
9.54769
904.357
936.268
26.7201
1539.85
813.243
39.7611
1499.63
616.221
34.8926
1383.35
441.731
-8.85992
1168.29
277.16
-50.3459
984.099
117.164
-94.3032
855.834
-131.03
-127.619
636.147
-335.524
-9.45537
193.668
-383.418
142.379
227.716
-483.175
124.961
610.749
-658.316
40.2818
1133.03
-843.28
34.0781
1624.94
-928.913
-12.228
1738.8
-25.0736
1493.35
904.495
899.949
945.706
1536.43
820.22
1495.21
619.219
1372.48
441.546
1154.33
276.51
974.492
122.464
867.768
-110.502
684.211
-319.243
265.991
-357.863
249.717
-459.16
638.002
-657.764
1131.34
-840.467
1625.76
-923.252
1740.11
1499.54
1017.08
-4.58341
643.305
1188.89
-18.1201
1368.98
1165.71
-32.9039
1525.37
981.805
-41.3564
1563.97
736.392
-10.5442
1398.42
497.434
43.3818
1198.3
282.035
104.396
1055.7
6.70559
165.415
911.008
-371.033
174.572
650.266
-521.744
-48.2917
428.722
-621.215
-179.349
786.023
-851.712
-90.8707
1387.32
-1114.24
-26.7939
1895.06
-1087.61
40.9077
1693.24
32.9106
1263.01
1015.22
-4.7427
645.653
1181.61
-18.3821
1373.66
1156.86
-38.2839
1529.91
974.255
-45.9686
1570.76
731.903
-7.28757
1407.61
493.115
56.7083
1207.48
266.308
132.237
1055.09
-47.1869
218.879
889.259
-396.531
133.175
559.578
-503.673
-131.648
345.011
-623.756
-192.767
698.243
-855.627
-85.0894
1354.81
-1113.78
-34.8484
1887.74
-1091.22
47.7726
1708.92
34.6772
1271.74
1014.17
-3.49711
646.985
1176.54
-14.3044
1376.62
1149.49
-39.5399
1534.18
967.151
-47.0072
1577.64
729.867
-6.51544
1415.04
504.666
58.0095
1215.93
309.079
120.245
1054.39
89.0164
208.184
903.278
-192.744
36.1245
611.18
-408.339
-135.279
336.952
-633.241
-40.9812
591.87
-867.44
-31.2442
1307.47
-1131.41
-26.7955
1867.66
-1099.19
36.9416
1701.81
13.0018
1270.93
1010.47
1.30196
648.534
1169.49
-7.93014
1377.67
1143.28
-39.855
1536.02
965.92
-48.6541
1582.88
733.984
-8.87517
1422.27
516.959
50.7361
1223.26
326.467
95.4453
1053.49
185.957
138.329
903.654
-102.284
40.6135
711.783
-415.707
-38.6857
396.13
-620.128
61.8446
666.767
-836.839
-20.9439
1341.93
-1090.96
-26.634
1868.14
-1081.23
33.2807
1741.01
5.99078
1295.47
1007.57
6.63774
648.777
1163.94
0.420544
1374.49
1137.53
-35.7293
1534.96
961.925
-45.8562
1587.79
733.351
-12.182
1430.7
519.105
37.9115
1230.35
317.407
76.7242
1051.89
134.65
97.8129
896.571
-218.135
69.3844
656.798
-455.387
11.1816
433.915
-569.879
3.66697
813.584
-813.212
-26.4666
1391.74
-1078.06
-17.5651
1860.92
-1079.84
27.7913
1775.74
7.41549
1296.83
1006.26
8.48463
647.629
1161.82
7.98206
1365.78
1134.62
-24.6328
1528.16
958.552
-34.1682
1589.73
729.115
-11.486
1438.62
514.535
23.3199
1237.75
293.128
68.1932
1054.2
-11.9099
90.2194
850.774
-368.851
87.0466
589.802
-504.84
-6.04151
501.644
-593.117
-105.741
868.916
-815.784
-68.4471
1393.24
-1063.9
-20.7917
1858.65
-1078.12
22.3147
1799.11
13.2487
1294.31
1005.49
5.44922
644.607
1166.27
7.43681
1350.2
1138.11
-4.85138
1513.58
958.412
-8.37715
1586.33
724.921
-1.82345
1444.46
511.039
9.36279
1247.05
307.903
32.3777
1057.25
54.4776
55.1913
860.859
-301.04
58.3084
583.825
-514.157
25.976
398.294
-638.106
-70.5505
680.282
-840.039
-61.1873
1326.95
-1086.56
-18.5105
1863.94
-1092.88
5.23736
1801.26
3.81174
1282.45
1004.01
2.2859
643.334
1169.25
0.842992
1342.94
1141.89
16.8582
1505.77
961.115
22.4505
1582.67
723.789
13.3216
1444.87
508.111
-1.12549
1249.29
320.257
-22.3609
1058.1
175.658
-67.5634
862.825
-96.0974
4.84448
636.723
-388.922
87.8053
333.387
-591.525
110.302
496.531
-819.548
53.7874
1193.86
-1076.43
8.92571
1834.23
-1083.37
-21.474
1793.48
-5.7655
1278.89
1004.16
3.35241
645.907
1165.43
0.560977
1354.15
1138.29
34.1621
1516.92
959.393
45.4225
1587.58
724.807
22.9934
1444.02
507.08
-10.8866
1246.62
295.557
-54.3775
1058.42
-16.9939
-85.1688
838.662
-369.512
-14.6321
515.3
-503.435
52.8378
353.022
-608.577
103.257
671.266
-827.45
64.4294
1321.68
-1080.06
16.9298
1871.24
-1090.08
-36.0377
1804.98
-15.0337
1288.62
1007.16
6.42378
648.939
1163.95
7.48734
1368.55
1137.15
43.7272
1530.1
960.715
55.7018
1590.23
728.991
24.9512
1438.39
508.841
-20.5571
1238.3
265.075
-50.6417
1054.92
-107.968
-42.9753
823.137
-432.066
4.86789
545.036
-491.953
-36.6781
518.732
-575.042
-23.4832
871.013
-805.29
25.4797
1384.46
-1056.84
15.8323
1861.79
-1075.47
-39.9266
1805.36
-9.23672
1303.19
1011.29
8.26713
650.175
1168.17
15.8256
1376.2
1141.68
47.1793
1535.98
965.19
57.9142
1588.13
735.258
21.7019
1431.08
517.247
-31.6366
1231.29
310.697
-68.4925
1053.66
86.6948
-63.6305
889.657
-256.685
-19.3639
609.791
-449.149
-14.3403
418.923
-563.61
-64.7951
793.519
-806.738
24.3928
1391.17
-1071.9
23.3171
1865.57
-1076.64
-44.1061
1778.96
-7.58709
1304.42
1014.26
8.75605
650.051
1173.92
21.944
1378.45
1148.16
45.9393
1536.41
970.501
55.3229
1583.16
737.697
18.5421
1423.09
518.812
-39.426
1224.73
323.14
-91.7194
1055.68
198.106
-151.112
905.094
-69.3042
-31.9372
733.709
-388.951
71.6263
404.893
-599.984
48.1691
660.191
-823.314
44.8693
1341.89
-1083.86
28.1233
1871.63
-1076.54
-46.4563
1742.95
-13.5569
1304.08
1016.96
7.56407
648.33
1181.01
24.8435
1376.61
1155.07
43.4802
1534.15
973.025
53.0158
1578.14
735.25
17.8753
1416.42
510.46
-40.2825
1218.76
314.752
-107.876
1057.91
113.433
-178.361
910.469
-188.301
-91.0287
646.395
-435.631
89.5098
380.439
-635.683
160.424
640.541
-856.661
77.1032
1324.08
-1123.85
38.1397
1872.91
-1094.73
-56.3229
1705.12
-35.6898
1281.4
1017.44
6.19701
646.741
1186.06
22.9016
1373.16
1162.81
36.7688
1529.6
980.885
46.8963
1571.39
738.529
19.1037
1409.41
500.634
-29.5324
1211.24
275.007
-85.6629
1059.25
-41.5716
-124.764
899.127
-407.987
-110.416
579.469
-524.882
27.3174
406.8
-625.814
118.687
753.417
-844.053
65.2787
1363.09
-1103.86
31.5484
1891.34
-1085.05
-48.4556
1712.12
-33.7148
1283.17
1019.31
644.033
1193.68
1368.04
1172.2
1524.98
989.303
1565.05
744.006
1401.1
506.427
1202.85
291.382
1060.75
17.1734
921.244
-363.181
649.602
-512.354
442.524
-610.979
798.873
-839.146
1380.1
-1101.6
1898.95
-1080.98
1697.83
1275.4
1064.29
-1.7812
546.222
1262.31
-12.3948
1173.48
1363.7
-24.0596
1428.6
1296.97
-40.4966
1638.62
1082.31
-32.2247
1617.6
816.31
7.56177
1459.44
559.247
63.7188
1296.61
307.559
129.792
1133.57
-108.561
212.609
1026.42
-397.666
143.005
712.832
-575.486
-137.029
1031.38
-893.29
-145.04
1761.56
-1249.6
3.54455
2277.49
-1075.16
178.105
1460.93
99.1525
1201.47
1063.67
-0.887542
546.804
1258.7
-10.9905
1177.22
1356.85
-26.0786
1433.78
1287.78
-45.3245
1644.65
1073.68
-33.862
1623.34
808.386
14.8187
1465.51
544.871
81.7167
1300.6
259.847
168.307
1135.77
-174.551
221.615
984.97
-386.666
55.0943
645.037
-532.322
-204.152
911.021
-879.578
-142.638
1699.66
-1238.61
-8.69057
2259.01
-1081.86
221.883
1508.38
127.928
1227.69
1063.68
0.808895
547.322
1257.14
-6.76376
1178.92
1351.83
-23.5898
1437
1279.6
-45.2421
1649.78
1065.69
-33.8508
1628.94
808.209
16.7307
1471.5
564.426
76.2338
1303.66
333.105
162.496
1140.41
17.2898
137.768
1010.84
-195.867
-87.4537
692.657
-454.829
-105.478
752.158
-871.498
-15.8918
1597.39
-1252.71
13.5714
2226.61
-1105.13
225.352
1550.76
88.6483
1269.82
1061.93
4.09833
548.411
1252.62
-0.130416
1180.35
1345.68
-19.3383
1438.7
1274.8
-44.394
1652.91
1065.1
-35.3664
1633.48
815.236
12.9084
1476.94
575.293
63.7825
1305.89
378.044
125.212
1138.19
96.6021
90.1944
1040.8
-219.449
-86.6016
711.329
-536.126
13.6369
864.33
-897.64
32.7098
1654.84
-1232.03
14.9717
2201.13
-1107.73
201.388
1640.66
37.2586
1312.67
1061.15
6.32099
549.486
1248.63
7.85026
1179.03
1340.26
-12.4129
1436.41
1268.86
-38.6664
1653.46
1060.28
-34.1823
1638.09
813.986
5.90811
1483.65
568.594
52.8677
1308.2
349.825
99.8022
1140.75
-38.1885
115.964
1019.04
-401.028
18.4328
691.72
-635.983
-39.7475
1101.92
-934.458
-39.4006
1762.33
-1222.09
-3.45476
2166.98
-1099.47
146.128
1708.37
4.22643
1322.45
1060.53
6.73149
550.626
1245.79
13.508
1174.85
1337.05
-4.13325
1428.62
1265.24
-26.0607
1648.94
1055.13
-25.7722
1640.32
808.497
0.238594
1490.05
559.655
42.9731
1312.93
290.173
83.1703
1136.89
-128.02
135.687
988.273
-459.116
136.046
715.127
-664.886
-91.7483
1126.69
-935.685
-140.461
1765.09
-1197.06
-37.243
2153.81
-1091.67
90.9307
1748.92
-4.77789
1313.73
1059.29
5.25991
551.94
1246.26
9.53075
1167.2
1339.4
2.61746
1413.69
1267.36
-4.7425
1637.04
1052.84
-5.16545
1638.38
802.062
2.09862
1495.97
560.513
21.5033
1320.27
327.781
37.4598
1139.3
-21.3718
70.2852
998.38
-330.289
131.833
711.424
-573.524
13.4354
818.333
-903.097
-88.3542
1604.41
-1198.53
-34.5051
2156.63
-1094
25.458
1762.21
-10.2432
1300.12
1057.58
4.55986
552.786
1246.62
-0.248924
1163.67
1341.91
6.92236
1406.18
1271.18
18.5846
1630.06
1054.46
20.7922
1635.63
797.74
11.4527
1496.66
556.191
-1.61742
1322.76
356.49
-37.6519
1137.64
86.2099
-28.1271
1005.42
-168.836
-8.26294
728.53
-408.033