/*--------------------------------*- C++ -*----------------------------------*\
| =========                 |                                                 |
| \\      /  F ield         | OpenFOAM: The Open Source CFD Toolbox           |
|  \\    /   O peration     | Version:  4.1                                   |
|   \\  /    A nd           | Web:      www.OpenFOAM.org                      |
|    \\/     M anipulation  |                                                 |
\*---------------------------------------------------------------------------*/
FoamFile
{
    version     2.0;
    format      ascii;
    class       volVectorField;
    location    "22";
    object      U;
}
// * * * * * * * * * * * * * * * * * * * * * * * * * * * * * * * * * * * * * //

dimensions      [0 1 -1 0 0 0 0];

internalField   nonuniform List<vector> 
6750
(
(3.40873 -0.00773672 17.4663)
(0.0826231 -0.0298671 16.1256)
(1.5275 -0.0162509 12.8896)
(0.465159 0.00264377 11.0655)
(0.780202 0.0231373 9.82205)
(0.41352 0.0324154 7.73631)
(0.399395 0.0391399 7.6285)
(0.296997 -0.0103697 5.49761)
(0.868946 0.28136 1.03399)
(1.56093 0.141683 0.131624)
(-0.0837819 -0.0184071 2.9819)
(0.410275 0.0181396 6.45015)
(-1.70542 -0.0161893 12.6885)
(0.529358 -0.0310984 16.4003)
(-4.36763 -0.000456912 20.6403)
(3.39676 -0.0145302 17.4366)
(0.0806558 -0.0559596 16.1843)
(1.51455 -0.0270448 13.1608)
(0.470231 0.00855823 11.4013)
(0.779272 0.0420043 9.98709)
(0.41728 0.0590182 7.75511)
(0.404312 0.0761504 7.19976)
(0.267986 -0.0331865 5.08495)
(0.77947 0.386356 1.23254)
(1.59545 0.0729963 0.606331)
(-0.112947 0.0144181 2.50385)
(0.43248 0.0300791 5.95368)
(-1.70173 -0.0176133 12.8964)
(0.538953 -0.0527547 16.3229)
(-4.40641 0.00227996 20.4049)
(3.38516 -0.015456 17.4163)
(0.0798537 -0.0598723 16.2783)
(1.50616 -0.0252175 13.3933)
(0.476386 0.0125453 11.6033)
(0.783829 0.0428634 10.0193)
(0.41859 0.0558032 7.78212)
(0.413556 0.0820765 6.63804)
(0.237684 -0.0511208 4.91129)
(0.359053 0.461331 2.25443)
(1.23837 0.383954 1.38848)
(-0.0848956 0.273692 1.73594)
(0.429414 -0.0440918 5.62272)
(-1.71492 0.00391044 12.9023)
(0.548051 -0.0444735 16.1897)
(-4.50456 0.00126922 19.9352)
(3.37907 -0.0161846 17.3446)
(0.0786566 -0.06864 16.3399)
(1.50516 -0.026533 13.6059)
(0.487124 0.0141603 11.7862)
(0.790771 0.0455085 10.0319)
(0.424943 0.0591545 7.74039)
(0.401754 0.088917 6.39948)
(0.276241 0.0441416 5.01551)
(0.153346 0.346557 3.20414)
(0.625655 0.215182 2.08267)
(-0.248689 0.197931 1.58602)
(0.359283 -0.0850898 6.42041)
(-1.71875 0.0177991 12.894)
(0.531839 -0.0329534 16.44)
(-4.46027 0.00106482 20.0902)
(3.38316 -0.0134076 17.2209)
(0.0771228 -0.068789 16.4309)
(1.50184 -0.0240558 13.8513)
(0.495573 0.0135898 11.9783)
(0.796984 0.0410269 10.0442)
(0.431557 0.053621 7.67638)
(0.416882 0.108436 6.30571)
(0.297191 0.0796762 4.82218)
(0.363644 0.332845 1.33887)
(0.922334 0.408631 0.331257)
(-0.320989 0.142803 2.15609)
(0.267217 -0.0100425 8.8146)
(-1.72776 0.0196701 12.7868)
(0.521313 -0.023092 16.5426)
(-4.43996 0.00283856 20.1652)
(3.40345 -0.00839942 17.022)
(0.0745742 -0.0604367 16.5066)
(1.49656 -0.0205873 14.1072)
(0.502135 0.00968883 12.1871)
(0.799765 0.0312317 10.0834)
(0.447473 0.0456719 7.65986)
(0.434489 0.0938453 5.90363)
(0.436946 -0.0015461 3.08207)
(0.746606 0.00725297 0.540719)
(1.42228 0.317745 -0.704776)
(-0.212139 0.277919 2.83384)
(0.284968 0.138561 8.03374)
(-1.74469 0.0142679 12.778)
(0.514234 -0.017549 16.6762)
(-4.43504 0.00287425 20.1672)
(3.44619 -0.001614 16.7408)
(0.0710645 -0.0336267 16.5108)
(1.49186 -0.01101 14.3108)
(0.504134 0.00469436 12.398)
(0.798732 0.0168164 10.1749)
(0.442025 0.0287342 7.76026)
(0.46024 0.062005 5.29814)
(0.353237 -0.0502967 3.68389)
(0.606359 0.373238 1.53197)
(1.12963 0.317179 -0.950313)
(-0.414841 0.334585 1.9686)
(0.31964 0.213966 6.43963)
(-1.76832 0.0129887 12.9068)
(0.51539 -0.0103385 16.6845)
(-4.47032 0.00192183 20.0061)
(3.46722 0.00441771 16.6237)
(0.0691714 0.00666158 16.4714)
(1.49341 0.00408124 14.3393)
(0.505343 0.0017429 12.4565)
(0.798595 0.00222716 10.2054)
(0.446152 -0.0002199 7.8556)
(0.46821 0.0273697 5.05259)
(0.461819 -0.137841 2.97222)
(0.413707 0.0640436 1.59416)
(1.43276 0.294366 -0.453965)
(-0.326737 0.172048 0.679007)
(0.392901 0.0225205 5.10229)
(-1.79258 0.00821493 12.8874)
(0.525107 -8.84952e-06 16.5598)
(-4.55089 -0.000335093 19.6587)
(3.43663 0.0101805 16.8133)
(0.0705854 0.0436913 16.5051)
(1.49267 0.0183801 14.2742)
(0.503963 -0.000862946 12.3653)
(0.797502 -0.0121633 10.1764)
(0.448376 -0.0233048 7.78126)
(0.436046 -0.0512326 5.12133)
(0.519451 -0.0698342 2.46102)
(-0.0472928 0.0212363 -1.94872)
(0.573683 0.0880638 0.225436)
(-0.277741 0.0557249 2.70889)
(0.362941 -0.201039 5.72109)
(-1.76546 0.010442 12.9755)
(0.512359 0.012158 16.7316)
(-4.46092 -0.00130438 20.0511)
(3.40012 0.0158307 17.0834)
(0.073239 0.0664165 16.4881)
(1.49742 0.0270402 14.0607)
(0.501325 -0.00492049 12.1506)
(0.798685 -0.0252344 10.0939)
(0.449678 -0.0364636 7.64418)
(0.423698 -0.0979634 5.65575)
(0.41109 0.127502 3.38543)
(0.526375 0.0956818 -1.14007)
(0.299653 -0.113162 1.1357)
(-0.239242 -0.0259089 4.40045)
(0.258775 -0.137381 7.87254)
(-1.74706 0.0118419 12.8133)
(0.504439 0.0166568 16.7139)
(-4.42122 -0.00116178 20.2378)
(3.38433 0.0191919 17.2748)
(0.0752456 0.0728887 16.4122)
(1.50273 0.0298514 13.8022)
(0.494537 -0.00838963 11.94)
(0.797367 -0.034397 10.0333)
(0.438108 -0.046752 7.63042)
(0.417302 -0.0945746 6.23699)
(0.302315 -0.00885321 4.78766)
(0.717199 -0.0583675 1.56253)
(1.71166 -0.00394378 -0.126463)
(-0.28319 0.00235082 1.9096)
(0.234868 0.00441255 8.99033)
(-1.72343 0.00160356 12.8709)
(0.506292 0.0195616 16.6228)
(-4.43122 -0.00082148 20.21)
(3.38402 0.0205327 17.3896)
(0.0763637 0.0712968 16.321)
(1.50671 0.0315411 13.5532)
(0.486061 -0.00898177 11.7439)
(0.792286 -0.0393369 10.0047)
(0.430828 -0.050566 7.68878)
(0.396513 -0.0720612 6.42322)
(0.284938 -0.00908735 5.07323)
(0.184933 -0.215622 2.95926)
(0.895884 0.102567 1.79105)
(-0.222872 0.10372 1.59078)
(0.29966 0.0602084 7.12649)
(-1.71279 0.000778445 12.9909)
(0.51122 0.0314495 16.5434)
(-4.45306 0.000780335 20.1292)
(3.39298 0.0184509 17.454)
(0.077371 0.061613 16.2613)
(1.50831 0.0292231 13.3403)
(0.475381 -0.00807442 11.5592)
(0.786654 -0.0376643 9.98144)
(0.426091 -0.0476324 7.76205)
(0.421826 -0.0604357 6.57784)
(0.281453 0.0967168 4.98462)
(0.421187 -0.496818 1.46118)
(1.61288 0.0450542 1.10372)
(0.405808 0.103388 1.11804)
(0.383762 0.08768 5.78675)
(-1.70103 0.00988732 13.027)
(0.52469 0.0463743 16.3009)
(-4.49663 0.000273685 19.9793)
(3.40657 0.0166059 17.4685)
(0.0780612 0.0570717 16.1689)
(1.51724 0.0303132 13.1077)
(0.469319 -0.00469704 11.3536)
(0.782258 -0.0379103 9.94792)
(0.426501 -0.0531231 7.74715)
(0.417596 -0.0670395 7.10852)
(0.320625 0.045552 4.91463)
(0.890809 -0.86945 0.272775)
(2.09699 0.108652 -0.49552)
(0.0463634 0.34019 1.26652)
(0.397547 0.107687 5.96677)
(-1.70119 0.0331403 13.0185)
(0.514619 0.0592135 16.4265)
(-4.40116 -0.000529852 20.4459)
(3.42011 0.00865733 17.4936)
(0.0800219 0.0303334 16.114)
(1.5304 0.0179053 12.8412)
(0.464104 -0.000534407 11.0186)
(0.783151 -0.0211781 9.78326)
(0.4218 -0.029508 7.72981)
(0.408044 -0.0383662 7.55068)
(0.322297 0.010435 5.518)
(0.966796 -0.777468 0.037976)
(1.31061 0.141387 -0.667251)
(-0.273922 0.280932 2.39426)
(0.366925 0.0480243 6.4556)
(-1.71867 0.0257224 12.8131)
(0.502519 0.0349743 16.4988)
(-4.36426 0.00126836 20.6841)
(9.78526 -0.0202146 17.4178)
(0.922322 -0.0833797 16.3966)
(4.19654 -0.0658411 13.3882)
(1.6988 -0.00582451 11.3389)
(2.16415 0.0732073 10.0181)
(1.32391 0.107602 7.97704)
(0.905265 0.143402 7.60421)
(0.857236 0.0445224 5.22113)
(1.07544 0.700642 -0.365305)
(1.26334 -1.07511 0.544735)
(-0.713391 -0.651175 4.05627)
(0.103654 -0.0140971 7.43122)
(-4.69019 -0.0754956 13.7159)
(0.879736 -0.0754287 16.8006)
(-12.4413 0.0146174 21.3706)
(9.75307 -0.037501 17.3961)
(0.893626 -0.149553 16.4303)
(4.17597 -0.106786 13.6173)
(1.71151 0.00325861 11.6615)
(2.17119 0.129002 10.2075)
(1.34309 0.192196 8.03005)
(0.923214 0.262347 7.2531)
(0.914307 0.304657 4.9133)
(0.725287 0.926568 -0.568528)
(2.47673 -0.754379 0.0626706)
(-0.73068 -0.783894 3.09584)
(0.172992 -0.118482 7.12534)
(-4.67097 -0.114029 13.8795)
(0.881701 -0.123264 16.6982)
(-12.5236 0.0438446 21.1557)
(9.72547 -0.0390543 17.3808)
(0.871653 -0.156945 16.5046)
(4.16023 -0.100763 13.8286)
(1.72515 0.0171725 11.8696)
(2.18948 0.128597 10.2644)
(1.3537 0.182583 8.077)
(1.01654 0.241388 6.77454)
(0.859005 0.329484 4.92133)
(0.789005 1.08432 1.20481)
(3.00862 -0.0970101 0.954325)
(0.290713 -0.335992 2.10287)
(0.165863 -0.406551 6.83686)
(-4.65644 -0.0586478 13.8655)
(0.796148 -0.102363 16.5575)
(-12.7276 0.0260747 20.7084)
(9.70688 -0.0393096 17.3163)
(0.852449 -0.181198 16.5434)
(4.16096 -0.112107 14.0173)
(1.75922 0.0219138 12.057)
(2.21522 0.135076 10.2995)
(1.36489 0.185461 8.05308)
(1.03115 0.231836 6.52964)
(0.799843 0.309194 5.00495)
(0.785169 0.715734 3.16007)
(2.58732 -0.0714484 2.34362)
(0.746775 -0.101539 2.21558)
(0.213069 -0.353066 7.33494)
(-4.64668 -0.0118313 13.8378)
(0.856695 -0.070283 16.7641)
(-12.6318 0.00753932 20.8429)
(9.71139 -0.0294085 17.1995)
(0.840853 -0.179663 16.604)
(4.15489 -0.107336 14.2405)
(1.78266 0.0231874 12.2587)
(2.23577 0.119618 10.3349)
(1.37922 0.152315 7.99817)
(1.08137 0.264427 6.43572)
(0.796979 0.142994 4.85839)
(1.13206 0.170802 1.87078)
(2.9093 0.261077 0.327377)
(-0.0186892 0.206542 2.72322)
(0.14946 0.00127497 9.21007)
(-4.66066 0.0409656 13.6824)
(0.889943 -0.0510332 16.8519)
(-12.5942 0.0235286 20.9183)
(9.75041 -0.0128244 17.0091)
(0.840561 -0.157262 16.6399)
(4.14286 -0.0970408 14.4681)
(1.79783 0.0158988 12.4745)
(2.2435 0.0903531 10.3903)
(1.40949 0.125201 7.98312)
(1.06964 0.228608 6.07965)
(1.14579 0.0607019 3.09395)
(1.21999 -0.465499 -0.41413)
(2.04319 -0.110261 -0.376183)
(-0.457688 0.459782 3.62867)
(0.148275 0.405931 8.58505)
(-4.71132 0.0741115 13.7029)
(0.870126 -0.0417507 16.9672)
(-12.5858 0.0287175 20.9181)
(9.83945 0.00499326 16.7403)
(0.861433 -0.0864895 16.6047)
(4.12929 -0.0547302 14.6393)
(1.79911 0.00783893 12.6861)
(2.24356 0.0474514 10.4934)
(1.3925 0.0790845 8.09277)
(1.17498 0.153831 5.56134)
(0.800675 0.13405 3.6692)
(2.05705 0.529034 1.02484)
(1.62613 -0.0716519 -0.143016)
(-0.877919 0.476722 3.21633)
(-0.00287479 0.571572 7.4683)
(-4.75545 0.0972223 13.8742)
(0.809222 -0.0356423 16.9701)
(-12.6632 0.0399672 20.7631)
(9.88552 0.0133535 16.6302)
(0.874663 0.0181858 16.5558)
(4.1304 0.0158607 14.656)
(1.80115 0.00575498 12.7411)
(2.24279 0.00472275 10.5237)
(1.39791 -0.0067331 8.18746)
(1.21924 0.0587162 5.36182)
(1.0352 -0.488484 3.00047)
(1.93249 0.253137 1.5298)
(1.66383 0.332329 -0.360168)
(-0.97755 0.194693 2.42099)
(-0.286957 0.102408 6.71765)
(-4.77038 0.0441167 13.9144)
(0.649397 -0.00272343 16.8636)
(-12.8207 0.00265418 20.4181)
(9.82316 0.0219584 16.8134)
(0.852423 0.114636 16.6084)
(4.13231 0.0808562 14.6071)
(1.7972 0.00485832 12.6516)
(2.2374 -0.0356449 10.4884)
(1.40172 -0.071615 8.11161)
(1.08926 -0.122042 5.38913)
(1.19528 -0.579637 2.31226)
(-0.0673211 0.602095 -1.25704)
(0.95116 0.720337 0.150862)
(-0.7448 -0.0219867 3.62491)
(-0.0781652 -0.497565 6.9738)
(-4.74822 -0.0288881 13.9652)
(0.79298 0.0355414 17.0159)
(-12.6412 -0.0332617 20.7993)
(9.74863 0.0366157 17.0743)
(0.833673 0.175085 16.6297)
(4.14538 0.116857 14.4253)
(1.79312 -0.000445804 12.4352)
(2.23649 -0.0738004 10.3931)
(1.41422 -0.102845 7.97197)
(1.00073 -0.238371 5.82276)
(1.20175 0.14327 3.17776)
(-0.262931 0.253 -1.28973)
(1.08108 0.195598 1.30627)
(-0.557974 0.0782021 4.86028)
(0.0891117 -0.357908 8.42415)
(-4.72163 -0.0173346 13.7414)
(0.848752 0.0350293 17.005)
(-12.5536 -0.0184879 20.9764)
(9.71941 0.0472386 17.2581)
(0.835633 0.192293 16.592)
(4.15708 0.124335 14.1958)
(1.77605 -0.00639187 12.2182)
(2.23088 -0.101095 10.3199)
(1.38934 -0.129123 7.95361)
(1.03783 -0.241952 6.35595)
(0.819528 0.108603 4.74569)
(1.49487 0.248397 1.48232)
(2.93903 0.155511 -0.010385)
(-0.296591 0.287289 2.9774)
(0.0344542 0.0221721 9.40001)
(-4.67475 0.0120973 13.7627)
(0.841226 0.0370696 16.9269)
(-12.5725 -0.0122397 20.947)
(9.72343 0.0523787 17.366)
(0.84915 0.18967 16.5305)
(4.16439 0.126362 13.9694)
(1.75269 -0.00489915 12.0134)
(2.21435 -0.117388 10.2704)
(1.3738 -0.156466 8.00451)
(1.0065 -0.196763 6.5258)
(0.846952 -0.130312 5.06593)
(1.03031 -0.16115 3.13991)
(3.00681 0.527038 1.66597)
(0.445235 0.580574 2.13594)
(0.0817829 0.35434 7.948)
(-4.65705 0.0627031 13.9106)
(0.796099 0.0634699 16.8574)
(-12.6126 0.0023475 20.8614)
(9.74859 0.0478452 17.4226)
(0.870497 0.162611 16.4934)
(4.16482 0.112084 13.781)
(1.7185 -0.00268495 11.8255)
(2.19114 -0.113924 10.2262)
(1.36204 -0.160256 8.05901)
(1.02207 -0.197343 6.7027)
(0.949009 -0.242765 4.99773)
(1.20516 -0.916092 1.20975)
(3.25713 0.758463 0.494661)
(0.426658 0.971823 1.74449)
(-0.00800279 0.487721 7.08673)
(-4.66807 0.105565 13.9799)
(0.721456 0.102419 16.6583)
(-12.7066 -0.0173873 20.7279)
(9.78066 0.0435906 17.4316)
(0.894234 0.153331 16.4206)
(4.18144 0.116285 13.57)
(1.70589 0.00968125 11.6146)
(2.17284 -0.117088 10.1684)
(1.35469 -0.177984 8.02483)
(0.922434 -0.248583 7.1654)
(1.04614 -0.393028 4.81381)
(0.730042 -0.934078 -1.07138)
(2.46792 1.34334 -0.612134)
(-0.68718 1.20013 2.38787)
(-0.0200199 0.291981 7.17409)
(-4.69038 0.148474 13.9957)
(0.797021 0.13156 16.7933)
(-12.5073 -0.0355894 21.1706)
(9.81651 0.0229769 17.4482)
(0.924829 0.0851013 16.3909)
(4.20237 0.0708942 13.3461)
(1.69285 0.0131676 11.2945)
(2.16414 -0.0671996 9.98049)
(1.32828 -0.101105 7.97618)
(0.872328 -0.149599 7.53226)
(0.900441 -0.126146 5.23534)
(0.636674 -0.851002 -1.18055)
(1.14723 1.27531 -0.236394)
(-0.97569 0.890542 3.44092)
(-0.0745051 0.120235 7.45583)
(-4.72878 0.0942708 13.8363)
(0.781105 0.0812746 16.8939)
(-12.4275 -0.0102705 21.3858)
(15.1956 -0.0309902 15.9928)
(3.97018 -0.109018 17.4537)
(7.12504 -0.12945 14.4163)
(3.96957 -0.0571873 12.1343)
(3.52349 0.10689 10.4436)
(2.38429 0.212239 8.62523)
(1.16691 0.308607 7.85404)
(0.656812 0.397961 4.76763)
(-1.14579 -0.108436 -0.262387)
(-1.70973 -1.44287 1.39636)
(-2.09985 -0.810961 5.11132)
(-2.40749 -0.0156668 9.31843)
(-7.47792 -0.129406 15.1077)
(-1.14928 -0.0879205 18.0012)
(-19.6926 0.0346593 21.1074)
(15.1649 -0.0562897 16.0003)
(3.87943 -0.185764 17.4583)
(7.08332 -0.205439 14.5588)
(3.96844 -0.0684749 12.4084)
(3.54686 0.19159 10.6608)
(2.42163 0.358649 8.71441)
(1.24167 0.564704 7.59053)
(0.749345 1.00916 4.48404)
(-1.15372 -0.144533 -1.03623)
(-0.839475 -1.80589 0.488808)
(-2.61388 -1.12598 4.58559)
(-2.44895 -0.12497 9.36637)
(-7.46283 -0.222994 15.2146)
(-1.22958 -0.126786 17.9031)
(-19.7599 0.0966749 20.9281)
(15.1433 -0.0557433 16.0034)
(3.80936 -0.188498 17.5007)
(7.04607 -0.199521 14.7115)
(3.96426 -0.0425609 12.6107)
(3.58157 0.193463 10.7655)
(2.48319 0.341066 8.79699)
(1.49714 0.51938 7.27583)
(1.14493 1.07405 5.12114)
(0.842337 0.704956 0.570278)
(1.55861 -1.16274 0.167434)
(-2.0867 -0.883236 4.10961)
(-2.55647 -0.531236 9.42249)
(-7.46072 -0.166355 15.1785)
(-1.5692 -0.1139 17.7714)
(-19.9274 0.0331048 20.5071)
(15.1224 -0.0510948 15.9617)
(3.74361 -0.215755 17.5034)
(7.02777 -0.233543 14.842)
(4.00708 -0.044951 12.7945)
(3.64003 0.200444 10.8454)
(2.51499 0.332296 8.81269)
(1.57736 0.41737 7.05033)
(1.17997 0.684266 5.44556)
(1.46881 0.432906 3.21417)
(2.68909 -0.346087 1.11854)
(-0.857901 -0.421595 3.93804)
(-2.22818 -0.619312 9.57037)
(-7.42271 -0.134976 15.1766)
(-1.24629 -0.0797699 17.9374)
(-19.8491 -0.0213929 20.6692)
(15.1215 -0.0277003 15.8625)
(3.70482 -0.207189 17.5065)
(7.00543 -0.233384 15.0042)
(4.02674 -0.0396085 13.0011)
(3.67608 0.172805 10.9302)
(2.54403 0.256863 8.78088)
(1.62937 0.327128 6.94309)
(1.04315 0.145697 5.20308)
(1.60818 -0.252713 1.84062)
(2.893 0.376277 0.22129)
(-0.888588 0.129819 4.53192)
(-1.85122 -0.205445 10.288)
(-7.42759 -0.044014 14.9953)
(-1.07438 -0.0659606 18.0479)
(-19.8363 0.0316459 20.7694)
(15.1487 0.00636954 15.6909)
(3.70931 -0.17713 17.4653)
(6.98517 -0.220098 15.1598)
(4.02966 -0.0425551 13.2163)
(3.68426 0.130072 11.0226)
(2.54029 0.203534 8.77633)
(1.56126 0.31542 6.62663)
(0.825786 -0.0938467 2.67046)
(-0.455267 -0.714049 -0.628712)
(0.138938 -0.282845 1.48479)
(-1.3547 0.45042 5.00478)
(-1.90888 0.462396 9.79413)
(-7.47465 0.0728995 15.0571)
(-1.05947 -0.0663679 18.1437)
(-19.8308 0.0592276 20.7671)
(15.2187 0.0289526 15.4369)
(3.80083 -0.0918225 17.354)
(6.98106 -0.129474 15.2601)
(4.01594 -0.0256698 13.4141)
(3.67643 0.0681252 11.1481)
(2.53389 0.129039 8.89355)
(1.70062 0.270727 6.31866)
(0.885151 0.501212 3.56587)
(1.04188 -0.340826 -0.621398)
(-1.26842 -0.837193 0.872986)
(-2.35662 0.084629 4.83075)
(-2.51092 0.57968 9.53569)
(-7.50033 0.119332 15.2634)
(-1.30117 -0.0626826 18.1522)
(-19.8907 0.103289 20.6006)
(15.2549 0.0194675 15.3277)
(3.86284 0.0244058 17.288)
(6.99297 0.0319299 15.2575)
(4.01686 0.0157894 13.4583)
(3.6725 0.00636184 11.1763)
(2.51652 -0.00278264 8.9787)
(1.82513 0.0114713 6.19443)
(1.17228 -0.39364 3.57686)
(2.29019 0.1578 1.29416)
(-1.1908 0.218542 0.160035)
(-3.20523 0.0467647 4.5871)
(-3.27922 0.100281 9.48911)
(-7.4831 0.0489752 15.3274)
(-1.7347 -0.0123162 18.0201)
(-19.9868 0.00422374 20.2272)
(15.2101 0.0171914 15.5038)
(3.78315 0.132104 17.3818)
(6.98559 0.178258 15.2416)
(4.01816 0.0554573 13.3799)
(3.66974 -0.0484152 11.1316)
(2.51417 -0.111224 8.91081)
(1.63787 -0.267253 6.14924)
(0.749088 -0.75578 2.1705)
(-1.03441 0.893129 -0.848424)
(-1.66423 0.967192 0.875364)
(-2.41733 -0.00318797 4.77252)
(-2.71156 -0.523538 9.28051)
(-7.48143 -0.0639853 15.3578)
(-1.30937 0.0477626 18.1866)
(-19.8666 -0.101298 20.6333)
(15.1579 0.0404625 15.754)
(3.70872 0.205964 17.4798)
(6.99406 0.253032 15.1308)
(4.02918 0.0732228 13.1757)
(3.67357 -0.0979445 11.0109)
(2.52315 -0.167312 8.77159)
(1.4788 -0.269762 6.3485)
(0.568792 0.133724 2.5498)
(-1.5853 0.551618 -0.187952)
(-0.276174 0.319199 2.18316)
(-1.39707 -0.0101408 5.36179)
(-1.95309 -0.407048 9.62309)
(-7.47504 -0.0482153 15.0908)
(-1.0233 0.047972 18.1652)
(-19.7996 -0.0575104 20.8287)
(15.1412 0.0620498 15.922)
(3.71211 0.229634 17.5145)
(7.01689 0.260317 14.9738)
(4.0244 0.0716282 12.9611)
(3.66604 -0.135912 10.9087)
(2.54197 -0.207458 8.74285)
(1.55247 -0.256356 6.8551)
(1.00959 0.231214 4.83552)
(1.40076 0.317347 0.664451)
(2.55697 -0.281139 0.203179)
(-1.2446 0.336361 4.85788)
(-1.91012 0.215269 10.3811)
(-7.44469 0.068208 15.0493)
(-1.06428 0.0405086 18.0831)
(-19.8093 -0.0294458 20.7959)
(15.1493 0.0748967 16.0106)
(3.75825 0.232941 17.5077)
(7.04305 0.254634 14.8103)
(4.00776 0.0771435 12.7535)
(3.63826 -0.163447 10.8145)
(2.51675 -0.270673 8.77394)
(1.54331 -0.331817 7.00988)
(1.14266 -0.320094 5.46932)
(1.76312 -0.00339285 3.23541)
(2.78203 0.340805 0.787677)
(-1.19172 0.772864 4.02176)
(-2.20989 0.630764 9.84922)
(-7.43289 0.167333 15.2037)
(-1.21363 0.0650348 17.9746)
(-19.8218 0.0254155 20.6853)
(15.176 0.0712039 16.0419)
(3.83171 0.20087 17.5054)
(7.06494 0.215732 14.6822)
(3.96744 0.0700944 12.5723)
(3.58489 -0.160878 10.7298)
(2.48926 -0.289732 8.78987)
(1.51213 -0.417226 7.20801)
(1.19246 -0.856047 5.25961)
(1.41821 -0.797171 1.00261)
(1.25086 1.25751 -0.102184)
(-2.17362 1.26577 4.10115)
(-2.6381 0.624341 9.52945)
(-7.48434 0.211719 15.2545)
(-1.55478 0.105863 17.8124)
(-19.8945 -0.0227633 20.5192)
(15.2013 0.0669305 16.0302)
(3.90723 0.194984 17.4636)
(7.10456 0.218932 14.5314)
(3.97538 0.0940165 12.3701)
(3.5529 -0.162056 10.6257)
(2.43898 -0.314137 8.72134)
(1.2622 -0.504573 7.52819)
(0.894184 -0.910901 4.55443)
(-1.04484 0.186828 -1.06441)
(-1.09126 1.70163 0.576869)
(-2.60654 1.09195 4.46665)
(-2.58984 0.238073 9.34839)
(-7.48904 0.259448 15.2989)
(-1.24446 0.123658 17.9451)
(-19.7248 -0.0843808 20.9285)
(15.2353 0.0359138 16.0151)
(4.0038 0.11363 17.4621)
(7.14846 0.137111 14.3957)
(3.97894 0.0724537 12.1019)
(3.53017 -0.0895844 10.413)
(2.39961 -0.185356 8.64206)
(1.19001 -0.288185 7.82089)
(0.715415 -0.319898 4.96095)
(-1.05888 -0.338259 -0.580779)
(-1.33957 0.916865 1.12512)
(-2.16662 0.618445 4.77732)
(-2.55971 0.117939 9.32569)
(-7.51375 0.152775 15.2021)
(-1.18642 0.0866345 18.0394)
(-19.6535 -0.0266954 21.1035)
(18.2947 -0.0301081 12.1128)
(8.30809 -0.10135 17.9509)
(10.8041 -0.161367 16.237)
(7.99515 -0.139245 14.113)
(5.80639 0.0546349 11.6976)
(4.06375 0.260112 9.8677)
(2.02853 0.446749 8.86883)
(0.615092 0.679301 6.23965)
(-3.48267 0.31695 1.21248)
(-4.27964 -0.960895 1.82303)
(-4.27225 -0.836765 6.10691)
(-5.76633 -0.151546 11.4109)
(-10.3212 -0.105966 17.0542)
(-4.99733 0.0124467 19.6017)
(-24.5484 0.082175 18.5579)
(18.2964 -0.0530289 12.1557)
(8.19364 -0.162425 17.9719)
(10.7191 -0.253083 16.2988)
(7.9352 -0.192699 14.2858)
(5.80773 0.124205 11.8982)
(4.07822 0.431243 9.98022)
(2.06556 0.787929 8.68694)
(0.461317 1.2426 5.63569)
(-3.47226 -0.0539768 0.0613734)
(-3.65443 -1.65766 0.962818)
(-4.75251 -1.28101 5.55747)
(-5.8475 -0.285448 11.4997)
(-10.2785 -0.207461 17.085)
(-5.10165 0.0878461 19.5056)
(-24.5899 0.205925 18.4208)
(18.3029 -0.049645 12.1796)
(8.11057 -0.149114 18.0076)
(10.6472 -0.24832 16.3824)
(7.87587 -0.162881 14.4356)
(5.81511 0.139927 12.0251)
(4.16736 0.425475 10.0944)
(2.38176 0.764216 8.52283)
(1.34406 1.3891 6.3484)
(-0.649086 -0.167285 0.75556)
(-2.38088 -1.30749 0.736049)
(-5.006 -0.77804 5.40585)
(-6.03396 -0.418844 11.6411)
(-10.363 -0.125882 17.0047)
(-5.61208 0.0814603 19.3095)
(-24.6173 0.104544 18.0173)
(18.2998 -0.0388725 12.1735)
(8.01551 -0.154064 18.0008)
(10.5831 -0.292416 16.4406)
(7.87734 -0.186407 14.5746)
(5.88586 0.140306 12.1387)
(4.2343 0.414996 10.1602)
(2.55743 0.600809 8.37207)
(1.55201 0.941782 6.73558)
(1.30381 -0.0719731 3.57707)
(-2.04151 -0.496444 1.3754)
(-4.37513 -0.207704 5.89869)
(-5.70043 -0.519507 11.716)
(-10.2297 -0.0898149 16.9792)
(-5.11405 0.0947832 19.4636)
(-24.6447 0.00306838 18.1988)
(18.2998 -0.00368853 12.1147)
(7.9499 -0.124938 17.9601)
(10.528 -0.291509 16.5103)
(7.85598 -0.179631 14.7382)
(5.90594 0.112898 12.266)
(4.27589 0.322483 10.1822)
(2.57431 0.396525 8.26779)
(1.3251 0.307747 6.44082)
(0.625135 0.132925 2.24481)
(-2.18139 0.451309 2.06308)
(-3.39147 -0.0297349 6.50542)
(-5.15296 -0.374665 11.7909)
(-10.22 -0.0659995 16.8441)
(-4.87543 0.0775406 19.6127)
(-24.6967 0.0400545 18.2957)
(18.3065 0.0381204 11.9972)
(7.94132 -0.0850314 17.8489)
(10.5017 -0.274206 16.5523)
(7.82986 -0.173092 14.903)
(5.89328 0.0720772 12.3959)
(4.23166 0.249294 10.2193)
(2.51145 0.393381 8.10379)
(0.45351 0.0394642 4.27734)
(-3.09495 -0.162422 1.33936)
(-3.46037 -0.298716 3.21939)
(-3.67732 -0.00806047 6.5901)
(-5.20905 0.252068 11.5172)
(-10.1711 0.0396575 16.8953)
(-4.75655 0.0258182 19.6748)
(-24.7351 0.0703111 18.2965)
(18.3104 0.0495985 11.7989)
(8.05002 -0.0222087 17.6476)
(10.5407 -0.157468 16.5359)
(7.81834 -0.101613 15.0396)
(5.86142 0.0321937 12.5327)
(4.20449 0.146093 10.3401)
(2.58175 0.367312 7.9756)
(1.00198 0.621637 4.83638)
(-2.35479 -0.227405 0.428638)
(-4.40482 -0.910448 1.93818)
(-5.02265 -0.685726 6.19968)
(-5.92177 0.0493159 11.7515)
(-10.1811 0.0267556 17.0693)
(-5.14324 0.00517452 19.6587)
(-24.72 0.109173 18.1189)
(18.3029 0.0187109 11.7054)
(8.12209 0.0230671 17.5491)
(10.5817 0.0411776 16.5004)
(7.83541 0.0320932 15.063)
(5.85868 0.0156446 12.5599)
(4.15825 0.00743219 10.3966)
(2.71199 -0.00563183 7.92171)
(1.50428 -0.108813 5.28479)
(1.1994 0.0508859 2.01074)
(-3.44687 0.133885 0.70853)
(-5.51612 -0.0286103 5.42347)
(-6.4402 0.0133587 11.5614)
(-10.1588 0.00824428 17.0062)
(-5.40442 -0.025437 19.4257)
(-24.7564 0.000397123 17.8139)
(18.3087 0.00596448 11.8435)
(8.03228 0.0668521 17.6985)
(10.5419 0.219588 16.5441)
(7.82751 0.154742 15.0185)
(5.86273 0.00361981 12.5107)
(4.1655 -0.112317 10.3447)
(2.55637 -0.380828 7.89448)
(0.536625 -0.714842 3.86808)
(-3.23492 0.554815 0.0909379)
(-4.24395 1.15252 1.54694)
(-4.86974 0.634259 5.81049)
(-5.91283 -0.0671691 11.5215)
(-10.1634 -0.0170561 17.1451)
(-5.08162 -0.0429058 19.6809)
(-24.7318 -0.119106 18.174)
(18.3201 0.030885 12.039)
(7.95771 0.123625 17.8856)
(10.5228 0.315313 16.5507)
(7.84566 0.219014 14.8765)
(5.88874 -0.0203391 12.3764)
(4.18653 -0.191656 10.2155)
(2.41666 -0.303682 7.91785)
(-0.282847 -0.0824224 3.74859)
(-3.95236 0.302419 1.515)
(-3.30779 0.241111 3.4245)
(-3.58058 0.157654 6.464)
(-5.1297 -0.187911 11.3496)
(-10.1475 -0.0367152 16.9118)
(-4.62732 -0.0580466 19.6942)
(-24.7492 -0.0826684 18.3941)
(18.3271 0.0564367 12.1592)
(7.98221 0.158949 17.9856)
(10.5611 0.326406 16.5055)
(7.87705 0.225259 14.7144)
(5.90334 -0.0538675 12.2471)
(4.26473 -0.241566 10.1578)
(2.47019 -0.254957 8.21296)
(1.1843 0.142467 5.95737)
(-0.79159 -0.0212449 0.962245)
(-2.52645 -0.51446 2.25011)
(-3.54524 0.198298 6.5783)
(-5.08669 0.35071 11.8394)
(-10.2046 0.0637917 16.8685)
(-4.76232 -0.109252 19.6166)
(-24.7029 -0.0523516 18.3599)
(18.3291 0.0722975 12.2092)
(8.05151 0.186007 18.0158)
(10.6232 0.320863 16.4338)
(7.90745 0.230356 14.553)
(5.89781 -0.0810588 12.1175)
(4.23823 -0.32091 10.1364)
(2.52177 -0.454228 8.33354)
(1.44775 -0.467008 6.71392)
(1.67107 0.145758 3.8359)
(-1.81715 0.157436 1.23838)
(-4.31322 0.391503 5.88994)
(-5.51341 0.547015 11.7882)
(-10.2076 0.0967065 16.9787)
(-4.96411 -0.117781 19.4609)
(-24.6492 -0.0112113 18.2615)
(18.3327 0.0696355 12.2025)
(8.15316 0.17463 18.0169)
(10.6938 0.270018 16.3775)
(7.91455 0.200013 14.4201)
(5.83875 -0.0874974 12.0048)
(4.18604 -0.344141 10.0974)
(2.4159 -0.60873 8.48716)
(1.39862 -1.13022 6.47412)
(-0.0289644 -0.0588351 1.46868)
(-2.73041 1.12272 0.983354)
(-4.9855 0.982651 5.64354)
(-5.90414 0.518512 11.6789)
(-10.3463 0.145138 17.0378)
(-5.46497 -0.098828 19.3069)
(-24.6198 -0.102461 18.0843)
(18.3266 0.0661039 12.1686)
(8.24056 0.183456 17.9777)
(10.7692 0.27114 16.2954)
(7.98083 0.226706 14.2735)
(5.83949 -0.0749603 11.8808)
(4.11362 -0.354462 9.99478)
(2.11276 -0.681501 8.65834)
(0.592225 -1.00324 5.69558)
(-3.54829 0.255774 0.405856)
(-4.02741 1.2706 1.77614)
(-4.74936 0.988311 5.94632)
(-5.76017 0.289184 11.5007)
(-10.2656 0.243191 17.1288)
(-4.9648 -0.105376 19.4954)
(-24.587 -0.201067 18.4798)
(18.3263 0.0361024 12.1161)
(8.36152 0.112296 17.9557)
(10.8581 0.17187 16.2394)
(8.0477 0.160031 14.1098)
(5.84384 -0.0239404 11.6877)
(4.10458 -0.208865 9.88894)
(2.10622 -0.384418 8.86184)
(0.711915 -0.445668 6.32842)
(-3.19546 -0.304376 1.04715)
(-4.01128 0.39162 2.04646)
(-4.20615 0.419187 6.17954)
(-5.74416 0.16523 11.4137)
(-10.2915 0.139529 17.1)
(-4.85397 -0.0247535 19.5778)
(-24.5466 -0.076943 18.6216)
(19.9838 -0.0178948 8.14534)
(11.0265 -0.0804839 16.5637)
(13.7455 -0.145673 17.4255)
(12.6331 -0.188811 16.7511)
(9.56584 -0.0629658 14.2683)
(6.96654 0.17617 12.006)
(4.21443 0.438839 10.6375)
(2.19764 0.70466 8.98555)
(-2.13582 0.962683 5.02866)
(-6.06012 0.0264144 3.50642)
(-5.88711 -0.663433 8.04966)
(-7.74447 -0.377879 14.1283)
(-12.6904 -0.100158 19.5348)
(-8.16464 0.128825 19.4402)
(-27.2076 0.111481 14.98)
(20.0048 -0.0295507 8.18528)
(10.9523 -0.119048 16.6156)
(13.6555 -0.222835 17.4698)
(12.5267 -0.272901 16.8397)
(9.49987 -0.0551928 14.4006)
(6.93036 0.310069 12.1241)
(4.15636 0.741637 10.5826)
(1.90675 1.15383 8.54624)
(-3.07562 0.983374 3.71607)
(-5.69964 -0.629341 2.64103)
(-5.82398 -1.37743 7.23775)
(-7.86512 -0.638617 13.954)
(-12.6437 -0.20029 19.4824)
(-8.22522 0.318343 19.5116)
(-27.2428 0.247228 15.0168)
(20.0242 -0.025623 8.20704)
(10.9068 -0.0901639 16.6542)
(13.5861 -0.209661 17.5226)
(12.4308 -0.246585 16.9309)
(9.43412 -0.0283936 14.4992)
(6.95171 0.327333 12.2351)
(4.39074 0.735612 10.5407)
(2.63604 1.3074 8.81694)
(-0.744541 0.469957 4.4124)
(-3.44322 -0.838615 2.03946)
(-5.92997 -0.746557 6.39697)
(-7.98421 -0.315137 13.7768)
(-12.7639 -0.175665 19.3356)
(-8.5281 0.224544 19.3688)
(-27.1768 0.129044 14.8892)
(20.035 -0.0109177 8.22428)
(10.8265 -0.0694927 16.6618)
(13.5019 -0.234041 17.5451)
(12.3759 -0.28079 17.0081)
(9.46005 -0.0440659 14.5983)
(7.01781 0.323494 12.3251)
(4.60223 0.618919 10.498)
(2.80045 1.01545 8.89206)
(1.33227 0.0301117 6.07223)
(-3.53301 -0.661676 2.77846)
(-6.00458 0.265642 6.94073)
(-7.61607 -0.0457252 13.8865)
(-12.4391 -0.140899 19.4088)
(-7.94937 0.190077 19.766)
(-27.3479 0.0311199 15.1701)
(20.0498 0.0237908 8.21654)
(10.7625 -0.0211572 16.6172)
(13.4329 -0.215194 17.5469)
(12.3154 -0.267674 17.0951)
(9.42976 -0.0572673 14.7155)
(7.03505 0.2492 12.4)
(4.62532 0.451168 10.4499)
(2.60332 0.587913 8.73791)
(0.327952 0.380516 5.21869)
(-5.09318 0.262325 3.63925)
(-5.35524 0.4115 8.0187)
(-7.14109 -0.188386 13.971)
(-12.3668 -0.147855 19.334)
(-7.7731 0.178199 20.1128)
(-27.4609 0.0267945 15.2435)
(20.0604 0.0497446 8.18137)
(10.7361 0.028012 16.496)
(13.4039 -0.186089 17.4898)
(12.2778 -0.247269 17.1632)
(9.39178 -0.0779666 14.8342)
(6.97425 0.177275 12.4808)
(4.59443 0.425984 10.4442)
(2.07454 0.468049 7.84432)
(-2.42349 0.407869 4.30556)
(-5.78241 -0.165481 4.723)
(-5.72224 -0.345607 8.59239)
(-7.32599 -0.112592 13.9199)
(-12.2215 -0.0587235 19.3236)
(-7.62079 0.137882 20.3054)
(-27.5518 0.0706323 15.2543)
(20.0356 0.0443247 8.10478)
(10.7786 0.0599185 16.2806)
(13.4557 -0.0897885 17.3512)
(12.3025 -0.137388 17.1858)
(9.3652 -0.0524278 14.9394)
(6.90703 0.0853982 12.5989)
(4.57696 0.331085 10.4384)
(2.44056 0.593095 8.03228)
(-1.30366 0.558129 4.04868)
(-5.38853 0.0522796 3.05468)
(-6.32484 -0.877519 7.17657)
(-7.72873 -0.656362 13.7716)
(-12.3428 -0.168267 19.4272)
(-8.04683 0.108679 20.2911)
(-27.4702 0.0619584 15.0654)
(20.0112 0.0172714 8.06859)
(10.7997 0.0214918 16.1797)
(13.4969 0.0367296 17.2727)
(12.3449 0.0437355 17.1695)
(9.38555 0.0338978 14.959)
(6.85953 0.0186093 12.6314)
(4.56635 0.0313445 10.4311)
(2.69981 -0.0343351 8.12744)
(1.19931 0.124184 5.016)
(-3.28228 0.331293 1.69412)
(-5.63599 0.156565 5.34309)
(-7.34206 -0.011695 12.8037)
(-12.3043 -0.0336189 19.1517)
(-7.8168 -0.0493781 20.119)
(-27.5612 -0.00616009 14.9414)
(20.0362 0.0103551 8.12472)
(10.7616 -0.0111479 16.3351)
(13.4515 0.150997 17.3856)
(12.3101 0.208014 17.1892)
(9.37985 0.114154 14.9268)
(6.88776 -0.0301903 12.5933)