/*--------------------------------*- C++ -*----------------------------------*\
| =========                 |                                                 |
| \\      /  F ield         | OpenFOAM: The Open Source CFD Toolbox           |
|  \\    /   O peration     | Version:  4.1                                   |
|   \\  /    A nd           | Web:      www.OpenFOAM.org                      |
|    \\/     M anipulation  |                                                 |
\*---------------------------------------------------------------------------*/
FoamFile
{
    version     2.0;
    format      ascii;
    class       volScalarField;
    location    "2";
    object      p;
}
// * * * * * * * * * * * * * * * * * * * * * * * * * * * * * * * * * * * * * //

dimensions      [0 2 -2 0 0 0 0];

internalField   nonuniform List<scalar> 
204246
(
-49.5491
-60.6762
-59.5582
-58.1838
-57.1074
-56.0838
-55.2235
-54.4486
-53.8845
-53.3211
-52.907
-52.4838
-52.1001
-51.7359
-51.5209
-51.4627
-51.6527
-51.7087
-51.3338
-51.2431
-51.1263
-51.0414
-50.9467
-50.8772
-50.8214
-50.8011
-50.7796
-50.7735
-50.7481
-50.7218
-50.6421
-50.5618
-50.4519
-50.3916
-50.422
-50.6537
-50.9004
-50.6236
-50.6627
-50.6628
-50.6478
-50.5976
-50.5586
-50.4669
-50.6516
-50.583
-50.5592
-50.5289
-50.5286
-50.4901
-50.4536
-50.2486
-50.5524
-50.8162
-50.5621
-50.6169
-50.6089
-50.5744
-50.5172
-50.506
-50.5052
-50.5228
-50.5225
-50.5145
-50.4854
-50.4861
-50.4704
-50.4301
-50.2008
-50.4872
-50.7756
-50.5878
-50.5981
-50.5608
-50.5443
-50.4898
-50.4529
-50.3766
-50.5628
-50.5063
-50.4671
-50.396
-50.4321
-50.3714
-50.2309
-50.2267
-50.4831
-50.7437
-50.5576
-50.6392
-50.4426
-50.4738
-50.5213
-50.5152
-50.3481
-50.5264
-50.4493
-50.3986
-50.3868
-50.4462
-50.4096
-50.3373
-50.2722
-50.1976
-50.1245
-50.523
-50.6351
-50.4092
-50.4278
-50.4867
-50.4557
-50.2346
-50.3637
-50.2917
-50.2833
-50.2659
-50.2272
-50.1522
-50.0799
-49.9658
-49.8509
-49.6871
-49.9158
-49.9603
-49.7582
-49.7264
-49.3922
-49.2345
-48.9666
-48.7146
-48.4122
-48.0554
-47.6291
-47.1303
-46.5092
-45.7752
-44.9859
-44.2727
-43.6399
-43.2372
-43.1958
-43.7856
-45.5379
-49.0264
-54.9086
-62.0719
-72.5864
-82.5473
-87.9345
-91.8069
-95.5418
-97.029
-99.1523
-99.9999
-100.661
-101.467
-102.829
-103.685
-103.414
-103.877
-103.142
-103.492
-102.796
-102.316
-100.929
-100.477
-98.7732
-97.3971
-95.5418
-93.5153
-90.6998
-87.6734
-83.7431
-79.563
-74.6525
-69.134
-62.7787
-55.4962
-47.3702
-37.834
-26.8788
-14.2559
0.0332586
16.3531
34.8119
55.5197
78.4344
104.262
133.661
172.557
231.5
324.708
449.793
-64.0262
-61.291
-60.0615
-58.9025
-57.7676
-56.7191
-55.8109
-55.0472
-54.4019
-53.8337
-53.3266
-52.8581
-52.4421
-52.0828
-51.8405
-51.7167
-51.6697
-51.6104
-51.5247
-51.4357
-51.3295
-51.2075
-51.1198
-51.0565
-51.0135
-50.9872
-50.9666
-50.9431
-50.9192
-50.8852
-50.8222
-50.7382
-50.6546
-50.5901
-50.612
-50.7362
-50.8281
-50.8355
-50.8159
-50.8186
-50.7991
-50.7873
-50.7681
-50.7411
-50.7513
-50.7424
-50.7147
-50.6952
-50.6783
-50.6487
-50.6067
-50.5765
-50.6653
-50.7499
-50.7674
-50.7567
-50.764
-50.7364
-50.7196
-50.7123
-50.7013
-50.7055
-50.6874
-50.6641
-50.6389
-50.6404
-50.6121
-50.5735
-50.5426
-50.6156
-50.7257
-50.7506
-50.7417
-50.7538
-50.7407
-50.7217
-50.6739
-50.6641
-50.6871
-50.6836
-50.6208
-50.5899
-50.5892
-50.5249
-50.468
-50.4631
-50.579
-50.6978
-50.7312
-50.7399
-50.7228
-50.7155
-50.7372
-50.6957
-50.6313
-50.638
-50.6155
-50.555
-50.5535
-50.5904
-50.5702
-50.5593
-50.4943
-50.439
-50.4271
-50.5208
-50.616
-50.6403
-50.6505
-50.6697
-50.6209
-50.5337
-50.4923
-50.4874
-50.4745
-50.4558
-50.4272
-50.3903
-50.3405
-50.2719
-50.1846
-50.1175
-50.0694
-50.0459
-50.0326
-49.9381
-49.7845
-49.6021
-49.4276
-49.2221
-48.9787
-48.7131
-48.3815
-47.9785
-47.4527
-46.8279
-46.1455
-45.3679
-44.401
-43.4446
-42.733
-42.3914
-42.8522
-44.8658
-50.4696
-59.01
-71.349
-82.6551
-88.3428
-92.5656
-95.1129
-97.3916
-99.1147
-100.385
-101.171
-101.928
-102.741
-103.457
-104.125
-104.309
-104.815
-104.739
-104.432
-104.039
-103.377
-102.987
-102.203
-101.006
-99.6522
-98.3142
-96.3486
-93.8991
-90.857
-87.3957
-83.2229
-78.4009
-72.8404
-66.5607
-59.4816
-51.3608
-42.0914
-31.4744
-19.429
-5.66197
9.91317
27.3349
46.298
66.8434
88.8669
114.328
150.138
216.28
314.189
-70.7061
-64.8955
-61.3715
-59.2909
-57.7369
-56.6118
-55.6445
-54.8859
-54.2207
-53.6762
-53.1769
-52.756
-52.3613
-52.0492
-51.7825
-51.6235
-51.5014
-51.4264
-51.366
-51.2821
-51.1635
-51.034
-50.9038
-50.7964
-50.7109
-50.6523
-50.6237
-50.6198
-50.6317
-50.6168
-50.5817
-50.538
-50.4956
-50.4593
-50.4381
-50.4271
-50.4537
-50.485
-50.5096
-50.5023
-50.487
-50.4471
-50.4257
-50.4178
-50.4243
-50.4453
-50.4476
-50.445
-50.4299
-50.4138
-50.3836
-50.3607
-50.3543
-50.3873
-50.4275
-50.4582
-50.4448
-50.4309
-50.3924
-50.3823
-50.3731
-50.3769
-50.3938
-50.3971
-50.3948
-50.3873
-50.3702
-50.3466
-50.3354
-50.3206
-50.3422
-50.379
-50.3871
-50.3721
-50.3747
-50.335
-50.3222
-50.3048
-50.3335
-50.3489
-50.3589
-50.3512
-50.3148
-50.2955
-50.2702
-50.2703
-50.2574
-50.2884
-50.3221
-50.3152
-50.3004
-50.3307
-50.3165
-50.3372
-50.332
-50.3354
-50.3312
-50.3285
-50.3266
-50.2937
-50.2701
-50.2533
-50.2415
-50.2122
-50.208
-50.2183
-50.2131
-50.2099
-50.234
-50.2463
-50.2756
-50.2709
-50.2497
-50.2177
-50.2053
-50.1657
-50.099
-50.0335
-49.9867
-49.9463
-49.9099
-49.8711
-49.8558
-49.7981
-49.6957
-49.6332
-49.528
-49.3723
-49.1935
-48.9888
-48.7766
-48.5363
-48.2472
-47.8887
-47.4712
-47.0229
-46.571
-46.0729
-45.5302
-44.9985
-44.5402
-44.296
-44.6088
-46.3719
-51.3299
-59.955
-69.5579
-79.0567
-86.4484
-90.5148
-93.0507
-95.1535
-97.2662
-99.1308
-100.494
-100.998
-101.532
-102.201
-102.408
-102.767
-102.899
-102.906
-102.825
-101.93
-101.111
-100.12
-98.9984
-97.8599
-96.361
-94.4791
-92.3624
-89.9252
-87.0366
-83.6403
-79.6884
-75.0553
-69.6839
-63.5795
-56.5854
-48.6518
-39.5693
-29.2312
-17.5206
-4.32225
10.6526
27.4077
45.8391
65.2577
85.7241
107.611
136.738
180.112
237.446
-72.1184
-67.0885
-63.279
-60.5468
-58.6123
-57.1981
-56.1042
-55.2422
-54.5394
-53.9463
-53.4334
-52.9813
-52.5899
-52.2708
-52.0351
-51.8639
-51.7464
-51.6486
-51.5603
-51.478
-51.3869
-51.3155
-51.2586
-51.2099
-51.1628
-51.133
-51.1027
-51.0747
-51.0273
-50.9736
-50.911
-50.8644
-50.8309
-50.8144
-50.8304
-50.8927
-50.9041
-50.8904
-50.8834
-50.9076
-50.9092
-50.9147
-50.9059
-50.906
-50.8874
-50.8494
-50.8163
-50.7926
-50.7976
-50.7916
-50.792
-50.7926
-50.8455
-50.8552
-50.8376
-50.8293
-50.8552
-50.8508
-50.8496
-50.8416
-50.8519
-50.831
-50.8075
-50.7782
-50.7522
-50.7434
-50.7337
-50.7436
-50.762
-50.815
-50.8318
-50.8091
-50.8448
-50.865
-50.86
-50.8735
-50.8248
-50.8321
-50.8081
-50.7744
-50.7228
-50.7088
-50.7126
-50.692
-50.6907
-50.7004
-50.7749
-50.8193
-50.8064
-50.8527
-50.8532
-50.8411
-50.8591
-50.8002
-50.7775
-50.7427
-50.725
-50.7066
-50.6794
-50.6755
-50.667
-50.6762
-50.6619
-50.6549
-50.6609
-50.7229
-50.7763
-50.7843
-50.7583
-50.7508
-50.7075
-50.6792
-50.6365
-50.6303
-50.629
-50.6077
-50.5735
-50.5564
-50.5352
-50.5029
-50.4588
-50.4314
-50.3547
-50.292
-50.2485
-50.1558
-50.0323
-49.9273
-49.7723
-49.6203
-49.4462
-49.2378
-48.9628
-48.6404
-48.2643
-47.8645
-47.4413
-46.993
-46.5603
-46.1747
-45.8885
-45.9094
-46.5473
-48.3196
-52.2583
-59.5874
-69.4614
-79.6414
-87.1996
-92.1792
-95.5047
-96.9218
-98.2527
-100.123
-101.589
-102.693
-103.326
-103.927
-104.488
-104.964
-105.362
-105.571
-105.556
-105.768
-105.426
-105.22
-104.792
-104.265
-103.435
-102.239
-100.543
-98.4481
-95.9619
-93.0079
-89.4771
-85.3768
-80.5776
-75.0649
-68.7091
-61.426
-53.1879
-43.8275
-33.2798
-21.4967
-8.40246
6.0613
21.7985
38.8127
57.4794
79.5846
107.775
143.125
181.752
-69.5679
-65.9934
-62.7982
-60.3288
-58.4528
-57.0004
-55.8754
-54.9895
-54.2692
-53.6783
-53.1806
-52.7687
-52.411
-52.1072
-51.844
-51.6411
-51.4752
-51.3688
-51.2752
-51.1773
-51.0873
-50.9928
-50.8588
-50.7324
-50.6183
-50.5314
-50.5004
-50.5061
-50.531
-50.5247
-50.5082
-50.4782
-50.4448
-50.4045
-50.3651
-50.313
-50.3246
-50.3507
-50.3679
-50.3466
-50.3527
-50.3361
-50.3107
-50.2928
-50.3192
-50.3532
-50.3637
-50.3587
-50.3288
-50.3148
-50.2995
-50.2798
-50.234
-50.2556
-50.2994
-50.3293
-50.3116
-50.3153
-50.2924
-50.2691
-50.248
-50.2707
-50.2989
-50.3225
-50.3234
-50.2926
-50.2679
-50.2425
-50.2413
-50.1882
-50.1959
-50.232
-50.2221
-50.2251
-50.2403
-50.1892
-50.206
-50.1779
-50.2362
-50.2643
-50.2812
-50.2681
-50.2264
-50.2
-50.1637
-50.1673
-50.1098
-50.1083
-50.1504
-50.1513
-50.1571
-50.1825
-50.1681
-50.2222
-50.2167
-50.2485
-50.2414
-50.2469
-50.2549
-50.225
-50.1911
-50.1448
-50.1391
-50.1261
-50.1176
-50.0841
-50.0721
-50.0711
-50.1033
-50.1021
-50.15
-50.1623
-50.18
-50.1668
-50.158
-50.0943
-50.0702
-49.9653
-49.9339
-49.9011
-49.8848
-49.8574
-49.896
-49.8861
-49.8033
-49.7497
-49.7057
-49.6083
-49.4992
-49.3606
-49.2392
-49.1112
-48.9528
-48.7398
-48.5145
-48.2905
-48.0476
-47.7981
-47.5713
-47.3512
-47.2191
-47.3386
-47.9605
-49.4977
-52.6038
-58.0806
-65.763
-74.3453
-81.9458
-87.5005
-90.9189
-93.7031
-96.1126
-98.2654
-99.6445
-100.597
-101.501
-102.165
-102.063
-102.206
-102.488
-102.829
-102.783
-102.165
-101.821
-100.984
-100.039
-99.2038
-98.2619
-97.1594
-95.8045
-94.1941
-92.2776
-89.9884
-87.1781
-83.7143
-79.6527
-75.0452
-69.6538
-63.2813
-55.8783
-47.3885
-37.7271
-27.0393
-15.4497
-3.09099
10.0662
24.0746
39.6519
58.4063
81.9629
110.343
138.479
-66.2289
-63.7719
-61.6203
-59.7722
-58.1716
-56.8918
-55.8753
-55.0124
-54.3126
-53.7302
-53.2567
-52.8655
-52.5396
-52.2565
-52.03
-51.8491
-51.709
-51.5948
-51.5062
-51.4658
-51.3854
-51.3438
-51.2895
-51.2791
-51.2499
-51.2222
-51.1875
-51.1507
-51.1097
-51.0645
-51.0099
-50.9707
-50.9454
-50.9461
-50.9601
-51.013
-51.0095
-50.9833
-50.965
-50.9878
-50.9857
-50.9983
-51.0044
-51.0042
-50.9726
-50.9387
-50.9158
-50.8972
-50.9027
-50.8983
-50.9099
-50.9133
-50.9683
-50.9636
-50.9311
-50.9128
-50.94
-50.9345
-50.9474
-50.9511
-50.9569
-50.9251
-50.8939
-50.8651
-50.8519
-50.8624
-50.862
-50.8772
-50.8834
-50.953
-50.9617
-50.9154
-50.947
-50.9554
-50.9457
-50.9811
-50.9436
-50.9415
-50.8877
-50.8571
-50.8277
-50.8149
-50.8266
-50.8299
-50.8521
-50.8417
-50.9151
-50.9404
-50.9064
-50.9383
-50.9277
-50.9181
-50.9458
-50.897
-50.8836
-50.8449
-50.8306
-50.7922
-50.7712
-50.7783
-50.786
-50.8199
-50.8017
-50.7945
-50.7856
-50.8433
-50.889
-50.8985
-50.8565
-50.8614
-50.8064
-50.774
-50.7334
-50.7485
-50.7526
-50.7283
-50.7172
-50.7291
-50.7016
-50.6811
-50.6599
-50.6277
-50.5697
-50.5209
-50.4914
-50.3955
-50.2899
-50.2075
-50.0883
-49.9735
-49.8398
-49.6899
-49.506
-49.3077
-49.0921
-48.8854
-48.6896
-48.5218
-48.4002
-48.3502
-48.4021
-48.6541
-49.3258
-50.7193
-53.2469
-57.4415
-63.4968
-70.9381
-78.6512
-85.389
-90.3195
-93.8123
-96.6345
-99.3356
-101.4
-102.671
-103.722
-104.17
-104.798
-105.207
-105.826
-105.956
-106.535
-106.885
-106.794
-106.902
-106.629
-106.261
-105.504
-104.607
-103.251
-101.533
-99.4925
-97.1298
-94.3078
-90.961
-87.0638
-82.7154
-77.7511
-71.8834
-64.9724
-57.019
-48.0357
-38.1357
-27.4957
-16.1441
-4.06518
8.78204
22.867
39.4495
59.1755
81.974
103.516
-62.0268
-60.5358
-59.2735
-58.1405
-56.9614
-55.9853
-55.1638
-54.4264
-53.8055
-53.2727
-52.8272
-52.4611
-52.1691
-51.9444
-51.7438
-51.548
-51.3492
-51.1972
-51.1
-51.0294
-50.977
-50.9139
-50.8049
-50.6522
-50.5206
-50.4152
-50.3875
-50.3776
-50.4211
-50.4333
-50.4313
-50.4092
-50.3804
-50.3395
-50.2923
-50.2148
-50.2173
-50.2546
-50.2766
-50.2543
-50.2578
-50.2375
-50.21
-50.1947
-50.2295
-50.2653
-50.2823
-50.2857
-50.2597
-50.2446
-50.2192
-50.2079
-50.1505
-50.1683
-50.2119
-50.2406
-50.2205
-50.2249
-50.2041
-50.18
-50.1426
-50.1773
-50.2114
-50.2394
-50.2466
-50.2205
-50.1948
-50.1617
-50.1639
-50.0938
-50.082
-50.126
-50.115
-50.1191
-50.1367
-50.0847
-50.113
-50.0929
-50.1517
-50.1776
-50.206
-50.1979
-50.1513
-50.123
-50.0872
-50.0937
-50.0125
-49.9943
-50.0522
-50.0589
-50.0594
-50.0781
-50.0552
-50.1197
-50.1215
-50.1515
-50.1558
-50.1962
-50.1903
-50.1507
-50.1148
-50.0622
-50.0674
-50.0531
-50.059
-50.0078
-49.9776
-49.9808
-50.0068
-49.9952
-50.0721
-50.0738
-50.1131
-50.0963
-50.1077
-50.0655
-50.0264
-49.9688
-49.9114
-49.874
-49.8758
-49.8801
-49.9273
-49.9315
-49.9134
-49.9009
-49.9
-49.8531
-49.814
-49.7459
-49.6789
-49.6023
-49.5277
-49.4397
-49.3585
-49.2799
-49.2126
-49.1446
-49.1188
-49.1763
-49.3537
-49.7157
-50.4082
-51.6716
-53.783
-57.051
-61.6554
-67.4752
-73.9048
-80.0634
-85.2258
-89.3371
-92.6584
-95.5488
-98.082
-100.448
-101.977
-102.257
-102.754
-102.57
-102.627
-103.141
-102.888
-102.868
-102.623
-102.264
-101.88
-101.413
-101.163
-100.631
-100.111
-99.1892
-98.0312
-96.5785
-94.6954
-92.2691
-89.2115
-85.6303
-81.4758
-76.5073
-70.5713
-63.7655
-56.1564
-47.6411
-38.2976
-28.2452
-17.46
-5.79454
7.04948
21.811
38.6847
57.4427
74.5937
-57.4924
-57.0658
-56.613
-56.1495
-55.5187
-54.9371
-54.4178
-53.9005
-53.4317
-53.01
-52.6581
-52.3627
-52.137
-51.9535
-51.7983
-51.656
-51.5474
-51.4537
-51.3744
-51.3375
-51.2975
-51.2901
-51.2726
-51.3209
-51.2804
-51.2718
-51.2316
-51.1896
-51.1522
-51.1174
-51.0753
-51.0386
-51.0122
-51.0128
-51.0289
-51.0928
-51.0874
-51.0492
-51.0274
-51.0509
-51.0497
-51.0673
-51.0754
-51.0707
-51.036
-51.0023
-50.9822
-50.9717
-50.9862
-50.9817
-50.9865
-50.9888
-51.0488
-51.0418
-51.0084
-50.9853
-51.0085
-51.0059
-51.0233
-51.0303
-51.0346
-50.9909
-50.9607
-50.9351
-50.9249
-50.9386
-50.9477
-50.9717
-50.974
-51.0561
-51.0659
-51.0011
-51.0247
-51.0257
-51.0125
-51.0597
-51.0173
-51.0178
-50.9691
-50.93
-50.889
-50.8856
-50.9094
-50.9194
-50.948
-50.9384
-51.0117
-51.0284
-50.978
-51.0004
-51.0075
-50.9938
-51.0202
-50.9557
-50.9527
-50.9156
-50.915
-50.8598
-50.8523
-50.8658
-50.8754
-50.913
-50.8908
-50.8899
-50.8614
-50.9204
-50.9736
-50.9423
-50.9293
-50.9544
-50.885
-50.8766
-50.8277
-50.8284
-50.826
-50.8305
-50.8304
-50.8373
-50.84
-50.8366
-50.8084
-50.7564
-50.7072
-50.6712
-50.6337
-50.5584
-50.475
-50.4541
-50.3921
-50.3226
-50.2343
-50.1338
-50.0052
-49.8881
-49.7885
-49.7234
-49.6875
-49.6834
-49.7189
-49.8538
-50.1179
-50.5356
-51.2158
-52.3314
-54.1033
-56.7448
-60.384
-65.0046
-70.3599
-75.9431
-81.2445
-86.0523
-90.41
-94.4316
-98.0352
-101.182
-103.171
-104.952
-105.449
-105.599
-105.922
-106.288
-106.604
-106.95
-107.329
-107.333
-107.203
-107.034
-106.546
-105.897
-105.086
-103.979
-102.49
-100.877
-99.103
-96.9674
-94.2393
-90.8943
-86.9694
-82.3658
-77.0049
-70.9945
-64.3018
-56.7725
-48.5358
-39.7173
-30.1258
-19.5479
-7.85306
5.29992
19.9905
35.8734
50.0018
-52.967
-53.2956
-53.5064
-53.6343
-53.5227
-53.3307
-53.1274
-52.867
-52.5641
-52.2527
-51.9827
-51.7935
-51.6191
-51.4879
-51.3559
-51.2166
-51.076
-50.9649
-50.9014
-50.8494
-50.8093
-50.7605
-50.6782
-50.5698
-50.4438
-50.3169
-50.293
-50.2714
-50.3206
-50.3374
-50.3613
-50.344
-50.32
-50.2833
-50.2364
-50.1458
-50.1468
-50.1888
-50.2116
-50.1863
-50.1911
-50.1679
-50.1419
-50.1286
-50.1627
-50.2017
-50.2244
-50.2345
-50.2112
-50.197
-50.1684
-50.153
-50.0901
-50.1087
-50.1579
-50.1863
-50.1601
-50.171
-50.1503
-50.1288
-50.118
-50.1601
-50.1733
-50.1968
-50.2009
-50.1729
-50.1465
-50.1102
-50.108
-50.0244
-50.0094
-50.0571
-50.041
-50.0419
-50.0405
-50.0045
-50.0505
-50.0406
-50.0951
-50.1261
-50.1615
-50.15
-50.1028
-50.0759
-50.0385
-50.0435
-49.9546
-49.9346
-50.0002
-49.9925
-49.9838
-50.0066
-49.9805
-50.0504
-50.049
-50.0818
-50.0739
-50.1284
-50.1364
-50.1031
-50.0689
-50.0166
-50.0273
-50.0129
-50.0245
-49.9624
-49.9314
-49.9312
-49.9489
-49.9284
-50.0178
-50.0159
-50.0812
-50.0743
-50.069
-50.0528
-50.0174
-49.9681
-49.9235
-49.8923
-49.8939
-49.9365
-49.992
-49.9985
-49.9686
-50.0054
-50.0526
-50.0369
-50.0419
-50.0332
-50.0396
-50.0366
-50.0231
-49.9741
-49.9496
-49.9789
-50.0429
-50.1088
-50.2088
-50.3949
-50.7207
-51.2045
-51.875
-52.8616
-54.3585
-56.539
-59.4734
-63.1782
-67.5513
-72.3424
-77.1863
-81.8249
-86.1503
-90.1288
-93.7327
-96.992
-99.6403
-101.773
-103.358
-104.251
-104.266
-104.019
-103.802
-103.433
-103.64
-103.73
-103.763
-103.809
-103.854
-103.975
-104.087
-103.838
-103.077
-102.083
-101.163
-99.9701
-98.089
-95.3508
-91.9791
-88.0588
-83.4111
-78.0794
-72.176
-65.6572
-58.4912
-50.6457
-42.0418
-32.514
-21.9267
-10.1594
2.80028
16.5662
28.5829
-48.6129
-49.5901
-50.3637
-50.9921
-51.4219
-51.6331
-51.7723
-51.8163
-51.7527
-51.6314
-51.5145
-51.445
-51.3809
-51.3199
-51.2718
-51.2172
-51.1833
-51.1436
-51.1167
-51.1172
-51.1297
-51.1525
-51.1509
-51.1761
-51.1975
-51.227
-51.2068
-51.1681
-51.1356
-51.1119
-51.0889
-51.0682
-51.0407
-51.0417
-51.0598
-51.1382
-51.1325
-51.0884
-51.0646
-51.0869
-51.0831
-51.1072
-51.1168
-51.1104
-51.0706
-51.0336
-51.0154
-51.0066
-51.0242
-51.0244
-51.0353
-51.0385
-51.0995
-51.0889
-51.0513
-51.0235
-51.041
-51.0336
-51.0573
-51.0653
-51.0682
-51.0263
-51.0005
-50.9704
-50.9615
-50.98
-50.9953
-51.0249
-51.0299
-51.1214
-51.134
-51.069
-51.0951
-51.0853
-51.0824
-51.112
-51.0609
-51.064
-51.0128
-50.9699
-50.9254
-50.9282
-50.9593
-50.9719
-51.0022
-50.9932
-51.066
-51.0821
-51.0292
-51.0443
-51.049
-51.0328
-51.059
-50.9902
-50.9947
-50.959
-50.9451
-50.894
-50.8883
-50.9075
-50.9235
-50.9676
-50.9448
-50.9444
-50.9216
-50.9891
-51.0379
-51.04
-50.9935
-51.0009
-50.9195
-50.9331
-50.8793
-50.8883
-50.8895
-50.8919
-50.8973
-50.9105
-50.92
-50.9162
-50.909
-50.8675
-50.801
-50.7807
-50.7987
-50.7263
-50.6403
-50.6262
-50.6111
-50.6188
-50.5884
-50.5305
-50.4546
-50.3914
-50.3499
-50.3615
-50.4082
-50.4954
-50.6104
-50.8186
-51.1761
-51.6779
-52.331
-53.2269
-54.5162
-56.3422
-58.7612
-61.7764
-65.3732
-69.4345
-73.7441
-78.1065
-82.402
-86.578
-90.6067
-94.4992
-98.1554
-101.4
-103.85
-105.64
-106.741
-107.301
-107.278
-107.221
-107.172
-107.251
-107.296
-107.331
-107.046
-106.732
-106.409
-105.985
-105.265
-104.286
-103.49
-102.802
-101.582
-99.5122
-96.7813
-93.508
-89.5017
-84.8705
-79.9077
-74.3751
-67.9942
-60.9667
-53.3822
-44.8522
-35.2454
-24.6825
-13.119
-0.961603
9.516
-44.5013
-45.9608
-47.1913
-48.2166
-49.0684
-49.6416
-50.0936
-50.385
-50.541
-50.6229
-50.641
-50.6694
-50.7039
-50.6985
-50.7061
-50.6867
-50.6346
-50.5919
-50.5666
-50.5564
-50.5687
-50.5624
-50.5304
-50.4429
-50.3384
-50.2398
-50.2194
-50.1866
-50.2401
-50.2598
-50.2911
-50.2806
-50.2641
-50.2364
-50.1892
-50.0931
-50.0953
-50.1441
-50.1776
-50.157
-50.1528
-50.1191
-50.0976
-50.0981
-50.1357
-50.1742
-50.1969
-50.2072
-50.1833
-50.1689
-50.1383
-50.1258
-50.0623
-50.0825
-50.135
-50.1672
-50.1426
-50.1464
-50.119
-50.0944
-50.0762
-50.1188
-50.1493
-50.1756
-50.1777
-50.15
-50.1228
-50.0835
-50.0803
-49.9983
-49.9804
-50.0344
-50.017
-50.0209
-50.0167
-49.9885
-50.0329
-50.0162
-50.0718
-50.1061
-50.1431
-50.1328
-50.0865
-50.0583
-50.0209
-50.0235
-49.9347
-49.9125
-49.9764
-49.968
-49.9551
-49.9553
-49.94
-50.019
-50.0232
-50.0677
-50.0837
-50.1355
-50.1249
-50.0859
-50.0493
-49.9964
-50.0089
-49.9906
-50.0077
-49.9428
-49.8973
-49.9099
-49.948
-49.9201
-49.9904
-50.0004
-50.0735
-50.0694
-50.0672
-50.0633
-50.0382
-49.9931
-49.9411
-49.9175
-49.9442
-50.0006
-50.0332
-50.0604
-50.0874
-50.1343
-50.1791
-50.1634
-50.1976
-50.2286
-50.2892
-50.3448
-50.3792
-50.3692
-50.386
-50.4708
-50.6332
-50.8068
-50.9916
-51.2151
-51.5461
-52.0338
-52.6689
-53.503
-54.6336
-56.1817
-58.1979
-60.7
-63.6772
-67.092
-70.8303
-74.7594
-78.7724
-82.8029
-86.7881
-90.6747
-94.3923
-97.8226
-100.713
-102.926
-104.494
-105.36
-105.636
-105.371
-105.418
-105.43
-105.533
-105.696
-106.173
-106.613
-107.001
-107.137
-106.856
-106.238
-105.703
-105.41
-104.812
-103.391
-101.229
-98.5777
-95.3332
-91.5418
-87.3946
-82.602
-77.0189
-70.9276
-64.2565
-56.5866
-47.9231
-38.4038
-27.9816
-17.0901
-7.76606
-40.7746
-42.544
-44.1508
-45.5321
-46.7244
-47.6351
-48.3735
-48.9569
-49.3734
-49.7031
-49.9206
-50.078
-50.2443
-50.3605
-50.4749
-50.5543
-50.6154
-50.6631
-50.6999
-50.7603
-50.8256
-50.8897
-50.9297
-50.987
-51.0185
-51.0979
-51.1003
-51.0854
-51.0608
-51.054
-51.0433
-51.0498
-51.0134
-51.0268
-51.0514
-51.1412
-51.1351
-51.0861
-51.0604
-51.085
-51.0921
-51.1316
-51.1361
-51.1101
-51.0758
-51.0375
-51.0174
-51.0102
-51.0291
-51.0323
-51.047
-51.0523
-51.1126
-51.0983
-51.0582
-51.0318
-51.052
-51.0468
-51.0758
-51.0844
-51.084
-51.0415
-51.0087
-50.983
-50.9759
-50.9911
-51.0079
-51.0398
-51.0445
-51.1303
-51.1476
-51.0894
-51.1081
-51.1008
-51.1024
-51.127
-51.0763
-51.083
-51.0298
-50.9878
-50.9472
-50.9467
-50.9756
-50.9898
-51.0157
-51.0035
-51.0761
-51.0941
-51.0407
-51.0582
-51.0678
-51.0621
-51.069
-50.9922
-50.9979
-50.9623
-50.9471
-50.9011
-50.9006
-50.9229
-50.9423
-50.9853
-50.9627
-50.9605
-50.9307
-51.0017
-51.0521
-51.0429
-51.007
-51.027
-50.9467
-50.9427
-50.8867
-50.8959
-50.9037
-50.914
-50.9289
-50.9479
-50.9614
-50.9607
-50.9501
-50.8957
-50.8622
-50.8716
-50.9087
-50.8582
-50.7941
-50.7829
-50.767
-50.8121
-50.8477
-50.8724
-50.8313
-50.777
-50.7698
-50.8345
-50.9477
-51.1027
-51.2779
-51.4962
-51.812
-52.2648
-52.8731
-53.6596
-54.674
-56.0017
-57.709
-59.8105
-62.3079
-65.1811
-68.3859
-71.8559
-75.5013
-79.2607
-83.0852
-86.9297
-90.762
-94.538
-98.1058
-101.335
-104.033
-105.971
-107.113
-107.356
-107.406
-107.399
-107.313
-107.24
-107.183
-107.313
-107.605
-107.942
-108.077
-107.903
-107.713
-107.756
-107.644
-106.819
-105.314
-103.434
-101.009
-97.8941
-94.3584
-90.419
-85.7979
-80.4885
-74.5921
-67.8461
-60.0852
-51.4545
-42.0007
-32.1183
-23.6621
-37.3465
-39.3538
-41.2337
-42.9011
-44.3561
-45.5211
-46.5138
-47.3468
-47.9518
-48.4688
-48.862
-49.1413
-49.4163
-49.6271
-49.8037
-49.9355
-50.0105
-50.0629
-50.1079
-50.1482
-50.2121
-50.2737
-50.3263
-50.294
-50.2152
-50.1223
-50.1297
-50.1301
-50.1648
-50.1725
-50.2091
-50.2063
-50.2202
-50.204
-50.1626
-50.0686
-50.0773
-50.1322
-50.1681
-50.15
-50.1501
-50.1183
-50.1035
-50.1076
-50.1467
-50.1834
-50.2002
-50.2064
-50.1835
-50.1691
-50.1371
-50.1271
-50.0682
-50.0942
-50.1448
-50.1771
-50.156
-50.1531
-50.1164
-50.0954
-50.0844
-50.1243
-50.1595
-50.1826
-50.1821
-50.1557
-50.129
-50.0904
-50.0864
-50.0121
-49.9991
-50.0592
-50.0398
-50.04
-50.0354
-50.0106
-50.0529
-50.0336
-50.088
-50.1193
-50.1521
-50.1445
-50.1029
-50.075
-50.038
-50.0377
-49.9537
-49.9318
-49.9925
-49.9847
-49.974
-49.9626
-49.9559
-50.0302
-50.032
-50.0778
-50.0959
-50.1468
-50.1399
-50.0988
-50.064
-50.0137
-50.0211
-50.0066
-50.0246
-49.9515
-49.904
-49.9269
-49.9632
-49.9404
-50.0155
-50.0311
-50.1006
-50.0966
-50.0919
-50.0911
-50.0776
-50.0416
-49.9935
-49.9771
-49.9937
-50.0442
-50.0717
-50.1052
-50.1241
-50.1868
-50.256
-50.2605
-50.3102
-50.3425
-50.4277
-50.5303
-50.6141
-50.6419
-50.6755
-50.7666
-50.9476
-51.1686
-51.419
-51.7092
-52.0725
-52.5212
-53.0788
-53.7902
-54.6871
-55.8368
-57.2913
-59.078
-61.1894
-63.6177
-66.3543
-69.3782
-72.635
-76.071
-79.6381
-83.3045
-87.0484
-90.8454
-94.5911
-98.174
-101.417
-104.013
-105.226
-106.27
-106.938
-107.087
-107.142
-107.202
-107.502
-107.797
-108.162
-108.606
-109.012
-109.262
-109.419
-109.704
-109.976
-109.808
-109.09
-107.996
-106.308
-103.836
-101.015
-97.953
-94.1489
-89.5717
-84.5195
-78.6716
-71.7575
-63.9695
-55.3709
-46.2906
-38.4533
-34.2784
-36.4465
-38.5299
-40.4144
-42.1108
-43.5316
-44.7451
-45.7924
-46.6437
-47.3432
-47.9246
-48.3857
-48.8023
-49.1462
-49.4415
-49.6793
-49.8769
-50.0292
-50.1534
-50.2811
-50.4066
-50.5301
-50.6249
-50.7194
-50.7867
-50.892
-50.9212
-50.9479
-50.9429
-50.9594
-50.9561
-50.9859
-50.9498
-50.9708
-50.9986
-51.0887
-51.0827
-51.0385
-51.0164
-51.0411
-51.0452
-51.0862
-51.0961
-51.0778
-51.0499
-51.0169
-50.9956
-50.9826
-50.9977
-51.0039
-51.0222
-51.0306
-51.0723
-51.0512
-51.0265
-51.0114
-51.0338
-51.0302
-51.0719
-51.0771
-51.0593
-51.0234
-50.9914
-50.9704
-50.9588
-50.9684
-50.9847
-51.0155
-51.0176
-51.0873
-51.1064
-51.0637
-51.0787
-51.08
-51.0844
-51.1045
-51.0567
-51.0675
-51.012
-50.9725
-50.9395
-50.9354
-50.9579
-50.9698
-50.9922
-50.9813
-51.0444
-51.0543
-51.0075
-51.0371
-51.0486
-51.0535
-51.0475
-50.9698
-50.9725
-50.933
-50.9134
-50.8775
-50.8853
-50.9065
-50.9258
-50.9655
-50.9433
-50.9413
-50.9146
-50.9829
-51.0267
-51.0125
-50.978
-50.9981
-50.9272
-50.9264
-50.8777
-50.8828
-50.8851
-50.8966
-50.9234
-50.9534
-50.9707
-50.9464
-50.9281
-50.891
-50.904
-50.9185
-50.9414
-50.8794
-50.8386
-50.884
-50.8805
-50.9454
-51.0024
-51.0668
-51.0869
-51.0825
-51.0794
-51.1588
-51.3062
-51.4885
-51.6912
-51.9386
-52.248
-52.6483
-53.1594
-53.8007
-54.6205
-55.6382
-56.9089
-58.4494
-60.2575
-62.3308
-64.6658
-67.2705
-70.1274
-73.2092
-76.4583
-79.847
-83.3756
-87.0384
-90.7647
-94.4882
-98.096
-101.394
-103.94
-106.055
-107.572
-107.922
-107.902
-107.917
-108.053
-108.281
-108.63
-109.058
-109.528
-110.004
-110.579
-111.28
-112.026
-112.435
-112.387
-112.037
-111.155
-109.485
-107.379
-105.029
-102.046
-98.2757
-93.9638
-88.9943
-83.0366
-76.0458
-68.1975
-59.7725
-52.3902
-31.4704
-33.7812
-36.0204
-38.0358
-39.9235
-41.533
-42.9204
-44.1421
-45.1564
-46.0163
-46.7459
-47.3491
-47.875
-48.3152
-48.6813
-48.9763
-49.2026
-49.3882
-49.5438
-49.6756
-49.8068
-49.9177
-50.0035
-50.0258
-50.0141
-49.9825
-50.0189
-50.0461
-50.0957
-50.1118
-50.1461
-50.1425
-50.1784
-50.1833
-50.1583
-50.0775
-50.1001
-50.1536
-50.1873
-50.1717
-50.1778
-50.1566
-50.143
-50.1454
-50.1861
-50.2224
-50.2361
-50.2366
-50.2148
-50.2011
-50.1668
-50.1573
-50.108
-50.1387
-50.1823
-50.2106
-50.1902
-50.1899
-50.1602
-50.1439
-50.1348
-50.1724
-50.2058
-50.224
-50.2192
-50.1905
-50.1631
-50.1294
-50.1245
-50.057
-50.0545
-50.1128
-50.0926
-50.0942
-50.0897
-50.0667
-50.1056
-50.0877
-50.1437
-50.1659
-50.1869
-50.1816
-50.1461
-50.1171
-50.0796
-50.0784
-50.0133
-49.999
-50.0412
-50.0127
-50.0237
-50.042
-50.018
-50.0779
-50.0818
-50.1327
-50.1513
-50.1925
-50.1789
-50.1445
-50.1116
-50.0611
-50.0609
-50.0434
-50.0641
-49.9941
-49.949
-49.9712
-50.0034
-49.9882
-50.0634
-50.0923
-50.1603
-50.1591
-50.1555
-50.155
-50.1353
-50.0922
-50.0536
-50.0732
-50.085
-50.1138
-50.1125
-50.1486
-50.1636
-50.2305
-50.2365
-50.332
-50.4233
-50.4346
-50.4981
-50.6123
-50.7253
-50.7876
-50.8431
-50.94
-51.1188
-51.3368
-51.5834
-51.8664
-52.2217
-52.6633
-53.2027
-53.8459
-54.5921
-55.4983
-56.5975
-57.9232
-59.4751
-61.2637
-63.2797
-65.5218
-68.0112
-70.7496
-73.6683
-76.7292
-79.9617
-83.401
-86.9902
-90.6801
-94.4063
-98.0426
-101.35
-104.181
-106.023
-107.293
-108.161
-108.239
-108.223
-108.476
-109.003
-109.52
-110.055
-110.807
-111.775
-112.909
-114.046
-114.803
-115.187
-115.431
-115.425
-114.763
-113.411
-111.693
-109.455
-106.419
-102.871
-98.8755
-93.8859
-87.7174
-80.6008
-72.746
-65.7962
-29.0202
-31.4355
-33.7516
-35.9061
-37.9142
-39.6966
-41.2521
-42.6387
-43.8252
-44.8469
-45.7487
-46.5089
-47.182
-47.7526
-48.2447
-48.652
-48.9969
-49.2798
-49.5121
-49.7279
-49.9286
-50.1105
-50.2485
-50.384
-50.4922
-50.6266
-50.6903
-50.7502
-50.7689
-50.8216
-50.8245
-50.8669
-50.8476
-50.8649
-50.9045
-50.9717
-50.9679
-50.9465
-50.9353
-50.964
-50.9699
-51.0063
-51.0238
-51.0142
-50.9914
-50.9655
-50.9474
-50.9331
-50.9394
-50.944
-50.9682
-50.9813
-50.9976
-50.9691
-50.9551
-50.948
-50.976
-50.9773
-51.0156
-51.0255
-51.011
-50.9816
-50.9548
-50.9333
-50.9167
-50.9187
-50.9294
-50.9527
-50.9538
-51.0104
-51.0233
-50.9879
-51.0123
-51.0176
-51.0272
-51.0461
-51.0049
-51.0207
-50.9763
-50.942
-50.9128
-50.9028
-50.9132
-50.9212
-50.932
-50.9156
-50.9666
-50.9798
-50.9476
-50.9685
-50.9598
-50.9479
-50.9703
-50.9062
-50.9125
-50.8817
-50.8639
-50.8447
-50.8545
-50.8657
-50.8831
-50.9191
-50.8964
-50.8894
-50.8627
-50.9263
-50.9638
-50.9426
-50.9064
-50.9159
-50.8579
-50.8691
-50.839
-50.8479
-50.8531
-50.8686
-50.8999
-50.9233
-50.9357
-50.8979
-50.8725
-50.8533
-50.8975
-50.9352
-50.932
-50.9027
-50.9755
-50.9304
-50.9306
-51.0194
-51.0822
-51.158
-51.2141
-51.2508
-51.2867
-51.39
-51.5354
-51.7101
-51.9119
-52.1599
-52.4534
-52.8267
-53.2941
-53.8353
-54.493
-55.2827
-56.2526
-57.4177
-58.7751
-60.3377
-62.0987
-64.0456
-66.22
-68.6428
-71.2503
-73.9935
-76.9043
-80.0408
-83.3695
-86.8507
-90.4496
-94.1052
-97.6941
-101.067
-103.928
-106.119
-107.775
-108.837
-108.651
-108.77
-109.079
-109.59
-110.171
-110.672
-111.454
-112.823
-114.297
-115.558
-116.568
-117.724
-119.05
-119.729
-119.227
-117.928
-116.185
-113.969
-111.322
-108.208
-104.219
-99.0621
-92.7071
-85.44
-78.9402
-26.9178
-29.37
-31.7401
-33.9613
-36.0085
-37.8912
-39.5425
-41.0774
-42.382
-43.5387
-44.5639
-45.4362
-46.2037
-46.8606
-47.4179
-47.8906
-48.287
-48.6105
-48.9038
-49.1307
-49.3295
-49.4927
-49.6331
-49.7159
-49.7708
-49.8148
-49.89
-49.9684
-50.0429
-50.0799
-50.1327
-50.1333
-50.1801
-50.1693
-50.1636
-50.1323
-50.1517
-50.1924
-50.2265
-50.2165
-50.2266
-50.2137
-50.2071
-50.2171
-50.2599
-50.2962
-50.3084
-50.3043
-50.2823
-50.2594
-50.215
-50.2102
-50.1928
-50.227
-50.25
-50.2712
-50.2515
-50.2507
-50.2319
-50.221
-50.2161
-50.2524
-50.2859
-50.2991
-50.2888
-50.26
-50.2299
-50.194
-50.1832
-50.1314
-50.1418
-50.2016
-50.1706
-50.18
-50.1952
-50.1613
-50.1871
-50.1723
-50.2219
-50.2428
-50.2692
-50.257
-50.2196
-50.1912
-50.1563
-50.1462
-50.0895
-50.0865
-50.1264
-50.0799
-50.1031
-50.1108
-50.0954
-50.1458
-50.157
-50.2045
-50.2261
-50.2666
-50.2523
-50.2246
-50.1962
-50.1483
-50.1356
-50.1129
-50.1369
-50.0754
-50.0324
-50.0606
-50.0854
-50.0743
-50.1381
-50.164
-50.2208
-50.2328
-50.2401
-50.2371
-50.2124
-50.189
-50.1663
-50.1796
-50.1799
-50.2034
-50.1939
-50.2186
-50.2374
-50.2801
-50.2861
-50.4087
-50.4561
-50.5055
-50.5748
-50.6684
-50.78
-50.8603
-50.9365
-51.0236
-51.1706
-51.3685
-51.6006
-51.8612
-52.1979
-52.607
-53.07
-53.6192
-54.2682
-55.0556
-55.9724
-57.0363
-58.2373
-59.6036
-61.1331
-62.8321
-64.7268
-66.8521
-69.1758
-71.6376
-74.2499
-77.0804
-80.1193
-83.3364
-86.7091
-90.2226
-93.8441
-97.4369
-100.812
-103.803
-106.198
-107.434
-108.64
-109.585
-109.746
-109.874
-110.421
-111.424
-112.462
-113.766
-115.699
-117.706
-119.354
-120.982
-122.801
-124.259
-124.54
-123.66
-122.392
-121.011
-119.2
-116.829
-113.918
-109.989
-104.651
-98.203
-92.1086
-25.1795
-27.6443
-30.1
-32.3405
-34.4377
-36.3637
-38.1065