/*--------------------------------*- C++ -*----------------------------------*\
| =========                 |                                                 |
| \\      /  F ield         | OpenFOAM: The Open Source CFD Toolbox           |
|  \\    /   O peration     | Version:  4.1                                   |
|   \\  /    A nd           | Web:      www.OpenFOAM.org                      |
|    \\/     M anipulation  |                                                 |
\*---------------------------------------------------------------------------*/
FoamFile
{
    version     2.0;
    format      ascii;
    class       volScalarField;
    location    "26";
    object      p;
}
// * * * * * * * * * * * * * * * * * * * * * * * * * * * * * * * * * * * * * //

dimensions      [0 2 -2 0 0 0 0];

internalField   nonuniform List<scalar> 
6750
(
-103.337
-50.9615
-119.347
-121.007
-139.793
-146.683
-152.81
-156.668
-158.839
-157.799
-159.202
-153.262
-159.163
-79.1182
-171.213
-103.174
-50.446
-118.968
-120.877
-140.056
-147.022
-153.233
-156.723
-158.81
-157.776
-159.237
-153.458
-158.993
-78.5544
-171.182
-103.024
-49.9687
-118.688
-120.85
-140.293
-147.29
-153.565
-156.708
-158.769
-157.765
-159.288
-153.447
-158.85
-78.0109
-171.193
-102.837
-49.3316
-118.314
-120.806
-140.588
-147.613
-153.909
-156.752
-158.725
-157.771
-159.348
-153.293
-158.793
-77.6278
-171.033
-102.671
-48.6428
-117.962
-120.796
-140.868
-147.895
-154.214
-156.915
-158.823
-157.89
-159.33
-152.585
-158.651
-77.309
-170.87
-102.543
-47.9512
-117.617
-120.781
-141.124
-148.178
-154.669
-157.237
-158.804
-157.951
-159.243
-152.844
-158.658
-76.9573
-170.696
-102.491
-47.3876
-117.338
-120.755
-141.283
-148.391
-154.939
-157.179
-158.82
-158.021
-159.015
-153.316
-158.593
-76.6181
-170.522
-102.516
-47.2307
-117.261
-120.749
-141.341
-148.484
-155.11
-157.304
-158.764
-157.957
-159.133
-153.605
-158.569
-76.3438
-170.431
-102.595
-47.524
-117.432
-120.796
-141.305
-148.451
-155.072
-157.347
-158.803
-157.964
-159.144
-153.366
-158.527
-76.4983
-170.174
-102.748
-48.1456
-117.772
-120.857
-141.169
-148.286
-154.772
-157.284
-158.835
-157.984
-159.18
-152.682
-158.455
-76.7512
-169.966
-102.961
-48.8762
-118.173
-120.91
-140.949
-148.02
-154.352
-157.064
-158.898
-158.025
-159.433
-152.628
-158.38
-76.9608
-169.793
-103.193
-49.5807
-118.565
-120.95
-140.692
-147.752
-154.03
-156.946
-158.914
-158.036
-159.487
-153.251
-158.438
-77.1747
-169.655
-103.429
-50.2198
-118.971
-121.024
-140.42
-147.449
-153.729
-156.97
-159.064
-158.205
-159.532
-153.78
-158.498
-77.4845
-169.589
-103.61
-50.6946
-119.271
-121.07
-140.197
-147.193
-153.437
-157.052
-159.116
-158.366
-159.528
-153.915
-158.621
-77.9855
-169.42
-103.799
-51.2036
-119.671
-121.224
-139.952
-146.871
-153.027
-157.043
-159.24
-158.504
-159.455
-153.793
-158.765
-78.511
-169.306
-141.534
-36.5778
-122.465
-120.731
-140.439
-147.074
-153.18
-156.838
-159.203
-157.863
-159.819
-152.378
-165.9
-60.1774
-239.461
-141.345
-36.0827
-122.033
-120.532
-140.727
-147.443
-153.675
-156.921
-159.17
-157.841
-159.842
-152.545
-165.676
-59.6157
-239.506
-141.19
-35.7072
-121.775
-120.481
-140.958
-147.674
-153.997
-156.899
-159.127
-157.829
-159.889
-152.455
-165.45
-59.1191
-239.678
-140.998
-35.1623
-121.378
-120.386
-141.258
-147.989
-154.359
-156.947
-159.074
-157.81
-159.968
-152.33
-165.374
-58.7016
-239.444
-140.855
-34.5927
-121.003
-120.344
-141.532
-148.237
-154.642
-157.059
-159.184
-157.874
-160.007
-151.62
-165.144
-58.3714
-239.233
-140.772
-34.0154
-120.603
-120.297
-141.784
-148.493
-155.077
-157.372
-159.14
-157.892
-159.951
-151.888
-165.173
-58.0044
-238.99
-140.787
-33.538
-120.25
-120.254
-141.932
-148.675
-155.336
-157.284
-159.223
-157.938
-159.842
-152.234
-165.119
-57.6836
-238.765
-140.85
-33.3989
-120.146
-120.241
-141.984
-148.753
-155.486
-157.413
-159.101
-157.912
-159.753
-152.466
-165.046
-57.4071
-238.718
-140.913
-33.6345
-120.37
-120.291
-141.95
-148.721
-155.442
-157.431
-159.122
-157.93
-159.795
-152.328
-165.017
-57.5202
-238.233
-141.05
-34.1441
-120.785
-120.365
-141.819
-148.582
-155.154
-157.388
-159.144
-157.943
-159.774
-151.738
-164.862
-57.7081
-237.833
-141.264
-34.7433
-121.242
-120.449
-141.603
-148.339
-154.746
-157.179
-159.211
-157.98
-160.019
-151.594
-164.715
-57.8884
-237.502
-141.508
-35.313
-121.65
-120.519
-141.348
-148.1
-154.434
-157.062
-159.174
-157.948
-160.004
-152.14
-164.793
-58.0658
-237.218
-141.771
-35.8568
-122.079
-120.647
-141.073
-147.804
-154.112
-157.053
-159.287
-158.049
-160.051
-152.585
-164.877
-58.3519
-237.105
-141.967
-36.2284
-122.353
-120.716
-140.852
-147.581
-153.819
-157.126
-159.298
-158.14
-160.069
-152.723
-165.073
-58.7632
-236.684
-142.192
-36.721
-122.807
-120.944
-140.589
-147.234
-153.345
-157.08
-159.463
-158.285
-160.073
-152.68
-165.258
-59.2432
-236.408
-206.325
-6.93632
-125.578
-120.622
-141.483
-148.053
-154.187
-157.344
-159.919
-158.123
-161.026
-150.414
-177.494
-18.172
-361.899
-206.093
-6.58965
-125.129
-120.31
-141.762
-148.43
-154.728
-157.471
-159.877
-158.106
-161.015
-150.511
-177.107
-17.6
-361.997
-205.934
-6.42875
-124.916
-120.217
-141.962
-148.596
-154.993
-157.431
-159.822
-158.089
-161.016
-150.344
-176.591
-17.0632
-362.362
-205.756
-6.10953
-124.49
-120.026
-142.236
-148.888
-155.353
-157.488
-159.745
-158.055
-161.07
-150.263
-176.497
-16.6399
-361.892
-205.681
-5.80495
-124.073
-119.931
-142.474
-149.076
-155.579
-157.519
-159.802
-158.034
-161.126
-149.608
-176.117
-16.3311
-361.521
-205.711
-5.44357
-123.573
-119.829
-142.693
-149.29
-155.934
-157.764
-159.705
-157.99
-161.05
-149.834
-176.112
-15.9361
-361.069
-205.848
-5.09977
-123.078
-119.766
-142.809
-149.42
-156.141
-157.661
-159.736
-157.986
-161.015
-149.951
-175.987
-15.5738
-360.62
-205.941
-4.98649
-122.912
-119.745
-142.843
-149.477
-156.248
-157.768
-159.66
-157.999
-160.854
-150.108
-175.695
-15.1953
-360.577
-205.943
-5.12859
-123.237
-119.794
-142.822
-149.443
-156.2
-157.747
-159.666
-158.007
-160.894
-150.028
-175.79
-15.2878
-359.614
-206.022
-5.42246
-123.788
-119.882
-142.714
-149.339
-155.962
-157.746
-159.686
-158.034
-160.817
-149.639
-175.563
-15.4152
-358.819
-206.224
-5.74639
-124.352
-120.019
-142.528
-149.132
-155.613
-157.57
-159.738
-158.049
-160.999
-149.441
-175.313
-15.5335
-358.119
-206.481
-6.0215
-124.792
-120.137
-142.299
-148.941
-155.34
-157.471
-159.646
-157.993
-160.864
-149.837
-175.385
-15.5827
-357.48
-206.79
-6.32775
-125.244
-120.364
-142.052
-148.666
-155.009
-157.412
-159.679
-158.006
-160.855
-150.121
-175.424
-15.7329
-357.244
-207.017
-6.48182
-125.464
-120.47
-141.855
-148.497
-154.75
-157.469
-159.638
-158.009
-160.831
-150.214
-175.858
-16.0784
-356.352
-207.31
-6.83753
-125.934
-120.822
-141.611
-148.149
-154.241
-157.365
-159.802
-158.094
-160.821
-150.238
-176.142
-16.4333
-355.772
-273.739
19.4075
-123.116
-123.123
-142.777
-150.258
-156.192
-158.708
-161.199
-159.041
-162.467
-149.828
-186.598
31.4514
-501.134
-273.523
19.5515
-122.768
-122.751
-142.975
-150.583
-156.676
-158.861
-161.165
-159.053
-162.44
-149.902
-185.984
31.8933
-501.271
-273.414
19.5195
-122.604
-122.637
-143.118
-150.692
-156.85
-158.804
-161.093
-159.035
-162.4
-149.821
-184.973
32.3942
-501.868
-273.317
19.5538
-122.219
-122.389
-143.313
-150.935
-157.155
-158.858
-161.031
-159.025
-162.422
-149.773
-184.896
32.6472
-501.082
-273.427
19.5709
-121.79
-122.27
-143.482
-151.066
-157.308
-158.833
-161.017
-158.94
-162.423
-149.269
-184.381
32.8019
-500.494
-273.642
19.6524
-121.22
-122.144
-143.623
-151.231
-157.549
-158.96
-160.87
-158.825
-162.266
-149.36
-184.253
33.1104
-499.675
-273.879
19.6814
-120.605
-122.09
-143.683
-151.314
-157.678
-158.863
-160.818
-158.741
-162.143
-149.263
-183.929
33.4932
-498.871
-273.972
19.6478
-120.377
-122.068
-143.688
-151.347
-157.728
-158.898
-160.717
-158.727
-161.962
-149.367
-183.213
34.0978
-498.693
-273.867
19.6543
-120.783
-122.108
-143.691
-151.31
-157.682
-158.855
-160.699
-158.719
-162.011
-149.196
-183.517
34.1409
-497.049
-273.831
19.7438
-121.431
-122.18
-143.629
-151.231
-157.51
-158.884
-160.75
-158.773
-161.956
-148.988
-183.256
34.1049
-495.566
-273.963
19.8646
-122.062
-122.336
-143.513
-151.059
-157.244
-158.752
-160.786
-158.749
-162.063
-148.813
-182.847
34.1388
-494.218
-274.183
19.9932
-122.509
-122.465
-143.339
-150.91
-157.031
-158.68
-160.675
-158.708
-161.9
-149.027
-182.832
34.3541
-492.909
-274.492
19.9867
-122.923
-122.75
-143.171
-150.677
-156.732
-158.59
-160.604
-158.641
-161.83
-149.122
-182.667
34.6234
-492.31
-274.718
20.0157
-123.083
-122.872
-143.02
-150.553
-156.538
-158.627
-160.538
-158.588
-161.76
-149.046
-183.485
34.4739
-490.636
-275.034
19.8189
-123.447
-123.291
-142.864
-150.261
-156.089
-158.485
-160.632
-158.591
-161.751
-149.001
-183.872
34.5043
-489.55
-352.711
23.7679
-118.529
-130.476
-145.539
-154.351
-159.868
-161.654
-163.887
-161.488
-165.379
-153.785
-197.719
69.3647
-672.067
-352.554
23.9439
-118.35
-130.121
-145.64
-154.61
-160.248
-161.795
-163.848
-161.485
-165.213
-153.83
-196.792
69.64
-672.034
-352.537
23.9637
-118.267
-130.01
-145.727
-154.681
-160.333
-161.71
-163.717
-161.42
-165.065
-153.92
-195.373
69.984
-672.524
-352.627
24.052
-118.009
-129.771
-145.824
-154.866
-160.554
-161.738
-163.68
-161.435
-165.039
-153.845
-195.188
70.4944
-671.399
-352.882
23.9946
-117.664
-129.663
-145.914
-154.954
-160.634
-161.678
-163.616
-161.332
-164.965
-153.443
-194.462
70.8163
-670.379
-353.139
23.8022
-117.18
-129.547
-145.964
-155.069
-160.77
-161.693
-163.377
-161.139
-164.684
-153.402
-194.059
71.0657
-668.877
-353.408
23.391
-116.638
-129.506
-145.964
-155.116
-160.825
-161.588
-163.231
-160.988
-164.423
-153.222
-193.456
71.3854
-667.227
-353.502
23.0924
-116.428
-129.491
-145.937
-155.118
-160.819
-161.529
-163.014
-160.89
-164.2
-153.331
-192.306
71.9452
-666.307
-353.366
23.2326
-116.794
-129.536
-145.971
-155.084
-160.779
-161.486
-162.976
-160.853
-164.249
-153.006
-192.692
72.5913
-663.762
-353.261
23.6855
-117.357
-129.588
-145.961
-155.016
-160.656
-161.531
-163.097
-160.94
-164.267
-152.791
-192.468
72.6698
-661.12
-353.337
24.1622
-117.888
-129.728
-145.927
-154.874
-160.46
-161.43
-163.157
-160.886
-164.33
-152.641
-192.076
72.4967
-658.577
-353.505
24.5378
-118.245
-129.834
-145.819
-154.746
-160.301
-161.369
-163.049
-160.822
-164.186
-152.734
-192.064
72.471
-655.946
-353.777
24.6134
-118.544
-130.107
-145.746
-154.562
-160.059
-161.266
-162.867
-160.668
-164.102
-152.693
-191.725
72.7068
-654.525
-353.97
24.6186
-118.629
-130.219
-145.641
-154.46
-159.925
-161.281
-162.784
-160.6
-164.1
-152.435
-192.818
72.9493
-652.028
-354.263
24.3254
-118.841
-130.631
-145.589
-154.235
-159.572
-161.145
-162.796
-160.563
-164.205
-152.25
-193.33
73.5424
-650.271
-447.164
3.56775
-116.663
-144.696
-151.105
-161.16
-166.234
-167.111
-169.311
-166.761
-172.229
-165.79
-221.45
83.3175
-883.374
-447.151
3.97191
-116.594
-144.391
-151.134
-161.363
-166.507
-167.235
-169.265
-166.8
-171.912
-165.916
-220.155
83.0384
-883.303
-447.271
4.21899
-116.576
-144.276
-151.18
-161.412
-166.522
-167.121
-169.069
-166.688
-171.568
-166.047
-218.204
82.7147
-883.828
-447.395
4.4816
-116.462
-144.066
-151.203
-161.543
-166.653
-167.108
-169.026
-166.686
-171.334
-165.944
-217.393
83.556
-882.342
-447.618
4.46934
-116.295
-143.959
-151.237
-161.605
-166.674
-167.037
-168.922
-166.56
-171.112
-165.571
-216.119
84.1072
-880.941
-447.839
4.23379
-116.036
-143.86
-151.223
-161.675
-166.732
-166.97
-168.534
-166.288
-170.625
-165.406
-215.181
84.5073
-878.368
-448.073
3.69154
-115.725
-143.837
-151.187
-161.694
-166.735
-166.837
-168.25
-166.064
-170.196
-165.227
-214.081
84.8314
-875.605
-448.163
3.33114
-115.606
-143.847
-151.141
-161.666
-166.684
-166.675
-167.896
-165.871
-169.948
-165.34
-212.735
85.1469
-873.004
-448.136
3.52125
-115.841
-143.904
-151.199
-161.65
-166.663
-166.647
-167.862
-165.746
-169.912
-164.754
-212.617
86.6693
-869.051
-448.151
4.00494
-116.153
-143.956
-151.225
-161.595
-166.571
-166.721
-168.091
-165.881
-170.002
-164.31
-212.331
87.1211
-864.645
-448.268
4.38651
-116.442
-144.092
-151.257
-161.483
-166.429
-166.626
-168.215
-165.81
-170.073
-164.07
-211.987
87.3328
-860.268
-448.42
4.63961
-116.63
-144.188
-151.203
-161.363
-166.315
-166.553
-168.155
-165.766
-170.015
-163.932
-212.04
87.78
-855.764
-448.662
4.53916
-116.808
-144.437
-151.211
-161.224
-166.144
-166.433
-167.906
-165.553
-170.057
-163.862
-211.945
88.6576
-852.414
-448.819
4.43045
-116.84
-144.545
-151.142
-161.128
-166.06
-166.425
-167.839
-165.433
-170.103
-163.446
-213.267
89.7831
-847.711
-449.083
3.96481
-116.968
-144.921
-151.178
-160.971
-165.82
-166.313
-167.826
-165.286
-170.203
-162.942
-213.733
91.6764
-844.288
-554.848
-26.4098
-121.22
-166.381
-161.469
-172.23
-177.251
-176.278
-180.381
-175.917
-186.892
-186.196
-270.69
76.7836
-1157.92
-554.825
-26.0435
-121.168
-166.12
-161.437
-172.377
-177.373
-176.366
-180.077
-176.029
-186.278
-186.554
-267.571
78.2357
-1156.56
-554.948
-25.815
-121.144
-165.993
-161.445
-172.41
-177.316
-176.237
-179.684
-175.971
-185.918
-187.617
-265.416
79.472
-1154.76
-555.045
-25.5605
-121.098
-165.804
-161.425
-172.497
-177.34
-176.222
-179.537
-176.16
-185.513
-187.451
-262.759
81.4733
-1151.6
-555.255
-25.5484
-121.054
-165.692
-161.424
-172.541
-177.312
-176.193
-179.397
-176.063
-184.9
-187.329
-259.967
83.078
-1148.53
-555.454
-25.6492
-120.988
-165.609
-161.389
-172.572
-177.314
-176.1
-178.866
-175.787
-184.17
-187.463
-257.975
83.9284
-1143.73
-555.703
-25.9036
-120.936
-165.603
-161.348
-172.572
-177.29
-175.953
-178.457
-175.502
-183.532
-187.25
-255.987
84.3794
-1138.7
-555.887
-26.0144
-120.931
-165.641
-161.311
-172.52
-177.212
-175.665
-178.019
-175.162
-183.394
-187.702
-254.515
84.2601
-1132.71
-556.025
-25.8762
-121.02
-165.712
-161.39
-172.541
-177.239
-175.697
-178.069
-175.005
-183.211
-186.713
-253.76
84.9161
-1126.46
-556.143
-25.6586
-121.103
-165.784
-161.448
-172.512
-177.181
-175.779
-178.385
-175.14
-183.415
-186.15
-253.825
84.4093
-1118.29
-556.296
-25.6112
-121.217
-165.947
-161.535
-172.44
-177.098
-175.655
-178.615
-175.024
-183.631
-185.387
-254.282
82.8556
-1110.66
-556.432
-25.6186
-121.297
-166.073
-161.535
-172.329
-177.03
-175.5
-178.609
-174.903
-183.993
-185.179
-255.768
81.3491
-1101.93
-556.649
-25.8977
-121.44
-166.334
-161.625
-172.243
-176.971
-175.279
-178.439
-174.329
-184.021
-184.448
-256.894
80.6635
-1096.06
-556.77
-26.051
-121.482
-166.463
-161.607
-172.154
-176.961
-175.253
-178.615
-174.118
-184.134
-183.078
-258.86
80.9294
-1090.96
-557.016
-26.5366
-121.632
-166.832
-161.746
-172.087
-176.897
-175.215
-178.834
-173.836
-184.344
-182.226
-261.213
82.8164
-1086.24
-673.589
-57.4601
-132.086
-194.52
-178.999
-189.643
-196.013
-191.676
-202.423
-192.422
-219.057
-216.26
-366.357
88.4479
-1500.35
-673.643
-57.1801
-132.022
-194.288
-178.878
-189.684
-195.886
-191.579
-201.535
-192.407
-217.714
-216.506
-358.224
86.4616
-1501.23
-673.87
-56.9686
-131.964
-194.143
-178.821
-189.665
-195.694
-191.349
-200.68
-192.086
-216.128
-217.358
-349.858
87.8662
-1502.29
-674.017
-56.7596
-131.94
-193.968
-178.745
-189.679
-195.511
-191.211
-199.894
-192.279
-214.932
-219.301
-342.753
90.0986
-1496.07
-674.275
-56.7202
-131.948
-193.859
-178.703
-189.687
-195.384
-191.249
-199.511
-192.466
-213.654
-219.48
-336.061
91.3477
-1490.82
-674.506
-56.6876
-131.984
-193.801
-178.663
-189.681
-195.312
-191.137
-198.758
-192.004
-212.101
-219.897
-331.562
92.6471
-1480.62
-674.798
-56.7258
-132.065
-193.823
-178.638
-189.667
-195.278
-191.011
-198.221
-191.698
-211.266
-220.103
-327.564
92.7414
-1470.82
-675.045
-56.7035
-132.116
-193.883
-178.643
-189.615
-195.207
-190.626
-197.728
-191.12
-211.014
-220.534
-326.323
92.2828
-1459.57
-675.273
-56.7023
-132.134
-193.977
-178.767
-189.699
-195.357
-190.78
-197.998
-191.075
-210.986
-219.282
-324.897
92.4969
-1446.32
-675.456
-56.725
-132.133
-194.091
-178.886
-189.732
-195.414
-190.87
-198.545
-191.197
-211.35
-217.816
-326.671
92.181
-1432.36
-675.666
-56.8909
-132.224
-194.305
-179.063
-189.746
-195.494
-190.743
-199.106
-191.139
-212.553
-216.784
-329.408
93.9493
-1421.27
-675.823
-57.0347
-132.297
-194.488
-179.168
-189.697
-195.575
-190.477
-199.426
-190.726
-213.476
-214.146
-333.656
99.2791
-1410.36
-676.066
-57.3763
-132.463
-194.805
-179.4
-189.734
-195.803
-190.367
-200.028
-190.249
-214.938
-212.76
-341.179
106.127
-1404.05
-676.185
-57.5218
-132.531
-194.974
-179.483
-189.715
-195.97
-190.473
-200.741
-190.128
-215.965
-211.38
-349.014
109.643
-1387.12
-676.453
-57.9589
-132.721
-195.373
-179.794
-189.825
-196.225
-190.695
-201.472
-189.922
-216.43
-209.593
-354.406
118.812
-1373.58
-805.451
-89.9953
-147.353
-228.846
-206.164
-216.187
-226.366
-215.694
-239.189
-215.063
-273.392
-234.581
-514.257
111.495
-1970.83
-805.594
-89.7571
-147.304
-228.648
-205.95
-216.099
-225.928
-215.383
-237.354
-215.425
-270.881
-239.879
-489.96
110.489
-1954.98
-805.94
-89.5274
-147.228
-228.496
-205.815
-215.995
-225.555
-215.072
-236.004
-215.771
-268.983
-246.879
-479.365
108.79
-1947.12
-806.156
-89.3468
-147.23
-228.362
-205.68
-215.938
-225.127
-214.792
-234.502
-215.97
-265.465
-248.162
-462.156
112.843
-1933.92
-806.498
-89.2829
-147.26
-228.291
-205.594
-215.896
-224.845
-214.846
-233.562
-216.459
-262.799
-254.392
-447.393
117.86
-1922.83
-806.801
-89.199
-147.34
-228.291
-205.564
-215.897
-224.733
-214.937
-232.674
-216.679
-260.445
-257.483
-437.484
117.823
-1904.4
-807.167
-89.1922
-147.466
-228.362
-205.595
-215.901
-224.717
-214.932
-231.911
-216.34
-258.601
-258.011
-426.915
119.682
-1892.44
-807.475
-89.1849
-147.557
-228.454
-205.691
-215.901
-224.721
-214.596
-231.379
-216.016
-259.172
-259.738
-428.67
116.255
-1868.87
-807.779
-89.2939
-147.613
-228.581
-205.899
-216.067
-225.082
-214.874
-232.007
-215.86
-258.804
-257.427
-427.717
113.973
-1852.16
-808.028
-89.4318
-147.642
-228.739
-206.124
-216.192
-225.38
-214.914
-233.057
-215.792
-260.758
-256.118
-436.045
109.173
-1824.37
-808.322
-89.699
-147.757
-229.017
-206.448
-216.329
-225.728
-214.633
-234.086
-214.926
-262.512
-248.801
-443.379
106.127
-1805.56
-808.546
-89.8861
-147.841
-229.262
-206.713
-216.397
-226.095
-214.319
-235.17
-214.475
-266.31
-245.928
-456.132
102.337
-1784.93
-808.867
-90.2479
-148.029
-229.649
-207.15
-216.625
-226.737
-214.369
-236.388
-213.184
-268.335
-239.458
-469.079
105.632
-1760.77
-809.02
-90.3911
-148.102
-229.86
-207.375
-216.731
-227.164
-214.619
-237.586
-212.705
-270.005
-228.899
-487.275
107.722
-1752.25
-809.342
-90.8231
-148.316
-230.309
-207.912
-217.096
-227.877
-215.149
-239.14
-212.327
-271.906
-225.04
-517.345
113.639
-1741.64
-948.847
-127.275
-165.303
-269.017
-242.457
-252.368
-271.376
-251.012
-299.129
-249.21
-378.325
-248.699
-886.45
168.924
-2596.5
-949.095
-127.067
-165.266
-268.865
-242.163
-252.142
-270.419
-250.36
-294.709
-248.948
-366.789
-251.445
-745.391
179.307
-2630.21
-949.566
-126.817
-165.174
-268.732
-241.95
-251.93
-269.688
-249.866
-291.604
-249.258
-354.841
-263.122
-646.171
188.806
-2614.72
-949.878
-126.654
-165.2
-268.664
-241.758
-251.807
-268.898
-249.472
-288.908
-250.563
-347.775
-285.344
-612.25
190.344
-2559.68
-950.326
-126.592
-165.24
-268.652
-241.642
-251.708
-268.369
-249.447
-286.975
-251.135
-341.094
-287.383
-589.369
184.248
-2526.55
-950.727
-126.526
-165.339
-268.73
-241.648
-251.739
-268.146
-249.776
-285.318
-251.724
-336.424
-296.291
-573.054
188.102
-2486.26
-951.188
-126.582
-165.476
-268.882
-241.777
-251.801
-268.181
-250.032
-284.425
-252.441
-334.281
-300.393
-561.113
181.877
-2453.77
-951.586
-126.658
-165.597
-269.051
-242.004
-251.903
-268.342
-249.758
-283.752
-252.297
-335.202
-302.134
-562.746
175.504
-2406.41
-952.005
-126.858
-165.721
-269.247
-242.358
-252.199
-269.118
-250.296
-285.335
-252.446
-337.223
-299.428
-575.981
162.532
-2356.11
-952.367
-127.043
-165.819
-269.464
-242.758
-252.483
-269.945
-250.401
-287.499
-251.453
-340.158
-291.358
-587.694
159.199
-2302.44
-952.782
-127.361
-165.999
-269.824
-243.327
-252.855
-270.971
-250.331
-290.462
-251.033
-347.164
-288.611
-592.532
180.448
-2307.05
-953.092
-127.583
-166.12
-270.134
-243.824
-253.13
-271.944
-249.982
-292.85
-249.104
-351.816
-264.445
-622.362
215.435
-2309.14
-953.493
-128.012
-166.356
-270.616
-244.558
-253.659
-273.42
-250.487
-296.274
-248.298
-365.778
-243.626
-751.206
252.182
-2333.73
-953.682
-128.196
-166.442
-270.876
-244.969
-253.954
-274.427
-251.055
-299.451
-248.417
-378.416
-236.753
-918.782
242.324
-2256.72
-954.053
-128.704
-166.702
-271.408
-245.795
-254.655
-275.981
-252.052
-303.599
-248.495
-386.917
-225.065
-1027.05
259.167
-2165.72
-1102.43
-175.852
-187.652
-318.788
-291.567
-301.024
-336.566
-298.677
-390.015
-285.415
-537.249
-150.216
-1436.52
122.652
-3085.71
-1102.8
-175.687
-187.626
-318.721
-291.249
-300.817
-335.071
-298.263
-382.164
-286.855
-521.751
-180.369
-1414.87
65.7912
-3159.74
-1103.41
-175.405
-187.53
-318.65
-291.007
-300.614
-334.035
-298.01
-376.859
-288.469
-497.737
-217.98
-1120.98
181.818
-3415.57
-1103.86
-175.256
-187.587
-318.678
-290.815
-300.561
-332.885
-297.936
-371.046
-290.986
-460.648
-260.49
-844.594
278.297
-3272.78
-1104.44
-175.214
-187.645
-318.754
-290.741
-300.518
-332.163
-298.288
-368.079
-295.265
-452.743
-323.387
-778.233
273.161
-3213.45
-1104.98
-175.189
-187.765
-318.935
-290.846
-300.653
-331.885
-298.982
-365.512
-296.653
-446.571
-329.345
-762.631
248.516
-3135.65
-1105.57
-175.319
-187.926
-319.195
-291.136
-300.826
-331.974
-299.353
-363.73
-298.675
-443.468
-337.523
-722.414
262.135
-3094.99
-1106.1
-175.47
-188.09
-319.475
-291.566
-301.094
-332.525
-299.12
-363.561
-299.162
-447.524
-339.701
-739.107
245.057
-3056.48
-1106.67
-175.752
-188.302
-319.796
-292.159
-301.541
-333.888
-299.772
-366.257
-299.352
-450.472
-332.337
-768.152
224.497
-2951.58
-1107.16
-176.009
-188.487
-320.117
-292.834
-302.02
-335.683
-300.209
-371.564
-298.314
-458.669
-334.702
-772.144
235.45
-2934.19
-1107.69
-176.433
-188.764
-320.6
-293.755
-302.669
-337.751
-300.294
-376.184
-293.927
-460.178
-275.194
-836.366
289.913
-2952.33
-1108.09
-176.752
-188.949
-320.988
-294.56
-303.167
-339.767
-300.085
-382.229
-291.646
-491.337
-230.47
-1111.26
273.493
-3010.57
-1108.56
-177.31
-189.275
-321.592
-295.678
-303.98
-342.36
-300.684
-389.12
-289.093
-519.838
-181.089
-1440.89
157.685
-2773.82
-1108.79
-177.57
-189.391
-321.893
-296.296
-304.386
-344.004
-301.009
-393.97
-286.874
-528.631
-138.746
-1341.54
168.487
-2545.23
-1109.2
-178.2
-189.741
-322.538
-297.477
-305.38
-346.666
-302.043
-401.394
-285.606
-537.215
-114.161
-1301.74
239.387
-2443.25
-1259.93
-236.187
-211.898
-375.432
-349.466
-356.191
-416.269
-355.978
-505.122
-330.646
-697.732
-216.32
-1130.03
-40.5493
-4036.5
-1260.44
-236.08
-211.891
-375.477
-349.175
-356.147
-414.592
-356.311
-497.217
-333.879
-690.494
-192.075
-1351.03
-132.118
-3870.4
-1261.22
-235.771
-211.795
-375.493
-348.972
-356.076
-413.611
-356.892
-492.246
-338.867
-672.098
-205.825
-1563.34
-116.626
-3962.21
-1261.83
-235.651
-211.883
-375.638
-348.839
-356.211
-412.448
-357.785
-484.892
-344.19
-632.391
-272.924
-1301.87
61.3748
-4253.95
-1262.58
-235.64
-211.965
-375.823
-348.861
-356.301
-411.577
-358.419
-479.193
-349.17
-589.98
-327.879
-1032.99
249.671
-4079.41
-1263.29
-235.667
-212.119
-376.119
-349.118
-356.609
-411.49
-359.659
-478.026
-357.232
-598.787
-391.561
-994.195
303.872
-4008.25
-1264.06
-235.866
-212.331
-376.499
-349.614
-356.94
-411.75
-359.779
-475.287
-359.031
-603.073
-384.844
-966.608
349.105
-4036.78
-1264.77
-236.097
-212.562
-376.911
-350.332
-357.435
-413.161
-359.748
-477.277
-361.021
-622.02
-388.127
-1091.75
313.114
-3900.88
-1265.51
-236.495
-212.88
-377.408
-351.282
-358.067
-415.374
-360.449
-481.909
-362.186
-613.721
-388.257
-960.33
369.521
-3812.61
-1266.16
-236.882
-213.167
-377.882
-352.362
-358.781
-418.593
-361.416
-492.053
-360.284
-621.023
-350.08
-1147.2
373.503
-3769.34
-1266.83
-237.472
-213.574
-378.544
-353.788
-359.777
-422.367
-362.291
-501.728
-356.086
-652.564
-316.105
-1515.37
277.336
-3763.16
-1267.33
-237.937
-213.849
-379.043
-355.011
-360.537
-425.898
-362.941
-511.057
-351.969
-679.796
-235.453
-1650.85
157.248
-3337.13
-1267.89
-238.662
-214.313
-379.809
-356.651
-361.669
-429.928
-363.575
-520.886
-346.384
-699.07
-199.885
-1290.63
192.869
-3214.56
-1268.18
-239.02
-214.48
-380.158
-357.523
-362.139
-432.177
-363.347
-526.291
-343.844
-696.88
-220.027
-971.585
240.179
-3223.15
-1268.66
-239.802
-214.971
-380.949
-359.18
-363.422
-436.068
-364.167
-534.713
-341.767
-687.722
-206.099
-802.355
383.344
-3225.64
-1419.4
-319.927
-246.84
-447.522
-432.115
-431.833
-526.802
-432.315
-643.14
-388.469
-784.678
-196.123
-1119.47
311.388
-6200.65
-1420.06
-319.907
-246.858
-447.745
-431.956
-432.233
-525.936
-434.06
-643.586
-393.882
-843.556
-235.582
-1316.69
-116.403
-5786.86
-1420.99
-319.588
-246.769
-447.911
-431.888
-432.549
-525.751
-436.224
-644.96
-397.422
-891.292
-243.912
-1576.54
-177.341
-5046.38
-1421.79
-319.525
-246.889
-448.251
-431.923
-433.153
-525.365
-439.266
-641.693
-409.757
-858.754
-262.023
-1851.95
-105.19
-4752.35
-1422.7
-319.566
-247.005
-448.617
-432.137
-433.608
-524.891
-440.237
-637.145
-413.672
-820.806
-345.648
-1709.38
129.042
-5083.06
-1423.61
-319.67
-247.214
-449.089
-432.65
-434.253
-525.375
-441.582
-637
-424.507
-796.621
-392.669
-1560.01
294.938
-4893.34
-1424.56
-319.955
-247.512
-449.644
-433.489
-434.871
-526.373
-441.489
-636.63
-430.49
-839.327
-444.969
-1553.25
327.582
-4950.06
-1425.47
-320.292
-247.851
-450.225
-434.687
-435.677
-529.425
-442.208
-643.028
-433.112
-883.818
-395.02
-1896.89
178.651
-4426.72
-1426.38
-320.824
-248.319
-450.926
-436.234
-436.52
-532.935
-442.339
-647.778
-430.499
-828.158
-387.175
-1640.85
349.864
-4675.6
-1427.19
-321.356
-248.758
-451.564
-437.984
-437.436
-538.393
-443.988
-668.658
-435.372
-904.742
-400.572
-2183.13
291.551
-4493.94
-1428
-322.107
-249.358
-452.416
-440.199
-438.7
-544.517
-445.47
-682.968
-429.256
-920.977
-259.804
-2182.35
116.992
-4031.53
-1428.62
-322.713
-249.782
-453.01
-442.065
-439.563
-550.038
-446.94
-695.402
-423.026
-955.881
-224.183
-1813.41
129.462
-3887.48
-1429.28
-323.593
-250.452
-453.934
-444.459
-440.907
-555.786
-447.317
-704.554
-416.435
-936.359
-225.824
-1440.41
311.567
-4179.89
-1429.64
-324.048
-250.713
-454.304
-445.705
-441.24
-558.793
-445.506
-709.93
-413.06
-909.412
-218.506
-1406.88
530.56
-4140.62
-1430.18
-324.969
-251.414
-455.245
-448.031
-442.739
-564.197
-446.028
-719.574
-409.737
-911.486
-219.98
-1457.65
642.341
-4053.09
-1565.3
-418.272
-284.259
-524.007
-520
-506.028
-644.041
-518.866
-819.213
-495.732
-1086.91
-397.5
-1827.86
641.02
-8454.24
-1566.09
-418.362
-284.277
-524.408
-519.85
-506.782
-643.449
-521.029
-822.139
-502.768
-1106.48
-329.039
-2118.05
-7.16264
-7997.81
-1567.17
-418.075
-284.177
-524.736
-519.809
-507.479
-643.538
-524.308
-827.942
-499.466
-1219.62
-368.601
-2641.48
-557.758
-6764.49
-1568.15
-418.096
-284.305
-525.281
-519.895
-508.518
-643.822
-528.915
-833.603
-512.184
-1261.15
-388.581
-2515.18
-258.98
-5935.22
-1569.25
-418.216
-284.435
-525.847
-520.204
-509.371
-643.784
-530.607
-833.524
-522.932
-1216.9
-420.655
-2618.51
-179.023
-5856.79
-1570.37
-418.426
-284.685
-526.512
-520.901
-510.315
-644.892
-531.643
-834.458
-530.62
-1176.9
-478.666
-2422.85
133.625
-6274.31
-1571.53
-418.831
-285.062
-527.265
-522.068
-511.22
-646.778
-531.878
-836.485
-545.777
-1233.51
-595.176
-2612.89
437.187
-5914.75
-1572.66
-419.311
-285.516
-528.028
-523.805
-512.295
-651.955
-534.025
-852.657
-543.55
-1322.59
-541.633
-2795.84
302.241
-5541.6
-1573.79
-420.011
-286.151
-528.936
-526.085
-513.297
-657.304
-533.575
-858.751
-543.71
-1247.63
-603.67
-2900.09
492.341
-5616.99
-1574.8
-420.716
-286.77
-529.726
-528.707
-514.276
-665.929
-535.02
-895.131
-549.056
-1385.48
-543.48
-3268.53
358.186
-5055.94
-1575.8
-421.662
-287.61
-530.768
-531.977
-515.695
-675.369
-536.242
-919.797
-537.624
-1415.99
-452.473
-2750.99
380.471
-5188.48
-1576.58
-422.444
-288.232
-531.456
-534.782
-516.567
-684.244
-538.023
-944.483
-529.214
-1474.31
-481.049
-2472.21
475.549
-5251.19
-1577.38
-423.53
-289.177
-532.562
-538.293
-518.212
-693.568
-539.185
-964.775
-523.859
-1503.47
-462.388
-2794.54
820.786
-5079.16
-1577.83
-424.117
-289.573
-532.969
-540.195
-518.47
-699.091
-537.139
-982.017
-528.098
-1551.42
-508.21
-3240.14
834.548
-4762.14
-1578.45
-425.242
-290.56
-534.093
-543.563
-520.373
-708.051
-539.044
-1008.39
-528.967
-1652
-503.014
-3723.08
783.167
-4610.3
-1678.89
-584.359
-356.519
-621.738
-678.721
-633.808
-865.731
-651.943
-1143.59
-570.38
-1728.94
-400.261
-3498.86
411.567
-9921.05
-1679.74
-584.617
-356.441
-622.464
-678.069
-635.556
-863.111
-656.103
-1134.23
-582.435
-1660.03
-337.008
-2992.67
1144.2
-10208.4
-1680.81
-584.435
-356.259
-623.086
-677.659
-637.216
-861.499
-661.498
-1132.52
-574.643
-1693.65
-356.926
-3223.91
512.811
-9817.61
-1681.91
-584.609
-356.277
-624.006
-677.358
-639.432
-860.448
-669.288
-1140.01
-597.148
-1785.19
-378.206
-3913.51
252.376
-8101.48
-1683.11
-584.877
-356.338
-624.927
-677.484
-641.417
-859.462
-673.544
-1136.62
-605.082
-1738.32
-413.1
-3604.75
495.384
-7563.44
-1684.33
-585.271
-356.578
-625.904
-678.234
-643.258
-860.374
-677.395
-1133.86
-627.57
-1681.34
-565.233
-3767.64
426.417
-7418.85
-1685.6
-585.855
-357.044
-626.909
-679.88
-644.758
-863.486
-678.655
-1132.17
-634.529
-1644.36
-471.831
-3352.46
876.389
-8016.96
-1686.84
-586.526
-357.681
-627.81
-682.506
-645.947
-871.72
-680.846
-1158.98
-632.925
-1741.27
-548.393
-3899.01
460.18
-7129.23
-1688.07
-587.401
-358.623
-628.785
-686.192
-646.707
-882.099
-678.616
-1181.01
-628.174
-1729.16
-502.324
-4071.25
744.96
-6739.27
-1689.18
-588.275
-359.613
-629.502
-690.488
-646.885
-896.936
-675.876
-1235.27
-620.17
-1857.81
-502.023
-3815.17
467.405
-7223.37
-1690.25
-589.361
-360.926