/*--------------------------------*- C++ -*----------------------------------*\
| =========                 |                                                 |
| \\      /  F ield         | OpenFOAM: The Open Source CFD Toolbox           |
|  \\    /   O peration     | Version:  4.1                                   |
|   \\  /    A nd           | Web:      www.OpenFOAM.org                      |
|    \\/     M anipulation  |                                                 |
\*---------------------------------------------------------------------------*/
FoamFile
{
    version     2.0;
    format      ascii;
    class       surfaceScalarField;
    location    "26";
    object      phi;
}
// * * * * * * * * * * * * * * * * * * * * * * * * * * * * * * * * * * * * * //

dimensions      [0 3 -1 0 0 0 0];

internalField   nonuniform List<scalar> 
19125
(
83.5323
-1.36795
1455.99
86.166
-4.42672
1488.64
65.2388
-3.37007
1287.43
52.8825
-1.01237
1024.68
44.6935
3.62789
908.432
32.6077
5.59031
737.068
25.6855
7.4778
689.898
16.9721
0.883204
538.188
2.75834
-1.20619
262.471
-4.13076
-1.53888
107.893
-20.72
2.10883
338.443
-46.6297
3.26201
698.376
-78.5279
-1.31259
1310.37
-85.5966
-4.42445
1576.17
-0.0964081
1820.72
82.9664
-1.76345
1454.8
85.5573
-5.86289
1489.72
65.0587
-3.9027
1302.74
52.8474
-0.523274
1051.63
44.6739
4.5952
927.346
32.9926
6.65076
743.62
25.6602
9.00893
663.608
16.8204
0.557129
502.563
3.15024
-1.72376
253.566
-4.04986
-0.00872686
117.49
-21.2783
3.33702
318.801
-47.0761
0.805769
678.407
-78.5225
-1.25941
1322.48
-86.1286
-5.20604
1564.74
-0.237479
1801.34
82.423
-1.91931
1454.33
85.0169
-6.90567
1494.88
65.008
-4.16787
1318.62
53.1107
-0.193801
1070.11
44.8303
5.02078
933.99
33.6895
6.86796
747.241
25.7588
9.02378
624.833
16.0055
2.31253
476.882
3.45688
-0.03224
279.126
-5.43681
5.22947
134.702
-23.4984
2.77868
291.115
-47.7581
-5.27623
666.36
-79.0894
-0.807353
1322.06
-87.9062
-3.99687
1547.58
-0.898231
1760.78
81.9406
-1.81014
1449.48
84.734
-7.61154
1496.37
65.3088
-4.14529
1332.45
53.6659
0.0322321
1086.86
45.1602
4.98984
939.213
33.9333
6.69509
745.499
24.8143
9.73538
605.392
14.254
6.5472
475.545
3.42012
3.39286
326.965
-6.30069
13.1811
163.25
-23.5745
-0.42364
301.332
-47.9071
-7.98732
718.814
-79.1705
-0.793235
1324.75
-87.0428
-3.27122
1566.88
-1.17258
1774.28
81.6701
-1.36978
1439.63
84.3748
-7.43507
1498.92
65.4978
-3.77046
1349.3
54.0646
0.0433203
1105.2
45.4626
4.31832
944.41
34.1757
6.24329
740.81
24.538
11.0197
597.07
15.4412
8.52273
466.536
3.74736
1.06974
250.396
-5.88135
16.6571
138.868
-21.7921
-5.36634
376.962
-47.882
2.50204
850.004
-79.501
-0.227746
1313.28
-86.4752
-3.33194
1575.6
-1.22736
1781.22
81.8041
-0.612718
1422.58
84.0427
-5.63555
1498.67
65.6081
-2.74719
1366.34
54.3233
-0.0473286
1124.87
45.8076
2.89416
951.746
35.1943
4.78412
741.249
26.8567
8.76662
579.598
17.5523
3.19416
368.156
4.17707
-0.494126
180.716
-3.49769
13.9304
88.4463
-21.8897
-6.44227
358.707
-48.1029
9.22903
800.274
-79.813
-0.243103
1319.11
-86.3961
-3.25535
1584.55
-1.12853
1780.97
82.5666
0.238172
1397.25
83.9128
-1.63149
1491.71
65.6305
-0.672567
1378.47
54.2693
0.165832
1143.59
45.668
1.18804
961.777
35.9795
2.28084
751.008
26.3032
4.91262
541.636
16.3382
3.70857
365.256
3.63106
-0.132049
211.903
9.19066
-7.88158
27.8621
-24.3503
3.43845
282.206
-48.1305
5.54582
714.003
-79.8541
-0.176894
1332.39
-87.007
-1.92074
1581.48
-1.02591
1766.3
82.9808
1.01785
1386.72
84.0289
3.04512
1485.97
65.7458
1.80628
1379.22
54.3011
0.604657
1148.33
45.6327
-0.498337
964.819
36.4548
-0.559993
758.888
27.6427
-1.16303
531.077
16.2222
2.46279
324.777
2.79435
3.90595
197.957
-3.81533
-2.89997
55.6611
-26.4311
4.43392
255.348
-48.945
-5.85496
647.349
-80.4209
-0.303174
1333.45
-88.5481
0.98411
1566.29
-1.49713
1735.82
82.3419
1.7802
1404.12
83.9187
6.49622
1492.78
65.639
3.68708
1376.3
54.3112
0.775573
1140.53
45.8063
-2.1541
961.265
36.4838
-3.37936
753.472
28.5764
-7.78562
537.458
18.6477
-2.9173
311.91
2.31736
5.63838
151.424
-6.66975
4.70647
106.271
-22.5278
4.21066
316.124
-48.3595
-10.7141
675.961
-79.7327
-0.574677
1339.14
-86.8253
2.41044
1585.08
-1.43863
1770.29
81.7211
2.34777
1428.5
84.0772
7.92696
1498.58
65.6028
4.57346
1363.4
54.3422
0.670551
1121.33
45.9589
-3.516
951.8
35.682
-5.35316
741.537
26.7496
-10.397
563.071
17.449
-6.07559
371.737
3.04076
5.10571
166.967
-4.12095
6.11835
112.401
-18.7005
8.04589
441.143
-48.139
-0.748794
785.881
-79.8631
-0.371894
1322.08
-86.1211
2.32077
1588.06
-1.15874
1786.79
81.6762
2.58633
1445.02
84.4152
7.87791
1498.69
65.4799
4.80294
1346.28
54.1006
0.624601
1101.58
45.7082
-4.2946
943.264
34.4832
-5.99065
738.011
24.656
-9.00092
592.976
15.0162
-3.25933
461.249
5.06843
4.52779
252.16
-2.90386
8.57629
96.9037
-22.5443
5.37151
372.909
-48.4366
10.1586
864.294
-79.762
0.436464
1319.42
-86.4035
2.4072
1581.32
-0.86374
1783.91
82.0109
2.5038
1454.1
84.7984
7.00768
1495.88
65.3025
4.68535
1329.2
53.724
0.773638
1082.97
45.4082
-4.44709
936.874
34.13
-6.16627
741.691
25.0268
-7.78667
605.891
14.9148
0.884036
479.335
4.03266
7.32772
302.103
-6.27262
20.1429
142.93
-23.6296
2.38493
321.304
-48.6886
11.1495
759.87
-79.5511
0.876457
1330.54
-87.0472
3.4393
1573.93
-0.672489
1775.92
82.5464
2.16755
1458.19
85.1055
5.87674
1494.41
65.0145
4.29428
1315.5
53.1824
0.995958
1066.23
45.0646
-4.13544
930.882
34.0956
-6.05615
745.793
26.3345
-7.79831
620.672
17.6938
2.29613
481.328
4.7375
6.59786
254.013
-7.72213
30.0056
124.346
-25.7194
-0.630818
276.476
-49.1407
3.985
678.791
-79.7099
1.30742
1331.96
-87.9353
4.87266
1554.9
-0.923051
1762.87
83.1256
1.62374
1458.05
85.6661
4.40302
1489.28
65.0792
3.63982
1299.71
52.9197
1.37107
1047.53
44.9248
-3.2803
924.055
33.5242
-5.14746
743.006
26.734
-6.90514
658.656
18.9382
0.834464
489.587
6.03858
5.54862
238.642
-6.34942
34.8305
86.5344
-25.2352
-2.81885
280.271
-48.7179
-1.40993
683.554
-79.3186
1.24129
1332.66
-86.2089
4.21595
1571.34
-0.693769
1803.14
83.7182
1458.76
86.2822
1488.45
65.2616
1284.94
52.9425
1020.92
44.9333
905.319
33.1386
736.655
26.5371
685.602
19.1409
538.556
4.68442
247.317
-4.03409
47.3801
-23.0088
316.63
-48.3004
703.76
-79.4222
1320.83
-85.6934
1582.48
1822.72
253.159
-3.57236
1405.18
252.26
-12.3165
1494.24
204.588
-11.0039
1338.94
160.654
-4.55606
1069.78
135.21
9.99508
929.988
99.9142
16.4141
766.546
77.0509
23.3134
703.951
50.2702
4.86216
563.847
10.3036
-3.30241
304.244
-15.9123
-2.71309
134.893
-63.4024
6.75168
383.268
-143.035
7.15944
777.161
-221.251
-5.65755
1390.73
-252.712
-12.1023
1612.45
0.861797
1837.83
251.357
-4.51661
1405.04
250.395
-16.0665
1494.44
203.969
-12.8714
1351.04
160.661
-3.43405
1093.81
135.317
12.7866
949.898
100.792
19.2602
775.296
76.7694
27.6953
683.247
49.4941
4.32401
530.375
11.5378
-4.68664
292.904
-14.5902
0.543498
140.357
-65.2143
10.3661
365.809
-144.81
0.337924
764.824
-221.705
-5.96676
1399.69
-254.499
-14.2743
1599.7
0.768092
1819.55
249.751
-4.7484
1405.3
248.674
-18.6819
1498.58
203.544
-13.9052
1364.79
161.163
-2.47156
1111.53
135.758
13.9806
958.201
102.556
19.7461
779.955
77.3896
27.2795
650.413
47.7758
8.45411
502.364
11.324
0.821302
310.067
-18.1234
11.9872
152.701
-70.4292
8.58519
345.2
-147.126
-14.8577
758.252
-224.362
-4.0291
1397.36
-260.569
-11.7207
1581.23
-2.19624
1780.51
248.26
-4.13985
1401.45
247.591
-20.4172
1498.78
204.228
-14.3353
1376.25
162.76
-1.73399
1127.59
136.857
13.9272
965.169
103.321
19.0986
779.681
74.9735
28.535
632.483
42.872
19.3921
496.707
10.8642
11.0133
348.778
-19.3011
28.76
176.639
-69.914
1.264
359.265
-147.283
-20.4292
801.754
-223.892
-3.55263
1400.88
-257.589
-9.88279
1598.73
-3.36208
1793.3
247.481
-2.62344
1392.52
246.545
-19.6335
1499.08
204.533
-13.4816
1390.47
163.781
-1.40365
1145.62
137.752
12.0033
972.363
103.981
17.4291
776.249
74.2187
31.312
624.053
45.493
25.1681
489.484
12.6138
6.91458
287.371
-18.7561
35.9092
163.083
-66.0371
-8.21584
433.721
-146.209
6.31384
903.433
-224.04
-1.49895
1389.06
-255.626
-9.71552
1607.02
-3.47211
1800.1
247.862
-0.479462
1376.47
245.903
-14.5918
1495.6
204.624
-10.097
1404.23
164.445
-1.1249
1164.77
138.742
7.97645
981.475
106.567
13.0891
777.762
80.1943
25.4179
611.862
51.1475
12.1427
410.226
15.1767
2.28161
221.315
-14.3842
30.9944
122.914
-66.7981
-9.6376
412.54
-147.443
23.1496
864.083
-224.806
-1.41393
1396.39
-255.357
-9.03487
1614.43
-2.83669
1799.25
250.225
1.32937
1352.03
246.304
-4.09665
1485.14
204.465
-2.59162
1412.81
164.279
0.222251
1182.42
138.265
3.30252
992.464
108.242
6.20244
787.916
79.789
13.7047
581.799
49.3289
10.9598
396.896
22.6977
-2.30071
243.112
0.968577
2.20933
78.3646
-73.2877
0.919898
345.903
-148.634
13.9619
798.537
-225.598
-1.21232
1409.16
-257.461
-5.3694
1609.68
-2.60534
1784.4
251.648
2.62856
1341.7
246.975
8.06581
1478.49
204.744
6.48693
1412.38
164.421
2.25333
1186.62
138.111
-1.17808
995.609
109.313
-1.43187
795.318
83.0732
-3.60622
574.625
49.1065
5.25205
364.448
10.6263
7.82938
226.302
-11.5156
-0.102738
80.1057
-77.5963
5.00443
317.341
-151.411
-13.4101
748.535
-228.28
-0.474226
1409.58
-262.642
1.80014
1593.49
-5.3509
1754.98
249.702
4.32103
1358.62
246.082
17.2009
1487.27
204.548
13.0832
1411.24
164.399
3.47063
1179.47
138.599
-5.67411
991.56
109.433
-8.95723
790.161
85.1916
-21.8033
579.895
55.0034
-10.3776
357.724
9.72545
13.2858
191.24
-19.582
15.2687
120.199
-69.7743
7.28064
364.037
-149.445
-26.5641
768.785
-225.416
-1.23615
1415.87
-256.913
5.66528
1612.71
-5.55548
1788
247.753
5.90812
1382.32
245.841
21.2079
1496.49
204.661
15.8359
1401.83
164.507
3.68232
1161.28
139.092
-9.47258
981.012
107.755
-14.5288
778.443
80.166
-29.2026
598.057
50.9329
-18.6927
409.283
12.2286
11.722
207.23
-14.3767
17.2362
137.033
-60.3074
19.9187
474.434
-147.654
-3.51214
850.176
-225.062
-0.653074
1398.9
-254.526
5.98595
1617.2
-4.4223
1803.34
247.574
6.71166
1398.09
246.582
21.3142
1499.58
204.542
16.1867
1387.97
163.873
3.84317
1142.09
138.387
-11.6874
970.963
104.86
-16.7761
773.784
74.5694
-26.1918
620.253
44.7225
-11.3172
483.718
16.7931
10.3885
281.419
-11.9083
18.5052
124.33
-67.406
15.2619
433.061
-147.881
25.3506
915.905
-225.112
2.20343
1393.79
-255.482
6.6107
1611.07
-3.27424
1799.61
248.544
6.619
1406.35
247.772
19.1477
1498.82
204.288
15.3522
1373.52
162.917
4.34826
1123.83
137.502
-12.0917
962.692
103.892
-17.5339
776.057
75.4198
-23.6121
631.781
44.4002
-0.580974
499.616
13.5437
17.7825
325.562
-18.3707
40.0097
153.335
-70.5077
9.51052
379.19
-149.319
28.8346
835.197
-225.326
4.17541
1404.57
-257.727
9.40478
1603.54
-2.70811
1790.66
250.174
5.79295
1409.45
248.946
16.2803
1498.51
203.642
13.9589
1362.2
161.362
4.98699
1107.87
136.365
-11.2393
955.025
103.627
-17.3696
778.365
78.7869
-24.136
646.034
51.4106
3.21291
504.907
13.9468
18.5653
290.69
-23.9571
60.7928
141.46
-75.7552
1.9705
335.811
-151.332
11.9006
771.301
-226.559
6.15458
1405.21
-260.976
12.776
1585.95
-4.31601
1777.76
251.88
4.37902
1408.53
250.742
12.3943
1494.31
204.114
11.7583
1348.54
160.874
5.7544
1090
135.969
-8.78761
946.507
102.171
-14.9274
774.36
79.4158
-21.3801
678.652
54.5281
-0.278119
517.963
15.8906
17.9087
277.93
-23.7089
71.7387
115.179
-74.5961
-4.27318
337.398
-149.904
-1.22078
771.982
-224.429
5.5237
1407.82
-255.187
11.1576
1603.71
-3.30037
1816.18
253.769
1408.14
252.651
1494.3
204.748
1336.96
160.842
1066.4
135.836
926.837
101.32
765.827
79.2754
699.777
55.688
563.24
15.647
292.406
-22.0246
88.3965
-69.9917
364.896
-148.325
784.015
-224.386
1398.92
-253.498
1615.91
1834.22
447.959
-5.06064
1245.63
430.592
-16.6692
1516.93
369.578
-19.1049
1405.56
281.935
-11.7296
1160.06
230.11
12.8928
977.052
172.001
25.6578
817.115
129.371
39.0766
734.385
83.2818
13.3622
607.097
21.0386
-5.23885
369.19
-33.9043
-1.43788
189.941
-116.283
9.96484
462.802
-257.212
6.11993
919.345
-361.093
-13.2023
1499.54
-445.581
-16.2385
1702.77
3.36013
1774.57
444.612
-6.03727
1247.51
426.826
-21.4014
1516.96
368.071
-22.87
1413.56
281.878
-10.9757
1179.25
230.601
17.1176
996.949
173.077
29.9295
828.547
128.554
45.7541
721.09
81.1275
13.4147
577.747
21.8634
-7.73342
354.66
-32.2152
1.87487
191.119
-119.701
13.3198
449.938
-260.69
-3.31132
915.244
-363.552
-14.8278
1504.17
-449.549
-19.8483
1689.31
3.29747
1756.99
441.85
-5.68946
1249.04
423.406
-24.4202
1520.05
366.626
-25.3135
1424.02
281.931
-9.72129
1194.97
231.135
19.0666
1007.05
175.376
30.6027
835.04
130.083
44.4262
697.031
79.355
17.6396
548.865
19.6644
0.905014
361.117
-37.8749
13.8719
198.24
-127.366
9.08613
438.923
-265.066
-22.2121
914.853
-372.172
-9.73134
1499.37
-462.458
-17.61
1669.28
-3.77734
1717.71
439.123
-3.88261
1247.06
420.856
-26.3308
1518.96
367.096
-27.2187
1431.92
284.332
-8.65189
1209.29
233.24
19.2609
1016.07
176.837
29.5047
837.18
126.961
44.7817
682.001
71.5783
31.5875
538.14
17.4432
16.245
387.571
-38.2859
29.3608
216.876
-125.875
0.47219
455.466
-264.8
-27.3303
945.797
-368.715
-8.25986
1503.33
-455.588
-15.7491
1683.75
-6.40977
1730.69
437.503
-0.710548
1240.05
418.837
-24.9477
1516.36
366.911
-26.5798
1441.76
285.492
-7.45429
1225.84
234.665
16.6458
1025.8
177.835
26.2798
836.302
125.806
46.9306
673.932
74.1574
40.2191
532.499
20.0609
13.969
343.74
-37.7865
35.3716
214.916
-119.825
-6.19092
522.421
-261.419
7.03596
1010.66
-366.917
-5.24184
1491.54
-451.209
-15.6473
1691.21
-6.49
1737.93
438.224
2.38539
1225.85
418.412
-18.2097
1508.68
366.537
-20.6179
1450.15
286.149
-5.40084
1243.1
236.149
11.0514
1037.07
181.209
19.2821
839.698
133.771
38.5988
667.629
82.6611
24.6748
476.878
25.1497
6.1302
286.662
-33.0889
32.5467
183.973
-121.912
-4.19786
499.369
-264.419
28.4736
985.151
-367.807
-5.36851
1499.91
-450.535
-14.4002
1695.91
-4.87307
1736.03
442.944
3.20989
1202.4
421.321
-4.74325
1493.3
366.064
-5.58487
1453.03
285.576
-0.605839
1258.12
235.251
4.84302
1049
182.851
9.12319
850.474
134.726
20.3749
648.146
81.5667
18.2869
456.442
31.9487
2.96981
295.887
-25.9759
15.5098
153.32
-131.771
1.71558
445.783
-268.036
17.5629
945.712
-370.888
-4.41256
1511.05
-454.965
-9.21637
1688.58
-4.50296
1719.88
445.731
3.00866
1191.86
423.569
10.7104
1485.2
366.534
12.9887
1450.84
285.806
5.52042
1261.22
234.951
-0.824034
1052.13
183.97
-1.69975
857.12
139.274
-5.25402
644.949
82.6568
5.75153
433.599
21.3495
11.5024
279.073
-35.9504
10.0232
142.887
-138.849
0.6346
421.319
-273.546
-15.512
916.307
-379.118
0.475392
1510.26
-466.112
-0.0859551
1671.35
-11.5351
1690.08
442.218
4.75389
1207.83
420.649
22.5378
1497.02
366.284
25.9283
1452.67
285.807
9.89523
1255.57
235.651
-6.73089
1047.62
184.256
-12.349
852.203
141.573
-31.1107
648.433
90.8984
-18.9131
433.061
21.8109
15.4845
256.342
-38.5429
25.6228
164.949
-129.529
3.93437
451.722
-270.023
-32.8848
926.651
-370.722
-0.303568
1517.35
-454.056
5.22546
1690.74
-12.7339
1723.24
438.669
7.43581
1230.47
418.441
28.0098
1511.25
366.764
30.5247
1448.91
286.31
11.6494
1239.98
236.558
-11.9355
1035.97
182.78
-20.7888
840.659
134.374
-42.3481
657.699
83.2551
-30.8585
472.345
22.3938
12.1842
271.388
-32.5818
28.9717
188.655
-115.793
23.2425
538.335
-265.562
-6.14755
973.208
-368.313
-0.396652
1501.75
-448.926
6.12953
1696.91
-10.3304
1737.44
438.353
9.19045
1245.02
419.099
28.4687
1518.38
367.125
30.1567
1440.31
285.676
12.4737
1222.72
235.518
-14.9781
1024.16
179.193
-24.9661
834.284
126.467
-40.1031
670.732
73.6654
-21.0957
526.755
24.4656
11.7167
331.083
-32.6243
26.5962
183.791
-121.929
21.1978
524.409
-264.591
31.8603
1020.56
-369.418
3.9481
1494.28
-450.837
7.14292
1691.47
-7.60736
1731.77
440.03
9.51056
1251.91
421.344
25.8045
1520.18
367.44
27.4692
1430.11
284.654
13.101
1205.99
234.131
-15.3496
1013.59
177.72
-26.4414
833.941
127.336
-38.0931
680.153
73.0825
-7.08105
539.853
20.8514
22.2307
367.276
-37.8275
42.1978
196.407
-127.434
14.6696
475.322
-268.136
38.169
969.59
-372.174
8.2833
1504.28
-455.773
10.7913
1683.49
-6.41498
1720.34
442.962
8.56488
1253.21
424.186
22.287
1520.81
367.1
24.4675
1422.29
282.352
13.8201
1191.9
231.972
-13.9772
1004.03
176.85
-26.3327
833.376
131.718
-39.7205
692.791
83.0716
-2.57869
549.049
21.752
27.4924
346.744
-45.3027
62.6817
188.026
-135.261
2.76816
437.668
-272.464
18.6114
928.06
-376.937
13.9533
1504.01
-463.336
14.8286
1668.31
-10.7386
1706.43
445.845
6.6201
1250.94
427.781
17.2319
1517.44
368.643
20.2429
1411.91
282.347
13.9653
1176.15
231.501
-10.3682
993.742
174.917
-22.6929
827.302
131.81
-35.2253
717.261
87.3205
-6.67532
566.546
25.0372
27.4207
340.281
-44.5394
75.9206
171.511
-132.7
-6.82178
435.147
-269.683
2.30324
925.272
-369.169
12.1545
1509.1
-451.059
12.8547
1687.58
-8.49844
1744.32
449.343
1248.38
431.688
1517.48
370.215
1404.42
282.401
1157.52
230.988
974.185
173.913
816.114
132.203
730.691
90.0963
605.46
28.9645
359.578
-39.5665
156.132
-126.407
451.752
-266.717
928.319
-367.549
1504.19
-447.259
1699.92
1760.9
641.995
-5.03995
997.877
648.517
-15.8404
1514.7
572.187
-24.3596
1488.35
436.229
-21.7813
1300.71
336.756
8.3613
1072.71
250.643
30.3579
895.242
183.274
51.5762
788.19
116.688
26.0205
668.562
36.3629
-2.10413
452.17
-53.5139
2.00464
278.26
-197.158
11.596
604.047
-404.496
-0.730818
1130.69
-551.409
-25.5998
1655.92
-664.365
-14.9617
1820.27
6.96545
1622.08
637.932
-5.36632
1001.7
642.377
-19.4468
1516.13
568.641
-29.8851
1492.82
435.166
-22.8575
1313.8
337.362
12.8691
1090.24
251.798
35.7775
908.69
182.193
59.8062
782.464
113.201
27.5024
645.255
34.7814
-5.81267
436.787
-54.206
5.0804
277.028
-202.431
12.5063
597.252
-409.995
-10.7746
1132.85
-557.724
-29.486
1655.79
-670.428
-18.6972
1805.75
7.05502
1605.37
634.51
-3.59337
1004.49
636.971
-20.8329
1518.98
565.249
-33.9039
1499.76
433.732
-22.406
1326.04
337.387
15.4359
1100.82
254.057
37.0124
917.134
184.689
57.9275
768.276
112.246
30.0119
618.797
30.5324
3.6553
433.361
-62.1366
13.9076
282.079
-211.242
3.03092
597.502
-417.015
-27.5934
1137.44
-577.221
-18.1233
1648.21
-689.634
-18.165
1781.16
-5.88724
1566.67
630.403
0.546156
1005.2
631.963
-21.1742
1517.75
564.128
-37.9309
1503.79
436.022
-22.0859
1337.07
340.476
16.0976
1110.95
256.494
35.9729
922.199
182.042
56.5712
757.809
102.507
42.9806
604.705
25.0819
21.2666
447.383
-61.8465
22.0356
295.674
-207.524
-7.17084
611.345
-414.165
-30.2788
1155.12
-566.749
-14.2808
1652.07
-678.049
-17.6655
1794.55
-10.7426
1580.48
628.34
5.07258
1001.22
628.725
-18.4487
1513.26
562.583
-38.3016
1508.27
436.389
-20.1938
1350.14
342.056
13.9291
1122.31
257.872
31.5535
924.903
180.724
56.3199
751.33
103.887
52.4468
599.867
26.5373
22.7653
419.59
-61.0477
24.0186
300.516
-198.461
-6.96112
659.624
-407.645
3.15264
1186.41
-560.441
-11.801
1641.85
-670.798
-18.4754
1802.38
-10.9343
1588.42
629.566
7.11737
990.405
629.366
-11.6964
1502.13
561.683
-30.3605
1509.89
436.284
-14.9604
1363.27
343.46
9.08592
1134.73
261.281
22.7142
930.715
189.05
46.1542
750.025
114.899
37.6375
565.836
35.5622
13.3187
375.443
-56.0824
24.6612
274.973
-202.754
0.898376
638.18
-412.462
23.6949
1174.32
-560.019
-13.7136
1649.38
-668.693
-17.6722
1803.78
-7.63059
1585.44
634.729
4.66855
970.775
636.3
-1.5571
1481.6
562.075
-8.33353
1505.24
434.996
-3.15527
1373.39
341.722
4.81028
1146.55
262.125
10.7976
941.986
191.538
23.9922
740.894
115.571
24.8826
545.162
41.7394
8.93577
374.099
-54.0287
20.8616
252.885
-215.486
6.66176
601.475
-419.103
14.9541
1158.07
-567.357
-11.0287
1656.62
-675.225
-13.5536
1792.32
-7.19298
1568.06
637.377
1.14473
961.351
640.687
8.80874
1471.53
563.469
19.095
1500.63
435.412
11.3443
1374.78
341.22
1.74715
1149.39
262.743
-1.23054
947.623
196.239
-5.56799
741.011
119.175
4.77253
530.771
35.6141
13.5253
358.042
-64.2793
19.4179
244.221
-226.569
-1.75359
592.023
-429.048
-13.5199
1147.26
-585.884
2.26603
1653.81
-692.997
-6.46397
1771.38
-20.4438
1537.15
633.408
2.11924
974.203
634.904
17.7757
1486.56
562.33
37.7175
1506.63
435.446
21.9216
1371.88
342.135
-2.30803
1144.99
263.297
-13.1442
942.954
198.04
-34.4342
742.554
128.469
-26.8783
534.281
38.9434
13.0949
346.296
-63.1349
32.9811
253.461
-216.993
-1.9443
605.769
-422.732
-29.9766
1148.85
-567.343
2.40033
1661.83
-675.515
-1.48348
1793.93
-23.8192
1569.64
630.039
5.948
992.665
629.756
23.3253
1505.99
562.365
43.5502
1510.47
436.732
26.2923
1361.24
343.845
-6.78757
1133.33
262.887
-23.1998
931.671
190.364
-48.4105
744.197
116.795
-41.3729
560.407
34.297
6.88894
360.09
-55.5953
37.9135
273.612
-199.767
21.6162
658.946
-415.442
-6.29997
1165.21
-560.747
-0.430187
1649.88
-667.007
-0.498314
1802.19
-19.8765
1581.85
630.581
9.03187
1004.01
630.175
25.312
1516.8
563.489
41.9246
1508.63
436.865
27.4826
1348.15
342.949
-9.51637
1120.81
259.413
-28.8252
923.444
181.604
-49.0203
749.149
103.539
-31.6273
595.073
30.3595
5.93963
405.209
-57.8933
33.7444
276.21
-202.199
28.1197
662.21
-412.88
31.6493
1193.29
-564.44
4.26648
1641.14
-669.539
0.265031
1795.81
-15.133
1573.6
633.117
10.2461
1008.58
633.755
24.3436
1520.51
565.28
36.8944
1503.62
436.761
27.0692
1334.92
341.506
-9.63591
1108.96
257.516
-30.5938
919.7
181.992
-48.9871
755.643
102.76
-17.8703
605.326
27.2783
16.5346
432.16
-62.8981
38.0913
282.235
-210.812
22.4097
628.946
-419.432
40.5865
1169.27
-572.138
12.5186
1648.73
-676.906
3.60464
1784.92
-13.2247
1558.97
636.941
9.61618
1007.78
638.952
22.2299
1520.92
566.629
32.0728
1499.44
434.677
26.7474
1324.18
338.351
-7.87695
1098.6
255.537
-30.1725
915.767
185.809
-51.5022
765.032
114.585
-14.6535
617.054
31.1628
24.4838
422.214
-71.1588
52.5302
275.905
-222.87
6.41904
605.369
-428.235
24.8531
1149.16
-584.84
25.7341
1647.4
-689.964
7.51751
1769.52
-21.252
1542.47
640.152
7.63176
1004.46
644.556
17.8497
1517.42
570.21
25.9213
1492.41
436.234
24.8559
1312.02
338.402
-4.25745
1087.95
253.557
-25.5882
907.561
184.814
-45.5925
780.092
118.635
-17.8314
635.9
36.9554
24.0344
422.407
-68.1311
65.2741
263.85
-220.03
-5.06737
598.53
-423.729
9.27402
1144.55
-566.973
22.5718
1655.51
-672.095
7.07499
1793.14
-16.697
1577.96
644.29
999.91
650.947
1515.8
573.915
1488.34
437.356
1299.58
337.768
1070.95
252.438
894.456
185.289
785.834
122.191
666.542
44.5316
442.347
-58.9588
255.88
-212.358
605.173
-419.598
1141.19
-562.291
1655.03
-666.477
1805.4
1592.25
782.319
-3.27076
755.908
861.14
-12.7287
1438.93
801.882
-23.921
1553.49
633.799
-29.999
1475.19
470.386
-3.85434
1235.01
340.207
27.055
1018.34
238.825
57.7319
876.285
147.935
39.6963
752.332
50.0429
8.26205
551.778
-85.173
1.05599
412.956
-311.678
2.77252
832.391
-581.459
-12.0187
1408.2
-778.323
-33.1536
1865.71
-866.291
-5.30177
1909.14
7.72934
1438.02
779.097
-1.98637
759.886
853.888
-13.8576
1442.47
795.688
-29.5723
1556.68
630.225
-33.5838
1482.85
469.84
-0.979386
1247.75
341.042
32.8608
1031.68
237.943
66.723
876.571
144.304
43.0155
735.573
46.8298
4.08489
538.437
-89.0948
3.34482
410.662
-320.327
1.03857
830.217
-591.105
-20.8763
1412.49
-789.157
-39.2163
1859.91
-871.575
-10.5088
1893.38
6.77531
1424.83
776.35
1.68931
762.797
847.632
-11.9249
1445.77
789.997
-33.579
1561.41
626.169
-34.9025
1491.19
468.102
1.21158
1256.7
342.392
34.917
1040.79
240.99
65.2037
871.196
144.633
43.6574
714.512
39.5226
13.1377
529.416
-103.01
11.3475
416.607
-335.154
-8.83424
839.519
-607.735
-30.4841
1419.63
-819.814
-25.4255
1846.5
-889.419
-19.7109
1859.97
-10.7405
1391.98
773.582
6.27851
764.827
841.448
-7.97089
1445.94
786.227
-37.5814
1563.01
626.683
-36.396
1498.11
471.335
1.6454
1265.86
345.846
34.4824
1048.12
240.018
62.633
866.206
134.91
53.2015
700.267
31.8053
29.572
534.052
-101.55
14.8875
425.487
-328.23
-18.0544
847.245
-600.154
-30.8663
1427.43
-801.965
-21.0448
1849.5
-877.702
-22.4905
1873.06
-18.4607
1403.44
772.696
9.2862
763.43
838.212
-1.73428
1441.51
783.104
-37.2819
1563.08
625.208
-34.4788
1506.12
472.045
0.643663
1276.47
347.418
29.9427
1054.07
239.104
59.6006
862.675
135.085
60.9799
696.106
34.1365
31.4281
518.68
-94.5966
14.0219
430.112
-313.475
-10.1014
870.549
-589.875
-3.70826
1435.65
-790.848
-20.3895
1842.17
-870.253
-22.6541
1881.95
-20.6098
1410.12
773.21
9.09015
757.619
839.61
4.3968
1429.6
782.351
-28.4196
1558.29
624.072
-25.8943
1512.97
472.407
-0.67939
1287.72
350.047
21.1257
1061.89
246.479
48.037
865.155
147.462
47.4536
678.379
47.6903
18.8917
487.749
-89.3797
17.2905
408.772
-319.981
3.96242
854.717
-594.91
12.4326
1433.1
-788.057
-24.059
1846.19
-866.186
-20.681
1879.93
-17.2837
1406.04
774.888
4.15418
746.519
847.648
5.60193
1407.64
785.397
-6.46507
1545.54
623.224
-5.9967
1515.67
469.517
2.23246
1297.34
349.19
10.5082
1072.93
249.392
24.705
864.022
150.344
29.225
662.438
53.9512
9.98907
479.393
-91.6515
20.847
394.929
-335.209
10.2818
838.712
-604.058
7.48337
1431.87
-798.192
-20.0319
1846.73
-870.497
-19.4877
1863.44
-16.3464
1389.7
774.72
-1.10679
741.196
851.914
2.84192
1397.1
788.251
19.7762
1538.06
624.564
18.0353
1514.44
469.046
7.73786
1299.4
348.866
0.866751
1077.44
252.789
-4.44164
866.234
155.516
3.34493
653.923
45.6216
14.8279
463.096
-111.482
22.6791
399.49
-354.477
-3.40133
848.701
-622.897
-9.66883
1432.83
-828.123
-0.257385
1839.26
-889.589
-22.6177
1835.97
-33.8139
1360.52
772.275
-0.58163
748.433
844.984
3.91584
1412.78
784.917
37.7543
1548.72
623.733
35.2843
1515.81
470.095
10.1554
1296.21
349.913
-9.24651
1073.25
254.278
-32.5511
866.297
164.538
-32.0175
659.382
52.3158
12.6211
460.723
-105.317
34.1439
399.626
-341.18
-8.27653
846.507
-609.252
-22.1013
1429.35
-801.346
3.03392
1850.63
-876.158
-17.6367
1863.76
-40.6956
1384.72
771.916
3.70929
758.661
839.305
8.97012
1433.55
783.165
43.7781
1560.59
624.962
42.0045
1512.72
472.947
8.71833
1286.78
351.396
-18.8552
1062.83
248.071
-48.0207
862.99
150.649
-48.6026
674.413
48.0058
0.417934
474.934
-89.8337
39.7243
405.869
-320.348
17.6272
863.555
-599.16
-5.01097
1426.93
-790.008
-1.0996
1844.86
-867.142
-11.8661
1873.55
-36.5163
1390.96
774.465
7.17479
764.431
840.562
14.408
1445.27
785.055
42.6615
1565.25
626.335
42.8275
1506.05
473.028
6.93518
1275.9
348.799
-24.7195
1053.54
239.773
-51.9145
862.068
134.408
-41.3383
693.172
38.933
-6.35428
507.455
-91.2083
34.3819
411.692
-319.087
34.5353
873.18
-596.383
25.9296
1439.65
-794.607
1.5965
1836.67
-867.164
-8.97196
1865.47
-28.9446
1380.86
777.453
8.67712
766.123
845.188
17.8834
1449.31
788.872
37.8803
1564.72
628.267
40.4457
1497.91
472.6
6.36069
1265.2
346.833
-26.2596
1047.01
239.253
-53.7711
865.077
133.146
-30.4978
700.592
32.7243
0.543474
525.681
-102.572
33.5954
418.315
-333.177
34.2273
859.857
-607.035
35.6529
1433.41
-806.95
10.1782
1840.06
-872.542
-8.2071
1849.75
-22.543
1364.72
780.681
8.19239
764.218
851.712
19.26
1448.52
793.01
33.2621
1562.76
628.137
38.2844
1491.21
469.374
7.5518
1256.17
343.553
-25.2336
1040.56
240.903
-56.2925
870.202
144.529
-29.3611
712.289
35.9828
10.1167
521.185
-115.87
44.2171
417.134
-350.599
20.5737
853.751
-621.963
28.6573
1427.52
-828.967
26.9399
1837.65
-887.685
-12.9912
1833.02
-31.0279
1348.53
782.466
6.61448
761.388
857.606
17.0023
1444.54
798.795
26.8097
1557.68
632.398
33.7912
1482.91
471.22
9.34471
1247.34
342.289
-20.4168
1031.67
238.737
-49.4325
876.783
146.391
-30.2966
729.179
41.8315
11.5165
525.564
-110.251
52.2117
407.934
-343.394
6.84198
845.404
-609.419
16.1747
1423.06
-801.831
23.7642
1851.1
-872.606
-11.825
1862.75
-24.6749
1375.36
785.093
757.115
864.76
1440.56
805.087
1554.64
636.104
1475.88
471.776
1235.35
341.42
1018.95
238.812
876.679
149.211
751.742
49.3844
544.317
-99.4236
403.006
-334.355
844.31
-602.994
1417.64
-793.209
1854.88
-867.127
1873.42
1384.24
859.152
0.599394
611.895
999.403
-10.0872
1301.09
1005.8
-19.7175
1551.54
856.099
-32.5847
1631.86
642.426
-18.15
1450.82
451.214
15.0063
1204.84
300.006
54.7003
1015.77
174.399
51.4381
869.36
36.2303
20.1983
689.916
-158.241
12.5898
607.074
-458.761
-3.72616
1138.46
-767.121
-20.4243
1726.28
-981.243
-32.2473
2091.81
-997.135
12.1641
1917.2
7.65225
1330.54
858.025
2.70771
613.972
993.774
-9.07585
1305.72
998.623
-23.4258
1555.54
849.623
-37.5313
1636.8
639.051
-18.2332
1458.41
450.657
19.7369
1215.34
299.021
63.5728
1019.33
172.054
56.3531
857.624
37.7236
17.4413
675.524
-158.427
11.1664
608.236
-465.36
-10.8165
1144.24
-773.951
-30.5578
1731.21
-986.609
-39.0837
2079.4
-997.728
11.5107
1905.15
6.99897
1325.08
857.682
4.97147
615.576
989.329
-4.02724
1309.07
992.212
-24.4713
1559.57
842.941
-39.6107
1642.54
634.259
-17.4941
1464.64
449.774
22.1104
1222.9
301.718
63.1244
1019.7
173.928
55.8978
842.757
30.9627
26.3916
663.43
-172.777
12.2919
619.221
-481.314
-22.265
1159.5
-793.696
-33.8758
1735.33
-1013.4
-28.8291
2055.95
-1005.87
-10.0311
1873.98
-12.9175
1309.54
857.094
7.22681
616.94
984.481
3.90763
1310.62
986.757
-24.5777
1560.85
840.507
-41.5921
1646.34
635.879
-18.155
1471.15
453.52
22.0503
1230.54
302.787
60.6844
1019.38
166.405
61.6667
830.879
25.5151
39.8451
661.487
-167.753
10.4735
620.573
-471.864
-28.4663
1157.56
-783.63
-31.0598
1736.38
-995.972
-26.2242
2059.24
-999.562
-21.584
1888.21
-24.5658
1313.58
857.476
7.75271
616.834
982.365
13.0085
1307.53
983.205
-20.935
1558.6
837.106
-38.8646
1649.5
634.515
-17.8425
1478.75
454.473
18.4423
1237.72
302.604
56.1669
1019.06
166.685
65.878
827.813
33.5142
37.1033
654.592
-152.132
7.91064
618.32
-455.613
-15.3001
1160.86
-773.157
-12.2009
1734.34
-983.928
-27.9933
2054.71
-996.719
-24.2473
1897.4
-32.4617
1314.28
857.054
6.20127
615.478
983.139
18.174
1298.36
983.023
-12.5436
1550.02
835.668
-28.0338
1649.49
633.4
-14.1085
1486.26
455.474
12.2968
1245.96
308.213
44.5174
1024.06
179.213
52.2653
820.99
49.9705
19.1861
634.908
-147.088
12.1711
601.569
-462.098
2.41366
1152.01
-775.816
-1.64999
1736.27
-978.702
-32.6076
2053.69
-992.06
-22.9058
1891.95
-32.7064
1306.46
854.868
2.47796
613.092
987.696
11.4547
1281.53
987.651
0.677264
1532.36
837.077
-5.2418
1643.45
630.486
-1.26674
1491.09
452.442
7.81598
1255.45
309.684
23.3897
1027.91
182.614
30.3204
811.451
50.1132
8.002
623.077
-159.747
17.2388
599.72
-481.576
9.04604
1153.91
-788.799
-2.97875
1740.42
-990.23
-29.6797
2045.23
-993.234
-28.6364
1872.17
-34.181
1292.26
851.99
-0.00905852
612.448
988.946
-2.1699
1273.78
990.504
13.8671
1523.31
839.788
20.9846
1638.93
630.893
15.5399
1491.48
451.268
6.05072
1258.83
310.855
-1.14393
1031.18
185.592
2.94291
806.563
30.3937
19.8125
606.482
-193.98