/*--------------------------------*- C++ -*----------------------------------*\
| =========                 |                                                 |
| \\      /  F ield         | OpenFOAM: The Open Source CFD Toolbox           |
|  \\    /   O peration     | Version:  4.1                                   |
|   \\  /    A nd           | Web:      www.OpenFOAM.org                      |
|    \\/     M anipulation  |                                                 |
\*---------------------------------------------------------------------------*/
FoamFile
{
    version     2.0;
    format      ascii;
    class       volVectorField;
    location    "26";
    object      U;
}
// * * * * * * * * * * * * * * * * * * * * * * * * * * * * * * * * * * * * * //

dimensions      [0 1 -1 0 0 0 0];

internalField   nonuniform List<vector> 
6750
(
(2.37739 -0.00499556 16.5209)
(0.299599 -0.0161064 16.7251)
(1.22712 -0.012994 14.2402)
(0.454863 -0.00479302 11.3844)
(0.642381 0.0135193 10.1473)
(0.400669 0.0211725 8.18401)
(0.32605 0.0274886 7.72194)
(0.252226 0.0045078 5.95963)
(0.099576 -0.00353863 2.78954)
(0.0768707 -0.00694108 1.13209)
(-0.314156 0.00692209 3.63779)
(-0.028278 0.0153801 7.57092)
(-1.28239 -0.00492778 14.3929)
(0.0623198 -0.0158099 17.5916)
(-3.07152 -0.000471639 20.3911)
(2.36919 -0.0096521 16.5041)
(0.296307 -0.0314084 16.7426)
(1.21835 -0.0225978 14.4266)
(0.456367 -0.00518281 11.698)
(0.640719 0.0253278 10.3538)
(0.402241 0.0382576 8.24808)
(0.330529 0.0519795 7.40246)
(0.250811 0.00393183 5.55186)
(0.0963836 -0.00957141 2.69773)
(0.0833707 -0.00832348 1.25983)
(-0.316602 0.0164536 3.41249)
(-0.035565 0.0176128 7.31014)
(-1.28259 -0.00887922 14.5412)
(0.0645996 -0.0316584 17.4706)
(-3.09846 -0.000358327 20.167)
(2.36034 -0.0103962 16.4962)
(0.293351 -0.0353762 16.8052)
(1.2111 -0.0222319 14.6137)
(0.459528 -0.00141017 11.9075)
(0.64381 0.0269479 10.4211)
(0.403307 0.0376492 8.28516)
(0.342139 0.0503688 6.94246)
(0.245911 0.00396848 5.27605)
(0.0860077 -0.009562 3.02223)
(0.0864064 0.00847836 1.47584)
(-0.350121 0.0210301 3.07212)
(-0.0425204 -0.00796287 7.15059)
(-1.29227 -0.00500728 14.5419)
(0.0675663 -0.0263462 17.2858)
(-3.1647 -0.00304839 19.701)
(2.35565 -0.0109563 16.438)
(0.290379 -0.0418776 16.8283)
(1.20845 -0.0241137 14.779)
(0.46635 -0.000476726 12.0975)
(0.649411 0.0290479 10.4722)
(0.405902 0.0388051 8.26018)
(0.342922 0.0506489 6.71839)
(0.227441 0.0228782 5.27985)
(0.070499 0.0120751 3.5985)
(0.082539 0.0537578 1.81745)
(-0.354647 0.0083116 3.1662)
(-0.0419613 -0.0549083 7.77832)
(-1.29393 -0.00489082 14.5679)
(0.0649943 -0.0190054 17.5085)
(-3.13367 -0.00646491 19.8567)
(2.35837 -0.00933734 16.3242)
(0.287026 -0.0435633 16.8664)
(1.2045 -0.0225858 14.9787)
(0.471614 0.000628128 12.3038)
(0.653352 0.0270418 10.5225)
(0.409599 0.0368835 8.20361)
(0.343526 0.0608292 6.62539)
(0.222143 0.0513379 5.16931)
(0.0937203 0.0202933 2.66406)
(0.0799572 0.0879111 1.49277)
(-0.335367 -0.0125365 4.01192)
(-0.0370002 -0.0229072 9.3838)
(-1.29822 -0.00290095 14.4412)
(0.0641936 -0.0181784 17.6084)
(-3.11572 -0.00674709 19.9363)
(2.37368 -0.00589382 16.1289)
(0.283788 -0.0395547 16.8767)
(1.2003 -0.019563 15.1822)
(0.475378 -0.000170284 12.5254)
(0.655884 0.0210785 10.5974)
(0.415936 0.032782 8.20455)
(0.357263 0.0596438 6.40352)
(0.259503 0.0359111 3.97818)
(0.0998788 -0.00387773 1.87118)
(0.114438 0.102778 0.876022)
(-0.338657 -0.0491565 3.82264)
(-0.0363844 0.0456023 8.78027)
(-1.30396 -0.000722622 14.499)
(0.0614084 -0.0191252 17.7149)
(-3.10995 -0.00700951 19.9351)
(2.40662 -0.000995195 15.84)
(0.281657 -0.0227013 16.8131)
(1.19794 -0.010734 15.332)
(0.476021 -0.000183021 12.7385)
(0.654955 0.0114671 10.706)
(0.413786 0.0206223 8.31285)
(0.373216 0.0398331 5.94348)
(0.238369 0.00971224 4.0036)
(0.0969016 -0.00514705 2.25132)
(0.269686 0.0162863 0.119382)
(-0.387928 -0.0128667 2.91807)
(-0.0336908 0.054924 7.71892)
(-1.30523 -0.0014589 14.6491)
(0.0604636 -0.0172914 17.6881)
(-3.12999 -0.00538642 19.7694)
(2.42265 0.00358482 15.7195)
(0.281158 0.00453175 16.753)
(1.19962 0.00337641 15.3451)
(0.476651 0.002225 12.7937)
(0.655294 0.00193833 10.7399)
(0.412863 0.00501254 8.40351)
(0.383295 0.0141018 5.80944)
(0.257788 0.0272531 3.51226)
(0.0775872 0.0089676 2.12695)
(0.130608 -0.0601557 0.605534)
(-0.411069 0.0409398 2.63732)
(-0.0456659 0.00388234 6.89574)
(-1.31432 -0.000797651 14.6616)
(0.0604131 -0.00287335 17.5238)
(-3.18174 -0.00703052 19.42)
(2.39899 0.00795314 15.917)
(0.281383 0.0292178 16.8215)
(1.19851 0.0165963 15.3055)
(0.476057 0.00436729 12.7041)
(0.65582 -0.00756473 10.7019)
(0.416034 -0.0113552 8.34108)
(0.381684 -0.0277388 5.8851)
(0.278331 -7.87202e-05 3.33752)
(0.0999475 0.0315826 1.54625)
(0.060532 0.0202549 1.17907)
(-0.340048 0.0121275 3.38192)
(-0.044524 -0.0687119 7.25454)
(-1.30113 -0.00267403 14.7249)
(0.0568534 0.0126311 17.7303)
(-3.11782 -0.00902755 19.8165)
(2.37076 0.0120099 16.1943)
(0.283282 0.0429675 16.8726)
(1.20126 0.0243987 15.1472)
(0.474939 0.00424328 12.4857)
(0.656787 -0.016573 10.6001)
(0.417847 -0.0264301 8.20571)
(0.365676 -0.0581376 6.20679)
(0.250045 -0.0332534 4.04265)
(0.103721 0.0334105 1.71641)
(0.0695329 0.0333264 1.19876)
(-0.275459 0.0379272 4.84601)
(-0.0406492 -0.0426044 8.61847)
(-1.30104 -0.00365723 14.5344)
(0.0550563 0.0139331 17.756)
(-3.08966 -0.00719748 20.0075)
(2.35867 0.0142341 16.3834)
(0.286187 0.0456667 16.8615)
(1.20566 0.0267337 14.9424)
(0.47087 0.00327293 12.2631)
(0.654773 -0.0226799 10.5108)
(0.413375 -0.0329417 8.17064)
(0.346662 -0.0564696 6.57829)
(0.221138 -0.0310374 5.113)
(0.0884296 0.0216479 2.72247)
(0.133622 0.0323351 1.02677)
(-0.344223 0.046029 3.94915)
(-0.0458353 0.0340593 9.5513)
(-1.29847 0.000128003 14.5158)
(0.0544192 0.0123608 17.6779)
(-3.09539 -0.00582316 19.9781)
(2.35866 0.0148061 16.4885)
(0.289178 0.0428106 16.8206)
(1.21018 0.0274133 14.74)
(0.465436 0.00401493 12.0535)
(0.651425 -0.0254932 10.4466)
(0.4091 -0.0347367 8.21663)
(0.344865 -0.0455975 6.72959)
(0.229319 -0.0051255 5.32598)
(0.082645 0.0333273 3.31055)
(0.0860566 0.0726725 1.62041)
(-0.353068 0.0176698 3.39087)
(-0.0534175 0.0745408 8.27332)
(-1.29488 0.00416762 14.6417)
(0.0525987 0.0150827 17.5953)
(-3.11061 -0.00374043 19.8902)
(2.36554 0.0131088 16.5381)
(0.291946 0.0356296 16.7983)
(1.21335 0.0247316 14.5763)
(0.458458 0.00432919 11.8633)
(0.646283 -0.0241028 10.3867)
(0.40586 -0.0339471 8.26949)
(0.349213 -0.0421174 6.89704)
(0.251085 0.0139731 5.334)
(0.117262 0.0438813 2.70657)
(0.0770962 0.147076 1.36615)
(-0.385125 0.0082323 2.87996)
(-0.0607009 0.0479982 7.28686)
(-1.29743 0.00597888 14.6609)
(0.0522955 0.0239952 17.3771)
(-3.13753 -0.00443687 19.7411)
(2.37588 0.0115552 16.5394)
(0.294771 0.0313097 16.7365)
(1.22102 0.0245628 14.3904)
(0.455279 0.00768414 11.6512)
(0.643227 -0.0228967 10.3176)
(0.405262 -0.0351339 8.24253)
(0.339813 -0.0468318 7.34545)
(0.264177 0.00993811 5.40411)
(0.134081 0.0347522 2.53037)
(0.101039 0.1895 0.881296)
(-0.384485 -0.0158196 2.9222)
(-0.0560259 -0.0018718 7.3598)
(-1.29068 0.00853889 14.6632)
(0.0479585 0.0301559 17.5539)
(-3.07055 -0.00537677 20.2048)
(2.38524 0.00587611 16.5508)
(0.297948 0.0159779 16.7218)
(1.22996 0.0139596 14.2097)
(0.453644 0.00615628 11.3408)
(0.64477 -0.0121912 10.1127)
(0.40353 -0.0194889 8.18058)
(0.335649 -0.0260161 7.67326)
(0.260524 0.000764594 5.96795)
(0.142217 0.0225158 2.59878)
(0.0992619 0.18793 0.374458)
(-0.355141 -0.0127426 3.364)
(-0.0469979 -0.0104983 7.62496)
(-1.29185 0.00464113 14.519)
(0.0444229 0.0151164 17.6722)
(-3.04191 -0.00222253 20.4323)
(6.93081 -0.0133357 16.2653)
(1.03827 -0.0466544 16.741)
(3.53822 -0.0440647 14.7196)
(1.55687 -0.0212268 11.6727)
(1.86188 0.0378974 10.2926)
(1.25691 0.0651277 8.4028)
(0.975212 0.0896399 7.80432)
(0.764555 0.0228188 6.15185)
(0.301852 -0.0097935 3.1191)
(0.169928 -0.0129677 1.30321)
(-0.84212 0.0237086 3.98047)
(-0.268283 0.0381029 8.13851)
(-3.63068 -0.0216942 15.096)
(0.199983 -0.0450678 17.8243)
(-9.00717 0.00195195 20.6321)
(6.90862 -0.0250805 16.2553)
(1.02023 -0.0872622 16.7485)
(3.51864 -0.074519 14.878)
(1.55714 -0.0263025 11.9655)
(1.86155 0.0703526 10.5114)
(1.26122 0.111978 8.48595)
(0.985005 0.161708 7.53194)
(0.756222 0.0277349 5.75831)
(0.290886 -0.0263549 3.01056)
(0.201314 -0.0144329 1.39125)
(-0.842832 0.0524521 3.76379)
(-0.302138 0.0357635 7.94976)
(-3.63266 -0.0400118 15.2201)
(0.194755 -0.0865351 17.6881)
(-9.06895 0.00829324 20.4202)
(6.88712 -0.0262974 16.2524)
(1.00432 -0.0956838 16.8018)
(3.50097 -0.0729612 15.0482)
(1.56014 -0.0143524 12.1716)
(1.86998 0.0750136 10.5933)
(1.26437 0.108031 8.53009)
(1.01586 0.15352 7.11907)
(0.747558 0.0249774 5.45625)
(0.263314 -0.0262543 3.26096)
(0.199033 0.0191193 1.56139)
(-0.912298 0.0645242 3.48034)
(-0.338093 -0.0283969 7.83856)
(-3.64964 -0.0258153 15.2089)
(0.163701 -0.0739391 17.4857)
(-9.22378 -0.00310878 19.9733)
(6.87421 -0.0264445 16.2016)
(0.989516 -0.113415 16.8127)
(3.49394 -0.0821089 15.1943)
(1.57787 -0.0124298 12.3583)
(1.88749 0.081155 10.6595)
(1.27352 0.111909 8.51582)
(1.01965 0.151261 6.9055)
(0.696021 0.0700189 5.4224)
(0.21303 0.0418194 3.76074)
(0.202974 0.12158 1.8616)
(-0.919576 0.0295622 3.61517)
(-0.326294 -0.146976 8.39126)
(-3.65724 -0.0221085 15.2435)
(0.176617 -0.0578528 17.6976)
(-9.14988 -0.0187995 20.1208)
(6.87979 -0.0200173 16.0946)
(0.978665 -0.116167 16.8326)
(3.4834 -0.0795507 15.3741)
(1.58971 -0.0076589 12.5649)
(1.89879 0.0756045 10.7263)
(1.28439 0.104075 8.46709)
(1.02104 0.173994 6.81128)
(0.681868 0.151421 5.33037)
(0.27046 0.0695936 2.97095)
(0.202822 0.19389 1.63802)
(-0.894571 -0.016601 4.47013)
(-0.289899 -0.0610127 9.73852)
(-3.66752 -0.0143085 15.1125)
(0.187521 -0.0542179 17.7949)
(-9.10656 -0.0193637 20.1976)
(6.91453 -0.00918372 15.906)
(0.974821 -0.103915 16.8163)
(3.47178 -0.0715277 15.5535)
(1.59782 -0.00804011 12.7855)
(1.90617 0.0584896 10.816)
(1.30181 0.0907927 8.47575)
(1.05709 0.172277 6.63936)
(0.779688 0.11568 4.30751)
(0.294089 0.0221114 2.19526)
(0.274158 0.215585 1.12278)
(-0.895267 -0.0746224 4.2475)
(-0.303573 0.12011 9.22234)
(-3.68261 -0.00548671 15.1851)
(0.181323 -0.0544724 17.8893)
(-9.09151 -0.0193612 20.1925)
(6.99105 0.00341366 15.6252)
(0.984687 -0.0584318 16.7228)
(3.46416 -0.0404162 15.6766)
(1.59799 -0.004341 12.9935)
(1.90379 0.03134 10.933)
(1.29428 0.0560702 8.58702)
(1.09529 0.114834 6.24502)
(0.746328 0.0385632 4.21744)
(0.282387 -0.014006 2.51311)
(0.571033 0.118936 0.529139)
(-0.988165 -0.0311188 3.42844)
(-0.328923 0.137538 8.34224)
(-3.68391 -0.00982548 15.3335)
(0.163464 -0.0471748 17.8467)
(-9.13758 -0.0114646 20.0277)
(7.02957 0.0111643 15.5089)
(0.992126 0.0126277 16.6542)
(3.46744 0.0119122 15.6807)
(1.60053 0.00716707 13.0455)
(1.9048 0.00596851 10.9679)
(1.29042 0.0136324 8.67394)
(1.12076 0.0375753 6.14161)
(0.793267 0.0748367 3.79792)
(0.23763 0.00642716 2.32777)
(0.331512 -0.0751755 0.660009)
(-1.02488 0.045663 3.10953)
(-0.378706 0.0153317 7.6659)
(-3.70136 -0.00324344 15.3445)
(0.129254 -0.0107103 17.669)
(-9.25648 -0.0218398 19.6918)
(6.97563 0.0190125 15.7024)
(0.979213 0.0773284 16.7387)
(3.46628 0.0599403 15.6543)
(1.59821 0.0178077 12.9593)
(1.90595 -0.0193576 10.9256)
(1.29979 -0.0297056 8.61422)
(1.11569 -0.0790532 6.20938)
(0.843442 -0.014106 3.68311)
(0.309165 0.074031 1.86095)
(0.149228 0.0665208 1.21845)
(-0.89868 0.0032536 3.7316)
(-0.354576 -0.167314 7.94989)
(-3.6773 -0.00354031 15.4093)
(0.157261 0.0286673 17.8851)
(-9.10757 -0.0348735 20.0697)
(6.91063 0.0296368 15.9733)
(0.97003 0.114784 16.8181)
(3.47477 0.0860558 15.5223)
(1.59682 0.0210943 12.7456)
(1.90839 -0.0443335 10.8145)
(1.30666 -0.070993 8.48104)
(1.07798 -0.163626 6.46422)
(0.760243 -0.105385 4.32388)
(0.307136 0.0779614 2.04107)
(0.183538 0.107878 1.337)
(-0.766264 0.0878069 5.08081)
(-0.31117 -0.11815 9.05979)
(-3.67951 -0.00920467 15.2162)
(0.167927 0.0344757 17.9267)
(-9.0406 -0.0276721 20.2496)
(6.88343 0.0364576 16.1561)
(0.97423 0.122923 16.8321)
(3.48696 0.0913573 15.3422)
(1.58801 0.0200981 12.5243)
(1.90207 -0.0616897 10.7122)
(1.29506 -0.0908477 8.43702)
(1.03021 -0.16089 6.76612)
(0.679304 -0.0978998 5.26751)
(0.261334 0.0469251 2.95198)
(0.338483 0.0776305 1.16024)
(-0.909269 0.121892 4.4416)
(-0.314262 0.0813854 9.89238)
(-3.67249 0.00374172 15.1755)
(0.159328 0.0329013 17.8535)
(-9.05371 -0.0221496 20.2144)
(6.88475 0.0389697 16.2547)
(0.985659 0.116903 16.8089)
(3.49904 0.0913197 15.1599)
(1.5761 0.0238771 12.3147)
(1.89225 -0.069564 10.6324)
(1.28274 -0.0987856 8.47359)
(1.0243 -0.135668 6.90542)
(0.700073 -0.0290771 5.46145)
(0.24285 0.0801062 3.48813)
(0.236586 0.146077 1.60186)
(-0.924873 0.0592348 3.83849)
(-0.352883 0.193359 8.82022)
(-3.66369 0.0191815 15.2991)
(0.13932 0.0422775 17.769)
(-9.08929 -0.0138084 20.1218)
(6.9031 0.0348294 16.2973)
(1.00066 0.0974244 16.7978)
(3.50722 0.0799242 15.0153)
(1.55824 0.0238145 12.1284)
(1.87583 -0.065578 10.5577)
(1.27188 -0.0965503 8.51309)
(1.03294 -0.129263 7.07071)
(0.761314 0.0219911 5.49826)
(0.332277 0.110322 3.0095)
(0.159185 0.294431 1.4389)
(-0.978956 0.0447543 3.33957)
(-0.397762 0.127731 7.98201)
(-3.66717 0.0287532 15.3115)
(0.116268 0.0636625 17.5586)
(-9.15289 -0.0196802 19.9771)
(6.92827 0.0311126 16.2933)
(1.01691 0.0879508 16.7444)
(3.52582 0.0799662 14.8463)
(1.55557 0.0346143 11.9201)
(1.86744 -0.0620337 10.4737)
(1.26989 -0.10177 8.47763)
(1.00771 -0.145884 7.47737)
(0.790935 0.00942363 5.61405)
(0.377938 0.109197 2.84015)
(0.160419 0.394103 1.07635)
(-0.974853 -0.0220611 3.38148)
(-0.377263 0.00812016 8.0159)
(-3.65656 0.0394371 15.3259)
(0.140976 0.0796473 17.7526)
(-8.99526 -0.0258888 20.4197)
(6.95343 0.01613 16.2976)
(1.03529 0.0468385 16.7393)
(3.54582 0.0468617 14.6937)
(1.55516 0.0259513 11.6314)
(1.86737 -0.0330648 10.257)
(1.26535 -0.0591141 8.39671)
(0.998915 -0.083767 7.75605)
(0.789709 -0.0087369 6.15157)
(0.403858 0.0791287 2.96546)
(0.147594 0.396957 0.705396)
(-0.923419 -0.0255985 3.75571)
(-0.341719 -0.018347 8.20468)
(-3.66031 0.0212455 15.2037)
(0.141499 0.0419395 17.8845)
(-8.92868 -0.0103577 20.6319)
(11.1889 -0.0194878 15.2568)
(2.35994 -0.0661953 16.9478)
(5.78987 -0.0792655 15.3859)
(3.1041 -0.0539954 12.4086)
(3.04367 0.0487713 10.6309)
(2.20853 0.106792 8.84808)
(1.64298 0.158964 8.03661)
(1.28382 0.0615616 6.53878)
(0.521027 -0.0156838 3.72873)
(0.191332 -0.00867831 1.74542)
(-1.29437 0.0397323 4.6359)
(-0.907364 0.0427162 9.36522)
(-5.82304 -0.0494488 16.1656)
(0.015421 -0.062194 18.5123)
(-14.8418 0.00902314 20.599)
(11.1618 -0.0350656 15.2643)
(2.30893 -0.117728 16.9447)
(5.76105 -0.130584 15.5002)
(3.0954 -0.0731019 12.657)
(3.04922 0.0924323 10.86)
(2.2161 0.174299 8.96172)
(1.65409 0.268824 7.84273)
(1.26156 0.0831309 6.17921)
(0.493929 -0.0422506 3.58263)
(0.23192 -0.00617748 1.78102)
(-1.29815 0.0731223 4.46007)
(-0.97589 0.0215486 9.27748)
(-5.82607 -0.0971398 16.2437)
(-0.0364669 -0.116547 18.3628)
(-14.9104 0.0298439 20.399)
(11.1392 -0.0335841 15.2729)
(2.26593 -0.125374 16.9834)
(5.73342 -0.130007 15.6392)
(3.08616 -0.0532271 12.8494)
(3.05905 0.101786 10.9648)
(2.22005 0.166748 9.02243)
(1.69716 0.251504 7.51681)
(1.25949 0.0730749 5.8512)
(0.455717 -0.0449642 3.71871)
(0.203594 0.0261378 1.88808)
(-1.38863 0.0778112 4.28012)
(-1.0553 -0.054316 9.24158)
(-5.83981 -0.065563 16.2023)
(-0.209272 -0.106232 18.1503)
(-15.0857 0.000576727 19.9648)
(11.1232 -0.0294495 15.2369)
(2.22728 -0.148192 16.9768)
(5.71817 -0.153145 15.7515)
(3.10784 -0.0544204 13.0242)
(3.08997 0.11157 11.0553)
(2.23845 0.174649 9.03046)
(1.70779 0.244776 7.32674)
(1.18389 0.122865 5.75765)
(0.362813 0.0601322 4.09085)
(0.219199 0.131769 2.12582)
(-1.3942 0.0230895 4.46256)
(-1.02604 -0.203646 9.66647)
(-5.85517 -0.049207 16.2472)
(-0.120292 -0.0918284 18.3321)
(-14.9966 -0.0373861 20.1063)
(11.1279 -0.014201 15.1432)
(2.20335 -0.148519 16.9635)
(5.69934 -0.153745 15.8922)
(3.117 -0.0437953 13.2238)
(3.1068 0.105307 11.1507)
(2.25574 0.158914 9.00244)
(1.71036 0.263186 7.23173)
(1.1597 0.237424 5.68785)
(0.433837 0.113022 3.50002)
(0.218014 0.196676 2.04536)
(-1.37123 -0.0208894 5.28363)
(-0.933624 -0.0867824 10.606)
(-5.87084 -0.0387596 16.1126)
(-0.0603108 -0.0866095 18.4219)
(-14.9443 -0.0357925 20.1837)
(11.1665 0.00624512 14.9691)
(2.20916 -0.131651 16.901)
(5.68144 -0.144641 16.0225)
(3.12103 -0.0396739 13.4338)
(3.11785 0.0811243 11.2656)
(2.28018 0.135379 9.02766)
(1.75855 0.260419 7.12937)
(1.29072 0.202723 4.92781)
(0.491261 0.0550087 2.79057)
(0.297578 0.204827 1.65852)
(-1.36547 -0.0446294 5.02935)
(-0.980863 0.154589 10.2368)
(-5.89076 -0.0239266 16.2045)
(-0.0662232 -0.0886381 18.4936)
(-14.9207 -0.0366927 20.1689)
(11.2526 0.0194227 14.6983)
(2.2713 -0.0717545 16.7602)
(5.67416 -0.0849664 16.0926)
(3.1144 -0.0210466 13.6231)
(3.11304 0.0434276 11.3959)
(2.26574 0.0816991 9.14503)
(1.80459 0.17456 6.84751)
(1.27648 0.0878651 4.71836)
(0.475004 0.00424905 2.96571)
(0.50822 0.160456 1.25101)
(-1.47679 -0.00712215 4.34638)
(-1.06588 0.167558 9.64392)
(-5.88696 -0.0367834 16.3435)
(-0.140539 -0.0736659 18.43)
(-14.9675 -0.0156213 19.9989)
(11.2954 0.0163226 14.5821)
(2.31017 0.0185665 16.6804)
(5.68047 0.0233042 16.0794)
(3.11829 0.0144832 13.6659)
(3.11483 0.0113441 11.4321)
(2.25775 0.0207296 9.22497)
(1.83617 0.0537165 6.78985)
(1.34683 0.109553 4.40801)
(0.432501 0.0371579 2.76883)
(0.319161 0.0121485 1.1592)
(-1.52189 0.0358002 4.02054)
(-1.17496 0.0265584 9.19673)
(-5.90254 -0.0087048 16.3426)
(-0.301094 -0.0268816 18.2443)
(-15.0994 -0.0430839 19.6716)
(11.2391 0.0188929 14.7699)
(2.25676 0.101199 16.7925)
(5.67743 0.120901 16.0797)
(3.11609 0.0473451 13.5907)
(3.11604 -0.0209279 11.383)
(2.27209 -0.0395909 9.16842)
(1.82916 -0.113366 6.84046)
(1.40456 -0.0410182 4.37177)
(0.554883 0.0895171 2.4462)
(0.175055 0.102494 1.50264)
(-1.38609 -0.0376045 4.45116)
(-1.1152 -0.201906 9.3671)
(-5.88244 0.00881238 16.4188)
(-0.139981 0.0230983 18.4591)
(-14.929 -0.0799463 20.0383)
(11.1701 0.034944 15.0336)
(2.20437 0.151514 16.9197)
(5.68748 0.169281 15.9995)
(3.12126 0.0640685 13.3951)
(3.12078 -0.0546939 11.2568)
(2.28616 -0.0997286 9.03781)
(1.78726 -0.235219 6.99399)
(1.27709 -0.176285 4.89018)
(0.516108 0.0854073 2.62639)
(0.200911 0.183869 1.76037)
(-1.22561 0.0909355 5.58845)
(-1.00298 -0.161957 10.0863)
(-5.89402 -0.00997951 16.2298)
(-0.0747986 0.0354073 18.5184)
(-14.8483 -0.0636684 20.2042)
(11.1417 0.0482057 15.2069)
(2.19983 0.163064 16.9756)
(5.70664 0.173145 15.8677)
(3.11656 0.0664052 13.1851)
(3.11063 -0.0792374 11.1333)
(2.27115 -0.132612 8.97716)
(1.72567 -0.238174 7.19152)
(1.15797 -0.165132 5.621)
(0.427336 0.0451615 3.38504)
(0.338831 0.138385 1.65185)
(-1.3859 0.157503 5.29701)
(-0.979328 0.0972323 10.7322)
(-5.88679 0.00813835 16.1559)
(-0.108221 0.0331416 18.454)
(-14.8589 -0.0526265 20.1555)
(11.144 0.0551705 15.2938)
(2.22439 0.157751 16.9815)
(5.72784 0.167106 15.7242)
(3.10841 0.0750627 12.9833)
(3.09591 -0.0889779 11.0267)
(2.25236 -0.149539 8.9913)
(1.71438 -0.215112 7.31126)
(1.18464 -0.0729856 5.7845)
(0.397212 0.0960057 3.84231)
(0.259392 0.169146 1.86232)
(-1.41165 0.0913406 4.68922)
(-1.0656 0.25322 9.98932)
(-5.87545 0.0336579 16.2744)
(-0.190494 0.0482821 18.3687)
(-14.8939 -0.0307492 20.0456)
(11.1664 0.050798 15.321)
(2.26621 0.131321 16.986)
(5.74532 0.140151 15.6138)
(3.08756 0.0702841 12.8102)
(3.06644 -0.0829875 10.9289)
(2.23145 -0.145459 9.00378)
(1.71901 -0.211372 7.46687)
(1.27363 -0.00501759 5.86708)
(0.530769 0.147709 3.53673)
(0.144138 0.301438 1.75825)
(-1.46962 0.0701068 4.21258)
(-1.16544 0.175176 9.39144)
(-5.8751 0.0627524 16.2761)
(-0.299864 0.0736882 18.1833)
(-14.9661 -0.0477081 19.8988)
(11.1933 0.0467308 15.3047)
(2.31132 0.121799 16.9462)
(5.77417 0.138656 15.4759)
(3.0979 0.0884852 12.6167)
(3.0567 -0.0753173 10.8216)
(2.22892 -0.154476 8.94918)
(1.68282 -0.240357 7.7943)
(1.30384 -0.0296578 6.04511)
(0.602239 0.171012 3.4198)
(0.144496 0.408661 1.53091)
(-1.4532 -0.0382124 4.2076)
(-1.11777 0.0357136 9.37304)
(-5.86768 0.0902183 16.3207)
(-0.142288 0.0919085 18.3884)
(-14.7835 -0.067125 20.3234)
(11.2242 0.0249581 15.2906)
(2.36447 0.0682807 16.951)
(5.80379 0.0837335 15.3671)
(3.10708 0.0631889 12.3737)
(3.05058 -0.0381318 10.5956)
(2.22145 -0.0939753 8.83804)
(1.67308 -0.144785 7.99111)
(1.31643 -0.0401535 6.52619)
(0.650074 0.125525 3.61963)
(0.194901 0.436362 1.30195)
(-1.38784 -0.0387042 4.45385)
(-1.05015 -0.00921275 9.4539)
(-5.87627 0.0455495 16.2419)
(-0.0997485 0.0503663 18.5296)
(-14.705 -0.0267847 20.5173)
(14.4393 -0.0201778 12.808)
(4.72682 -0.065864 17.2387)
(8.07809 -0.102939 16.2532)
(5.32724 -0.0989911 13.6995)
(4.35631 0.0274332 11.3582)
(3.26921 0.129461 9.53971)
(2.35737 0.219886 8.49046)
(1.78757 0.120002 7.1252)
(0.774608 0.00217118 4.58784)
(0.239832 0.00303752 2.54156)
(-1.7348 0.051206 5.78789)
(-2.29623 0.019181 11.3345)
(-7.86942 -0.0947161 17.5904)
(-1.625 -0.0610579 19.8546)
(-19.8604 0.0185146 19.3723)
(14.4287 -0.0339181 12.8428)
(4.64036 -0.110386 17.2419)
(8.02927 -0.167704 16.3186)
(5.2957 -0.141262 13.8831)
(4.36113 0.0643124 11.5771)
(3.27956 0.206081 9.68372)
(2.36895 0.350323 8.38589)
(1.75683 0.166755 6.82459)
(0.726778 -0.0258794 4.40697)
(0.248237 0.017768 2.53095)
(-1.75806 0.0795324 5.67304)
(-2.39441 -0.0296324 11.3296)
(-7.8817 -0.191883 17.6166)
(-1.75912 -0.105048 19.7013)
(-19.8961 0.0617819 19.1765)
(14.4217 -0.0272172 12.8683)
(4.56778 -0.109872 17.2715)
(7.98443 -0.171085 16.4145)
(5.26162 -0.118831 14.0441)
(4.36175 0.0814496 11.6994)
(3.28086 0.200316 9.76892)
(2.41546 0.328236 8.17054)
(1.77066 0.148161 6.50265)
(0.690535 -0.0381211 4.41578)
(0.179824 0.0411265 2.58331)
(-1.8605 0.0626946 5.6043)
(-2.49827 -0.0896965 11.3556)
(-7.92131 -0.131404 17.5506)
(-2.16107 -0.103515 19.4629)
(-19.9885 0.00677152 18.7259)
(14.4139 -0.0116058 12.86)
(4.49334 -0.123993 17.2527)
(7.94751 -0.2092 16.4801)
(5.27086 -0.131277 14.1914)
(4.40223 0.0915062 11.812)
(3.31122 0.213388 9.80911)
(2.43735 0.319743 8.02267)
(1.69291 0.186131 6.35493)
(0.552877 0.0803592 4.63838)
(0.181051 0.111972 2.76459)
(-1.8449 -0.0302073 5.79386)
(-2.43659 -0.225397 11.6267)
(-7.91846 -0.0812118 17.5943)
(-1.92676 -0.101578 19.6048)
(-19.9371 -0.0636961 18.8764)
(14.4235 0.0169657 12.796)
(4.45286 -0.114723 17.2075)
(7.91546 -0.218148 16.5612)
(5.26393 -0.11819 14.3647)
(4.4172 0.0895985 11.9361)
(3.33326 0.192916 9.81772)
(2.44449 0.319921 7.9365)
(1.65937 0.301484 6.2979)
(0.611844 0.153954 4.24363)
(0.159626 0.137815 2.80112)
(-1.79984 -0.0529289 6.47949)
(-2.28647 -0.105293 12.1464)
(-7.92679 -0.0741779 17.4639)
(-1.77282 -0.098486 19.6822)
(-19.9094 -0.0596469 18.9621)
(14.4518 0.039443 12.6493)
(4.47827 -0.0921082 17.0966)
(7.89982 -0.212137 16.6196)
(5.25487 -0.108406 14.5427)
(4.42414 0.0666508 12.0744)
(3.35881 0.160829 9.86866)
(2.49388 0.311027 7.89717)
(1.79746 0.281735 5.80675)
(0.721173 0.108922 3.66805)
(0.262612 0.135109 2.49133)
(-1.80176 -0.0218026 6.21567)
(-2.3776 0.133425 11.9418)
(-7.94053 -0.0623085 17.5596)
(-1.75575 -0.108843 19.715)
(-19.8801 -0.0619092 18.9331)
(14.4917 0.0392765 12.3928)
(4.60504 -0.039406 16.8917)
(7.91836 -0.126685 16.6149)
(5.2423 -0.0601749 14.6912)
(4.40934 0.0358085 12.2126)
(3.33481 0.0950671 9.99377)
(2.53386 0.208651 7.74095)
(1.81919 0.148417 5.55623)
(0.710643 0.036603 3.70151)
(0.424208 0.144256 2.20728)
(-1.93692 0.0299551 5.69519)
(-2.51946 0.136846 11.6477)
(-7.94219 -0.0931773 17.6716)
(-1.92259 -0.0907326 19.614)
(-19.8858 -0.0202596 18.7391)
(14.5051 0.0128197 12.2726)
(4.67837 0.0212492 16.7899)
(7.94044 0.0345005 16.5796)
(5.25085 0.0248879 14.7187)
(4.411 0.0187922 12.2473)
(3.3219 0.0262075 10.0637)
(2.55988 0.0610194 7.72709)
(1.89912 0.127401 5.35327)
(0.71363 0.0681924 3.52036)
(0.28097 0.0875578 2.06435)
(-2.01974 0.0509405 5.46996)
(-2.69209 0.0268737 11.4336)
(-7.98479 -0.021875 17.656)
(-2.29636 -0.0573417 19.4141)
(-19.9461 -0.0729785 18.3952)
(14.4819 0.00227654 12.4441)
(4.58004 0.0775793 16.943)
(7.91871 0.177835 16.6196)
(5.24705 0.102523 14.6662)
(4.41417 0.000309888 12.1947)
(3.33958 -0.0397519 10.0094)
(2.55485 -0.124024 7.75463)
(1.9443 -0.0706705 5.37711)
(0.875758 0.0836023 3.33145)
(0.186181 0.133476 2.21976)
(-1.88938 -0.0773271 5.72279)
(-2.60493 -0.176687 11.4963)
(-7.93819 0.0373491 17.738)
(-1.92032 -0.0180701 19.6339)
(-19.8568 -0.147227 18.7735)
(14.4556 0.0223817 12.6896)
(4.48049 0.122706 17.1361)
(7.91022 0.244855 16.6147)
(5.26025 0.14448 14.5111)
(4.42828 -0.0261698 12.0586)
(3.36335 -0.108634 9.88019)
(2.52516 -0.26288 7.80926)
(1.79634 -0.236139 5.74254)
(0.763281 0.0611065 3.49014)
(0.181889 0.231443 2.49525)
(-1.6889 0.0605402 6.53281)
(-2.43431 -0.159877 11.824)
(-7.95021 -0.0076508 17.5762)
(-1.75456 0.000540422 19.7137)
(-19.8018 -0.120743 18.9266)
(14.4452 0.0439031 12.8442)
(4.46921 0.139836 17.2416)
(7.93192 0.244055 16.5533)
(5.26959 0.150507 14.3332)
(4.42147 -0.050214 11.9167)
(3.34927 -0.15111 9.79767)
(2.4633 -0.279684 7.90494)
(1.6593 -0.225142 6.23598)
(0.604342 0.0125324 4.07533)
(0.254469 0.197826 2.49468)
(-1.81928 0.174966 6.51136)
(-2.36308 0.092288 12.2434)
(-7.95857 0.00637765 17.4833)
(-1.83102 -0.00681065 19.6576)
(-19.7873 -0.103211 18.8478)
(14.446 0.0577375 12.9117)
(4.51037 0.145787 17.2763)
(7.96756 0.228547 16.4667)
(5.27929 0.160017 14.1582)
(4.40968 -0.0562771 11.7849)
(3.32697 -0.174317 9.7755)
(2.44493 -0.273665 7.99673)
(1.68309 -0.132057 6.36678)
(0.570545 0.0598692 4.43151)
(0.205211 0.181471 2.56745)
(-1.87706 0.147961 6.01435)
(-2.49773 0.259074 11.8394)
(-7.96131 0.0382108 17.5898)
(-2.01273 0.0104477 19.5647)
(-19.781 -0.0628035 18.6993)
(14.4569 0.0561703 12.9139)
(4.58434 0.127038 17.2869)
(8.00718 0.185125 16.4012)
(5.27271 0.142164 14.0143)
(4.37122 -0.051998 11.6675)
(3.29318 -0.167721 9.75021)
(2.43645 -0.274871 8.12526)
(1.77353 -0.0663349 6.49097)
(0.747829 0.125129 4.27492)
(0.112631 0.248803 2.4827)
(-1.97275 0.102456 5.64473)
(-2.6665 0.19704 11.5032)
(-7.98376 0.109899 17.5827)
(-2.28647 0.0327009 19.4107)
(-19.8046 -0.0962433 18.5326)
(14.4651 0.0534069 12.8796)
(4.6584 0.124635 17.2518)
(8.05391 0.17861 16.3061)
(5.30921 0.162184 13.8539)
(4.37114 -0.0368385 11.5437)
(3.29302 -0.174807 9.66841)
(2.39521 -0.309242 8.34843)
(1.78708 -0.103871 6.70668)
(0.830614 0.154633 4.24589)
(0.157244 0.343864 2.33825)
(-1.9525 -0.0290216 5.59465)
(-2.61091 0.0844805 11.46)
(-7.95092 0.170706 17.6522)
(-1.92068 0.048418 19.6393)
(-19.6942 -0.132792 18.9616)
(14.4785 0.0292078 12.8356)
(4.74876 0.073596 17.2483)
(8.10414 0.109368 16.2462)
(5.34247 0.112051 13.6772)
(4.36587 -0.00952949 11.3291)
(3.28257 -0.107897 9.52723)
(2.38428 -0.194626 8.45296)
(1.8044 -0.0912698 7.10091)
(0.891689 0.10891 4.48059)
(0.271727 0.388323 2.22189)
(-1.86226 -0.0288302 5.72288)
(-2.52468 0.0200594 11.4482)
(-7.95678 0.0836048 17.6203)
(-1.80885 0.0323798 19.7755)
(-19.6391 -0.0519024 19.1403)
(16.5159 -0.0144003 9.66596)
(7.23282 -0.0555005 16.8458)
(10.2851 -0.10254 17.2492)
(8.13285 -0.13498 15.5698)
(6.09311 -0.027197 12.7819)
(4.49938 0.114821 10.6058)
(3.15033 0.254161 9.24814)
(2.24667 0.185164 7.92164)
(1.02856 0.0552766 5.59625)
(0.248714 0.0028949 3.72889)
(-2.37744 0.0235728 7.81659)
(-4.30949 -0.0238357 14.1153)
(-9.82716 -0.11878 19.6961)
(-4.35285 -0.0261549 21.1265)
(-23.6226 0.0195265 17.1499)
(16.5297 -0.0198299 9.71761)
(7.14067 -0.0857896 16.8751)
(10.2137 -0.165023 17.2842)
(8.06696 -0.198764 15.6809)
(6.07577 -0.0170295 12.9577)
(4.50532 0.185336 10.7646)
(3.16075 0.38789 9.22433)
(2.21969 0.256284 7.69844)
(0.973141 0.0366524 5.43212)
(0.228948 0.00726875 3.714)
(-2.44094 0.0101938 7.77955)
(-4.44969 -0.111345 14.169)
(-9.88709 -0.251887 19.6672)
(-4.54397 -0.0322671 20.9543)
(-23.5858 0.0708123 16.9712)
(16.5451 -0.00277494 9.75455)
(7.06243 -0.0714119 16.9094)
(10.1507 -0.169178 17.3438)
(8.00152 -0.181358 15.7948)
(6.0484 0.00619995 13.0733)
(4.49449 0.18721 10.8691)
(3.20047 0.367611 9.1203)
(2.25056 0.232536 7.425)
(0.949357 0.0135879 5.34706)
(0.0819584 0.0346842 3.77628)
(-2.5966 0.00287231 7.85306)
(-4.64253 -0.125115 14.2451)
(-10.0482 -0.180143 19.5615)
(-5.08538 -0.0863405 20.6398)
(-23.5059 -0.00701091 16.5521)
(16.5654 0.0223063 9.77748)
(6.98074 -0.0615219 16.9015)
(10.0889 -0.208084 17.3686)
(7.97865 -0.20969 15.8957)
(6.08116 0.00732254 13.1887)
(4.53512 0.20367 10.9429)
(3.23622 0.362833 9.03278)
(2.19544 0.25567 7.25586)
(0.787159 0.131579 5.43959)
(0.0640117 0.0871399 3.90123)
(-2.54023 -0.10458 7.97376)
(-4.54601 -0.21897 14.3724)
(-9.9795 -0.115403 19.6039)
(-4.75068 -0.133515 20.8001)
(-23.5365 -0.103789 16.7121)
(16.5896 0.0469524 9.7515)
(6.94458 -0.0282123 16.8466)
(10.0475 -0.214991 17.3888)
(7.94797 -0.20061 16.0168)
(6.07841 0.0109389 13.3205)
(4.55461 0.185404 10.9954)
(3.25131 0.344052 8.97354)
(2.16174 0.345275 7.20426)
(0.822697 0.197933 5.20857)
(0.0823175 0.0812394 3.97302)
(-2.4022 -0.100666 8.37454)
(-4.35158 -0.12317 14.5576)
(-9.94908 -0.116719 19.5045)
(-4.52905 -0.119971 20.9002)
(-23.5614 -0.107284 16.8063)
(16.5961 0.0576285 9.65481)
(6.97462 0.00919468 16.7059)
(10.0443 -0.203984 17.3664)
(7.93128 -0.186759 16.1337)
(6.06977 -0.00374057 13.4616)
(4.57125 0.150587 11.0749)
(3.29304 0.324915 8.98332)
(2.28585 0.337799 6.92942)
(0.978918 0.161882 4.79029)
(0.231629 0.0805241 3.70734)
(-2.43615 -0.00986587 8.15573)
(-4.46459 0.0777572 14.4895)
(-9.9439 -0.115485 19.5772)
(-4.47452 -0.135483 20.8979)
(-23.5288 -0.122671 16.7674)
(16.5679 0.0430201 9.46976)
(7.09234 0.0383379 16.4473)
(10.1024 -0.113533 17.2661)
(7.93908 -0.104844 16.213)
(6.04444 -0.00372413 13.5893)
(4.53119 0.0873275 11.2034)
(3.31249 0.215741 8.93415)
(2.33462 0.19865 6.7148)
(0.993294 0.0468008 4.72686)
(0.35911 0.114425 3.49212)
(-2.6157 0.0547034 7.85051)
(-4.62971 0.0653273 14.4175)
(-9.97568 -0.157002 19.6278)
(-4.6735 -0.0979267 20.7409)
(-23.4578 -0.0666273 16.5714)
(16.5428 0.00323413 9.37837)
(7.14775 0.0227779 16.3222)
(10.1402 0.0421972 17.1984)
(7.96409 0.0375889 16.2173)
(6.05069 0.0295161 13.6189)
(4.51403 0.0309752 11.2607)
(3.32196 0.0625287 8.95102)
(2.4018 0.129621 6.59429)
(1.04482 0.0717857 4.54832)