/*--------------------------------*- C++ -*----------------------------------*\
| =========                 |                                                 |
| \\      /  F ield         | OpenFOAM: The Open Source CFD Toolbox           |
|  \\    /   O peration     | Version:  4.1                                   |
|   \\  /    A nd           | Web:      www.OpenFOAM.org                      |
|    \\/     M anipulation  |                                                 |
\*---------------------------------------------------------------------------*/
FoamFile
{
    version     2.0;
    format      ascii;
    class       volScalarField;
    location    "3.5";
    object      p;
}
// * * * * * * * * * * * * * * * * * * * * * * * * * * * * * * * * * * * * * //

dimensions      [0 2 -2 0 0 0 0];

internalField   nonuniform List<scalar> 
204246
(
-29.7614
-42.778
-43.1301
-42.9035
-42.8991
-42.8547
-42.7989
-42.7216
-42.6285
-42.5012
-42.3725
-42.2011
-42.0112
-41.8196
-41.7512
-41.8256
-42.1697
-42.3213
-41.952
-41.9257
-41.8765
-41.853
-41.8164
-41.7997
-41.7838
-41.7781
-41.7732
-41.7837
-41.7724
-41.7456
-41.6509
-41.5644
-41.5189
-41.5248
-41.4507
-41.7656
-41.928
-41.8251
-41.7749
-41.7289
-41.7111
-41.682
-41.6746
-41.6956
-41.7057
-41.6739
-41.6444
-41.6541
-41.6901
-41.582
-41.4652
-41.377
-41.7225
-41.8844
-41.7486
-41.7146
-41.6814
-41.6779
-41.7021
-41.6978
-41.652
-41.6155
-41.634
-41.6799
-41.6391
-41.6748
-41.4607
-41.3829
-41.3181
-41.6795
-41.8433
-41.7473
-41.7163
-41.6419
-41.5924
-41.6008
-41.5804
-41.5401
-41.5481
-41.5403
-41.5292
-41.4792
-41.4068
-41.2471
-41.2725
-41.0718
-41.3209
-41.4351
-41.2469
-41.2283
-40.9612
-40.9372
-40.7019
-40.7169
-40.347
-40.29
-39.9009
-39.5839
-39.2296
-38.862
-38.3787
-37.7501
-37.0933
-36.5078
-35.9664
-35.4855
-35.1111
-34.9166
-35.1838
-36.179
-38.3074
-42.004
-48.8616
-60.9707
-72.9802
-78.0451
-80.7008
-82.7785
-84.3443
-85.1518
-85.5477
-86.1444
-87.193
-87.292
-86.3109
-86.6562
-85.944
-86.0382
-86.1186
-86.3623
-86.7292
-87.1423
-87.492
-87.6926
-87.8104
-87.9112
-88.075
-88.5043
-88.9383
-90.5462
-91.3148
-91.087
-91.8171
-91.5486
-92.2961
-92.0221
-92.9958
-93.3144
-93.6883
-93.9781
-94.18
-94.1796
-95.1196
-95.0928
-95.0552
-94.9651
-96.6926
-97.5511
-97.1678
-97.7389
-97.2058
-97.7175
-96.9241
-97.4511
-96.1371
-95.7802
-94.192
-93.2067
-90.963
-89.0113
-85.838
-82.7011
-78.5244
-74.1135
-68.9864
-63.15
-56.4668
-48.8254
-40.385
-30.5984
-19.4679
-6.66358
7.84384
24.3683
42.9017
63.676
86.6604
112.462
141.88
180.852
239.806
333.053
458.041
-40.1084
-40.6822
-41.9151
-42.6158
-42.8783
-42.9433
-42.9384
-42.8765
-42.7807
-42.6591
-42.5144
-42.3623
-42.207
-42.0552
-41.9318
-41.937
-42.0505
-42.1481
-42.1021
-42.0297
-41.9707
-41.9286
-41.9021
-41.8847
-41.8614
-41.8434
-41.8424
-41.8517
-41.8429
-41.8057
-41.7536
-41.7068
-41.6497
-41.6241
-41.6197
-41.6986
-41.7975
-41.833
-41.836
-41.8069
-41.8012
-41.7679
-41.7564
-41.748
-41.7533
-41.7422
-41.7176
-41.7212
-41.714
-41.6685
-41.6255
-41.5886
-41.6717
-41.7662
-41.7773
-41.7725
-41.7497
-41.7639
-41.7632
-41.748
-41.708
-41.6865
-41.6982
-41.6974
-41.6949
-41.6984
-41.6311
-41.5578
-41.5611
-41.6324
-41.7069
-41.7484
-41.7671
-41.7201
-41.7063
-41.6989
-41.6748
-41.6482
-41.6329
-41.6177
-41.6041
-41.5649
-41.5036
-41.442
-41.3934
-41.3817
-41.3637
-41.363
-41.3442
-41.2964
-41.2102
-41.0999
-40.9799
-40.8561
-40.7022
-40.5075
-40.2844
-40.0274
-39.7481
-39.4145
-38.9686
-38.454
-37.9037
-37.3284
-36.6489
-35.9038
-35.2282
-34.6806
-34.3719
-34.5471
-35.694
-38.5324
-44.6309
-58.4932
-72.1105
-79.8197
-81.9931
-83.1665
-84.3384
-85.4114
-86.0363
-86.5309
-86.7792
-86.9725
-86.7958
-86.6244
-86.4061
-86.1709
-86.2182
-86.3131
-86.6373
-86.9461
-87.4244
-87.6565
-88.0248
-88.1093
-88.3801
-88.5995
-89.1363
-89.8634
-90.5544
-91.0203
-91.4406
-91.8247
-92.0954
-92.438
-92.8021
-93.3521
-93.6845
-94.1509
-94.3683
-94.8012
-95.2045
-95.6535
-95.7109
-96.1099
-96.686
-97.2807
-97.7103
-98.0413
-98.3958
-98.5137
-98.7646
-98.7288
-98.5254
-98.1935
-97.5365
-96.9457
-95.7468
-94.1938
-92.046
-89.3977
-86.1055
-82.2742
-77.8083
-72.7266
-66.8463
-60.1925
-52.7238
-44.2693
-34.7652
-23.937
-11.6712
2.29727
17.9732
35.4503
54.4912
75.0522
97.0875
122.587
158.414
224.596
322.548
-48.2746
-45.1169
-43.638
-43.0978
-42.9614
-42.912
-42.8438
-42.7675
-42.6647
-42.5435
-42.4217
-42.2827
-42.1518
-42.0272
-41.9389
-41.9133
-41.9286
-41.9605
-41.9571
-41.9219
-41.8757
-41.8298
-41.797
-41.7686
-41.743
-41.7108
-41.6947
-41.7022
-41.7155
-41.6973
-41.663
-41.633
-41.5982
-41.5837
-41.5892
-41.6163
-41.6534
-41.6809
-41.6893
-41.6822
-41.6616
-41.6484
-41.6396
-41.6424
-41.6451
-41.6513
-41.6441
-41.6343
-41.6185
-41.5896
-41.5659
-41.5556
-41.5954
-41.6296
-41.6426
-41.6454
-41.6429
-41.6343
-41.6377
-41.6213
-41.6103
-41.6055
-41.6169
-41.6172
-41.6095
-41.5848
-41.5378
-41.5099
-41.5132
-41.5544
-41.585
-41.5953
-41.5876
-41.5814
-41.5669
-41.5535
-41.5258
-41.5114
-41.5117
-41.5145
-41.5097
-41.4713
-41.413
-41.3529
-41.3394
-41.3218
-41.3201
-41.2792
-41.2287
-41.1797
-41.1194
-41.0259
-40.9375
-40.8244
-40.6738
-40.5015
-40.2964
-40.055
-39.7913
-39.471
-39.0891
-38.6703
-38.2351
-37.7811
-37.2572
-36.7018
-36.1489
-35.6269
-35.276
-35.4888
-37.2691
-42.5445
-48.8321
-58.3653
-70.7201
-78.1844
-81.1272
-82.2535
-83.7952
-85.1031
-86.1819
-86.5267
-86.4506
-86.3549
-86.2076
-85.9872
-85.8881
-85.7326
-85.7599
-85.8127
-86.0453
-86.3496
-86.7325
-87.0546
-87.4196
-87.684
-87.9778
-88.3198
-88.761
-89.3004
-89.8425
-90.3261
-90.7717
-91.1563
-91.4501
-91.764
-92.1069
-92.4834
-92.805
-93.1348
-93.4362
-93.7485
-94.0647
-94.3277
-94.6564
-95.0461
-95.4993
-95.9168
-96.2534
-96.5426
-96.7214
-96.8066
-96.791
-96.5866
-96.1335
-95.4054
-94.4234
-93.1686
-91.6734
-89.8542
-87.7253
-85.1806
-82.1813
-78.5994
-74.3903
-69.4767
-63.7991
-57.3642
-50.0211
-41.7395
-32.3683
-21.8392
-9.92491
3.49106
18.6445
35.4887
53.9955
73.4975
93.9628
115.843
144.895
188.304
245.862
-51.344
-48.1995
-45.9952
-44.6883
-43.8679
-43.4625
-43.2207
-43.0283
-42.8601
-42.7067
-42.5698
-42.4335
-42.3095
-42.2199
-42.1645
-42.1324
-42.0941
-42.0674
-42.0452
-42.0198
-41.9926
-41.9708
-41.9526
-41.9472
-41.9279
-41.909
-41.8929
-41.8809
-41.8579
-41.8201
-41.7929
-41.7689
-41.7582
-41.7544
-41.7567
-41.7601
-41.7783
-41.7969
-41.8108
-41.8189
-41.828
-41.8164
-41.8076
-41.7907
-41.7888
-41.781
-41.7641
-41.747
-41.73
-41.7292
-41.7301
-41.7434
-41.7369
-41.7441
-41.7614
-41.7728
-41.7816
-41.797
-41.7885
-41.7853
-41.7687
-41.7635
-41.7548
-41.7394
-41.7258
-41.7045
-41.6967
-41.6915
-41.7096
-41.7078
-41.7177
-41.7417
-41.7553
-41.7617
-41.7684
-41.7474
-41.7343
-41.7131
-41.688
-41.671
-41.6504
-41.6171
-41.576
-41.5567
-41.5386
-41.5514
-41.4964
-41.4592
-41.4414
-41.4071
-41.3333
-41.2465
-41.1486
-41.0578
-40.9468
-40.8285
-40.6561
-40.4558
-40.2219
-39.9456
-39.6149
-39.252
-38.8677
-38.4536
-38.0031
-37.5312
-37.0485
-36.6228
-36.3724
-36.4812
-37.5719
-41.9706
-50.1999
-59.5438
-70.2915
-78.4524
-82.7836
-83.716
-84.3654
-85.4474
-86.4765
-87.3749
-87.6512
-87.2967
-86.8268
-86.6302
-86.39
-86.2271
-86.1596
-86.265
-86.4756
-86.713
-87.0989
-87.3853
-87.7852
-88.069
-88.4948
-88.8206
-89.2752
-89.688
-90.1579
-90.6596
-91.1295
-91.5876
-91.9831
-92.4078
-92.8068
-93.2484
-93.6067
-94.0376
-94.4196
-94.8652
-95.2322
-95.6769
-96.0717
-96.5277
-96.9017
-97.3551
-97.8775
-98.3797
-98.8717
-99.2962
-99.7122
-100.004
-100.276
-100.434
-100.374
-100.292
-99.5466
-98.3852
-96.6194
-94.3725
-91.5938
-88.3257
-84.4614
-79.9886
-74.7836
-68.8614
-62.1225
-54.5139
-45.9782
-36.3864
-25.6651
-13.6832
-0.415787
14.1502
29.9484
47.0328
65.7568
87.8588
116.007
151.324
190.087
-52.3405
-49.3885
-47.2286
-45.627
-44.5167
-43.8151
-43.3501
-43.0656
-42.8349
-42.6458
-42.4576
-42.3188
-42.187
-42.0737
-41.9859
-41.9392
-41.9233
-41.9173
-41.8921
-41.8562
-41.8186
-41.7758
-41.745
-41.7146
-41.6951
-41.6649
-41.6759
-41.6866
-41.6804
-41.6663
-41.6425
-41.6243
-41.6007
-41.5951
-41.5875
-41.5908
-41.6017
-41.6171
-41.6226
-41.6234
-41.6085
-41.5988
-41.5893
-41.6046
-41.6142
-41.6254
-41.6167
-41.6037
-41.5923
-41.5691
-41.5582
-41.5437
-41.5523
-41.5712
-41.5847
-41.5905
-41.5893
-41.5763
-41.5727
-41.5574
-41.5684
-41.5736
-41.5878
-41.5867
-41.5743
-41.5596
-41.5332
-41.5231
-41.5123
-41.5371
-41.5449
-41.5363
-41.5306
-41.5304
-41.5178
-41.5147
-41.5033
-41.4982
-41.4981
-41.5037
-41.4996
-41.4739
-41.4396
-41.3894
-41.3657
-41.3215
-41.3519
-41.3378
-41.3085
-41.2698
-41.2335
-41.1764
-41.1119
-41.0209
-40.935
-40.8273
-40.7
-40.5435
-40.3648
-40.1504
-39.9113
-39.6472
-39.3787
-39.0969
-38.7624
-38.3997
-38.0671
-37.8037
-37.7062
-37.9392
-38.8092
-41.45
-47.7163
-55.9523
-65.5808
-74.2211
-78.6498
-81.7256
-83.8965
-84.8293
-85.5268
-86.1908
-86.5006
-86.5647
-86.3096
-85.7575
-85.453
-85.2968
-85.2811
-85.1824
-85.3267
-85.714
-86.0477
-86.4307
-86.81
-87.1475
-87.417
-87.8269
-88.2026
-88.6985
-89.2181
-89.6664
-90.0865
-90.4798
-90.8578
-91.176
-91.5337
-91.8206
-92.1924
-92.4828
-92.8332
-93.0382
-93.4034
-93.6316
-93.9962
-94.3492
-94.8202
-95.2603
-95.6111
-95.9467
-96.1974
-96.4702
-96.5513
-96.5598
-96.3111
-95.8608
-95.2511
-94.5009
-93.691
-92.705
-91.5033
-89.9139
-87.9156
-85.427
-82.3858
-78.6851
-74.3175
-69.2724
-63.4042
-56.6219
-48.8682
-40.0754
-30.2245
-19.3624
-7.57946
4.93509
18.1852
32.2642
47.9185
66.6995
90.2502
118.591
146.748
-52.7271
-50.1162
-48.0482
-46.4683
-45.2668
-44.4103
-43.8038
-43.3771
-43.0644
-42.8215
-42.6333
-42.4806
-42.3637
-42.2872
-42.2204
-42.173
-42.1177
-42.0766
-42.0526
-42.0313
-42.0089
-41.9937
-41.98
-41.9761
-41.9569
-41.9384
-41.9169
-41.901
-41.8825
-41.8552
-41.8343
-41.8114
-41.8173
-41.8159
-41.8143
-41.8102
-41.8093
-41.8101
-41.8194
-41.8295
-41.8473
-41.8454
-41.8449
-41.827
-41.8272
-41.8131
-41.8003
-41.7848
-41.7722
-41.7789
-41.7878
-41.8136
-41.7952
-41.7808
-41.7858
-41.7927
-41.8021
-41.8197
-41.8208
-41.8293
-41.8057
-41.803
-41.7829
-41.7746
-41.7609
-41.7455
-41.7496
-41.7541
-41.7754
-41.7518
-41.7503
-41.7717
-41.7847
-41.7853
-41.7905
-41.7921
-41.7953
-41.7605
-41.7348
-41.7188
-41.7047
-41.6877
-41.6598
-41.6558
-41.6368
-41.641
-41.5833
-41.5511
-41.5303
-41.5091
-41.4531
-41.3947
-41.3272
-41.2623
-41.188
-41.1111
-40.9942
-40.8621
-40.7057
-40.5278
-40.3181
-40.1057
-39.897
-39.6777
-39.4375
-39.2059
-39.0119
-38.9024
-38.9704
-39.3718
-40.3797
-42.5896
-46.9346
-53.4315
-61.7914
-70.5449
-77.1895
-81.5616
-83.8444
-85.63
-87.3433
-87.9574
-87.6058
-87.6038
-86.8658
-86.504
-86.1518
-85.8357
-85.7598
-85.9986
-86.1455
-86.2968
-86.6469
-87.0152
-87.4422
-87.8929
-88.3548
-88.6936
-89.0723
-89.4394
-89.8796
-90.3608
-90.8258
-91.3039
-91.7262
-92.1996
-92.5854
-93.0197
-93.375
-93.8588
-94.2255
-94.69
-95.05
-95.5318
-95.8951
-96.4058
-96.7413
-97.177
-97.7324
-98.2891
-98.8813
-99.4012
-99.992
-100.551
-101.132
-101.664
-102.074
-102.168
-101.818
-101.019
-99.7149
-97.9368
-95.6458
-92.9121
-89.7416
-86.0892
-81.8401
-77.034
-71.55
-65.2061
-57.9358
-49.7071
-40.5413
-30.4688
-19.6205
-8.10576
4.06242
16.9706
31.1311
47.7535
67.4973
90.2857
111.772
-52.059
-49.9622
-48.1088
-46.6366
-45.4694
-44.583
-43.9192
-43.4311
-43.0563
-42.7752
-42.545
-42.3686
-42.2227
-42.1016
-41.9961
-41.9166
-41.8693
-41.8433
-41.8186
-41.7895
-41.7621
-41.7291
-41.6995
-41.6633
-41.6419
-41.6102
-41.6237
-41.6345
-41.639
-41.6381
-41.6227
-41.6152
-41.5988
-41.5905
-41.5645
-41.5607
-41.5764
-41.5868
-41.5853
-41.5808
-41.564
-41.5597
-41.5531
-41.5705
-41.5759
-41.5894
-41.5868
-41.5808
-41.575
-41.5535
-41.5424
-41.519
-41.5311
-41.5453
-41.5505
-41.5529
-41.5489
-41.5338
-41.5324
-41.5247
-41.5452
-41.5457
-41.56
-41.5594
-41.5546
-41.5486
-41.5252
-41.5157
-41.4945
-41.5115
-41.5166
-41.4983
-41.5029
-41.496
-41.4838
-41.4837
-41.4733
-41.4896
-41.4919
-41.4998
-41.4993
-41.4838
-41.4664
-41.4261
-41.4116
-41.3719
-41.4046
-41.4054
-41.3897
-41.3647
-41.3533
-41.3231
-41.2815
-41.2263
-41.1805
-41.1137
-41.0468
-40.9671
-40.8743
-40.7497
-40.6137
-40.4762
-40.3483
-40.2089
-40.06
-39.9265
-39.847
-39.8591
-40.0246
-40.4798
-41.4366
-43.2923
-46.575
-51.5279
-58.0594
-65.4118
-72.2578
-77.6856
-81.42
-83.9269
-85.5648
-86.4833
-87.395
-87.359
-86.1234
-85.6568
-85.2171
-84.8634
-84.6495
-84.4951
-84.7096
-85.0577
-85.3115
-85.744
-86.0549
-86.5124
-86.8714
-87.3179
-87.791
-88.2763
-88.7598
-89.1907
-89.6397
-90.0004
-90.3996
-90.7208
-91.1204
-91.3826
-91.7735
-91.9919
-92.3842
-92.59
-92.997
-93.2251
-93.6103
-93.8619
-94.3506
-94.8216
-95.2588
-95.6714
-96.0724
-96.5034
-96.7355
-97.0465
-97.0406
-97.0649
-96.9159
-96.7858
-96.6972
-96.4872
-96.1392
-95.4741
-94.3614
-92.7124
-90.5495
-87.8003
-84.392
-80.3307
-75.607
-70.1153
-63.8058
-56.6689
-48.7212
-39.974
-30.4575
-20.2233
-9.30552
2.42521
15.3419
30.1338
47.0267
65.7878
82.8925
-50.9737
-49.2658
-47.7821
-46.5715
-45.5376
-44.7117
-44.0688
-43.5708
-43.1937
-42.901
-42.6708
-42.4854
-42.3604
-42.2633
-42.1999
-42.1636
-42.1116
-42.0715
-42.046
-42.0251
-42.005
-41.994
-41.9822
-41.9848
-41.97
-41.9602
-41.9385
-41.9158
-41.8972
-41.8746
-41.8566
-41.8356
-41.8386
-41.839
-41.8534
-41.849
-41.8348
-41.8298
-41.8366
-41.8473
-41.8667
-41.8666
-41.8693
-41.8491
-41.8485
-41.8194
-41.8152
-41.8051
-41.7966
-41.8105
-41.8206
-41.8469
-41.8305
-41.8211
-41.8209
-41.8163
-41.8243
-41.8421
-41.8439
-41.8543
-41.8341
-41.8347
-41.8124
-41.8105
-41.7874
-41.7754
-41.7874
-41.7926
-41.8152
-41.7908
-41.785
-41.8063
-41.8094
-41.8152
-41.8257
-41.8233
-41.8246
-41.7928
-41.7732
-41.7525
-41.7423
-41.7322
-41.7166
-41.7283
-41.7201
-41.7349
-41.6683
-41.6326
-41.6134
-41.6016
-41.5675
-41.5347
-41.4954
-41.4636
-41.4154
-41.367
-41.3012
-41.238
-41.1572
-41.0633
-40.9557
-40.8575
-40.7712
-40.6889
-40.6093
-40.5659
-40.5853
-40.6868
-40.9316
-41.4183
-42.293
-43.802
-46.286
-50.0153
-55.0486
-61.0693
-67.3451
-73.0898
-77.8953
-81.7167
-84.6982
-86.9
-88.2199
-88.13
-87.6841
-86.649
-85.9454
-85.4166
-85.1943
-85.2984
-85.3345
-85.5497
-85.9564
-86.3476
-87.0861
-87.4926
-87.8705
-88.2418
-88.6658
-89.0494
-89.4884
-89.9747
-90.4602
-90.96
-91.3737
-91.836
-92.2165
-92.6563
-93.0122
-93.4993
-93.8219
-94.2717
-94.576
-95.1078
-95.462
-95.9198
-96.2337
-96.6535
-97.1532
-97.7399
-98.3725
-98.9962
-99.7037
-100.41
-101.106
-101.714
-102.254
-102.621
-102.776
-102.562
-101.919
-100.889
-99.4995
-97.6677
-95.415
-92.7495
-89.5233
-85.6953
-81.2649
-76.2103
-70.4656
-64.0312
-56.9419
-49.1935
-40.7631
-31.6742
-21.8976
-11.2765
0.470758
13.6709
28.3731
44.2418
58.3307
-49.2916
-48.0426
-46.9268
-45.9971
-45.151
-44.4462
-43.8743
-43.4108
-43.0432
-42.7556
-42.5218
-42.3368
-42.18
-42.0621
-41.9527
-41.8641
-41.7898
-41.7428
-41.7283
-41.7076
-41.6955
-41.6739
-41.6494
-41.6113
-41.5866
-41.5533
-41.5798
-41.5938
-41.6042
-41.6123
-41.606
-41.6014
-41.5796
-41.5739
-41.5495
-41.5468
-41.5636
-41.5668
-41.5619
-41.5555
-41.5376
-41.5353
-41.5299
-41.5496
-41.5519
-41.5646
-41.5629
-41.5657
-41.5623
-41.5396
-41.527
-41.4997
-41.5154
-41.5227
-41.5245
-41.5348
-41.528
-41.5101
-41.5075
-41.4987
-41.5215
-41.5221
-41.5343
-41.537
-41.5453
-41.5416
-41.5179
-41.5083
-41.482
-41.4998
-41.5077
-41.4899
-41.483
-41.4766
-41.4666
-41.4675
-41.4597
-41.4827
-41.4871
-41.503
-41.5031
-41.493
-41.4884
-41.4596
-41.4568
-41.4275
-41.4706
-41.4785
-41.4678
-41.4488
-41.4484
-41.4403
-41.4312
-41.4085
-41.3895
-41.3533
-41.3301
-41.3043
-41.2749
-41.2235
-41.1733
-41.1365
-41.1229
-41.1027
-41.0895
-41.1135
-41.199
-41.3747
-41.682
-42.1954
-43.0206
-44.3097
-46.2631
-49.0985
-52.9151
-57.6332
-62.8714
-68.1006
-72.8782
-76.9427
-80.1975
-82.6172
-84.2448
-84.927
-84.8779
-84.423
-83.9761
-83.6489
-83.6066
-83.6684
-84.1838
-84.5893
-84.8105
-85.0539
-85.3016
-85.9175
-86.4119
-86.9321
-87.3821
-87.9698
-88.4685
-88.8411
-89.269
-89.686
-90.091
-90.45
-90.838
-91.1292
-91.4862
-91.731
-92.0957
-92.353
-92.7087
-92.9774
-93.318
-93.6863
-94.1163
-94.5412
-94.9634
-95.4116
-95.9176
-96.4595
-97.0003
-97.5793
-98.1733
-98.6749
-99.0256
-99.4532
-99.8117
-100.172
-100.453
-100.542
-100.3
-99.563
-98.1987
-96.2545
-93.7092
-90.4824
-86.5912
-82.1235
-77.0407
-71.3107
-65.0031
-58.1327
-50.671
-42.5639
-33.7784
-24.1779
-13.5386
-1.72725
11.2326
24.9799
36.9525
-47.3214
-46.5069
-45.7734
-45.1385
-44.5375
-44.0363
-43.6088
-43.243
-42.9497
-42.7084
-42.52
-42.3617
-42.2368
-42.1369
-42.1114
-42.0783
-42.0545
-42.025
-42.0014
-41.9827
-41.9629
-41.9598
-41.9569
-41.9788
-41.9615
-41.9703
-41.939
-41.9158
-41.8955
-41.8754
-41.8628
-41.8481
-41.8502
-41.8423
-41.8621
-41.8626
-41.8445
-41.8422
-41.8478
-41.8586
-41.8787
-41.8803
-41.8849
-41.8642
-41.8659
-41.846
-41.8445
-41.8164
-41.8102
-41.8275
-41.8378
-41.8648
-41.8461
-41.8366
-41.8354
-41.8289
-41.8405
-41.8597
-41.8612
-41.8712
-41.8494
-41.8466
-41.8248
-41.8237
-41.799
-41.7927
-41.8092
-41.8149
-41.8394
-41.813
-41.8039
-41.827
-41.8286
-41.8366
-41.848
-41.8464
-41.8525
-41.8265
-41.8112
-41.7798
-41.7683
-41.7619
-41.7512
-41.7693
-41.77
-41.8186
-41.7322
-41.6997
-41.6928
-41.6937
-41.6714
-41.6512
-41.6353
-41.6308
-41.6073
-41.5901
-41.5652
-41.5544
-41.5372
-41.5081
-41.4654
-41.4512
-41.4595
-41.4709
-41.4949
-41.5674
-41.7068
-41.9334
-42.2815
-42.8036
-43.5808
-44.7157
-46.3293
-48.5667
-51.5296
-55.2278
-59.4821
-63.982
-68.4116
-72.5047
-76.0867
-79.0452
-81.3525
-82.9522
-83.8596
-84.231
-84.3121
-84.3139
-84.411
-84.528
-84.6621
-84.7599
-84.98
-85.7787
-86.495
-86.6731
-87.1516
-87.5129
-88.0903
-88.5562
-89.0439
-89.5454
-90.0228
-90.4736
-90.9279
-91.4077
-91.8032
-92.1987
-92.5741
-93.0034
-93.3342
-93.6888
-94.0178
-94.4809
-94.7937
-95.1422
-95.4883
-95.9335
-96.3946
-96.8803
-97.4689
-98.1326
-98.7887
-99.4789
-100.248
-101.08
-101.85
-102.41
-102.863
-103.226
-103.373
-103.232
-102.882
-102.281
-101.248
-99.7207
-97.691
-95.0467
-91.7363
-87.8401
-83.4072
-78.3961
-72.8336
-66.7755
-60.1793
-52.9579
-45.0702
-36.4024
-26.7875
-16.1824
-4.61468
7.50491
17.945
-45.0692
-44.6733
-44.3016
-43.942
-43.5995
-43.3111
-43.0328
-42.7868
-42.5785
-42.3997
-42.2432
-42.1102
-41.9932
-41.9025
-41.8183
-41.7533
-41.6579
-41.6119
-41.6159
-41.6009
-41.6113
-41.5999
-41.5867
-41.5579
-41.5479
-41.5134
-41.545
-41.5598
-41.5742
-41.5889
-41.5896
-41.5871
-41.5644
-41.5589
-41.5372
-41.541
-41.5613
-41.5563
-41.5514
-41.5435
-41.5249
-41.5231
-41.5184
-41.5394
-41.5372
-41.547
-41.5504
-41.5611
-41.5553
-41.5321
-41.52
-41.4907
-41.5076
-41.515
-41.5173
-41.5279
-41.5179
-41.5
-41.4979
-41.4892
-41.5129
-41.5129
-41.524
-41.5256
-41.541
-41.5369
-41.5136
-41.5044
-41.4759
-41.4972
-41.5031
-41.4838
-41.4815
-41.4731
-41.4629
-41.4657
-41.4608
-41.4851
-41.4898
-41.5049
-41.5068
-41.5039
-41.5057
-41.4805
-41.4745
-41.4339
-41.5111
-41.5289
-41.5248
-41.5113
-41.5266
-41.5359
-41.5462
-41.544
-41.5527
-41.5431
-41.543
-41.5513
-41.5756
-41.5789
-41.5845
-41.6183
-41.687
-41.7645
-41.8618
-41.9875
-42.1562
-42.4046
-42.7704
-43.2913
-44.0208
-45.0386
-46.4121
-48.2419
-50.6162
-53.5718
-57.0228
-60.8
-64.6877
-68.4687
-71.9553
-74.9964
-77.5075
-79.4187
-80.6927
-81.4229
-81.7735
-81.9468
-82.104
-82.3464
-82.6777
-83.0264
-83.3752
-83.872
-84.5147
-85.5179
-86.3188
-86.6422
-86.9826
-87.4895
-88.0867
-88.5881
-89.0626
-89.4787
-89.9113
-90.2797
-90.6601
-91.0132
-91.3553
-91.6192
-91.9374
-92.2102
-92.5289
-92.8476
-93.1997
-93.5333
-93.8904
-94.3092
-94.7699
-95.2385
-95.7541
-96.3569
-97.0456
-97.7811
-98.5967
-99.5098
-100.476
-101.428
-102.334
-103.19
-103.968
-104.541
-104.803
-104.753
-104.226
-103.123
-101.519
-99.4348
-96.6992
-93.347
-89.5279
-85.2271
-80.3961
-75.089
-69.2797
-62.8855
-55.8477
-48.0493
-39.3877
-29.8128
-19.3769
-8.53782
0.732644
-42.7043
-42.668
-42.6484
-42.5849
-42.5099
-42.446
-42.3554
-42.2726
-42.1988
-42.1281
-42.0557
-41.996
-41.9419
-41.8831
-41.8603
-41.8678
-41.9149
-41.9273
-41.91
-41.8935
-41.8734
-41.8803
-41.8808
-41.9182
-41.9044
-41.9311
-41.9107
-41.8949
-41.8753
-41.8587
-41.8525
-41.8418
-41.8467
-41.8409
-41.8575
-41.8537
-41.8384
-41.8417
-41.8461
-41.8582
-41.8797
-41.8826
-41.8869
-41.8659
-41.8667
-41.8496
-41.8471
-41.8184
-41.8149
-41.8323
-41.841
-41.8677
-41.8491
-41.839
-41.8368
-41.83
-41.8449
-41.8649
-41.8671
-41.8766
-41.8541
-41.8514
-41.8318
-41.8292
-41.8025
-41.7994
-41.817
-41.8217
-41.8459
-41.8208
-41.8119
-41.8358
-41.8338
-41.8462
-41.8577
-41.8567
-41.8647
-41.843
-41.8352
-41.8108
-41.8005
-41.7819
-41.7707
-41.788
-41.7845
-41.8038
-41.7429
-41.7341
-41.7485
-41.7595
-41.7538
-41.7503
-41.744
-41.7537
-41.7559
-41.7713
-41.7789
-41.7996
-41.8161
-41.8359
-41.8583
-41.9051
-41.9655
-42.0447
-42.1534
-42.3007
-42.4885
-42.7557
-43.1392
-43.6559
-44.3532
-45.2755
-46.4783
-48.0231
-49.9809
-52.3929
-55.2246
-58.389
-61.7503
-65.1448
-68.4083
-71.4018
-74.034
-76.253
-77.9893
-79.2749
-80.1949
-80.8699
-81.4269
-81.9523
-82.5004
-83.0627
-83.6827
-84.3858
-85.0929
-85.7461
-86.1916
-86.9435
-87.8697
-88.2704
-88.5557
-88.9982
-89.5053
-90.0112
-90.5079
-90.9774
-91.3439
-91.7258
-92.0999
-92.4862
-92.8236
-93.1716
-93.4485
-93.8052
-94.0861
-94.4047
-94.7005
-95.0359
-95.4343
-95.9094
-96.4027
-96.9189
-97.5428
-98.2763
-99.0726
-99.9239
-100.86
-101.852
-102.812
-103.764
-104.788
-105.75
-106.473
-106.889
-106.901
-106.351
-105.235
-103.636
-101.459
-98.6777
-95.4348
-91.7875
-87.661
-83.0425
-77.9576
-72.3635
-66.1571
-59.2084
-51.4166
-42.7407
-33.2633
-23.434
-15.0635
-40.2097
-40.4944
-40.7941
-41.0374
-41.211
-41.3759
-41.4736
-41.5336
-41.5814
-41.6125
-41.6157
-41.6197
-41.6043
-41.5848
-41.5604
-41.5339
-41.4744
-41.4387
-41.4723
-41.4846
-41.5136
-41.5097
-41.5141
-41.5078
-41.514
-41.4832
-41.5114
-41.5301
-41.5518
-41.5696
-41.5739
-41.5758
-41.5538
-41.547
-41.5294
-41.5249
-41.5437
-41.5498
-41.5492
-41.5416
-41.5247
-41.525
-41.5222
-41.544
-41.5412
-41.5503
-41.5522
-41.562
-41.5559
-41.5339
-41.5213
-41.4904
-41.5081
-41.5147
-41.5189
-41.5307
-41.5179
-41.5026
-41.5032
-41.4964
-41.5211
-41.5182
-41.5293
-41.5303
-41.5453
-41.5406
-41.5182
-41.5091
-41.4804
-41.5014
-41.5054
-41.4864
-41.4843
-41.4787
-41.4721
-41.4776
-41.4753
-41.5042
-41.5087
-41.5188
-41.5234
-41.5271
-41.5298
-41.5116
-41.5127
-41.4916
-41.5444
-41.5499
-41.5561
-41.5557
-41.5824
-41.6063
-41.6318
-41.6431
-41.6641
-41.6783
-41.7052
-41.7292
-41.7674
-41.8068
-41.8713
-41.9525
-42.0515
-42.168
-42.3259
-42.5275
-42.7858
-43.098
-43.4757
-43.9686
-44.613
-45.4498
-46.5172
-47.8615
-49.5237
-51.5392
-53.9025
-56.5781
-59.4802
-62.494
-65.484
-68.3257
-70.9321
-73.257
-75.2225
-76.8231
-78.08
-79.045
-79.8191
-80.4814
-81.0877
-81.6628
-82.2325
-82.85
-83.5471
-84.3288
-85.0341
-85.67
-86.1916
-87.0557
-88.013
-88.5338
-88.7827
-89.1503
-89.6283
-90.1284
-90.5761
-90.9457
-91.23
-91.5186
-91.8669
-92.1544
-92.4493
-92.7756
-93.1097
-93.4138
-93.7274
-94.0705
-94.4736
-94.9466
-95.5111
-96.1099
-96.7769
-97.5596
-98.4919
-99.5139
-100.585
-101.749
-102.962
-104.184
-105.474
-106.807
-107.93
-108.72
-109.218
-109.302
-108.773
-107.646
-106.007
-103.829
-101.16
-98.0915
-94.5657
-90.573
-86.2075
-81.4035
-76.0089
-69.9038
-62.9402
-55.0903
-46.4318
-37.416
-29.7621
-37.6614
-38.2595
-38.8425
-39.3976
-39.8277
-40.2251
-40.5298
-40.7573
-40.9621
-41.1238
-41.2339
-41.3325
-41.4073
-41.4549
-41.5015
-41.5604
-41.6643
-41.7288
-41.7326
-41.7407
-41.7398
-41.7649
-41.7821
-41.826
-41.8361
-41.8777
-41.86
-41.8506
-41.8357
-41.8251
-41.8261
-41.8206
-41.8269
-41.8245
-41.8441
-41.8513
-41.8388
-41.828
-41.8312
-41.8441
-41.8662
-41.8714
-41.8769
-41.858
-41.8619
-41.8511
-41.8449
-41.8169
-41.8114
-41.8258
-41.833
-41.8583
-41.8393
-41.8286
-41.822
-41.8138
-41.8331
-41.8533
-41.8575
-41.8678
-41.8471
-41.8482
-41.8354
-41.8301
-41.8023
-41.7992
-41.8136
-41.8157
-41.8387
-41.8166
-41.8097
-41.8436
-41.836
-41.8444
-41.8529
-41.8518
-41.8601
-41.8397
-41.835
-41.8132
-41.8058
-41.7857
-41.7784
-41.7946
-41.7931
-41.8087
-41.7596
-41.7477
-41.7812
-41.7868
-41.7988
-41.8076
-41.824
-41.8423
-41.8619
-41.8972
-41.9278
-41.9733
-42.0077
-42.0624
-42.1312
-42.2214
-42.3101
-42.4188
-42.566
-42.7646
-43.0068
-43.3079
-43.6871
-44.1608
-44.7737
-45.5468
-46.5164
-47.7123
-49.161
-50.885
-52.896
-55.1856
-57.7036
-60.375
-63.0897
-65.7428
-68.2575
-70.5933
-72.6711
-74.4696
-75.9839
-77.222
-78.2503
-79.1324
-79.925
-80.667
-81.387
-82.1244
-82.9203
-83.785
-84.6766
-85.5811
-86.4478
-87.2322
-87.8105
-88.3712
-89.2542
-90.0115
-90.193
-90.5691
-90.9323
-91.3186
-91.7259
-92.0978
-92.401
-92.7317
-92.9549
-93.2332
-93.507
-93.7546
-93.9693
-94.2208
-94.4981
-94.8145
-95.1904
-95.6415
-96.2039
-96.947
-97.8237
-98.792
-99.8713
-101.165
-102.681
-104.222
-105.707
-107.235
-108.766
-110.094
-111.193
-111.955
-112.061
-111.443
-110.344
-108.793
-106.691
-104.093
-101.065
-97.6744
-94.0174
-89.9767
-85.3938
-80.122
-74.0016
-66.9431
-59.0129
-50.6898
-43.5945
-35.0402
-35.9534
-36.8024
-37.6188
-38.3139
-38.9102
-39.4175
-39.8149
-40.1632
-40.4477
-40.6527
-40.8372
-40.9649
-41.0637
-41.1429
-41.1893
-41.1903
-41.2221
-41.2857
-41.3274
-41.378
-41.3978
-41.4208
-41.4277
-41.4495
-41.4635
-41.4913
-41.5162
-41.5383
-41.5549
-41.5625
-41.5699
-41.5496
-41.5377
-41.5287
-41.5296
-41.5478
-41.5564
-41.5524
-41.5451
-41.5336
-41.538
-41.5384
-41.5589
-41.5588
-41.5693
-41.5658
-41.5745
-41.5675
-41.5451
-41.5309
-41.5007
-41.5196
-41.526
-41.5284
-41.5362
-41.5248
-41.5152
-41.5192
-41.5154
-41.5388
-41.5409
-41.5506
-41.5484
-41.5633
-41.5559
-41.5327
-41.522
-41.4931
-41.5118
-41.5129
-41.4961
-41.4955
-41.4948
-41.4926
-41.5018
-41.5031
-41.5332
-41.5415
-41.549
-41.5517
-41.5561
-41.5549
-41.5408
-41.5459
-41.5317
-41.5624
-41.5695
-41.5622
-41.5793
-41.6119
-41.6403
-41.6779
-41.7007
-41.7217
-41.7643
-41.8177
-41.8467
-41.8868
-41.943
-42.0404
-42.1484
-42.2685
-42.4026
-42.5763
-42.794
-43.0763
-43.4258
-43.842
-44.3393
-44.9217
-45.6372
-46.5133
-47.5817
-48.8564
-50.3619
-52.1075
-54.0953
-56.2991
-58.6741
-61.1349
-63.5884
-65.975
-68.2597
-70.3702
-72.2863
-73.9725
-75.4162
-76.6436
-77.6955
-78.6277
-79.4842
-80.2914
-81.0778
-81.8799
-82.7043
-83.5313
-84.3594
-85.1802
-86.0179
-86.8163
-87.502
-88.1263
-88.6984
-89.5975
-90.3639
-90.5956
-90.8046
-91.1097
-91.3743
-91.7334
-92.1336
-92.4314
-92.7538
-93.0736
-93.3517
-93.6087
-93.8958
-94.221
-94.6149
-95.0441
-95.4684
-95.9419
-96.6018
-97.4423
-98.3923
-99.4186
-100.654
-102.249
-104.118
-105.966
-107.691
-109.511
-111.455
-113.198
-114.355
-114.894
-114.918
-114.506
-113.541
-111.929
-109.773
-107.21
-104.377
-101.359
-98.0276
-94.2293
-89.8282
-84.5816
-78.3344
-71.1541
-63.447
-56.8029
-32.3974
-33.5891
-34.716
-35.7834
-36.7413
-37.556
-38.2706
-38.8612
-39.3689
-39.7976
-40.1409
-40.4284
-40.6612
-40.8405
-40.9991
-41.138
-41.2969
-41.4139
-41.4631
-41.5165
-41.5531
-41.6027
-41.6428
-41.6992
-41.7327
-41.7747
-41.7796
-41.7853
-41.7871
-41.7845
-41.7889
-41.7887
-41.7961
-41.7933
-41.799
-41.8032
-41.803
-41.7992
-41.8042
-41.8163
-41.8364
-41.8441
-41.8541
-41.8427
-41.846
-41.8411
-41.8331
-41.8086
-41.8072
-41.8152
-41.814
-41.8316
-41.8155
-41.8082
-41.8061
-41.7995
-41.8102
-41.8245
-41.8318
-41.8467
-41.8346
-41.8346
-41.8217
-41.8109
-41.7929
-41.7936
-41.8027
-41.7988
-41.8141
-41.7948
-41.792
-41.8216
-41.8131
-41.8196
-41.8259
-41.8276
-41.839
-41.8247
-41.8279
-41.8195
-41.8112
-41.7876
-41.7816
-41.792
-41.7923
-41.8137
-41.7755
-41.7622
-41.8241
-41.8054
-41.8282
-41.8576
-41.8736
-41.9042
-41.9489
-41.9782
-42.0074
-42.0722
-42.1274
-42.2019
-42.291
-42.403
-42.5115
-42.6423
-42.8024
-43.0143
-43.2669
-43.5738
-43.9653
-44.4264
-44.9756
-45.6352
-46.4402
-47.4106
-48.5593
-49.9032
-51.4505
-53.2025
-55.1547
-57.2797
-59.5126
-61.7787
-64.0272
-66.2308
-68.3306
-70.2921
-72.0688
-73.6411
-75.0151
-76.2217
-77.2962
-78.2726
-79.1766
-80.0349
-80.878
-81.7265
-82.5816
-83.445
-84.308
-85.1833
-86.066
-86.9429
-87.8302
-88.6653
-89.4294
-89.9765
-90.5033
-91.1966
-91.6522
-91.7566
-91.9048
-92.2207
-92.488
-92.7724
-93.0501
-93.261
-93.4572
-93.6566
-93.8349
-94.0928
-94.4209
-94.7914
-95.2573
-95.8303
-96.5631
-97.4395
-98.4067
-99.5597
-101.127
-103.14
-105.378
-107.58
-109.733
-111.897
-113.912
-115.621
-117.023
-118.036
-118.455
-118.02
-116.838
-115.135
-113.065
-110.742
-108.187
-105.407
-102.381
-98.8949
-94.617
-89.3045
-82.9689
-75.8961
-69.6626
-29.6798
-31.1415
-32.555
-33.8766
-35.0757
-36.1078
-37.0192
-37.7934
-38.4498
-39.01
-39.4653
-39.8396
-40.1439
-40.3911
-40.5857
-40.7435
-40.8295
-40.9243
-41.0413
-41.1272
-41.2068
-41.2618
-41.3076
-41.3402
-41.3805
-41.4218
-41.4686
-41.5063
-41.5336
-41.5534
-41.5627
-41.5697
-41.5569
-41.5485
-41.5387
-41.5323
-41.5478
-41.5601
-41.5576
-41.553
-41.5462
-41.5536
-41.5621
-41.5846
-41.5895
-41.6082
-41.6061
-41.62
-41.5989
-41.5725
-41.5511
-41.5174
-41.5366
-41.548
-41.5563
-41.5622
-41.5459
-41.5342
-41.5398
-41.5428
-41.5666
-41.5778
-41.6033
-41.6056
-41.6078
-41.5883
-41.5601
-41.545
-41.5154
-41.5329
-41.5342
-41.5219
-41.5234
-41.5205
-41.5179
-41.5288
-41.5357
-41.5655
-41.5782
-41.5926
-41.5969
-41.5985
-41.5893
-41.5719
-41.5693
-41.5532
-41.5897
-41.6009
-41.599
-41.6044
-41.6182
-41.6487
-41.6901
-41.7268
-41.7744
-41.8326
-41.8879
-41.9284
-41.9442
-42.0236
-42.13
-42.2354
-42.3575
-42.502
-42.6871
-42.8953
-43.1616
-43.502
-43.8993
-44.3776
-44.9305
-45.5833
-46.359
-47.2671
-48.3167
-49.5341
-50.9185
-52.4821
-54.2219
-56.1338
-58.1685
-60.2619
-62.3698
-64.4751
-66.5205
-68.4743
-70.297
-71.958
-73.4532
-74.791
-75.9909
-77.0778
-78.0713
-78.9966
-79.8899
-80.7647
-81.6324
-82.496
-83.3612
-84.2275
-85.0911
-85.9479
-86.8053
-87.6676
-88.5326
-89.3164
-89.9409
-90.4973
-90.9315
-91.4092
-91.9149
-92.2781
-92.4179
-92.6505
-92.9432
-93.1856
-93.3939
-93.5975
-93.817
-94.0473
-94.3405
-94.665
-95.0501
-95.5387
-96.1524
-96.9625
-97.8838
-98.9076
-100.285
-102.312
-104.918
-107.578
-109.998
-112.386
-114.986
-117.56
-119.707
-121.255
-122.132
-122.087
-121.324
-120.217
-118.755
-116.78
-114.447
-112.092
-109.71
-107.14
-103.993
-99.8429
-94.5789
-88.3127
-82.4896
-26.9018
-28.6388
-30.3451
-31.9415
-33.3955
-34.6647
-35.7854