/*--------------------------------*- C++ -*----------------------------------*\
| =========                 |                                                 |
| \\      /  F ield         | OpenFOAM: The Open Source CFD Toolbox           |
|  \\    /   O peration     | Version:  4.1                                   |
|   \\  /    A nd           | Web:      www.OpenFOAM.org                      |
|    \\/     M anipulation  |                                                 |
\*---------------------------------------------------------------------------*/
FoamFile
{
    version     2.0;
    format      ascii;
    class       volScalarField;
    location    "38";
    object      p;
}
// * * * * * * * * * * * * * * * * * * * * * * * * * * * * * * * * * * * * * //

dimensions      [0 2 -2 0 0 0 0];

internalField   nonuniform List<scalar> 
204246
(
89.9522
14.6039
35.415
32.3843
22.7229
33.2149
20.1736
32.8185
19.3568
32.571
18.8692
33.1437
17.4123
33.4174
18.6635
30.829
25.0335
19.6265
31.7322
17.1446
32.9973
17.5015
31.6673
18.2536
31.5342
18.0403
32.3743
16.2542
33.2263
15.9034
33.1458
16.2679
32.1428
18.7081
28.3047
24.7781
18.0996
30.4346
16.7407
30.1479
17.138
30.3103
16.9209
31.3026
15.2685
32.2654
15.2323
32.1015
16.5156
30.0164
18.8778
27.5699
24.7214
17.7525
30.2752
16.5022
29.9652
16.9113
30.0809
16.6339
30.9784
14.8619
31.7999
14.6649
31.4596
15.7685
29.1822
17.9259
26.643
23.1997
17.5328
27.2032
16.1009
28.1228
15.6124
28.4547
15.0869
29.3892
13.2518
30.2495
13.0816
29.9832
14.2575
27.8179
16.5235
25.3834
21.9962
16.3561
26.1814
14.9781
27.3763
14.2866
28.5665
12.3664
29.549
11.9217
29.6085
11.9215
29.1305
12.7939
27.1012
13.8024
26.1497
14.7612
24.3005
18.3914
14.9769
23.4335
11.9549
24.9195
8.99653
24.8945
8.26206
23.1853
7.01227
21.4316
5.33083
19.0782
3.90373
15.7248
2.72533
10.8301
4.39273
-2.4026
5.11978
-6.89355
1.45643
-11.8877
-2.85956
-16.9466
-7.32239
-21.9498
-11.4328
-26.6676
-14.8485
-29.967
-17.7346
-30.7124
-21.4114
-25.9558
-31.9902
-19.5942
-33.4491
-17.0429
-32.2457
-14.8105
-30.3056
-12.6382
-28.0322
-10.5156
-25.6992
-8.5539
-23.2033
-7.08938
-19.5661
-7.48868
-11.5637
-15.4066
-3.03724
-15.246
0.929676
-12.5628
4.07563
-8.13068
6.38597
-2.06126
8.34594
3.39412
13.8552
9.74155
20.3815
20.0025
29.4
32.4222
41.4659
47.4758
50.5021
64.2838
68.0497
81.2654
90.809
104.285
118.252
133.419
153.554
172.084
200.448
223.032
266.067
295.183
382.68
398.434
605.392
44.6388
32.6501
26.3574
32.9987
25.0324
29.7858
23.9527
28.7887
23.4659
28.3032
23.0942
28.274
23.0178
27.2974
24.4268
25.077
27.6963
22.0827
27.6643
22.2537
27.3656
22.8195
26.9865
22.7017
27.1621
22.3272
27.6302
21.8515
27.4328
21.893
27.0011
22.3289
25.8728
23.7794
23.7725
26.665
21.1145
26.1946
21.5324
25.7556
21.439
25.9483
21.14
26.4764
20.8147
26.3352
21.152
25.8662
22.0926
24.8554
23.2971
23.11
26.296
20.771
25.9432
21.3127
25.5676
21.2541
25.7587
20.9201
26.2201
20.4992
25.955
20.6848
25.3218
21.421
24.1552
22.3419
22.3885
24.848
20.1606
24.2377
19.9571
24.1508
19.7626
24.2257
19.3393
24.6197
18.8808
24.3457
19.0884
23.7591
19.9039
22.6735
20.9566
20.9954
23.5956
18.9092
23.1631
18.7664
23.3559
18.4523
23.8747
18.0002
23.7552
17.9888
23.532
18.1092
23.0163
18.5647
22.2574
18.5925
21.5722
19.219
19.9604
21.301
16.8389
21.0521
15.962
20.9086
15.0089
19.7786
14.3979
18.4896
13.1857
16.9657
11.5842
14.8205
9.82463
12.1066
8.63674
7.50491
8.5698
2.56768
3.22267
-1.8923
-0.0742079
-6.3897
-4.50802
-11.1732
-9.2635
-16.0541
-13.9248
-20.523
-18.4154
-23.8442
-22.5168
-25.1897
-26.3544
-23.7311
-29.9295
-24.1728
-29.4064
-23.2853
-27.9361
-21.5467
-25.8469
-19.4999
-23.5201
-17.3846
-21.1551
-15.416
-18.6672
-14.0179
-15.3804
-13.997
-10.2867
-14.4671
-8.07728
-12.0513
-5.77299
-9.14495
-3.29687
-5.47825
-0.458556
-1.74609
3.54747
2.13085
7.34546
9.19943
13.6483
15.2546
22.0735
25.6564
31.7079
39.2032
43.1492
52.4473
58.7829
67.843
77.7733
88.227
101.119
112.545
130.046
143.06
167.087
180
214.929
221.775
295.987
261.629
395.972
15.896
38.7928
26.1253
32.4173
25.5642
30.1266
24.2024
28.7533
23.7249
28.177
23.4813
27.848
23.5398
27.0979
24.4432
25.5198
26.1668
23.6461
26.8106
22.9994
27.0536
22.9567
26.9832
22.8764
27.0296
22.6576
27.1865
22.3584
27.1198
22.3086
26.7913
22.6467
25.9201
23.6327
24.2175
25.1103
22.4944
25.5028
21.9459
25.6233
21.688
25.7761
21.4774
26.0192
21.3026
26.0294
21.4882
25.7448
22.1104
25.0024
23.1444
23.6589
24.7632
22.1309
25.2629
21.6979
25.444
21.4791
25.5924
21.2378
25.7682
20.97
25.658
21.0103
25.2126
21.4395
24.3076
22.2093
22.8493
23.4767
21.2486
23.7365
20.4758
23.917
20.0682
24.0257
19.6851
24.1684
19.355
24.0587
19.4026
23.6597
19.8942
22.8369
20.7827
21.4944
22.2072
19.9859
22.6506
19.2701
23.0607
18.8228
23.3838
18.4397
23.4313
18.2856
23.3026
18.3061
22.9195
18.5001
22.3146
18.6636
21.5335
19.1622
20.0961
20.204
18.0079
20.4229
16.6239
20.3626
15.5033
19.6433
14.6139
18.501
13.4466
17.0567
11.9538
14.9796
10.4869
11.913
9.43137
7.83654
7.36518
3.62906
3.96608
-0.391872
-0.583861
-4.65468
-5.26441
-9.33479
-10.1007
-14.2381
-14.8285
-18.8813
-19.1284
-22.6161
-22.8281
-24.5687
-26.1544
-24.8417
-28.5043
-24.7709
-28.7207
-23.5851
-27.5817
-21.7813
-25.5462
-19.6749
-23.1703
-17.5074
-20.7526
-15.5261
-18.2015
-14.1527
-15.0852
-13.706
-11.3989
-12.859
-8.96921
-10.9983
-6.60476
-8.03191
-4.07781
-4.23587
-0.807106
-1.48652
3.67307
2.65786
8.44767
7.94969
14.8582
16.35
21.9553
27.6669
32.2142
39.6951
43.9206
53.4728
59.501
69.9349
79.0313
90.6105
103.697
116.518
134.853
149.412
175.01
190.329
229.044
237.802
312.883
292.512
380.688
15.3633
28.2377
24.2551
29.2922
24.7757
28.4196
24.6523
27.319
24.842
26.6624
24.8139
26.2135
25.0704
25.4069
25.8397
24.4074
26.6205
23.9596
26.0632
24.1743
25.6752
24.3958
25.5347
24.2948
25.5886
24.1149
25.6445
24.018
25.3878
24.0715
24.9656
24.3409
24.2603
24.9531
23.3692
25.4808
22.9466
24.7847
23.0732
24.4076
22.9735
24.363
22.8551
24.419
22.8865
24.2218
23.1547
23.9113
23.6465
23.4602
24.2687
22.8056
25.0191
22.5893
24.4925
22.8569
24.241
22.829
24.2339
22.7037
24.2511
22.6598
23.9508
22.7825
23.4883
23.0652
22.8789
23.4363
22.0605
23.896
21.6433
23.2388
21.4946
22.865
21.3215
22.7072
21.0987
22.6245
21.0056
22.2861
21.1412
21.8463
21.4978
21.3001
21.9761
20.6068
22.5834
20.3307
22.1059
20.2901
21.9622
20.1987
21.9595
20.1468
21.7516
20.1734
21.514
20.24
21.187
20.3378
20.8244
20.309
20.2974
20.5675
19.3892
20.9975
18.5514
20.2702
18.0491
19.5746
17.5436
18.5554
16.9224
17.4422
15.9364
16.0899
14.6063
14.2131
12.9424
12.0062
11.3864
8.86999
9.08422
5.58562
5.06899
1.8834
0.707452
-2.2507
-4.18606
-7.00268
-9.27412
-12.0509
-14.4842
-16.9574
-19.5031
-21.2039
-23.8369
-24.2061
-26.9308
-25.8242
-28.8627
-27.0914
-28.6655
-26.4545
-27.3688
-25.0023
-25.1025
-22.9902
-22.5953
-20.8025
-20.1276
-18.6549
-17.7849
-16.9218
-15.3251
-15.7006
-12.8275
-13.73
-11.1168
-11.5446
-9.47843
-9.24548
-7.34914
-6.5764
-4.00816
-3.59699
-0.325183
-0.180911
3.68463
4.87975
8.25003
11.4594
14.6862
19.8934
23.8352
30.0751
34.5166
41.4213
47.6632
54.7813
63.4146
71.1034
82.5732
90.834
105.901
115.159
135.904
142.997
175.739
170.739
228.035
214.92
285.917
15.0092
28.9828
22.0518
28.6268
24.498
27.9185
25.1653
27.2276
25.116
26.6835
25.0198
26.1457
25.3049
25.4824
25.7106
24.8323
25.9184
24.7575
25.6
24.7156
25.4932
24.6427
25.5189
24.4936
25.5471
24.3738
25.5086
24.3416
25.3104
24.359
24.9587
24.5067
24.4097
24.7484
23.77
24.78
23.6438
24.3851
23.4922
24.2721
23.2562
24.2608
23.1331
24.2517
23.1877
24.1256
23.357
23.9278
23.665
23.634
24.0468
23.2353
24.3327
23.2575
24.0899
23.2268
24.1044
23.0718
24.1329
22.9555
24.0817
22.9473
23.8597
22.9955
23.5035
23.1238
23.0331
23.2833
22.4359
23.2919
22.2491
22.9197
21.9485
22.7201
21.6477
22.5959
21.4024
22.4528
21.3208
22.1878
21.3552
21.8588
21.5202
21.4625
21.7686
20.989
21.952
20.9054
21.737
20.7021
21.7248
20.5109
21.7061
20.4358
21.5709
20.3842
21.4047
20.3656
21.1572
20.3532
20.8598
20.3205
20.3522
20.452
19.6381
20.4369
19.154
19.8884
18.5557
19.3544
17.9093
18.6257
17.2087
17.6478
16.2846
16.4244
15.1658
14.6449
13.6642
12.3434
11.7861
9.68016
9.25067
6.70571
5.90487
3.03072
1.73156
-1.09642
-2.94963
-5.8075
-8.05757
-10.8286
-13.3768
-15.8086
-18.4975
-20.3093
-22.9437
-23.8561
-26.1951
-26.1999
-28.0051
-27.2171
-28.3055
-26.75
-27.0735
-25.3179
-24.7051
-23.1993
-22.0485
-20.8258
-19.614
-18.5546
-17.3327
-16.6669
-15.0925
-14.9118
-13.0093
-13.0673
-11.0615
-11.1398
-8.90439
-8.89585
-6.39071
-6.42903
-3.3635
-3.63175
0.131723
0.240581
3.93749
5.4954
9.05893
12.0994
15.7895
20.3928
24.6016
30.5849
35.4432
42.6739
49.1705
57.2828
66.0674
75.0733
86.996
96.7928
112.742
122.933
145.331
153.797
187.854
184.69
233.856
222.649
267.617
15.3903
25.8973
21.7342
26.1313
23.9931
26.3629
24.8186
26.2328
25.1528
25.9136
25.3334
25.4876
25.5905
25.1048
25.8074
24.6566
25.8325
24.7486
25.3748
24.9355
25.1074
24.9937
25.0306
24.9262
25.0145
24.857
24.9463
24.8556
24.7264
24.8783
24.4108
24.9069
24.0992
24.9923
23.7046
24.7809
23.6638
24.233
23.7118
23.8823
23.5826
23.7329
23.5283
23.6284
23.6108
23.4726
23.7829
23.3186
24.012
23.2002
24.2252
23.0743
24.2928
23.3084
23.9101
23.4893
23.7536
23.4897
23.6754
23.4603
23.5602
23.4884
23.3227
23.5295
23.0228
23.5229
22.7647
23.5462
22.3802
23.3605
22.2871
22.8285
22.2122
22.3966
22.0113
22.1345
21.8482
21.8839
21.8003
21.578
21.8335
21.2831
21.9211
21.029
22.009
20.8058
21.9761
20.9328
21.6004
20.9773
21.4067
20.9696
21.2581
20.9979
21.061
21.0151
20.8696
21.024
20.6651
20.998
20.4658
20.9001
20.1582
20.8742
19.7501
20.7136
19.4813
20.0987
19.2057
19.3931
18.7986
18.5839
18.1637
17.7047
17.2397
16.6756
16.086
15.2706
14.7138
13.3536
12.9477
10.9351
10.5263
8.06684
7.17987
4.63598
3.11751
0.473954
-1.5653
-4.3444
-6.84199
-9.67627
-12.5072
-15.1798
-18.1769
-20.356
-23.3176
-24.6503
-27.2542
-27.6897
-29.4915
-29.3115
-29.8379
-29.072
-28.6237
-27.5229
-26.296
-25.1524
-23.488
-22.4473
-20.8718
-20.0054
-18.4917
-17.9684
-16.2654
-16.2333
-14.2255
-14.4589
-12.464
-12.7246
-10.8169
-10.796
-8.92661
-8.55969
-6.53479
-5.93035
-3.72284
-2.77158
-0.453304
1.29345
3.68367
6.49545
9.10572
13.0773
16.3216
21.1111
25.2552
30.5754
36.2997
41.9812
49.7209
55.7321
65.9382
72.3675
85.867
92.1204
110.565
114.297
144.578
138.102
179.23
176.607
217.165
17.6802
26.4131
21.838
26.1167
24.0665
26.22
25.1122
26.1529
25.493
25.9838
25.5777
25.6464
25.7247
25.3134
25.7769
24.9701
25.6359
25.1332
25.2601
25.268
25.091
25.2265
25.0734
25.1169
25.0698
25.06
24.9936
25.0481
24.8611
25.0431
24.5908
25.0147
24.2599
24.9046
23.9702
24.6044
24.0123
24.1865
23.9758
23.8601
23.8389
23.7239
23.7539
23.6479
23.7866
23.5541
23.8662
23.4616
24.0184
23.3553
24.1387
23.3372
24.0747
23.601
23.785
23.7103
23.7224
23.6698
23.6809
23.6347
23.5733
23.6354
23.4247
23.6411
23.1759
23.6153
22.9059
23.4917
22.6305
23.2244
22.6319
22.8026
22.5076
22.4108
22.2914
22.1524
22.0986
21.9086
22.0022
21.6535
21.9616
21.4044
21.9609
21.1944
21.9388
21.0299
21.7702
21.2082
21.4583
21.2187
21.312
21.1687
21.1852
21.1569
21.0292
21.1226
20.8891
21.0777
20.7278
21.0006
20.554
20.9037
20.2485
20.8021
19.8953
20.5529
19.7445
20.0513
19.5004
19.4747
19.0874
18.818
18.4815
18.0462
17.6364
17.116
16.63
15.7576
15.3387
14.0372
13.6577
11.9279
11.3785
9.37735
8.3878
6.11884
4.64636
2.16077
0.155438
-2.51808
-5.01965
-7.80714
-10.7133
-13.4131
-16.5361
-18.8797
-21.9407
-23.6843
-26.2389
-27.2806
-28.9125
-29.3099
-29.7828
-29.3791
-28.9561
-27.8649
-26.6651
-25.2485
-23.695
-22.3367
-20.7452
-19.6807
-18.2917
-17.5956
-16.0705
-15.7817
-14.0961
-13.9196
-12.2678
-12.043
-10.4837
-10.0405
-8.45181
-7.97894
-6.01448
-5.61815
-3.18792
-2.4778
0.158127
1.58711
4.39267
6.81904
9.95698
13.3369
17.1236
21.5185
26.1866
31.4516
37.6327
43.6094
51.742
58.3047
68.9738
75.856
89.9514
96.7099
115.959
118.422
146.569
143.026
174.336
170.434
199.204
17.3322
25.6767
21.5715
24.9333
23.6181
25.1793
24.636
25.4255
25.1432
25.4249
25.4233
25.2705
25.5627
25.079
25.6267
24.8867
25.4479
25.0401
25.127
25.1967
24.9398
25.2169
24.8769
25.1768
24.8451
25.1481
24.8124
25.1279
24.6554
25.1436
24.4179
25.0857
24.2391
24.9254
24.0049
24.547
23.9407
24.1371
23.8731
23.783
23.7244
23.5101
23.6986
23.3695
23.7732
23.2926
23.8516
23.2169
23.9766
23.1724
24.0844
23.258
23.9802
23.5696
23.6926
23.7453
23.5775
23.7826
23.502
23.7812
23.4017
23.7721
23.2534
23.7777
23.0377
23.7221
22.8582
23.5618
22.6481
23.2061
22.6098
22.7752
22.4857
22.3739
22.2726
22.0166
22.1029
21.7267
21.9908
21.4732
21.9389
21.2223
21.9271
21.036
21.8945
20.9675
21.6881
21.1797
21.366
21.2783
21.1908
21.3068
21.0375
21.3395
20.8787
21.3358
20.7463
21.3049
20.6105
21.2373
20.4872
21.1209
20.3297
21.0402
20.0541
20.766
19.9845
20.2223
19.7856
19.7198
19.4233
19.1385
18.9096
18.4438
18.187
17.5727
17.2882
16.4134
16.1191
14.8885
14.5424
12.9388
12.3858
10.4729
9.51639
7.362
5.86192
3.46685
1.40278
-1.25947
-3.89367
-6.79576
-9.91656
-12.9045
-16.3224
-19.1279
-22.5125
-24.8087
-27.6918
-29.184
-31.1018
-31.6994
-32.2343
-31.9092
-31.2068
-30.1728
-28.6603
-27.2069
-25.3013
-23.8714
-22.0255
-20.9236
-19.2597
-18.6598
-17.04
-16.8249
-15.2349
-15.0842
-13.7396
-13.5275
-12.2268
-11.9629
-10.6218
-10.2314
-8.71547
-8.17463
-6.50679
-5.62706
-3.8684
-2.39845
-0.497385
1.68981
3.92586
6.83126
9.63155
13.1532
16.896
20.883
25.9586
30.3317
37.1924
41.8199
50.9526
55.6583
67.6568
72.1428
89.4961
90.0788
114.73
113.022
141.113
141.386
168.018
19.155
26.6493
22.5026
25.5346
24.194
25.479
25.0711
25.614
25.5526
25.5998
25.7437
25.4901
25.8028
25.3076
25.7586
25.118
25.512
25.254
25.2082
25.4055
25.0532
25.4009
24.9746
25.3566
24.9726
25.3169
24.9396
25.3192
24.8094
25.3106
24.61
25.2078
24.416
25.0177
24.2254
24.6343
24.1807
24.1842
24.137
23.8559
23.9789
23.6077
23.8898
23.4657
23.8994
23.3861
23.9767
23.3354
24.0735
23.3158
24.0835
23.4276
23.9483
23.7133
23.6997
23.8403
23.6537
23.8879
23.5983
23.9008
23.5024
23.9145
23.3665
23.9062
23.1708
23.8413
23.0037
23.6343
22.879
23.2648
22.884
22.8475
22.762
22.4889
22.5482
22.1515
22.3497
21.8507
22.2036
21.5832
22.105
21.3422
22.0259
21.1864
21.9103
21.1348
21.663
21.3393
21.361
21.4097
21.1978
21.4266
21.0573
21.4255
20.9235
21.4149
20.7892
21.3789
20.6654
21.2933
20.5421
21.1619
20.3515
21.0275
20.2005
20.7177
20.2177
20.2534
20.0516
19.8435
19.7337
19.3598
19.2921
18.7542
18.6843
17.9845
17.8956
16.9852
16.8578
15.7135
15.4718
14.0828
13.5748
11.9863
11.0421
9.20477
7.75333
5.62103
3.59031
1.1235
-1.50012
-4.28695
-7.4694
-10.4559
-14.021
-17.0033
-20.5898
-23.2653
-26.3468
-28.4332
-30.4793
-31.721
-32.5226
-32.6913
-32.344
-31.3637
-29.8727
-28.1534
-26.0661
-24.2799
-22.2362
-20.9074
-19.2399
-18.4881
-16.9664
-16.5463
-15.0741
-14.7199
-13.2936
-12.9556
-11.6716
-11.225
-9.98562
-9.66273
-8.16018
-7.81246
-6.06015
-5.41227
-3.49795
-2.37362
-0.19799
1.54188
4.12075
6.51158
9.71211
12.7756
16.8553
20.5217
25.9508
30.096
37.2553
41.7384
51.063
55.6505
67.6062
71.5713
88.0637
89.0351
110.127
108.592
130.555
130.182
151.158
19.4683
26.4626
22.3782
25.1533
23.8643
24.9575
24.6979
25.1117
25.1972
25.2136
25.4414
25.2011
25.5544
25.1116
25.5584
24.9672
25.3539
25.1191
25.0787
25.2172
24.9394
25.2233
24.8664
25.2353
24.8358
25.2626
24.8404
25.2721
24.7214
25.3019
24.5694
25.2098
24.4296
24.9971
24.223
24.5812
24.1019
24.1306
23.963
23.7559
23.7478
23.4553
23.6368
23.2592
23.7044
23.174
23.79
23.142
23.9026
23.1993
23.9661
23.3491
23.8716
23.6616
23.6585
23.816
23.5729
23.8904
23.5253
23.9314
23.4553
23.9456
23.3318
23.9459
23.1709
23.8663
23.0315
23.6195
22.9118
23.2218
22.8303
22.8104
22.661
22.4455
22.4117
22.0849
22.2049
21.756
22.0559
21.4684
21.9617
21.2275
21.8788
21.0779
21.787
21.0744
21.5683
21.2788
21.2989
21.3872
21.1505
21.4386
21.0192
21.4704
20.8926
21.4842
20.7743
21.476
20.6504
21.417
20.5718
21.2939
20.4741
21.1655
20.3479
20.8726
20.3603
20.4139
20.2307
20.0677
19.952
19.6362
19.5704
19.105
19.0484
18.429
18.3501
17.5421
17.4146
16.3812
16.1308
14.8625
14.3654
12.8551
11.9832
10.2164
8.83385
6.76598
4.78218
2.33681
-0.301558
-3.17152
-6.44971
-9.71575
-13.4767
-16.9489
-20.87
-24.1863
-27.7306
-30.3672
-32.9582
-34.4222
-35.4878
-35.5388
-35.0002
-33.8377
-32.1172
-30.1249
-27.7587
-25.5798
-23.3153
-21.5815
-19.7878
-18.9671
-17.4978
-17.1484
-15.8896
-15.6476
-14.5328
-14.2771
-13.2241
-12.9807
-11.8968
-11.6428
-10.4744
-10.0551
-8.81655
-8.11908
-6.74752
-5.65007
-4.08728
-2.5235
-0.644633
1.38107
3.78225
6.23527
9.45815
12.2825
16.6496
19.7985
25.7266
29.0952
36.9934
40.485
50.9857
53.5666
68.4673
69.3385
87.5511
89.4962
108.503
110.186
129.52
20.5268
27.6426
23.3511
26.1196
24.7284
25.5567
25.3453
25.5042
25.6667
25.5162
25.8334
25.4404
25.862
25.3214
25.7941
25.1633
25.4889
25.3302
25.2039
25.421
25.0238
25.4249
24.9414
25.4244
24.9577
25.4157
24.9546
25.444
24.8658
25.467
24.7682
25.3475
24.6334
25.1398
24.4761
24.7368
24.3735
24.2487
24.2599
23.8652
24.0467
23.5646
23.9126
23.3808
23.8757
23.2868
23.9264
23.2613
24.0098
23.2867
24.0122
23.4387
23.8862
23.716
23.6815
23.8736
23.6359
23.9539
23.6014
24.0072
23.5322
24.0428
23.4344
24.0586
23.2883
24.0095
23.1866
23.7697
23.1257
23.3716
23.0856
22.9619
22.938
22.5971
22.7028
22.2369
22.475
21.9044
22.2938
21.6042
22.1481
21.3496
22.0235
21.191
21.8575
21.1831
21.6016
21.3799
21.322
21.4761
21.1713
21.5059
21.0487
21.518
20.9242
21.5369
20.7987
21.5303
20.6882
21.4583
20.6128
21.3312
20.5018
21.1976
20.4497
20.8924
20.5554
20.4909
20.4509
20.1952
20.2295
19.84
19.9156
19.3974
19.4872
18.8421
18.916
18.1318
18.1444
17.2106
17.0813
15.9959
15.6069
14.3691
13.584
12.1301
10.8411
9.08559
7.18902
5.00576
2.41664
-0.295159
-3.60744
-6.86881
-10.8015
-14.4537
-18.6698
-22.3802
-26.3087
-29.5889
-32.5522
-34.8088
-36.3606
-37.2188
-37.2364
-36.535
-34.8629
-32.711
-29.8342
-27.2184
-24.271
-22.3113
-20.1054
-19.2436
-17.6545
-17.1815
-15.8348
-15.3931
-14.0953
-13.6611
-12.5602
-12.1097
-11.1952
-11.0961
-10.0214
-9.76501
-8.63239
-8.18668
-6.88733
-6.12319
-4.54273
-3.38304
-1.39987
0.167177
2.7158
4.70256
8.02635
10.3836
14.8542
17.4879
23.4497
26.2826
34.0695
36.9124
47.2758
49.1841
62.2342
64.2599
78.6181
80.4708
96.2112
97.4816
114.03
20.4993
27.438
23.3478
25.9513
24.5604
25.3176
25.1408
25.2846
25.4706
25.3294
25.668
25.2743
25.7095
25.1985
25.6527
25.0892
25.369
25.211
25.0917
25.2414
24.937
25.2055
24.8739
25.2464
24.8699
25.3244
24.8581
25.3958
24.7932
25.4482
24.7082
25.3731
24.6608
25.1254
24.503
24.7034
24.3346
24.2128
24.0926
23.7632
23.7714
23.3844
23.5677
23.1417
23.6106
23.0642
23.669
23.0953
23.8116
23.2065
23.9018
23.3777
23.8497
23.6931
23.6638
23.8706
23.5922
23.9707
23.568
24.044
23.5231
24.0938
23.4271
24.1141
23.3064
24.0353
23.2323
23.7527
23.1704
23.3499
23.0273
22.9135
22.8469
22.5346
22.5738
22.1518
22.3258
21.7863
22.1364
21.4769
21.9919
21.2341
21.8566
21.0944
21.7255
21.1201
21.5234
21.3151
21.2708
21.4507
21.1343
21.5309
21.0247
21.5821
20.9201
21.6106
20.8069
21.6188
20.7127
21.5604
20.6609
21.4471
20.6136
21.2988
20.5822
21.0277
20.6533
20.6334
20.6255
20.3729
20.4346
20.0551
20.1767
19.6773
19.8211
19.2132
19.3237
18.6041
18.6491
17.7937
17.7018
16.6959
16.3731
15.1945
14.4987
13.1401
11.9445
10.2985
8.5207
6.43762
3.97438
1.30351
-1.92659
-5.28739
-9.28066
-13.2976
-17.8242
-22.1623
-26.7016
-30.6916
-34.5045
-37.2884
-39.3927
-40.2532
-40.3114
-39.15
-37.3624
-34.6823
-31.5821
-28.156
-24.9818
-22.021
-19.7984
-18.6502
-17.4298
-17.0655
-16.2068
-16.0414
-15.2017
-14.843
-14.0289
-13.5675
-12.7822
-12.5802
-11.7782
-11.5108
-10.5956
-10.1296
-9.06
-8.32891
-7.0662
-6.04845
-4.50868
-3.21631
-1.22041
0.345939
3.01793
4.87616
8.48089
10.5683
15.4525
17.6687
24.254
26.3626
35.0737
37.2185
47.9263
50.4449
63.3096
65.9209
80.2787
81.9682
97.5275
22.1712
28.5988
24.4875
27.0407
25.5253
26.1444
25.8446
25.7733
25.96
25.6547
26.0482
25.5458
25.9832
25.466
25.8727
25.3677
25.5315
25.4332
25.2346
25.4215
25.0164
25.3748
24.9233
25.3719
24.9296
25.4368
24.9497
25.5218
24.9123
25.5849
24.9073
25.4533
24.8417
25.2579
24.7587
24.8883
24.6187
24.389
24.4119
23.9253
24.1183
23.5424
23.8889
23.3084
23.7963
23.1841
23.8113
23.156
23.8785
23.2127
23.9428
23.3789
23.8526
23.6724
23.6728
23.8747
23.5934
23.9936
23.5814
24.0781
23.5471
24.1371
23.494
24.1793
23.4181
24.1576
23.3833
23.9254
23.3772
23.5194
23.2922
23.1052
23.1052
22.7138
22.8536
22.3231
22.6002
21.9655
22.3745
21.649
22.1762
21.379
22.0167
21.1752
21.8076
21.1784
21.5625
21.3724
21.3029
21.4921
21.152
21.5565
21.0293
21.5966
20.9162
21.6258
20.8126
21.6305
20.7266
21.5832
20.6816
21.4742
20.6332
21.3332
20.6446
21.0673
20.7856
20.676
20.7804
20.4714
20.62
20.2184
20.3982
19.9134
20.1056
19.5485
19.728
19.0807
19.1973
18.4692
18.4551
17.6319
17.3911
16.4858
15.8692
14.8315
13.7398
12.4181
10.7723
8.97421
6.62182
4.14272
0.940359
-2.37236
-6.48713
-10.6674
-15.5437
-20.3573
-25.4336
-30.1719
-34.5593
-38.2477
-41.1535
-43.0661
-44.0478
-43.9442
-42.4993
-39.9857
-36.1477
-32.1609
-27.5184
-24.0888
-20.6109
-19.2421
-17.7279
-17.2659
-16.1612
-15.7096
-14.5601
-14.0068
-13.0508
-12.68
-12.0102
-12.0664
-11.3533
-11.3155
-10.7626
-10.5753
-9.86472
-9.47055
-8.45756
-7.79437
-6.39237
-5.51507
-3.63435
-2.52787
-0.0247094
1.28239
4.72775
6.22436
10.8863
12.5628
18.6886
20.4624
28.2652
30.1831
39.7212
41.7331
52.9293
54.9167
67.7875
69.0762
83.2219
22.2811
28.4478
24.6017
26.8882
25.5406
26.1719
25.858
25.8323
25.9998
25.7292
26.0409
25.6243
25.9999
25.4996
25.8417
25.3756
25.5305
25.3094
25.1768
25.2935
24.9511
25.2057
24.8381
25.239
24.8368
25.3575
24.8525
25.4852
24.8382
25.5765
24.8434
25.5455
24.8601
25.3425
24.8175
24.8984
24.6374
24.3965
24.3029
23.8455
23.8439
23.3313
23.5001
22.992
23.5018
22.9425
23.5729
22.9934
23.725
23.1253
23.8883
23.355
23.8505
23.6942
23.6766
23.9305
23.6038
24.0429
23.5952
24.1383
23.5736
24.2085
23.5115
24.2497
23.4351
24.2153
23.4373
23.9294
23.4384
23.5253
23.2929
23.0706
23.0609
22.6585
22.7581
22.2444
22.467
21.8355
22.2441
21.4802
22.0662
21.2081
21.8877
21.075
21.7039
21.1029
21.5093
21.3066
21.2677
21.4772
21.137
21.5958
21.0132
21.7009
20.896
21.7431
20.8153
21.7513
20.7472
21.6959
20.726
21.5916
20.7214
21.4414
20.7531
21.1968
20.8952
20.8124
20.95
20.6184
20.8425
20.3856
20.687
20.1356
20.4585
19.8629
20.1276
19.4971
19.6938
18.9872
19.0677
18.2812
18.1362
17.3144
16.7612
15.8837
14.915
13.766
12.2979
10.7103
8.58881
6.33435
3.38372
0.208057
-3.73772
-8.01326
-12.9567
-18.2094
-23.8754
-29.4548
-34.9949
-39.6199
-43.4875
-45.7817
-47.167
-46.7389
-45.3351
-42.2248
-38.2053
-32.9874
-28.0156
-22.8973
-19.2082
-17.1699
-16.4677
-16.2767
-16.1813
-16.5252
-16.0568
-15.4878
-14.6428
-13.7495
-13.3437
-13.1555
-12.8376
-12.5287
-12.0328
-11.6249
-10.9736
-10.469
-9.59875
-8.9933
-7.82198
-7.14944
-5.57107
-4.7714
-2.72671
-1.75543
0.965373
2.06304
5.80125
6.95313
12.0256
13.0842
19.7932
21.1246
29.5088
31.193
41.2456
43.0187
54.8596
56.0295
69.5386
24.0963
29.8393
25.9064
27.9588
26.4145
26.9268
26.5199
26.2709
26.3878
25.9976
26.3236
25.811
26.2247
25.6862
26.021
25.6188
25.6688
25.5685
25.3112
25.4339
25.0158
25.3275
24.8788
25.3006
24.8761
25.4136
24.9084
25.5718
24.9151
25.6503
24.9258
25.596
25.0123
25.3835
24.9118
25.0937
24.8941
24.5918
24.6381
24.0645
24.2411
23.5586
23.8604
23.2018
23.6794
23.0386
23.6602
23.0126
23.7185
23.0758
23.8482
23.2714
23.8363
23.6064
23.6477
23.8519
23.5854
24.0358
23.5453
24.1371
23.5399
24.2083
23.5229
24.2777
23.5114
24.2951
23.5607
24.0957
23.6154
23.701
23.5339
23.2748
23.2821
22.844
22.9965
22.4089
22.7241
22.0267
22.4534
21.6702
22.2205
21.3554
22.0205
21.1246
21.7731
21.1204
21.5386
21.315
21.2802
21.4775
21.1329
21.6001
20.99
21.6923
20.8709
21.7328
20.7859
21.7453
20.7228
21.7107
20.7042
21.6105
20.7133
21.4656
20.7733
21.2175
20.9604
20.8291
21.0305
20.666
20.9414
20.4662
20.8042
20.255
20.6205
20.0225
20.3686
19.782
20.0209
19.4349
19.5418
18.9844
18.7858
18.311
17.7561
17.1661
16.307
15.4432
14.1538
12.849
10.9492
8.91923
6.14111
3.09479
-0.833232
-5.20631
-10.5287
-16.2679
-22.5972
-28.9813
-35.4035
-41.1691
-46.3067
-49.8471
-52.713
-53.7327
-53.3531
-51.363
-46.8734
-41.1654
-33.6532
-27.2339
-20.7308
-17.6413
-16.1357
-16.2937
-15.3641
-15.331
-14.4504
-14.4021
-13.2644
-12.7886
-12.1068
-12.1913
-12.1041
-12.1292
-12.2289
-12.247
-12.163
-11.9617
-11.5429
-11.112
-10.2814
-9.78665
-8.51649
-8.01558
-6.34701
-5.73497
-3.32821
-2.6279
0.749275
1.5513
6.15092
6.80154
12.7858
13.5392
21.0463
21.9074
30.9603
31.8296
42.6753
43.3235
56.028
24.3339
29.7614
26.2785
27.9983
26.8039
27.0635
26.8067
26.5473
26.6899
26.2204
26.5491
26.0137
26.3794
25.829
26.145
25.7197
25.7348
25.5779
25.3808
25.3961
25.0192
25.2222
24.7845
25.212
24.7674
25.3587
24.8025
25.5501
24.859
25.6719
24.9024
25.7231
24.9584
25.6109
25.1023
25.1469
24.9207
24.6358
24.625
24.0354
24.0188
23.3451
23.47
22.8376
23.3851
22.8042
23.4702
22.8886
23.6322
23.0203
23.8272
23.2925
23.8404
23.6997
23.6696
23.9694
23.5799
24.1057
23.6125
24.2189
23.5972
24.3033
23.541
24.356
23.5127
24.3735
23.5906
24.136
23.7432
23.7242
23.5665
23.2916
23.2892
22.829
22.9628
22.3559
22.6281
21.9025
22.375
21.5056
22.1717
21.1991
21.9534
21.0509
21.7175
21.0383
21.5033
21.2723
21.2619
21.4798
21.1323
21.6664
20.9745
21.8147
20.8527
21.8791
20.7785
21.8781
20.7391
21.8246
20.7449
21.7203
20.7781
21.5775
20.8582
21.3434
21.0575
20.968
21.217
20.7611
21.1907
20.5932
21.0955
20.4403
20.96
20.2915
20.7658
20.119
20.4958
19.9016
20.1012
19.5957
19.4752
19.0785
18.6255
18.1845
17.4772
16.8105
15.7176
14.6838
13.0563
11.4049
8.99356
6.3089
2.75555
-1.38052
-6.39774
-12.2354
-18.9325
-26.0984
-33.7532
-40.6681
-47.0988
-51.2705
-55.0252
-56.7027
-57.0026
-54.7506
-50.6991
-43.6609
-35.8728
-26.4384
-18.1972
-13.0373
-12.6192
-14.0264
-15.7003
-17.4402
-17.707
-16.5077
-15.2646
-13.6811
-13.1727
-13.0422
-13.4081
-13.1843
-13.1326
-12.6463
-12.5911
-12.168
-12.0252
-11.449
-11.0091
-10.4527
-9.53287
-9.21811
-7.85848
-7.56586
-5.72344
-5.38603
-2.83459
-2.4694
1.02604
1.32687
6.02307
6.20789
12.4562
13.3297
20.7582
21.8153
31.0269
31.9504
43.7258
26.5407
31.1739
27.7844
28.882
27.6434
27.6457
27.2869
26.879
26.9483
26.4434
26.7076
26.1662
26.5089
25.9767
26.2713
25.872
25.9383
25.7146
25.4683
25.5836
25.0732
25.3486
24.8555
25.2258
24.8004
25.3892
24.8047
25.6023
24.849
25.6808
24.9217
25.6509
25.063
25.4789
25.0735
25.2852
25.2045
24.8257
24.9862
24.347
24.4916
23.709
23.8788
23.1034
23.4905
22.8484
23.48
22.8224
23.572
22.8865
23.7085
23.1549
23.7272
23.5749
23.5562
23.884
23.5069
24.0947
23.4887
24.2104
23.4848
24.2958
23.4955
24.354
23.5324
24.3955
23.6976
24.2232
23.8352
23.9746
23.7623
23.5049
23.493
22.9808
23.1726
22.504
22.874
22.0936
22.5662
21.6843
22.2844
21.3161
22.027
21.0589
21.78
20.98
21.5132
21.2133
21.2526
21.4477
21.0956
21.6892
20.898
21.8378
20.764
21.8949
20.6964
21.8986
20.6644
21.8603
20.6784
21.7629
20.7273
21.6153
20.8366
21.3627
21.0787
20.9783
21.2437
20.7441
21.2405
20.5748
21.1572
20.4415
21.024
20.3046
20.8841
20.1926
20.6713
20.0696
20.3858
19.8769
19.9577
19.6061
19.2456
18.9831
18.3904
17.9666
17.0645
16.3072
14.9632
13.6105
11.5752
9.22001
6.04602
2.12198
-2.86044
-8.85256
-16.1805
-24.0724
-32.9189
-41.4792
-49.9263
-55.1388
-60.3869
-63.6957
-65.5542
-65.8066
-62.7165
-56.3498
-46.4297
-36.4059
-23.1595
-13.6708
-10.6773
-12.3636
-12.3026
-12.9684
-14.3283
-16.5012
-14.1077
-13.1157
-11.1784
-11.226
-11.7984
-12.1312
-13.3487
-13.4145
-13.7543
-13.6721
-13.8718
-13.486
-13.2308
-12.6619
-12.0751
-11.8097
-10.987
-10.9092
-9.41664
-9.35401
-7.15523
-6.99363
-4.00914
-3.85902
-0.0758195
-0.452902
4.79181
4.70115
11.3349
10.7753
19.4547
18.7355
30.7278
27.2765
30.8191
28.6237
29.0801
28.31
28.0568
27.8288
27.2822
27.4409
26.7493
27.108
26.4067
26.7816
26.1689
26.3987
26.0597
26.0018
25.9569
25.5883
25.6124
25.1836
25.3057
24.8019
25.2381
24.632
25.4416
24.6612
25.6146
24.8159
25.7395
24.8933
25.8251
25.0064
25.6992
25.227
25.3449
25.2309
24.8854
24.8715
24.353
24.3178
23.4957
23.6637
22.7948
23.2899
22.6436
23.3811
22.7422
23.5991
22.8719
23.7993
23.2103
23.7812
23.6936
23.6032
24.003
23.5307
24.2288
23.5151
24.3331
23.4935
24.4184
23.443
24.4779
23.4908
24.4652
23.6731
24.2701
23.9944
23.9915
23.9107
23.561
23.6154
23.0593
23.1968
22.4613
22.824
21.9955
22.5618
21.5742
22.33
21.2278
22.071
20.9988
21.8177
20.9489
21.4836
21.2203
21.2078
21.5238
21.0034
21.8273
20.8143
22.0243
20.7029
22.0647
20.6565
22.0422
20.6468
21.9829
20.6872
21.8695
20.7683
21.7168
20.911
21.4678
21.1953
21.0841
21.4276
20.8207
21.4756
20.6899
21.4374
20.5677
21.3519
20.5152
21.2454
20.4488
21.1222
20.4302
20.8873
20.3788
20.5253
20.2459
19.9644
19.8443
19.3548
19.0944
18.3575
17.8299
16.7413
15.7214
14.062
12.1365
9.48229
6.06559
1.61852
-4.08138
-11.279
-19.6204
-29.3552
-38.8249
-48.7173
-54.396
-59.6661
-63.9704
-67.3594
-68.4655
-67.5807
-61.8367
-52.6678
-38.4644
-22.8663
-7.50473
-3.47084
-9.66786
-15.2545
-18.3886
-19.0032
-18.9873
-16.5576
-13.7707
-11.9954
-12.3194
-13.5016
-13.1959
-13.4836
-12.9317
-13.2916
-13.1177
-13.747
-13.2444
-13.4781
-12.7595
-12.3964
-12.1018
-11.5271
-11.4946
-10.5752
-10.7459
-9.35168
-9.43502
-7.20318
-7.57634
-4.777
-6.37607
-1.98531
-1.68743
2.84048
3.3174
9.07525
8.74252
18.1294
30.1078
31.6487
29.633
29.9194
28.7815
28.522
28.1489
27.5216
27.6024
26.9131
27.1369
26.5632
26.7565
26.3501
26.414
26.1929
26.1056
26.0504
25.7296
25.9192
25.2817
25.5594
24.8798
25.4456
24.6381
25.5353
24.6794
25.5474
24.7577
25.6611
24.8655
25.6286
25.0211
25.4909
25.1386
25.3405
25.3221
25.1041
25.3004
24.7113
24.9508
23.9781
24.0996
23.1332
23.299
22.621
23.3684
22.6075
23.4653
22.7606
23.4866
23.0858
23.6329
23.4977
23.5282
23.8923
23.4279
24.1563
23.3789
24.3295
23.3453
24.4288
23.3572
24.4689
23.5033
24.427
23.7365
24.2518
24.0375
24.1456
24.124
23.7584
23.7407
23.142
23.4433
22.5826
23.0829
22.1097
22.7867
21.6601
22.4487
21.264
22.1529
20.9565
21.8943
20.9109
21.4914
21.1667
21.1391
21.5381
20.8974
21.8534
20.7476
22.0208
20.6577
22.0601
20.6082
22.064
20.5726
22.0403
20.5988
21.9397
20.6855
21.767
20.8712
21.4558
21.2421
21.0121
21.5301
20.7513
21.5278
20.616
21.4702
20.4937
21.3533
20.4349
21.2642
20.3836