/*--------------------------------*- C++ -*----------------------------------*\
| =========                 |                                                 |
| \\      /  F ield         | OpenFOAM: The Open Source CFD Toolbox           |
|  \\    /   O peration     | Version:  4.1                                   |
|   \\  /    A nd           | Web:      www.OpenFOAM.org                      |
|    \\/     M anipulation  |                                                 |
\*---------------------------------------------------------------------------*/
FoamFile
{
    version     2.0;
    format      ascii;
    class       volScalarField;
    location    "21.5";
    object      p;
}
// * * * * * * * * * * * * * * * * * * * * * * * * * * * * * * * * * * * * * //

dimensions      [0 2 -2 0 0 0 0];

internalField   nonuniform List<scalar> 
204246
(
170.339
7.62427
65.1501
35.1025
31.2012
39.941
21.0084
39.6642
17.1002
38.8929
15.2891
38.6081
13.6361
37.3244
15.9875
32.1564
25.3964
16.9689
34.3449
12.5208
36.5829
12.074
35.5033
12.4758
35.5434
11.9545
36.6197
9.99323
37.4349
9.95395
36.7399
11.2956
34.3302
15.5243
27.8497
24.9099
14.5582
32.5973
11.5951
33.1573
11.1886
33.7026
10.4158
34.9161
8.48049
35.6883
8.79567
34.655
11.2295
30.9573
15.5104
26.1316
24.3424
13.4454
31.9754
10.8314
32.6406
10.65
33.31
10.0063
34.6096
8.10416
35.4118
8.35755
34.3621
10.6207
30.6482
14.5748
25.9526
22.7417
14.0128
28.7051
11.0955
30.7037
9.74679
31.65
8.63414
32.9625
6.50023
33.731
6.65224
32.6597
8.91249
28.9464
12.9519
24.2728
21.3051
12.3123
27.5448
9.33136
30.0229
7.60339
32.1025
5.01875
33.5414
4.41418
33.5666
4.75072
32.5715
6.44865
29.6223
8.6111
27.4395
11.1717
23.8041
17.5237
11.5075
25.0576
6.75515
28.1296
2.9324
28.8987
2.0981
27.4909
1.16633
25.8267
0.0815554
23.3856
-0.60577
19.3939
0.352417
12.5795
5.57994
-3.66855
10.1436
-11.1617
8.65392
-16.2869
4.84048
-20.9163
0.2721
-25.5155
-4.47896
-29.6327
-9.20347
-32.2037
-14.3142
-32.1386
-20.9339
-25.8967
-35.7408
-18.0692
-39.7372
-14.9698
-39.993
-12.5713
-38.7809
-10.3779
-36.5967
-8.43917
-33.7583
-7.02332
-30.072
-6.75718
-24.4253
-9.11847
-13.1479
-20.1775
-2.00683
-21.8676
3.50113
-20.3321
7.54094
-17.1724
11.3455
-12.5373
15.1534
-6.20046
19.7388
1.83912
25.4076
12.0318
31.8939
25.201
39.6677
43.3197
47.9437
59.6552
66.6376
76.9161
89.5423
100.074
117.783
128.683
153.212
162.306
200.062
209.787
271.796
280.056
396.632
386.348
611.305
75.3611
31.1123
38.5544
40.8546
28.0265
38.1277
24.1976
35.2262
21.9479
33.3918
20.8949
31.9161
21.1922
28.9139
24.0196
24.0015
29.3487
19.161
29.8722
18.4811
29.7272
18.6572
29.4107
18.2508
29.6926
17.6882
30.1656
17.3626
29.6111
18.0447
28.3059
19.7304
25.6301
23.134
21.2784
27.7679
17.3945
27.9537
17.2009
27.7848
16.6699
28.0928
16.075
28.4982
15.8476
27.7826
16.8326
26.2228
18.9905
23.6429
21.9354
19.9241
26.705
16.3667
27.0845
16.4277
27.1245
16.105
27.6202
15.656
28.1653
15.4925
27.5295
16.4419
26.0027
18.4425
23.449
21.0679
19.8248
25.3346
16.4218
25.4817
15.5671
25.8667
14.9425
26.2199
14.257
26.6159
13.9172
25.8609
14.7637
24.2559
16.7422
21.6649
19.4311
18.0329
23.8579
14.6166
24.2654
13.681
25.0826
12.8306
25.9935
12.1832
25.9168
12.3393
25.4022
12.9725
24.2779
14.2362
22.6727
15.3535
20.7526
17.5667
17.3175
21.7428
12.8166
22.5186
11.2504
23.0146
10.1321
22.1384
9.72591
20.9314
8.96525
19.3647
8.14621
16.8932
7.80115
12.8668
8.38759
6.8648
10.893
0.380483
7.69314
-3.72663
4.21195
-7.96157
0.0955008
-12.4249
-4.57996
-16.838
-9.80573
-20.8194
-15.4214
-23.6731
-21.2338
-24.348
-27.5823
-22.1666
-33.5936
-22.8906
-34.6505
-22.4723
-34.2441
-21.0761
-32.7317
-19.3045
-30.3514
-17.5958
-27.3186
-16.3718
-23.4885
-16.1578
-18.3041
-17.8663
-10.9318
-19.6349
-7.54211
-17.8899
-4.49421
-15.4115
-1.44359
-12.2254
1.88565
-8.13988
5.84307
-3.22599
10.0825
3.57791
15.2576
12.3195
21.0467
23.1648
28.4032
35.6809
41.3066
48.1025
57.846
63.9469
78.7355
82.5805
104.421
105.443
133.255
134.033
168.633
166.261
222.557
199.966
302.7
248.111
384.603
29.6897
46.6799
34.5001
41.8702
30.5553
37.5981
25.9825
35.5153
23.0709
33.8634
21.8439
32.1186
21.9747
29.5134
23.8751
25.6934
27.0782
21.655
28.8548
19.5647
29.6699
18.7582
29.7924
18.2949
29.8975
17.9096
29.9976
17.7178
29.6027
18.2156
28.4828
19.6509
26.2446
22.273
22.8057
25.456
19.4039
27.0444
17.7537
27.7696
16.8576
28.1216
16.323
28.2558
16.1769
27.7812
16.8909
26.5383
18.5993
24.3658
21.2011
21.3388
24.4993
18.2767
26.2476
16.9157
27.1611
16.2478
27.6923
15.8659
27.9624
15.7821
27.5643
16.4584
26.3454
18.015
24.1739
20.3357
21.1535
23.2448
18.0354
24.7389
16.2298
25.6892
15.2023
26.1863
14.5128
26.3782
14.2216
25.8965
14.7854
24.6165
16.32
22.413
18.7102
19.3825
21.7895
16.2386
23.5483
14.3721
24.8589
13.2166
25.7093
12.4988
25.9303
12.3938
25.6105
12.8339
24.6939
13.7944
23.2313
15.0721
21.2467
17.0685
18.2721
19.8256
14.6336
21.5285
12.1897
22.4532
10.5901
22.2174
9.70733
21.2326
8.92182
19.7151
8.21361
17.2745
7.98132
13.5525
8.32469
8.3108
8.77643
2.33303
7.31446
-2.60146
4.65138
-6.98405
0.610549
-11.2604
-4.25316
-15.5343
-9.4969
-19.5463
-14.88
-22.5795
-20.4774
-23.8181
-26.2671
-23.956
-31.0332
-23.5369
-33.3085
-22.2943
-33.6455
-20.5684
-32.4581
-18.6983
-30.1475
-16.9654
-27.1088
-15.7524
-23.3229
-15.4328
-18.4044
-16.3546
-12.711
-17.3966
-8.29507
-16.9219
-4.46022
-15.1355
-1.07912
-12.2399
2.28728
-8.16374
6.00195
-2.74536
9.73206
4.40211
14.6326
13.1056
21.4625
23.1696
31.0511
34.5793
42.7891
48.116
58.5967
64.1337
78.8192
84.6441
103.708
110.623
135.585
141.168
179.146
177.92
242.263
222.428
321.467
294.606
389.443
15.2773
28.9254
24.5151
35.051
25.2456
34.4136
24.4525
32.4946
23.727
30.3648
23.7009
28.3184
24.5195
25.717
26.2784
22.9271
28.0542
21.3725
27.6428
21.1652
27.0912
21.2307
26.7894
21.029
26.7295
20.8788
26.5699
21.1165
25.8177
21.9039
24.5468
23.2798
22.6588
25.1586
20.5874
26.5952
19.548
26.0738
19.4821
25.6205
19.28
25.3648
19.162
25.007
19.4816
24.0762
20.4146
22.7257
21.8946
21.0542
23.6418
19.2705
25.278
18.4759
25.0199
18.6543
24.84
18.6781
24.8353
18.7375
24.6785
19.1566
23.8819
20.0895
22.5997
21.4587
20.9416
22.9895
19.1103
24.3771
18.1108
24.0479
17.7391
23.7862
17.4929
23.5728
17.3319
23.2032
17.5746
22.228
18.3911
20.8167
19.7202
19.0811
21.2993
17.2199
22.8289
16.2152
22.7265
15.8469
22.7587
15.6345
22.7708
15.6882
22.3609
16.0568
21.7135
16.678
20.7878
17.5215
19.6583
18.4362
18.1567
19.8443
16.1902
21.3705
14.6359
21.1584
13.9753
20.641
13.6481
19.5795
13.4019
18.3464
12.9353
16.8056
12.4075
14.503
12.1042
11.2336
11.9528
7.21889
11.3794
4.36517
7.41813
1.08065
3.31091
-2.54393
-1.26596
-6.59522
-6.4253
-10.8994
-12.0622
-15.2415
-17.8303
-19.333
-23.1161
-22.2212
-27.8203
-24.3438
-31.6821
-26.4599
-32.8107
-26.884
-32.5038
-26.0383
-30.839
-24.5262
-28.1177
-22.897
-24.8307
-21.5965
-21.1675
-20.8487
-17.1623
-20.4641
-13.3872
-18.9035
-11.2099
-16.7747
-9.04615
-14.2529
-6.7425
-11.341
-4.15186
-7.8481
-0.715054
-3.88295
3.14621
1.48081
7.61136
8.4077
13.746
16.2945
21.7814
25.9626
32.6791
36.8448
46.5062
50.2063
63.634
65.6423
84.3972
83.4037
109.117
102.763
139.245
123.851
183.223
147.193
223.829
198.842
271.293
9.54816
34.7936
22.4235
35.282
26.0661
34.3408
25.9521
32.8951
25.1301
30.9218
24.8845
28.97
25.2718
26.7616
26.1652
24.6333
26.9141
23.3769
26.8786
22.4751
26.9192
21.8384
26.9636
21.3878
26.892
21.23
26.6037
21.4653
25.9495
22.0712
24.9245
23.0863
23.4862
24.3208
22.0002
25.1465
21.1375
25.1974
20.4266
25.3244
19.8378
25.2611
19.6019
24.9072
19.8415
24.1741
20.5121
23.1481
21.5806
21.8973
22.8527
20.6008
23.9099
19.96
24.2134
19.5043
24.5995
19.1546
24.7791
19.104
24.6192
19.4486
24.0076
20.1283
23.0276
21.103
21.7555
22.2024
20.3457
23.0527
19.4724
23.2436
18.6656
23.4262
18.0823
23.4157
17.7938
23.0913
17.9431
22.3402
18.492
21.2573
19.4149
19.9208
20.5449
18.4898
21.5274
17.611
21.922
16.8215
22.342
16.2957
22.5158
16.1566
22.3357
16.2938
21.8976
16.6907
21.1735
17.3059
20.2078
18.1084
18.8584
19.181
17.2708
20.0972
16.0957
20.199
15.0956
20.0923
14.3692
19.5154
13.7831
18.5783
13.237
17.1954
12.8003
15.0421
12.5864
12.1216
12.1305
8.96681
10.3653
6.00814
7.96024
2.75549
4.40689
-0.824416
0.0818196
-4.738
-4.90938
-8.97941
-10.4005
-13.366
-15.9976
-17.7987
-21.0003
-21.9441
-25.3656
-25.0556
-28.7359
-26.6996
-30.6666
-26.6435
-31.2236
-25.429
-30.1023
-23.8588
-27.4818
-22.0618
-24.2636
-20.5885
-20.782
-19.4621
-17.6165
-17.9153
-14.3481
-16.6407
-11.6866
-15.2455
-8.88073
-13.3369
-6.11038
-10.7777
-3.31291
-7.47553
-0.0253091
-3.15409
3.89896
2.38642
8.9569
8.85475
15.7171
16.6598
24.2414
26.0934
35.1526
37.7686
48.9949
51.9405
67.1976
69.4524
89.5936
91.3793
117.999
115.774
155.146
142.397
199.255
180.65
240.108
229.119
274.543
8.5013
22.9774
17.7485
27.4128
21.9138
29.4049
23.5201
29.148
24.2713
27.8813
24.8044
26.3251
25.5804
24.6094
26.4319
23.2066
26.7845
22.7093
26.224
22.6383
25.6882
22.6385
25.3206
22.6022
25.0176
22.7082
24.594
23.1055
23.8876
23.7706
22.9503
24.6317
21.8753
25.422
21.0411
25.6004
20.8546
24.9697
20.8615
24.4071
20.8246
23.8424
20.926
23.1583
21.3278
22.2555
22.0171
21.2568
22.8852
20.3233
23.6854
19.6514
24.0813
19.6789
23.7443
19.9441
23.5032
20.1695
23.2537
20.4979
22.8386
21.0543
22.1256
21.7964
21.2233
22.6171
20.2748
23.3009
19.4785
23.538
19.2258
23.0756
19.1043
22.6035
19.0512
22.0853
19.1263
21.4116
19.4726
20.4733
20.0663
19.3964
20.82
18.3339
21.5224
17.4896
21.871
17.2562
21.5901
17.2175
21.3343
17.3122
20.9977
17.5998
20.4891
18.0164
19.8784
18.536
19.1549
19.1212
18.3503
19.7382
17.3936
20.4059
16.4541
20.7299
15.9831
20.216
15.7919
19.4768
15.7275
18.467
15.6089
17.3024
15.344
15.876
15.0321
13.8955
14.5186
11.619
13.6528
9.27658
11.8099
6.86598
8.79587
3.99763
4.951
0.664744
0.436834
-3.30799
-4.70848
-7.85117
-10.4272
-12.8367
-16.3134
-18.0399
-21.9351
-22.7907
-26.77
-27.0942
-30.3632
-29.9527
-32.5204
-30.5244
-32.8216
-29.8999
-31.0591
-28.4675
-27.9428
-26.4649
-24.5275
-24.3075
-21.4189
-22.5338
-18.4751
-20.9105
-16.0298
-18.701
-14.0724
-16.6094
-12.2794
-14.4244
-10.2573
-12.2304
-7.79034
-9.84039
-4.9354
-6.66223
-1.7939
-2.42966
2.36845
2.64695
7.69912
8.9277
14.5823
16.582
23.4108
25.6135
34.7812
35.7678
48.8969
48.0113
65.7518
61.9832
87.7353
76.721
114.779
93.9302
141.555
122.356
170.237
162.093
204.088
8.09819
30.6747
17.707
30.5402
22.6644
30.5413
24.6698
30.0112
25.3851
28.7213
25.8426
27.2443
26.26
25.7574
26.5632
24.6388
26.4527
24.1963
25.9226
23.822
25.5996
23.4417
25.4034
23.1633
25.1511
23.1464
24.7413
23.436
24.1427
23.921
23.4248
24.4951
22.6678
24.9413
22.1172
24.8761
22.026
24.433
21.8171
24.1297
21.5515
23.7322
21.4963
23.159
21.7427
22.4366
22.1961
21.7049
22.7497
21.0697
23.2197
20.6707
23.4097
20.7302
23.2587
20.7656
23.269
20.7586
23.1845
20.9286
22.8764
21.3383
22.3295
21.8695
21.6611
22.4088
20.9924
22.8098
20.4249
22.8529
20.2555
22.5562
19.9925
22.307
19.7574
21.9615
19.6941
21.4207
19.8967
20.6738
20.2661
19.8544
20.7166
19.0805
21.0841
18.4896
21.2161
18.3236
21.0669
18.1347
20.9999
18.0301
20.8285
18.1298
20.495
18.3589
20.053
18.6891
19.4953
19.0866
18.8499
19.5157
18.0807
19.9382
17.3666
20.0341
17.0572
19.6229
16.7717
19.1305
16.5097
18.4373
16.2168
17.5422
15.8832
16.3371
15.6766
14.6828
15.1338
12.8232
14.0234
10.8477
12.2341
8.63259
9.9083
6.11528
6.57042
2.94973
2.53064
-0.866552
-2.22655
-5.27042
-7.64772
-10.2647
-13.343
-15.6274
-19.0153
-20.8883
-23.9817
-25.5345
-27.9587
-28.6484
-30.4428
-29.87
-31.3041
-29.5448
-30.2108
-27.98
-27.46
-25.5592
-24.187
-22.8788
-21.1744
-20.5364
-18.4154
-18.7013
-15.8458
-17.1118
-13.7363
-15.3127
-11.4664
-13.44
-8.96115
-11.4612
-6.30725
-8.97978
-3.5129
-5.48583
-0.0365607
-1.28626
4.4171
3.82343
10.1102
10.1307
17.3823
17.9597
26.7838
27.4924
39.1227
38.9996
54.5365
53.3406
73.8793
70.1492
98.5399
89.0469
126.784
113.079
153.382
144.53
179.697
176.132
203.608
7.76776
21.3267
14.7719
23.9019
19.542
25.5451
22.2481
26.1378
23.8506
25.8392
24.8003
25.055
25.5355
24.1604
25.9572
23.5459
25.8605
23.4637
25.2811
23.5012
24.7738
23.5203
24.3594
23.5652
23.9547
23.7615
23.4846
24.1478
22.9212
24.624
22.3379
25.0758
21.8113
25.3086
21.6079
24.9926
21.7059
24.3115
21.7978
23.6739
21.8391
22.9657
21.9712
22.1832
22.2637
21.3745
22.6761
20.6633
23.1043
20.2305
23.3219
20.081
23.2698
20.3888
22.8973
20.7586
22.6272
21.1016
22.3091
21.5251
21.8724
22.0548
21.3138
22.5917
20.7406
23.0247
20.2489
23.2335
19.9939
23.0005
20.0108
22.4477
20.0384
21.8757
20.0788
21.2328
20.2088
20.4891
20.4821
19.661
20.8213
18.8613
21.1602
18.2347
21.3267
17.8789
21.1906
17.9469
20.7751
18.1115
20.3977
18.3559
19.9618
18.714
19.4532
19.1142
18.9273
19.5266
18.3844
19.9155
17.8559
20.2405
17.3254
20.4538
16.9688
20.275
16.9331
19.6485
17.0055
18.9007
17.0857
17.9958
17.0802
16.9831
16.9152
15.7785
16.568
14.3604
15.9667
12.7862
14.8628
11.1363
13.0204
9.09749
10.3809
6.66758
7.0404
3.61739
2.89739
-0.188217
-2.08468
-4.79225
-7.74638
-10.2855
-13.9042
-16.3142
-20.259
-22.3968
-26.1707
-27.9648
-30.9092
-32.1728
-33.8595
-34.0141
-34.49
-33.6645
-32.8552
-31.7001
-29.7967
-28.7316
-26.1886
-25.6329
-22.722
-23.1686
-19.7093
-21.1831
-17.5823
-19.0812
-15.8212
-17.2311
-14.2053
-15.4452
-12.405
-13.8188
-10.3563
-12.1232
-8.14431
-9.76289
-5.55385
-6.62596
-2.21326
-2.74217
2.11204
2.06688
7.67681
7.98736
14.9189
14.8113
24.4721
22.7627
36.2081
32.4263
50.8204
43.4176
69.6277
55.9148
88.5877
75.203
107.951
100.635
131.504
129.883
157.73
10.3205
27.7318
16.1521
27.9529
20.7155
27.8622
23.3241
27.6
24.7832
26.9719
25.6695
26.0889
26.1695
25.2433
26.2919
24.7093
25.9495
24.6225
25.3038
24.5082
24.8248
24.3283
24.4615
24.197
24.0895
24.2428
23.6681
24.4825
23.2191
24.8001
22.8114
25.0742
22.4994
25.0761
22.4636
24.7333
22.6424
24.0893
22.673
23.543
22.618
22.9293
22.6426
22.2462
22.7931
21.5669
23.0148
21.0644
23.1672
20.8401
23.1957
20.8266
23.0316
21.145
22.693
21.4364
22.5055
21.6556
22.2838
21.9501
21.9517
22.3416
21.5307
22.7239
21.1228
22.9873
20.8373
22.9889
20.7183
22.7407
20.8186
22.2228
20.8286
21.743
20.799
21.2147
20.8345
20.5916
20.9912
19.9038
21.1692
19.2774
21.2987
18.8415
21.2241
18.6466
20.9573
18.7841
20.5345
18.8981
20.2175
19.0333
19.8789
19.2587
19.488
19.5209
19.0845
19.788
18.6703
20.0261
18.2775
20.1883
17.9063
20.2198
17.6886
19.9798
17.7594
19.3831
17.8315
18.7688
17.8536
18.0733
17.7823
17.2983
17.6659
16.3424
17.3627
15.2534
16.6956
14.0937
15.6023
12.8103
14.0535
11.2082
11.925
9.15929
9.0503
6.47767
5.44
2.98939
1.01043
-1.43654
-4.18142
-6.81153
-10.1248
-12.9071
-16.5134
-19.3265
-22.7293
-25.3642
-28.1021
-30.0686
-31.8507
-32.9063
-33.5065
-33.4321
-33.0254
-31.7835
-30.2798
-28.499
-26.3334
-24.7503
-22.3711
-21.7409
-19.3295
-19.5922
-17.0234
-17.9366
-15.0989
-16.165
-13.1275
-14.3209
-10.9524
-12.6327
-8.66395
-10.7608
-6.41161
-8.18252
-3.59862
-5.08875
-0.0617716
-1.23652
4.48504
3.59716
10.3282
9.63188
18.2674
16.6165
28.6454
25.5004
41.4534
36.5546
57.7961
49.2773
76.526
66.3762
95.0877
87.9938
114.409
111.028
134.069
133.618
153.26
8.05054
21.2471
13.7593
22.2291
18.0196
23.4531
21.001
24.1672
23.0356
24.3152
24.283
24.1305
25.0529
23.8475
25.3493
23.7233
25.1683
23.8878
24.6114
24.0431
24.1062
24.1153
23.6604
24.188
23.2337
24.3843
22.8094
24.6949
22.4144
24.9978
22.1257
25.1915
21.9756
25.1605
22.0251
24.715
22.3177
23.9888
22.4845
23.2716
22.5854
22.4687
22.6642
21.6657
22.7681
20.9711
22.8793
20.5237
22.9399
20.3413
22.9153
20.3872
22.7184
20.8218
22.3283
21.2832
22.0463
21.7009
21.7344
22.1495
21.3602
22.6152
20.959
22.9954
20.6404
23.1592
20.4632
23.1216
20.4124
22.7446
20.5993
22.0998
20.7282
21.455
20.8001
20.7656
20.9121
20.0271
21.0727
19.3209
21.1777
18.7412
21.1975
18.3427
21.107
18.1768
20.7325
18.4121
20.2142
18.7031
19.7749
19.0302
19.324
19.4117
18.8546
19.7782
18.4208
20.098
18.0322
20.3352
17.7265
20.4366
17.4956
20.4007
17.4072
20.0408
17.6039
19.3609
17.8405
18.6431
18.0274
17.8449
18.1184
16.9805
18.0123
16.0877
17.6629
15.1604
17.007
14.1441
15.93
12.9168
14.3837
11.3033
12.2067
9.34559
9.33728
6.73459
5.71181
3.26817
1.21818
-1.26826
-4.1554
-6.91249
-10.4976
-13.5068
-17.5694
-20.6925
-24.8208
-27.7257
-31.3617
-33.6066
-35.9884
-37.0835
-37.8275
-37.5493
-36.585
-35.3413
-33.0684
-31.4005
-28.407
-27.0791
-23.8723
-23.5993
-20.3703
-21.2544
-18.2099
-19.3736
-16.7264
-17.8739
-15.5329
-16.3336
-14.0587
-15.1436
-12.3872
-14.0224
-10.6112
-12.4831
-8.584
-10.2062
-6.00628
-7.33732
-2.60203
-3.75116
1.87811
0.449284
8.12018
5.33056
15.8643
11.3992
25.4945
18.6681
37.6415
27.9802
50.4205
41.4622
64.5104
58.8124
81.2259
79.2374
100.799
101.181
122.049
11.8083
26.5211
16.272
26.1358
19.7577
26.0824
22.3079
25.8578
24.0072
25.5379
25.0244
25.1471
25.5926
24.8106
25.7506
24.6524
25.4245
24.7951
24.8072
24.8515
24.2883
24.8182
23.8355
24.782
23.3844
24.8456
22.988
25.0042
22.7093
25.1655
22.564
25.2678
22.5069
25.1782
22.7239
24.6724
23.106
23.9421
23.2885
23.347
23.2891
22.6511
23.2742
21.8911
23.2807
21.2349
23.2974
20.9119
23.1492
20.8082
23.0257
20.8899
22.7281
21.3318
22.3103
21.7753
22.0289
22.1421
21.7502
22.5082
21.4441
22.8665
21.1463
23.1338
20.9485
23.2154
20.8847
23.1232
20.9748
22.7057
21.2483
22.0904
21.4087
21.4955
21.4752
20.8595
21.5424
20.2054
21.6178
19.5938
21.6475
19.1401
21.5237
18.8443
21.1987
18.7792
20.7258
19.0724
20.165
19.3426
19.7214
19.6103
19.3061
19.9087
18.9036
20.1857
18.5502
20.4025
18.2554
20.5245
18.0594
20.5232
17.926
20.3682
17.9715
19.9621
18.2523
19.3075
18.5223
18.6682
18.7259
18.0098
18.8353
17.3624
18.724
16.7439
18.3932
16.1105
17.7833
15.408
16.9181
14.5034
15.6831
13.3928
13.87
11.9107
11.4548
9.72417
8.38969
6.61359
4.50848
2.35692
-0.395946
-3.06946
-6.47663
-9.6657
-13.5539
-17.1493
-21.1432
-24.8236
-28.4
-31.5142
-34.153
-36.1885
-37.486
-38.1748
-37.8881
-37.1428
-35.0009
-32.931
-29.6977
-27.507
-24.0717
-23.1446
-20.2277
-20.4153
-17.9737
-18.6045
-16.2732
-16.8855
-14.564
-15.0935
-12.5976
-13.6786
-10.637
-12.4345
-8.87634
-10.7815
-6.89001
-8.71863
-4.34398
-6.12121
-0.98872
-2.83097
3.64928
1.05684
10.152
5.86389
18.4219
12.1936
28.6697
20.4656
40.0201
32.2287
52.7172
46.7335
66.8419
63.116
82.1015
80.5941
98.3699
97.7938
114.12
8.32431
21.6215
13.6615
21.6378
17.6034
22.2341
20.43
22.8677
22.3919
23.2682
23.6903
23.451
24.4697
23.5513
24.7599
23.7833
24.6264
24.1291
24.1274
24.399
23.6148
24.5299
23.1227
24.6239
22.6965
24.7706
22.3393
24.968
22.1146
25.1012
22.0421
25.2307
22.1179
25.0589
22.3865
24.5759
22.8093
23.8306
23.1271
23.1273
23.1454
22.369
23.1062
21.5782
23.0089
20.8679
22.892
20.4892
22.6772
20.3872
22.5549
20.5499
22.3379
21.0618
21.9395
21.6146
21.6566
22.0935
21.3676
22.5537
21.07
22.96
20.7968
23.2251
20.6443
23.2711
20.655
23.1027
20.7979
22.6459
21.0887
21.9471
21.2988
21.2575
21.358
20.5899
21.3953
19.8883
21.4109
19.2397
21.398
18.7362
21.2654
18.4232
20.9201
18.4161
20.4161
18.7313
19.8173
19.1053
19.34
19.4916
18.8947
19.8909
18.4698
20.2311
18.1197
20.478
17.8565
20.5956
17.7103
20.5661
17.6875
20.3785
17.7796
19.9454
18.0936
19.2451
18.4453
18.5548
18.7231
17.842
18.8901
17.1687
18.7919
16.6095
18.4574
16.051
17.9084
15.3582
17.1009
14.5414
15.8367
13.5148
14.0116
12.1338
11.7547
10.0273
8.87535
7.02385
5.1569
2.9225
0.284827
-2.47197
-5.92558
-9.29519
-13.4891
-17.3905
-22.0611
-26.1188
-30.7453
-34.349
-37.9295
-40.2485
-41.9451
-42.4798
-41.8774
-40.6344
-38.1028
-35.6857
-31.7183
-29.1856
-25.0426
-23.6483
-20.2887
-20.6133
-18.1249
-19.3082
-17.128
-18.3569
-16.3918
-17.1758
-15.1888
-16.199
-13.8994
-15.4245
-12.501
-14.507
-10.9573
-12.9894
-8.99469
-11.0616
-6.25149
-8.79572
-2.41845
-6.27861
2.72159
-2.95156
8.66249
1.5651
15.6747
8.0267
23.5432
16.7582
33.1701
28.0253
44.8268
41.8638
58.8145
57.9214
75.172
75.1399
92.1791
13.658
25.7797
17.0992
24.9246
19.7717
24.6115
21.7905
24.5033
23.2946
24.415
24.3396
24.3142
24.9372
24.3393
25.1386
24.4743
24.9039
24.8153
24.3746
25.0152
23.8955
25.0866
23.3941
25.1182
22.8378
25.1773
22.4733
25.2359
22.3885
25.2555
22.3684
25.3595
22.5409
25.183
22.9231
24.6531
23.4481
23.8983
23.8161
23.2264
23.8217
22.594
23.7378
21.8568
23.5621
21.2189
23.3253
20.8688
23.0689
20.7145
22.8445
20.8249
22.4851
21.3539
22.0096
21.9127
21.6861
22.4121
21.3788
22.8294
21.1196
23.1594
20.9295
23.3373
20.8685
23.3664
20.9575
23.1841
21.2058
22.7273
21.6018
22.0783
21.8656
21.4313
21.98
20.7455
22.0163
20.0811
22.0093
19.5233
21.8816
19.1519
21.605
18.8842
21.1333
18.9135
20.5367
19.252
19.8892
19.6004
19.3658
19.9508
18.913
20.3034
18.5195
20.5929
18.2157
20.7769
18.0145
20.8268
17.9426
20.723
17.9775
20.4688
18.1778
19.9897
18.5924
19.3111
18.9884
18.6691
19.3048
18.0591
19.4899
17.558
19.3823
17.2225
19.0767
16.8795
18.6284
16.4685
17.935
16.0055
16.9032
15.4083
15.462
14.329
13.6871
12.5986
11.3499
10.0033
8.16437
6.30289
3.77775
1.20729
-2.11938
-5.53019
-9.66581
-13.8773
-18.5981
-23.3201
-28.0868
-32.6231
-36.6476
-40.0138
-42.5315
-44.3447
-44.7959
-44.7365
-42.5045
-40.1753
-35.5353
-32.041
-26.8707
-24.7228
-20.8851
-20.4353
-18.3959
-18.5515
-17.1563
-17.1491
-15.5845
-15.4491
-13.9684
-14.2314
-12.3733
-13.6292
-11.0593
-12.7999
-9.86069
-11.7762
-8.29768
-10.5973
-5.75585
-9.06615
-2.2092
-7.07481
2.67151
-4.01669
8.37189
0.687242
14.8321
7.59523
22.6184
16.38
31.9581
27.0456
42.7404
39.2917
54.8566
52.8299
68.2133
67.3906
81.705
9.95996
22.0131
14.5505
21.5564
17.9652
21.6871
20.3121
22.1608
22.0323
22.5937
23.2482
22.9537
23.9155
23.3172
24.2522
23.7798
24.1959
24.2796
23.7812
24.6574
23.3313
24.7951
22.8762
24.8743
22.3572
24.9574
22.0002
25.0461
21.9051
25.0771
21.9383
25.1926
22.2025
25.0007
22.6401
24.5392
23.2142
23.825
23.6738
23.0982
23.7379
22.3874
23.6203
21.6406
23.3062
20.9011
22.9292
20.4077
22.5143
20.2947
22.3244
20.53
22.083
21.1694
21.651
21.8383
21.3575
22.3866
21.092
22.8568
20.8726
23.2126
20.7047
23.3813
20.6911
23.3687
20.82
23.1266
21.0972
22.6416
21.5121
21.9162
21.8292
21.1788
21.8945
20.5232
21.8428
19.8607
21.7524
19.2669
21.6155
18.8018
21.3281
18.5338
20.8152
18.6028
20.2014
18.9585
19.5231
19.3986
19.0046
19.8379
18.5603
20.2602
18.1739
20.5896
17.8936
20.7865
17.7301
20.8287
17.7031
20.7074
17.799
20.4262
18.0304
19.9398
18.4527
19.2216
18.9074
18.5461
19.2603
17.9121
19.4543
17.4268
19.3482
17.13
19.0896
16.818
18.688
16.4703
18.0518
16.1255
17.0221
15.6377
15.6814
14.6499
14.1444
13.084
12.0923
10.7673
9.2376
7.4312
5.20261
2.70731
-0.402546
-3.79078
-7.92833
-12.3133
-17.4397
-22.6028
-28.3342
-33.5703
-38.827
-43.0476
-46.2804
-48.2669
-48.8034
-48.2884
-45.69
-42.9664
-37.58
-33.2668
-26.8952
-23.4805
-19.078
-18.7971
-17.1946
-18.4636
-17.3187
-18.8826
-17.3826
-17.9512
-16.1187
-16.8168
-15.0775
-16.2394
-14.203
-15.6431
-13.0813
-14.726
-11.6944
-13.7302
-9.45298
-12.5967
-6.38068
-11.2426
-2.58034
-8.79908
1.41188
-5.18675
6.12994
-0.268591
11.7671
6.34071
18.8496
14.938
27.7489
25.523
38.7784
37.6399
51.6255
51.3744
65.734
15.489
25.2723
18.2577
24.015
20.2391
23.6497
21.5375
23.5792
22.7561
23.5528
23.6889
23.6496
24.2877
23.8758
24.5335
24.2169
24.4096
24.7375
23.9731
25.1362
23.5396
25.2189
23.1215
25.2296
22.6013
25.2081
22.1662
25.2109
22.1151
25.1843
22.169
25.3025
22.4936
25.1594
23.0043
24.635
23.692
23.8573
24.291
23.1178
24.3439
22.5888
24.2
21.9314
23.8762
21.2819
23.3969
20.7889
23.0159
20.4982
22.6869
20.6348
22.24
21.2756
21.682
22.006
21.3148
22.6232
21.0249
23.0688
20.843
23.3705
20.7345
23.4821
20.7929
23.4709
21.0021
23.2396
21.3784
22.7724
21.9149
22.0951
22.317
21.3852
22.5026
20.6832
22.4219
20.0349
22.3085
19.5032
22.0769
19.1402
21.7027
18.8987
21.1006
18.981
20.3814
19.3355
19.6281
19.7502
19.0375
20.1788
18.5643
20.5891
18.1887
20.9003
17.9326
21.0628
17.8077
21.0616
17.8339
20.8912
17.9879
20.567
18.2999
20.0368
18.8227
19.3162
19.3344
18.6647
19.7252
18.1095
19.9013
17.7512
19.8087
17.5744
19.6046
17.3806
19.2976
17.2156
18.7627
17.0904
17.915
16.9011
16.8098
16.1996
15.641
14.9803
14.0248
13.0783
11.6583
10.1959
8.12391
5.8881
2.91997
-0.358608
-4.47179
-8.99221
-14.3365
-19.9764
-26.1825
-32.2412
-38.29
-43.6927
-48.3359
-51.7546
-53.7103
-54.9894
-53.5042
-51.6859
-46.0485
-40.706
-32.5175
-27.067
-20.8217
-18.9947
-16.7452
-17.6243
-16.8202
-16.6555
-16.1706
-15.6975
-14.905
-14.398
-13.4646
-14.2009
-12.7611
-13.9487
-12.2943
-13.8834
-11.7388
-13.7943
-10.3117
-13.3904
-7.96816
-12.4263
-4.86552
-10.7742
-1.36277
-7.88939
2.67966
-3.72658
7.74221
1.78866
14.0588
8.87889
21.7897
17.5274
30.8211
28.096
41.6623
40.4429
53.5994
11.9284
22.5198
16.2132
21.7437
18.8263
21.6856
20.4861
21.855
21.9627
22.1976
22.952
22.6274
23.4912
23.1493
23.8301
23.7276
23.8078
24.4074
23.4314
24.9482
23.0669
25.102
22.6956
25.1488
22.2058
25.0931
21.8489
24.9706
21.7071
24.9228
21.8165
25.016
22.1747
24.9433
22.7915
24.5039
23.5698
23.7891
24.2274
23.11
24.3971
22.4708
24.2186
21.8116
23.7108
21.0756
23.0543
20.34
22.4207
20.1188
22.182
20.3989
21.877
21.2472
21.3502
22.0415
21.0464
22.6718
20.8214
23.127
20.6954
23.4204
20.6372
23.5282
20.6949
23.4594
20.9009
23.1765
21.3133
22.6554
21.9132
21.9033
22.3993
21.1411
22.4926
20.5297
22.3141
19.8959
22.0953
19.3518
21.8267
18.9115
21.448
18.6759
20.7877
18.7685
20.0508
19.1586
19.2609
19.651
18.6794
20.1396
18.2302
20.5936
17.8812
20.9262
17.6686
21.0792
17.5954
21.053
17.666
20.8554
17.8631
20.503
18.2054
19.9552
18.7402
19.2047
19.2951
18.5313
19.7074
17.9748
19.8972
17.5971
19.8429
17.4397
19.6672
17.3033
19.389
17.2269
18.9146
17.1929
18.1378
17.178
17.0806
16.6188
16.1505
15.6112
14.8639
14.0489
12.9308
11.65
9.95543
7.95118
5.3899
2.35218
-1.42911
-5.83503
-11.1393
-17.0561
-23.7981
-30.6569
-37.7866
-44.1146
-49.716
-53.9248
-56.6243
-58.5538
-56.9473
-55.4026
-49.2874
-42.9622
-32.5837
-25.6014
-17.1037
-14.5173
-13.9392
-15.4913
-17.7298
-19.6557
-19.0463
-18.6548
-16.8785
-17.0821
-15.5562
-16.6427
-15.4283
-16.3598
-14.7714
-15.7913
-14.0927
-15.6155
-12.8367
-15.2875
-10.9317
-14.753
-8.35286
-13.2598
-5.78155
-11.1782
-2.69814
-8.21074
0.947075
-4.04596
5.62701
1.75631
11.7477
9.14938
19.2565
17.8455
28.5235
28.5594
40.8236
18.0349
24.1554
19.7812
23.2956
20.8179
23.2074
21.4537
22.9859
22.3851
22.9337
23.1753
23.1694
23.6689
23.5087
23.9606
23.9594
23.9468
24.6464
23.552
25.1978
23.1953
25.4376
22.8036
25.4088
22.4171
25.2459
22.0489
25.0919
21.8909
25.0468
21.9324
25.2356
22.299
25.0778
22.9317
24.56
23.8584
23.7332
24.6649
23.0533
24.7978
22.6198
24.6747
22.1507
24.2606
21.5166
23.6053
20.7623
22.9965
20.179
22.5107
20.3578
21.9004
21.2675
21.17
22.1684
20.8201
22.7801
20.6902
23.2153
20.6147
23.5163
20.5672
23.6215
20.6863
23.556
20.9682
23.281
21.4939
22.7671
22.228
22.064
22.8263
21.3563
23.0134
20.6963
22.7969
20.0526
22.5468
19.503
22.2368
19.1605
21.7632
19.0026
21.104
19.0216
20.2404
19.3813
19.3374
19.8615
18.6688
20.3774
18.1834
20.8543
17.8361
21.1928
17.6387
21.3293
17.5876
21.2832
17.6973
21.0592
17.941
20.6726
18.3563
20.0719
19.003
19.2638
19.6542
18.5803
20.1152
18.0647
20.3181
17.7535
20.259
17.6418
20.0848
17.5682
19.8539
17.5813
19.4574
17.7145
18.7642
17.9031
17.8759
17.5717
17.1664
16.8534
16.2143
15.6622
14.724
13.7575
12.3184
10.662
8.38683
5.67012
2.0969
-2.12743
-7.51274
-13.5929
-21.1441
-28.7256
-37.313
-45.2395
-52.7358
-58.1381
-62.2474
-66.063
-66.0817
-66.2819
-61.6698
-55.5705
-43.6098
-33.2075
-20.9035
-15.3947
-11.6326
-13.215
-13.6419
-15.0941
-17.6951
-16.8609
-15.8501
-14.7276
-13.4192
-14.0711
-13.4005
-14.6634
-13.9096
-15.2324
-14.2233
-15.8566
-13.8108
-15.9949
-12.4606
-15.8417
-10.4578
-15.3415
-8.35928
-13.9932
-6.07022
-11.9266
-3.13929
-8.9045
0.657471
-4.75077
5.59172
0.587482
11.285
6.9174
18.1222
15.4507
27.8915
16.041
22.6129
18.3261
22.0718
19.834
21.8529
21.2818
21.6639
22.2627
21.9398
22.748
22.4983
23.165
23.0291
23.4918
23.6351
23.3711
24.5588
23.0148
25.1743
22.7306
25.507
22.5228
25.4307
22.1959
25.2021
21.7933
24.9554
21.5023
24.8098
21.5164
24.8541
22.0896
24.8681
22.8244
24.3654
23.8942
23.6138
24.7037
23.0831
25.051
22.5545
24.7798
22.1049
24.146
21.406
23.3311
20.414
22.5197
19.8452
22.2028
20.2691
21.5882
21.4357
20.899
22.3532
20.6383
22.9888
20.5083
23.3546
20.507
23.6325
20.5307
23.6801
20.62
23.578
20.8685
23.2036
21.4568
22.595
22.3243
21.7825
23.0653
21.1335
23.1294
20.6562
22.8488
20.0289
22.4764
19.4564
22.0276
19.0562
21.6016
18.8461
20.9093
18.9788
19.9707
19.4125
18.952
19.9476
18.2767
20.4542
17.8194
20.9473
17.5096
21.3017
17.3881
21.397
17.4137
21.2966
17.5802
21.0271
17.878
20.5924
18.3444
19.9485
19.0365
19.097
19.7154
18.4128
20.1748
17.9298
20.3542
17.6433
20.3198
17.5463
20.1659
17.5547
19.9524
17.6328
19.6204
17.8736
18.9792
18.1764
18.1944
18.0055
17.6576
17.4963
17.005
16.6216
15.9306
15.1786
14.1048
12.7402
10.9473
8.6105
5.56755
1.71328
-3.29155
-9.24188
-16.7974
-24.9357
-34.1695
-42.8815
-51.2751
-57.3175
-61.7682
-67.0091
-67.7838
-69.8006
-66.8042
-61.8177
-47.1053
-34.6795
-17.8104
-7.79597
-6.6186
-10.6926
-18.0669
-20.2677
-20.5319
-20.32
-17.6955
-17.0036
-15.5039
-16.6317
-15.6669
-16.6426
-15.0996
-16.271
-15.1685
-17.0634
-15.1315
-17.3973
-14.1679
-17.4029
-12.4148
-16.6783
-11.0168
-15.9078
-9.36002
-14.8223
-7.51678
-13.2497
-5.54573
-10.2433
-2.08262
-5.01725
1.69694
-0.527915
6.51776
5.99287
15.5493
20.169
23.9263
20.9296
23.0955
21.3431
22.6806
21.6941
22.5861
22.2121
22.6728
22.7401
22.8856
23.198
23.2567
23.4745
23.8129
23.4812
24.5671
23.0805
25.2884
22.7684
25.4917
22.6868
25.5026
22.4149
25.3947
22.0427
25.171
21.7334
25.1414
21.6595
25.2105
21.9935
24.9348
22.7226
24.3384
23.9778
23.3964
24.8907
22.9543
25.1253
22.7079
25.0042
22.5206
24.6886
21.9094
24.0229
20.9429
22.9926
20.0427
22.1133
20.2237
21.3811
21.3844
20.5892
22.4138
20.3183
22.907
20.4312
23.2547
20.4361
23.6339
20.4042
23.7557
20.5344
23.6537
20.8908
23.2541
21.6094
22.5888
22.6035
21.8368
23.3455
21.2712
23.5115
20.8509
23.1523
20.153
22.7502
19.5507
22.362
19.1715
21.972
19.0294
21.1881
19.1133
20.1279
19.5364
18.9936
20.0216
18.2515
20.6143
17.738
21.1517
17.4306
21.4945
17.3464
21.5736
17.3707
21.4881
17.5459
21.2147
17.8653
20.754
18.4029
20.042
19.2365
19.0785
20.044
18.3693
20.5276
17.9338
20.7164
17.6626
20.6559
17.5722
20.4893
17.5981
20.2521
17.7415