/*--------------------------------*- C++ -*----------------------------------*\
| =========                 |                                                 |
| \\      /  F ield         | OpenFOAM: The Open Source CFD Toolbox           |
|  \\    /   O peration     | Version:  4.1                                   |
|   \\  /    A nd           | Web:      www.OpenFOAM.org                      |
|    \\/     M anipulation  |                                                 |
\*---------------------------------------------------------------------------*/
FoamFile
{
    version     2.0;
    format      ascii;
    class       volScalarField;
    location    "24";
    object      p;
}
// * * * * * * * * * * * * * * * * * * * * * * * * * * * * * * * * * * * * * //

dimensions      [0 2 -2 0 0 0 0];

internalField   nonuniform List<scalar> 
6750
(
-130.679
-63.2783
-140.958
-139.775
-161.234
-168.079
-174.477
-178.563
-180.608
-179.575
-181.077
-175.054
-182.063
-93.9154
-200.985
-130.469
-62.611
-140.557
-139.696
-161.576
-168.48
-174.971
-178.615
-180.611
-179.524
-181.122
-175.343
-181.938
-93.3145
-201.021
-130.282
-62.0144
-140.275
-139.723
-161.873
-168.795
-175.358
-178.589
-180.596
-179.502
-181.217
-175.372
-181.837
-92.7447
-201.122
-130.049
-61.2239
-139.899
-139.748
-162.25
-169.183
-175.769
-178.643
-180.597
-179.51
-181.29
-175.223
-181.845
-92.3844
-201.027
-129.852
-60.3871
-139.553
-139.81
-162.605
-169.527
-176.149
-178.874
-180.793
-179.697
-181.303
-174.336
-181.738
-92.0762
-200.953
-129.706
-59.5564
-139.218
-139.867
-162.939
-169.886
-176.73
-179.263
-180.778
-179.751
-181.12
-174.647
-181.831
-91.7591
-200.89
-129.663
-58.8928
-138.953
-139.9
-163.156
-170.164
-177.046
-179.157
-180.821
-179.775
-180.879
-175.174
-181.836
-91.4254
-200.844
-129.711
-58.7186
-138.898
-139.932
-163.26
-170.311
-177.279
-179.322
-180.776
-179.752
-181.155
-175.72
-181.916
-91.1722
-200.907
-129.816
-59.0786
-139.101
-139.998
-163.25
-170.312
-177.288
-179.428
-180.872
-179.753
-181.145
-175.375
-181.901
-91.3593
-200.738
-130.008
-59.8393
-139.479
-140.054
-163.119
-170.144
-176.964
-179.369
-180.893
-179.768
-181.229
-174.543
-181.846
-91.6498
-200.64
-130.277
-60.7435
-139.918
-140.089
-162.887
-169.863
-176.51
-179.156
-181.007
-179.859
-181.672
-174.59
-181.8
-91.8754
-200.567
-130.571
-61.6249
-140.345
-140.105
-162.61
-169.586
-176.171
-179.039
-181.05
-179.872
-181.682
-175.37
-181.89
-92.1166
-200.515
-130.876
-62.4437
-140.791
-140.153
-162.306
-169.271
-175.873
-179.108
-181.27
-180.074
-181.744
-176.045
-181.973
-92.4627
-200.529
-131.109
-63.0566
-141.119
-140.175
-162.059
-169.003
-175.576
-179.22
-181.304
-180.202
-181.64
-176.156
-182.094
-93.0295
-200.369
-131.356
-63.7333
-141.562
-140.306
-161.768
-168.651
-175.137
-179.222
-181.373
-180.295
-181.57
-175.922
-182.233
-93.6225
-200.276
-180.025
-46.2105
-144.396
-139.619
-161.906
-168.583
-174.848
-178.75
-180.803
-179.606
-181.679
-173.868
-188.892
-71.3409
-282.348
-179.775
-45.5726
-143.93
-139.468
-162.289
-169.023
-175.429
-178.827
-180.822
-179.582
-181.714
-174.138
-188.712
-70.7733
-282.493
-179.573
-45.1161
-143.674
-139.466
-162.583
-169.293
-175.807
-178.793
-180.818
-179.578
-181.845
-174.046
-188.509
-70.2818
-282.766
-179.322
-44.452
-143.267
-139.435
-162.971
-169.671
-176.241
-178.854
-180.803
-179.559
-181.984
-173.953
-188.465
-69.8998
-282.518
-179.138
-43.7838
-142.895
-139.461
-163.321
-169.974
-176.591
-179.021
-180.993
-179.708
-182.153
-173.094
-188.187
-69.5986
-282.372
-179.041
-43.1123
-142.494
-139.484
-163.657
-170.303
-177.157
-179.401
-181.03
-179.729
-182.11
-173.44
-188.351
-69.2759
-282.272
-179.082
-42.5713
-142.14
-139.5
-163.866
-170.544
-177.462
-179.274
-181.126
-179.762
-182.022
-173.807
-188.441
-68.9679
-282.254
-179.187
-42.4223
-142.056
-139.526
-163.965
-170.675
-177.679
-179.449
-180.984
-179.807
-182.034
-174.213
-188.579
-68.7383
-282.467
-179.283
-42.6998
-142.327
-139.596
-163.964
-170.683
-177.698
-179.51
-181.146
-179.827
-181.95
-174.067
-188.554
-68.8939
-282.111
-179.469
-43.3031
-142.797
-139.669
-163.844
-170.556
-177.402
-179.506
-181.176
-179.881
-181.95
-173.403
-188.371
-69.1683
-281.887
-179.756
-44.0268
-143.305
-139.742
-163.621
-170.316
-176.981
-179.321
-181.282
-179.954
-182.458
-173.33
-188.274
-69.4151
-281.766
-180.08
-44.7253
-143.754
-139.795
-163.351
-170.084
-176.669
-179.215
-181.274
-179.924
-182.37
-174.033
-188.484
-69.6594
-281.697
-180.429
-45.4178
-144.23
-139.908
-163.047
-169.787
-176.368
-179.243
-181.51
-180.001
-182.422
-174.591
-188.686
-70.0085
-281.837
-180.689
-45.8918
-144.529
-139.961
-162.805
-169.565
-176.083
-179.346
-181.539
-180.045
-182.432
-174.735
-188.943
-70.4738
-281.488
-180.988
-46.548
-145.042
-140.176
-162.49
-169.192
-175.595
-179.325
-181.806
-180.099
-182.551
-174.646
-189.137
-71.0382
-281.255
-262.472
-10.9554
-147.357
-140.109
-162.891
-169.712
-175.895
-179.112
-181.236
-179.627
-182.503
-170.683
-199.581
-21.0938
-422.006
-262.145
-10.5196
-146.877
-139.827
-163.271
-170.16
-176.51
-179.216
-181.087
-179.588
-182.729
-170.948
-199.362
-20.7104
-422.379
-261.918
-10.354
-146.671
-139.77
-163.528
-170.358
-176.813
-179.167
-181.01
-179.551
-182.872
-170.81
-198.837
-20.3611
-422.981
-261.648
-9.99625
-146.229
-139.631
-163.893
-170.714
-177.234
-179.265
-180.868
-179.525
-183.068
-170.918
-198.843
-20.2132
-422.626
-261.522
-9.68523
-145.805
-139.597
-164.206
-170.951
-177.512
-179.337
-180.956
-179.655
-183.39
-170.218
-198.424
-20.1507
-422.464
-261.554
-9.30208
-145.284
-139.562
-164.513
-171.236
-177.985
-179.631
-180.98
-179.667
-183.418
-170.561
-198.64
-19.9479
-422.372
-261.753
-8.94102
-144.766
-139.563
-164.696
-171.428
-178.246
-179.517
-181.021
-179.703
-183.475
-170.701
-198.704
-19.6677
-422.361
-261.906
-8.82481
-144.613
-139.586
-164.788
-171.545
-178.43
-179.642
-181.01
-179.74
-183.334
-170.917
-198.642
-19.3472
-422.766
-261.941
-8.98393
-145.009
-139.66
-164.812
-171.571
-178.477
-179.705
-181.307
-179.85
-183.222
-170.897
-198.812
-19.4642
-422.103
-262.079
-9.30712
-145.646
-139.756
-164.731
-171.509
-178.284
-179.824
-181.415
-180.023
-183.165
-170.565
-198.611
-19.6272
-421.681
-262.373
-9.67441
-146.29
-139.898
-164.557
-171.336
-177.978
-179.714
-181.451
-179.98
-183.652
-170.456
-198.426
-19.694
-421.363
-262.735
-9.98981
-146.786
-140.019
-164.332
-171.184
-177.761
-179.677
-181.517
-179.916
-183.43
-170.98
-198.683
-19.653
-421.09
-263.162
-10.3745
-147.298
-140.257
-164.075
-170.938
-177.512
-179.693
-181.897
-179.981
-183.414
-171.256
-198.835
-19.717
-421.159
-263.474
-10.5638
-147.539
-140.371
-163.877
-170.8
-177.318
-179.845
-182.133
-180.137
-183.213
-171.305
-199.365
-20.0136
-420.302
-263.875
-11.0391
-148.07
-140.738
-163.591
-170.455
-176.854
-179.882
-182.704
-180.267
-182.812
-171.324
-199.561
-20.3562
-419.696
-346.058
18.6347
-143.4
-144.338
-164.326
-172.347
-178.345
-180.796
-183.569
-180.519
-181.578
-169.927
-206.371
34.0384
-575.741
-345.729
18.8138
-143.052
-143.986
-164.62
-172.728
-178.86
-180.838
-183.172
-180.524
-182.15
-170.18
-205.911
34.1383
-576.25
-345.549
18.7221
-142.906
-143.903
-164.811
-172.853
-179.04
-180.671
-182.945
-180.408
-182.439
-170.128
-204.761
34.3938
-577.129
-345.348
18.6915
-142.519
-143.701
-165.092
-173.151
-179.371
-180.68
-182.578
-180.228
-182.99
-170.334
-204.912
34.1638
-576.365
-345.419
18.6011
-142.098
-143.643
-165.333
-173.324
-179.565
-180.63
-182.454
-180.124
-183.482
-169.956
-204.403
33.9173
-576.014
-345.669
18.6268
-141.524
-143.583
-165.566
-173.572
-179.923
-180.867
-182.419
-180.077
-183.337
-170.212
-204.434
34.0064
-575.684
-345.981
18.6021
-140.904
-143.598
-165.703
-173.734
-180.133
-180.823
-182.54
-180.04
-183.244
-170.216
-204.261
34.2757
-575.612
-346.13
18.5345
-140.701
-143.632
-165.783
-173.852
-180.286
-180.926
-182.573
-180.051
-183.114
-170.464
-203.726
34.817
-576.161
-346.073
18.5598
-141.183
-143.714
-165.852
-173.905
-180.36
-181.04
-182.75
-180.207
-183.268
-170.425
-204.439
34.7206
-575.187
-346.119
18.7203
-141.917
-143.813
-165.843
-173.9
-180.285
-181.192
-182.989
-180.497
-183.519
-170.39
-204.551
34.6508
-574.542
-346.36
18.9108
-142.627
-144
-165.769
-173.805
-180.123
-181.165
-183.138
-180.484
-183.768
-170.34
-204.488
34.6674
-574.132
-346.688
19.099
-143.128
-144.155
-165.632
-173.74
-180.03
-181.25
-183.441
-180.69
-183.476
-170.643
-204.86
34.9723
-573.717
-347.116
19.0854
-143.594
-144.478
-165.487
-173.594
-179.901
-181.436
-184.052
-180.923
-182.877
-170.721
-204.794
35.3278
-574.036
-347.419
19.1194
-143.77
-144.628
-165.362
-173.542
-179.837
-181.725
-184.412
-181.123
-182.345
-170.668
-205.902
35.1475
-572.757
-347.842
18.8389
-144.175
-145.088
-165.19
-173.301
-179.486
-181.859
-184.987
-181.089
-181.875
-170.75
-206.348
35.1604
-571.9
-440.672
18.2476
-137.621
-154.713
-168.013
-177.431
-183.023
-184.886
-187.545
-183.077
-184.355
-175.584
-216.022
79.2868
-750.238
-440.437
18.4784
-137.466
-154.395
-168.226
-177.787
-183.475
-184.963
-187.335
-183.212
-184.789
-175.951
-215.319
77.5531
-751.525
-440.353
18.4072
-137.416
-154.328
-168.368
-177.885
-183.572
-184.742
-187.169
-183.135
-184.814
-176.188
-213.424
76.0081
-753.308
-440.353
18.3987
-137.199
-154.15
-168.563
-178.141
-183.836
-184.662
-186.942
-183.04
-185.134
-176.475
-213.228
74.0247
-753.055
-440.638
18.2672
-136.907
-154.109
-168.738
-178.282
-183.977
-184.53
-186.829
-182.856
-185.475
-176.316
-212.324
72.5496
-752.837
-440.953
18.0684
-136.472
-154.065
-168.898
-178.509
-184.265
-184.805
-186.723
-182.739
-185.141
-176.391
-211.92
71.6811
-752.637
-441.275
17.6012
-135.984
-154.095
-168.996
-178.661
-184.443
-184.834
-186.823
-182.711
-185.011
-176.338
-211.447
71.4933
-752.45
-441.407
17.2551
-135.827
-154.15
-169.073
-178.791
-184.588
-184.948
-186.755
-182.77
-184.981
-176.707
-210.791
71.7056
-752.715
-441.349
17.4349
-136.256
-154.265
-169.202
-178.886
-184.704
-185.115
-186.936
-182.916
-185.178
-176.554
-211.821
72.9468
-751.637
-441.382
17.998
-136.869
-154.377
-169.278
-178.94
-184.749
-185.303
-187.307
-183.278
-185.844
-176.646
-212.376
73.9986
-750.637
-441.589
18.5476
-137.449
-154.576
-169.32
-178.932
-184.721
-185.349
-187.699
-183.417
-186.1
-176.677
-212.624
75.3604
-749.695
-441.85
18.9613
-137.838
-154.73
-169.279
-178.936
-184.727
-185.518
-187.945
-183.767
-186.302
-176.941
-213.418
77.1455
-748.626
-442.213
18.9901
-138.171
-155.057
-169.261
-178.89
-184.704
-185.886
-188.349
-183.906
-185.936
-176.876
-213.591
79.296
-747.782
-442.454
18.9635
-138.266
-155.207
-169.202
-178.889
-184.734
-186.244
-188.618
-184.084
-185.817
-176.592
-215.413
80.7696
-745.022
-442.822
18.5475
-138.499
-155.664
-169.149
-178.72
-184.482
-186.416
-188.895
-184.078
-185.691
-176.67
-216.108
82.7111
-742.919
-551.958
-10.8292
-136.003
-173.431
-175.27
-185.389
-190.399
-191.013
-194.521
-190.81
-194.87
-191.689
-251.164
74.4041
-972.71
-551.794
-10.4627
-135.982
-173.185
-175.451
-185.827
-190.929
-191.39
-194.52
-190.5
-194.402
-191.777
-248.226
73.0014
-973.752
-551.856
-10.3263
-136.025
-173.124
-175.592
-185.996
-191.08
-191.362
-194.317
-189.949
-193.709
-191.868
-244.575
71.9009
-974.785
-552.011
-10.0153
-135.979
-172.992
-175.756
-186.302
-191.392
-191.48
-194.101
-189.602
-193.455
-191.996
-241.909
71.6398
-973.847
-552.313
-9.96527
-135.906
-172.959
-175.907
-186.488
-191.528
-191.394
-194.11
-189.602
-193.54
-192.049
-239.113
70.7824
-973.608
-552.596
-10.1021
-135.736
-172.937
-176.032
-186.732
-191.75
-191.708
-193.988
-189.715
-192.976
-192.467
-237.539
70.3439
-972.401
-552.904
-10.581
-135.527
-172.992
-176.116
-186.897
-191.892
-191.738
-193.961
-190.183
-192.888
-193.061
-236.568
69.549
-972.208
-553.088
-10.8812
-135.493
-173.093
-176.208
-187.057
-192.051
-191.834
-193.584
-190.283
-192.77
-193.923
-236.25
69.2684
-970.643
-553.178
-10.6669
-135.783
-173.247
-176.391
-187.221
-192.229
-192.132
-194.078
-190.651
-193.37
-193.682
-237.256
70.9418
-970.167
-553.299
-10.2068
-136.119
-173.4
-176.545
-187.344
-192.41
-192.491
-194.636
-190.83
-194.248
-193.415
-238.662
72.5899
-968.219
-553.514
-9.90251
-136.44
-173.637
-176.701
-187.419
-192.594
-192.642
-195.374
-190.761
-194.706
-192.983
-240.357
73.403
-967.654
-553.735
-9.72262
-136.652
-173.82
-176.741
-187.451
-192.72
-192.854
-195.713
-190.952
-195.198
-193.097
-243.255
74.5001
-965.884
-554.044
-9.94289
-136.864
-174.148
-176.829
-187.442
-192.773
-193.158
-196.101
-191.295
-195.505
-193.175
-246.032
75.1496
-965.428
-554.232
-10.111
-136.91
-174.316
-176.81
-187.414
-192.796
-193.371
-196.443
-192.075
-196.369
-193.423
-249.774
76.4872
-963.215
-554.554
-10.7021
-137.065
-174.748
-176.854
-187.236
-192.573
-193.304
-196.485
-192.675
-197.2
-193.89
-252.641
78.1649
-961.024
-677.646
-48.3257
-142.902
-201.186
-188.786
-198.059
-202.339
-201.649
-207.07
-205.887
-222.238
-220.48
-341.027
101.949
-1222.19
-677.654
-47.8926
-142.88
-200.991
-188.928
-198.515
-203.031
-201.942
-207.114
-205.645
-220.222
-220.52
-332.857
93.4362
-1230.82
-677.833
-47.664
-142.921
-200.936
-189.084
-198.823
-203.348
-202.082
-206.89
-205.361
-217.504
-220.614
-323.026
88.0669
-1242.42
-677.977
-47.3254
-142.932
-200.834
-189.247
-199.191
-203.824
-202.183
-206.559
-204.136
-214.634
-219.496
-310.959
79.1371
-1245.1
-678.261
-47.245
-142.974
-200.809
-189.404
-199.424
-204.046
-202.098
-206.389
-203.661
-213.505
-220.605
-302.292
71.2867
-1245.27
-678.526
-47.2495
-142.985
-200.806
-189.526
-199.616
-204.275
-202.17
-206.096
-204.376
-213.115
-222.079
-296.64
66.5561
-1244.77
-678.851
-47.429
-143.039
-200.89
-189.622
-199.739
-204.405
-202.033
-205.947
-204.83
-213.673
-223.697
-293.601
63.7477
-1243.26
-679.122
-47.4893
-143.125
-201.044
-189.771
-199.942
-204.665
-202.108
-205.283
-204.428
-213.965
-225.068
-294.211
61.5157
-1238.98
-679.378
-47.3845
-143.287
-201.243
-190.015
-200.161
-204.935
-202.43
-206.472
-205.361
-215.226
-224.459
-295.289
65.0376
-1236.97
-679.6
-47.2494
-143.426
-201.46
-190.254
-200.41
-205.265
-203.028
-207.523
-206.104
-216.028
-223.661
-299.414
70.6333
-1234.35
-679.857
-47.3167
-143.624
-201.787
-190.561
-200.706
-205.694
-203.653
-208.388
-205.878
-216.395
-222.348
-305.633
79.0624
-1232.95
-680.064
-47.4124
-143.768
-202.044
-190.7
-200.817
-205.908
-204.182
-209.068
-206.487
-217.987
-221.831
-315.204
90.063
-1230.27
-680.349
-47.8042
-143.979
-202.429
-190.925
-200.906
-206.029
-204.682
-209.839
-207.977
-220.859
-223.455
-327.256
100.149
-1223.61
-680.497
-48.0067
-144.054
-202.629
-190.953
-200.801
-205.981
-204.792
-210.583
-208.713
-223.941
-223.932
-336.574
105.57
-1209.04
-680.795
-48.5817
-144.254
-203.073
-191.151
-200.691
-205.776
-204.632
-210.787
-209.237
-226.371
-224.577
-344.63
114.969
-1197.92
-816.987
-85.9416
-157.257
-236.489
-211.996
-217.897
-221.509
-213.603
-226.313
-218.348
-273.776
-231.566
-520.54
40.786
-1577.44
-817.045
-85.6018
-157.218
-236.339
-211.997
-218.298
-221.967
-214.391
-226.64
-219.464
-269.81
-235.135
-488.562
44.8656
-1580.17
-817.311
-85.4011
-157.235
-236.317
-212.167
-218.871
-222.818
-215.585
-227.045
-220.41
-264.626
-242.227
-458.636
48.8316
-1582.03
-817.518
-85.1172
-157.255
-236.249
-212.285
-219.318
-223.584
-216.122
-226.396
-221.556
-259.314
-248.325
-432.292
51.6567
-1587.56
-817.882
-85.0199
-157.342
-236.256
-212.429
-219.559
-223.914
-216.176
-226.281
-222.192
-255.438
-250.806
-412.708
52.8036
-1592.2
-818.197
-84.9257
-157.441
-236.281
-212.501
-219.54
-223.741
-215.524
-225.793
-223.585
-256.181
-256.994
-403.222
53.7159
-1585.34
-818.586
-84.9413
-157.619
-236.416
-212.611
-219.572
-223.584
-214.699
-225.561
-223.753
-256.952
-259.296
-395.322
50.517
-1591.87
-818.926
-84.9127
-157.776
-236.628
-212.867
-219.938
-224.277
-214.813
-225.84
-222.875
-257.726
-261.491
-401.254
48.1356
-1568.42
-819.275
-84.9589
-157.925
-236.884
-213.197
-220.147
-224.427
-215.24
-227.168
-224.593
-259.599
-260.446
-399.115
49.4289
-1580.77
-819.558
-85.0446
-158.05
-237.184
-213.567
-220.572
-225.04
-216.504
-228.957
-226.295
-261.454
-259.342
-409.957
57.2405
-1569.99
-819.88
-85.3102
-158.278
-237.636
-214.147
-221.394
-226.408
-218.227
-230.267
-226.147
-261.877
-254.74
-422.162
60.1001
-1576.19
-820.118
-85.5233
-158.446
-237.991
-214.482
-221.754
-226.973
-219.374
-231.213
-225.512
-266.136
-252.703
-444.741
61.9482
-1565.58
-820.45
-85.9536
-158.71
-238.473
-214.962
-222.049
-227.269
-220.043
-232.688
-225.228
-272.275
-247.629
-473.541
58.9151
-1556.24
-820.605
-86.1435
-158.819
-238.71
-215.079
-221.798
-226.787
-219.276
-233.195
-224.969
-278.641
-242.203
-504.399
54.3334
-1547.46
-820.929
-86.6606
-159.076
-239.206
-215.578
-221.968
-227.076
-219.013
-233.372
-224.343
-283.237
-239.693
-534.522
50.1133
-1540.74
-972.016
-126.561
-176.488
-279.631
-248.682
-251.277
-259.016
-232.163
-270.193
-230.357
-384.238
-209.708
-1124.17
201.903
-1868.69
-972.167
-126.272
-176.445
-279.515
-248.475
-251.4
-258.465
-233.255
-269.014
-233.18
-376.018
-223.375
-1017.29
174.229
-1935.42
-972.559
-126.064
-176.46
-279.528
-248.59
-252.006
-259.652
-235.484
-269.346
-234.449
-363.459
-237.988
-862.55
183.143
-2046.52
-972.855
-125.8
-176.506
-279.502
-248.568
-252.394
-260.046
-236.61
-266.933
-237.039
-344.793
-249.962
-670.285
156.972
-2061.82
-973.324
-125.697
-176.626
-279.573
-248.656
-252.641
-260.014
-237.126
-266.007
-240.594
-334.559
-272.728
-583.241
129.093
-2058.06
-973.728
-125.569
-176.77
-279.671
-248.662
-252.553
-258.813
-235.853
-264.021
-242.25
-331.047
-280.225
-555.656
108.783
-2034.78
-974.22
-125.57
-176.998
-279.899
-248.854
-252.669
-258.44
-235.253
-263.193
-243.168
-330.095
-285.596
-543.74
88.2631
-2023.83
-974.641
-125.575
-177.204
-280.189
-249.256
-253.284
-259.868
-236.428
-265.283
-242.415
-331.901
-287.405
-558.537
79.9486
-2004.36
-975.091
-125.736
-177.425
-280.536
-249.743
-253.64
-259.808
-237.176
-266.156
-245.063
-333.98
-286.69
-548.094
90.113
-2000.2
-975.458
-125.92
-177.617
-280.93
-250.305
-254.29
-260.691
-238.411
-269.156
-247.781
-340.411
-284.921
-569.184
118.462
-1998.19
-975.885
-126.27
-177.92
-281.507
-251.253
-255.587
-264.008
-240.625
-273.476
-247.612
-347.699
-277.025
-607.364
147.234
-2010.79
-976.205
-126.515
-178.141
-281.966
-251.897
-256.339
-265.696
-242.534
-276.78
-245.459
-361.335
-258.485
-724.764
184.756
-2000.6
-976.629
-126.969
-178.469
-282.57
-252.782
-257.047
-266.997
-243.238
-281.028
-244.328
-383.234
-251.434
-928.779
215.865
-1968.16
-976.823
-127.167
-178.603
-282.864
-253.097
-256.952
-266.308
-241.821
-282.145
-244.47
-398.117
-239.514
-1066.87
213.528
-1850.36
-977.198
-127.697
-178.917
-283.456
-254.012
-257.711
-267.989
-242.213
-284.645
-242.981
-408.986
-229.486
-1172.33
242.746
-1782.2
-1140.39
-175.27
-199.629
-331.189
-298.185
-299.688
-321.872
-267.732
-350.309
-244.889
-512.746
-104.015
-1211.18
-21.8069
-2260.17
-1140.64
-174.988
-199.593
-331.098
-297.803
-299.547
-320.257
-267.638
-346.525
-249.985
-504.733
-134.278
-1209.7
3.67363
-2256.81
-1141.15
-174.759
-199.617
-331.152
-297.834
-300.059
-321.017
-271.394
-345.483
-254.574
-502.006
-166.473
-1284.62
-27.0112
-2337.51
-1141.54
-174.502
-199.684
-331.181
-297.663
-300.303
-320.429
-273.119
-340.804
-259.472
-477.791
-204.169
-1112.57
74.0299
-2625.41
-1142.13
-174.399
-199.836
-331.345
-297.716
-300.56
-319.772
-273.403
-337.211
-263.425
-445.364
-233.295
-826.331
167.227
-2622.96
-1142.66
-174.264
-200.014
-331.547
-297.742
-300.631
-318.427
-272.187
-334.354
-267.222
-440.365
-284.311
-748.347
157.877
-2559.32
-1143.28
-174.305
-200.282
-331.907
-298.111
-301.027
-318.402
-272.635
-332.501
-270.028
-437.593
-284.268
-709.598
122.495
-2618.84
-1143.82
-174.366
-200.541
-332.311
-298.691
-301.878
-320.185
-275.601
-335.979
-273.298
-442.135
-277.431
-889.611
36.3928
-2379.75
-1144.41
-174.616
-200.864
-332.805
-299.448
-302.561
-320.778
-275.543
-338.245
-273.652
-443.352
-285.236
-703.355
127.601
-2616.85
-1144.9
-174.864
-201.154
-333.324
-300.296
-303.489
-322.446
-276.265
-343.851
-274.935
-456.251
-285.806
-777.647
175.735
-2520.84
-1145.46
-175.301
-201.566
-334.045
-301.645
-305.078
-327.027
-279.117
-351.37
-273.903
-472.817
-242.079
-917.586
172.807
-2597.72
-1145.87
-175.612
-201.871
-334.622
-302.673
-306.252
-330.178
-282.846
-359.381
-273.495
-510.872
-218.465
-1239.08
74.8339
-2519.34
-1146.38
-176.156
-202.305
-335.39
-304.063
-307.544
-333.3
-284.18
-367.465
-270.493
-536.966
-184.571
-1334.12
1.11883
-2242.7
-1146.62
-176.415
-202.486
-335.769
-304.691
-307.809
-333.623
-281.269
-370.49
-267.658
-546.154
-156.393
-1268.18
10.522
-2158.34
-1147.04
-177.042
-202.899
-336.512
-306.094
-309.195
-337.283
-283.192
-377.074
-264.433
-558.631
-134.152
-1276.08
1.93063
-2156.49
-1318.99
-237.319
-228.406
-394.691
-364.051
-365.862
-413.523
-337.267
-465.179
-278.744
-584.599
-170.397
-553.847
4.44891
-3538.12
-1319.34
-237.055
-228.372
-394.646
-363.576
-365.725
-411.575
-337.12
-461.547
-285.428
-603.225
-175.316
-807.985
-201.592
-3155.81
-1319.98
-236.812
-228.399
-394.768
-363.55
-366.218
-411.517
-340.817
-459.932
-291.138
-604.011
-172.247
-985.293
-140.623
-2878.13
-1320.5
-236.554
-228.484
-394.881
-363.303
-366.477
-410.4
-342.668
-455.769
-300.458
-605.994
-190.591
-1241.58
-177.358
-2866.97
-1321.23
-236.451
-228.672
-395.165
-363.395
-366.918
-409.536
-343.157
-449.55
-309.778
-577.131
-231.398
-1163.26
-46.4036
-3301.86
-1321.9
-236.318
-228.886
-395.489
-363.531
-367.267
-408.611
-342.542
-445.003
-315.183
-551.755
-254.608
-1015.41
165.319
-3164.78
-1322.68
-236.397
-229.216
-396.002
-364.134
-368.062
-409.151
-344.421
-444.341
-321.076
-561.846
-296.451
-883.532
129.833
-3225.5
-1323.37
-236.506
-229.548
-396.541
-364.928
-369.113
-411.106
-347.752
-449.665
-324.509
-576.98
-243.818
-1227.04
-64.4745
-2836.18
-1324.12
-236.845
-229.99
-397.226
-366.061
-370.178
-413.003
-347.443
-452.012
-327.129
-570.174
-289.29
-844.628
151.248
-3221.75
-1324.75
-237.187
-230.392
-397.894
-367.286
-371.329
-415.898
-347.68
-458.823
-325.884
-583.905
-270.587
-1099.02
222.837
-3107.92
-1325.43
-237.759
-230.938
-398.791
-369.09
-373.184
-421.324
-352.084
-471.463
-325.651
-624.03
-253.24
-1328.85
25.6807
-3178.83
-1325.93
-238.183
-231.353
-399.493
-370.551
-374.601
-425.808
-356.231
-484.96
-321.296
-657.809
-215.116
-1290.76
-58.512
-2741.68
-1326.54
-238.86
-231.93
-400.443
-372.495
-376.38
-430.696
-358.521
-494.902
-316.285
-660.471
-204.415
-1010.49
-29.99
-2821.24
-1326.83
-239.204
-232.18
-400.908
-373.483
-376.973
-432.724
-356.295
-500.041
-313.235
-670.67
-214.34
-802.574
-46.8369
-3079.63
-1327.3
-239.959
-232.729
-401.821
-375.389
-378.79
-437.661
-358.921
-509.509
-308.894
-662.174
-201.972
-638.455
184.156
-3284.68
-1502.16
-314.432
-261.839
-468.065
-442.61
-442.139
-521.202
-428.965
-605.797
-350.845
-715.133
-178.166
-890.247
752.386
-4177.81
-1502.61
-314.186
-261.781
-468.062
-442.012
-442.097
-519.259
-429.936
-604.622
-356.533
-742.248
-190.154
-901.267
163.37
-4277.25
-1503.37
-313.923
-261.804
-468.267
-441.95
-442.699
-518.811
-433.281
-605.15
-365.956
-769.437
-235.896
-1134.86
-245.934
-4006.58
-1504.03
-313.655
-261.893
-468.468
-441.619
-443.075
-517.371
-435.289
-602.266
-372.607
-780.216
-252.23
-1276.73
-121.01
-3442.94
-1504.92
-313.557
-262.115
-468.898
-441.797
-443.877
-516.601
-437.221
-596.858
-386.976
-752.228
-273.884
-1608.85
-207.541
-3454.99
-1505.77
-313.434
-262.371
-469.358
-442.053
-444.583
-516.147
-438.299
-592.917
-395.742
-728.085
-352.712
-1529.6
39.5604
-3859.97
-1506.73
-313.561
-262.788
-470.061
-442.935
-445.871
-517.337
-441.217
-592.87
-403.938
-716.997
-338.316
-1153.1
206.284
-3969.46
-1507.61
-313.729
-263.217
-470.769
-444.03
-447.184
-519.918
-444.381
-600.855
-410.236
-769.577
-326.535
-1587.53
-7.46423
-3333.82
-1508.55
-314.181
-263.81
-471.702
-445.698
-448.735
-523.357
-445.544
-602.635
-412.256
-721.333
-332.085
-1186.74
234.9
-3988.85
-1509.34
-314.647
-264.352
-472.564
-447.465
-450.161
-527.942
-446.71
-614.262
-411.634
-773.284
-377.866
-1666.86
116.652
-3790.38
-1510.18
-315.391
-265.079
-473.703
-449.939
-452.382
-534.853
-451.21
-633.028
-409.938
-818.265
-300.572
-1720.68
-118.123
-3363
-1510.81
-315.959
-265.645
-474.575
-451.997
-453.987
-540.902
-454.359
-650.163
-403.141
-859.118
-298.248
-1341.74
-59.6554
-3448.15
-1511.53
-316.81
-266.426
-475.772
-454.716
-456.303
-547.952
-457.731
-664.83
-403.232
-868.669
-304.674
-1186.3
-46.3982
-4024.74
-1511.9
-317.267
-266.783
-476.357
-456.18
-457.214
-551.659
-457.258
-671.312
-400.685
-859.663
-263.27
-1062.05
377.169
-4103.71
-1512.45
-318.189
-267.532
-477.508
-458.801
-459.581
-558.196
-460.369
-682.269
-400.451
-859.82
-268.829
-1146.45
744.548
-3993.36
-1681.69
-413.16
-306.315
-556.631
-549.4
-542.918
-673.229
-551.876
-835.353
-456.735
-1103.78
-290.514
-1940.63
440.587
-4620.83
-1682.2
-412.939
-306.195
-556.668
-548.447
-542.945
-670.101
-553.535
-828.879
-464.105
-1079.19
-278.445
-1749.26
462.695
-4713.32
-1683.07
-412.665
-306.192
-556.984
-548.231
-543.838
-668.778
-556.798
-825.517
-472.45
-1083.59
-284.004
-1714.3
-50.617
-4972.76
-1683.86
-412.398
-306.237
-557.284
-547.602
-544.457
-666.128
-559.373
-818.781
-479.191
-1111.65
-361.413
-1899.84
-387.535
-4540.75
-1684.89
-412.317
-306.463
-557.89
-547.729
-545.814
-664.649
-562.629
-807.154
-488.14
-1039.52
-301.63
-1930.43
-166.767
-4100.39
-1685.89
-412.219
-306.733
-558.494
-547.965
-546.96
-663.937
-565.737
-802.756
-502.864
-1016.36
-393.112
-2298.16
-216.232
-4137.05
-1687.03
-412.404
-307.231
-559.407
-549.127
-548.799
-665.547
-570.121
-801.427
-519.726
-971.037
-440.841
-1763.71
14.1999
-5020.04
-1688.08
-412.641
-307.765
-560.272
-550.613
-550.377
-669.274
-573.883
-814.458
-535.062
-1056.85
-510.2
-1639.08
486.336
-4500.47
-1689.2
-413.199
-308.537
-561.434
-553.035
-552.332
-674.778
-575.997
-819.383
-531.427
-1002
-474.341
-1977.66
236.565
-4864.81
-1690.17
-413.777
-309.261
-562.451
-555.621
-553.881
-682.065
-577.181
-840.08
-521.762
-1075.63
-418.558
-2576.26
230.486
-4020.82
-1691.17
-414.663
-310.237
-563.797
-559.152
-556.328
-692.194
-580.852
-868.687
-517.222
-1151.95
-367.336
-2080.06
223.059
-4464.6
-1691.94
-415.364
-311.01
-564.791
-562.164
-557.94
-701.593
-583.452
-900.139
-518.766
-1267.73
-462.371
-2022.6
216.776
-4865.79
-1692.77
-416.379
-312.068
-566.208
-566.064
-560.663
-712.661
-587.704
-930.246
-523.907
-1319.86
-421.09
-2317.9
700.72
-4803.01
-1693.23
-416.946
-312.578
-566.872
-568.236
-561.701
-719.104
-588.658
-948.911
-527.708
-1357.39
-419.955
-2560.32
965.925
-4464.12
-1693.84
-418.027
-313.598
-568.261
-571.932
-564.685
-729.221
-593.257
-974.87
-531.563
-1429.1
-417.824
-2983.58
1033.62
-4336.2
-1849.27
-532.273
-357.475
-652.692
-666.639
-644.121
-837.772
-673.321
-1141.69
-608.341
-1862.33
-358.696
-4593.89
659.243
-4923.05
-1849.81
-532.019
-357.207
-652.62
-664.675
-643.487
-829.928
-671.74
-1115.7
-609.13
-1820.42
-504.727
-4274.64
693.422
-5027.12
-1850.76
-531.756
-357.152
-653.015
-663.963
-644.512
-825.587
-674.028
-1095.84
-602.725
-1786.44
-551.315
-3777.49
797.78
-5362.91
-1851.65
-531.467
-357.062
-653.329
-662.422
-644.941
-818.356
-675.288
-1065.42
-597.64
-1754.65
-630.628
-3333.2
311.52
-5913.99
-1852.82
-531.421
-357.255
-654.106
-662.11
-646.665
-813.553
-678.38
-1029.5
-596.956
-1548.17
-511.941
-2840.27
344.503
-6078.63
-1853.98
-531.342
-357.488
-654.814
-661.947
-647.995
-810.649
-682.69
-1013.63
-611.496
-1434.93
-431.035
-3388.57
65.5994
-5714.78
-1855.32
-531.611
-358.066
-655.952
-663.278
-650.282
-811.859
-688.119
-1007.48
-631.273
-1329.57
-588.864
-2810.35
408.358
-6991.72
-1856.57
-531.936
-358.707
-656.969
-665.148
-651.999
-816.869
-693.053
-1026.26
-654.648
-1403.34
-612.53
-2495.77
1046.96
-6675.58
-1857.92
-532.65
-359.709
-658.387
-668.55
-654.295
-825.313
-695.444
-1040.11
-646.386
-1395.55
-636.154
-3062.85
689.4
-6903.79
-1859.11
-533.379
-360.68
-659.581
-672.311
-655.929
-836.981
-696.283
-1076.88
-626.214
-1528.13
-481.396
-3451.08
473.544
-6193.13
-1860.35
-534.476
-362.015
-661.211
-677.494
-658.731
-853.244
-699.308
-1129.74
-617.686
-1747
-605.231
-3240.07
510.949
-6617.46
-1861.31
-535.366
-363.085
-662.382
-682.053
-660.425
-869.368
-701.992
-1197.54
-631.7
-2090.44
-795.341
-4361.17
683.797
-6010.91
-1862.32
-536.648
-364.562
-664.163
-687.961
-663.977
-888.662
-708.249
-1265.71
-647.311
-2266.12
-719.907
-5233.49
752.182
-5248.84
-1862.88
-537.377
-365.302
-664.975
-691.333
-665.254
-900.159
-709.93
-1305.06
-665.011
-2310.13
-684.992
-5393.64
645.803
-5162.45
-1863.63
-538.732
-366.743
-666.797
-696.96
-669.707
-918.094
-719.791
-1362.68
-689.662
-2432.8
-551.925
-5835.95
694.117
-5133.01
-1963.32
-708.272
-439.859
-757.488
-849.093
-788.171
-1112.48
-819.552
-1597.51
-694.363
-2548.61
-199.784
-4762.89
508.692
-7188.64
-1963.87
-708.084
-439.217
-757.459
-845.28
-787.773
-1097.65
-818.951
-1552.74
-719.317
-2531.92
-429.668
-5138.54
694.83
-6804.15
-1964.77
-707.877
-438.963
-758.111
-843.415
-790.212
-1088.36
-827.961
-1519.59
-730.925
-2483.73
-493.651
-5292.61
1080.47
-6977.28
-1965.7
-707.656
-438.513
-758.651
-840.054
-792.12
-1073.86
-838.836
-1469.9
-757.785
-2497.78
-646.242
-5191.36
279.499
-7379.14
-1966.88
-707.69
-438.5
-759.811
-838.635
-795.932
-1063.63
-853.048
-1409.71
-792.588
-2191.61
-497.553
-4613.18
655.018
-7713.86
-1968.09
-707.711
-438.529
-760.764
-837.562
-798.642
-1056.31
-864.688
-1376.02
-826.233
-2034.59
-429.939
-4750.24
380.677
-7064.63
-1969.44
-708.096
-439.104
-762.158
-838.931
-801.937
-1055.94
-873.285
-1356.38
-853.752
-1896.32
-702.353
-4165.06
391.1
-9853.46
-1970.76
-708.561
-439.84
-763.234
-841.397
-803.651
-1062.72
-878.928
-1380.29
-876.308
-1970.84
-705.633
-3565.9
1587.84
-9724.59
-1972.17
-709.412
-441.163
-764.698
-846.363
-805.65
-1076.17
-879.331
-1403.88
-861.448
-1986.17
-795.138
-4241.49
1371.91
-9747.36
-1973.46
-710.272
-442.535
-765.739
-852.162
-806.09
-1095.87
-875.466
-1468.74
-837.736
-2179.1
-698.23
-4352.1
790.242