/*--------------------------------*- C++ -*----------------------------------*\
| =========                 |                                                 |
| \\      /  F ield         | OpenFOAM: The Open Source CFD Toolbox           |
|  \\    /   O peration     | Version:  4.1                                   |
|   \\  /    A nd           | Web:      www.OpenFOAM.org                      |
|    \\/     M anipulation  |                                                 |
\*---------------------------------------------------------------------------*/
FoamFile
{
    version     2.0;
    format      ascii;
    class       surfaceScalarField;
    location    "24";
    object      phi;
}
// * * * * * * * * * * * * * * * * * * * * * * * * * * * * * * * * * * * * * //

dimensions      [0 3 -1 0 0 0 0];

internalField   nonuniform List<scalar> 
19125
(
95.5766
-1.74257
1502.25
95.1469
-5.75713
1473.52
70.7709
-3.65096
1237.61
58.2018
-0.380833
1008.04
48.8322
4.63728
895.505
34.8683
6.67003
719.379
27.7743
8.695
685.196
18.3156
0.538366
521.138
5.44898
1.07106
227.507
-0.852206
-3.68734
95.3407
-20.7071
4.30469
310.25
-52.0914
5.85449
650.322
-88.5941
-1.11516
1244.06
-98.5876
-5.18831
1532.69
0.202893
1829.93
94.9451
-2.21653
1500.51
94.3971
-7.47094
1475.92
70.5932
-4.13586
1255.85
58.1791
0.337727
1036.21
48.8376
5.79182
913.045
35.3823
7.9524
724.17
27.8143
10.5368
654.586
18.1765
0.132211
484.736
5.69236
0.567195
221.688
-0.3898
-1.58273
106.742
-20.8073
6.44228
290.343
-52.4461
2.602
624.178
-88.4876
-0.929959
1258.8
-99.2773
-5.91018
1523.34
0.206443
1810.52
94.3694
-2.38347
1499.47
93.7937
-8.64519
1482.16
70.5885
-4.34868
1273.37
58.5032
0.783775
1054.63
49.0131
6.31824
918.374
36.2131
8.28542
727.304
27.8711
10.7595
611.727
16.927
2.77652
462.078
5.48945
1.98903
256.18
-2.54338
7.10904
128.766
-23.7431
4.72457
256.021
-53.1728
-6.49257
608.427
-89.162
-0.301143
1259.07
-101.414
-4.21341
1508.42
-0.524419
1770.36
93.8618
-2.19826
1494.04
93.5145
-9.37896
1484.98
71.0031
-4.26042
1288.92
59.1501
1.04766
1071.32
49.3722
6.29082
922.21
36.4611
8.22605
724.777
26.6366
12.062
591.374
14.801
8.48201
464.299
4.72925
6.54902
310.253
-5.05151
21.1717
160.656
-24.9199
-1.47847
256.261
-53.4108
-10.9679
666.046
-89.2166
-0.317873
1260.99
-100.407
-3.32376
1529.3
-0.677073
1784.31
93.6118
-1.60771
1483.75
93.1288
-9.03123
1489.46
71.2751
-3.8363
1307.52
59.6236
0.978915
1089.32
49.719
5.51834
925.963
36.7807
7.89603
719.586
26.4751
13.9349
582.91
17.1406
10.3873
453.038
6.41472
3.68935
214.064
-3.88125
26.7838
117.526
-23.9343
-10.1461
329.029
-53.5455
2.38459
821.976
-89.4343
0.413472
1249.9
-99.7574
-3.36214
1538.57
-0.502866
1791.34
93.8161
-0.663496
1466.56
92.7375
-6.74402
1491.63
71.4403
-2.75489
1326.58
59.9536
0.658737
1108.75
50.1964
3.7914
932
38.2076
6.2098
719.398
29.7301
10.8059
560.007
20.1607
2.84735
337.415
8.90655
0.745654
142.841
6.99515
17.4989
46.6396
-22.116
-7.14814
321.467
-53.4467
12.3784
764.886
-89.8492
0.406059
1254.27
-99.7101
-3.40796
1548.89
-0.188631
1791.52
94.7045
0.324097
1441.71
92.5275
-1.88611
1487.23
71.4638
-0.548733
1340.78
59.895
0.559832
1127.62
50.032
1.73127
941.346
39.1811
3.2322
728.845
28.5011
6.4517
516.191
17.6568
4.91895
349.265
12.6698
-1.8592
182.804
26.4886
-4.50095
14.6813
-22.5821
9.92777
255.179
-53.0598
9.68213
662.651
-89.8901
0.447158
1267.67
-100.472
-1.96376
1547.3
-0.0629395
1777.28
95.18
1.18637
1431.41
92.6463
3.73431
1482.31
71.6009
2.09662
1342.13
59.9387
0.684863
1132.56
50.0031
-0.334953
944.297
39.8669
-0.298925
736.963
30.1232
-0.739244
502.396
17.7616
4.50944
300.915
8.26029
4.61288
169.345
4.14099
-7.23557
52.7324
-27.9943
7.33679
216.295
-54.1566
-8.57363
582.977
-90.8301
-0.055822
1268.32
-102.332
1.23557
1533.35
-0.868898
1747.31
94.4664
2.07105
1448.38
92.5736
7.95527
1487.76
71.5009
4.08851
1338.22
59.9722
0.542841
1124.6
50.2406
-2.39683
941.103
39.9945
-3.9513
731.238
31.711
-9.33794
509.492
22.8406
-3.66468
281
3.55339
6.77606
106.456
-3.55973
-2.39077
100.9
-21.6894
5.74161
292.835
-53.3568
-15.087
617.323
-89.7722
-0.61499
1274.25
-100.235
2.71114
1551
-0.856403
1781.51
93.7548
2.7793
1472.33
92.832
9.8049
1490.99
71.4708
5.01326
1323.21
60.0057
0.209006
1105.31
50.3571
-4.07735
932.407
38.6699
-6.31524
719.181
28.8964
-12.4942
541.878
19.1942
-7.9399
347.657
3.68019
6.49937
131.972
-0.0867994
-0.939834
95.3812
-17.7757
11.7334
422.661
-53.3678
-0.450882
751.024
-89.7567
-0.456013
1257.31
-99.2791
2.47036
1552.07
-0.532031
1798.05
93.676
3.11711
1488.91
93.2492
9.87821
1488.73
71.3079
5.25439
1304.05
59.7213
0.0447514
1085.79
50.0061
-5.04149
924.985
36.9955
-6.91713
716.484
26.1153
-10.5018
578.743
15.3733
-4.41662
449.027
7.58339
4.77485
229.738
0.803364
-1.35318
101.44
-24.8843
4.25078
319.112
-54.0214
12.9133
836.791
-89.5486
0.354852
1256.53
-99.5214
2.57974
1544.31
-0.241737
1795.26
94.02
3.06783
1498.4
93.6778
8.94177
1484.11
71.06
5.15254
1285.23
59.2817
0.174134
1067.49
49.6383
-5.27308
919.96
36.4868
-7.01657
720.818
26.3906
-8.68387
592.966
14.9552
0.771435
468.884
4.49233
8.05349
283.429
-4.26741
12.8993
154.513
-24.4318
-1.78215
276.152
-53.9652
14.0191
712.007
-89.3067
0.754414
1267.54
-100.201
3.86524
1536.49
-0.160724
1787.54
94.6046
2.68987
1503.13
93.9999
7.63467
1481.37
70.6745
4.74916
1269.76
58.6653
0.431941
1050.76
49.2705
-4.96568
915.328
36.4809
-6.89933
725.94
27.9619
-8.61185
607.948
18.2791
2.51247
467.598
5.20571
5.60864
216.271
-2.44633
26.4903
91.2649
-26.13
-5.86315
231.121
-54.2771
3.15068
618.256
-89.5526
1.23005
1269.29
-101.236
5.73222
1516.06
-0.70242
1774.03
95.235
2.03919
1503.58
94.639
5.8319
1475.21
70.7063
4.07027
1252.3
58.3486
0.947853
1032.1
49.1135
-4.03961
909.853
35.7692
-5.90832
723.77
28.389
-7.68011
649.482
19.3153
0.889991
471.234
6.58513
3.78374
200.176
5.63539
21.769
39.9665
-25.0824
-4.50982
236.275
-53.7304
-4.64249
626.783
-89.0639
1.2187
1269.18
-99.1611
5.04909
1530.35
-0.544151
1813.87
95.9085
1504.87
95.4075
1473.09
70.899
1234.56
58.3708
1004.17
49.1059
892.454
35.2326
719.19
28.01
680.98
19.0385
522.862
-1.15112
206.891
1.23203
40.6711
-22.4476
278.936
-53.4088
653.849
-89.2053
1254.73
-98.4753
1539.34
1833.5
291.243
-4.46014
1455.53
277.703
-15.8803
1492.95
223.389
-12.5448
1296.15
178.311
-3.11006
1053.66
148.89
12.8944
919.982
107.436
19.4966
753.952
82.3428
26.9182
700.096
51.4055
5.07039
551.078
6.99479
0.687591
271.636
-21.4421
-1.69284
125.52
-75.427
14.0743
358.892
-167.528
13.4636
740.014
-251.247
-4.78105
1329.65
-292.31
-12.811
1578.69
1.9561
1847.73
289.205
-5.59603
1454.91
275.547
-20.2555
1493.96
222.737
-14.4089
1310.52
178.247
-1.41286
1079.01
148.977
16.203
939.008
108.595
22.8552
761.195
82.2666
32.0447
675.791
51.7219
4.70785
515.649
14.8812
-1.18709
260.414
-12.3425
1.35053
130.939
-76.1986
20.621
347.659
-169.545
4.8229
726.168
-251.848
-4.93854
1341.26
-294.807
-14.784
1568.27
1.82135
1829.66
287.502
-5.86832
1454.58
273.679
-23.0512
1498.78
222.351
-15.32
1325.61
178.79
-0.149539
1096.93
149.445
17.6134
946.31
110.739
23.5567
765.311
82.9513
31.9154
639.648
49.6538
10.7479
489.341
15.8492
3.03925
285.768
-15.4808
19.311
142.15
-83.4453
18.4017
326.212
-172.866
-16.3087
718.982
-255.116
-3.24059
1339.62
-302.064
-11.8353
1552.41
-1.88806
1791.09
285.916
-5.06631
1450.11
272.61
-24.6816
1499.92
223.306
-15.6085
1338.52
180.591
0.704453
1113.18
150.627
17.5333
952.256
111.587
23.0902
764.287
79.7995
34.5078
620.572
43.82
24.6554
486.377
15.7775
16.3277
325.019
-16.7672
48.7133
163.813
-82.4251
7.11867
333.209
-171.615
-25.69
764.621
-254.416
-3.08958
1343.65
-298.752
-9.88174
1571.68
-2.42597
1803.29
285.172
-3.13171
1440.71
271.562
-23.2937
1501.68
223.76
-14.5687
1354.28
181.72
0.857592
1131.21
151.611
15.2718
958.335
112.432
21.5902
760.268
79.1433
38.8182
611.893
49.211
30.0397
477.594
23.1916
10.9726
245.454
-13.5468
55.1167
147.88
-77.9085
-10.2357
410.753
-168.535
6.52402
880.391
-254.076
0.601696
1331.75
-296.441
-9.622
1580.68
-1.36508
1810.09
285.708
-0.470564
1424.62
270.942
-16.973
1500.07
223.92
-10.7965
1369.83
182.485
0.595255
1150.45
152.914
10.3571
966.488
115.948
16.6184
761.34
87.3456
31.0067
596.426
56.6299
12.1446
386.036
34.2241
-1.20583
177.443
5.5584
32.0275
98.4303
-76.0443
-5.29251
398.137
-169.94
29.3162
835.994
-255.105
1.59302
1338.45
-296.244
-8.90121
1589.31
0.197553
1810.02
288.399
1.64198
1400.89
271.417
-4.58368
1491.82
223.659
-2.46875
1380.21
182.235
1.19749
1168.45
152.274
4.70263
976.963
117.931
8.54353
771.267
85.1697
17.9136
562.051
51.8565
13.326
381.407
37.4312
-4.08177
200.124
19.2667
-1.17463
66.0867
-81.7498
7.27187
343.642
-172.339
20.7792
761.782
-256.108
1.33586
1351.7
-298.766
-4.83961
1585.89
0.4942
1796.34
290.017
3.04857
1390.93
272.19
9.5708
1485.98
223.963
7.56125
1380.33
182.407
2.47461
1172.84
152.089
-0.769359
980.09
119.426
-0.732392
778.907
89.1502
-2.29074
552.882
51.5636
8.48824
343.35
13.0784
21.9032
181.865
-14.7745
-9.2828
88.7267
-94.2089
-5.06572
308.077
-177.963
-18.4379
705.952
-259.658
-0.452397
1351.81
-304.81
2.60224
1571.06
-3.41057
1768.21
287.872
5.00455
1407.25
271.213
20.4678
1493.52
223.853
14.8169
1378.33
182.474
2.94647
1165.51
152.802
-6.35778
976.366
119.76
-10.1747
773.726
93.2218
-25.5665
559.312
61.5187
-12.1772
333.378
19.9013
22.067
147.93
-9.89157
-4.16254
125.596
-79.5024
2.61732
354.771
-173.407
-35.0037
727.797
-255.73
-2.56313
1358.68
-298.077
6.85495
1589.1
-3.77197
1800.75
285.679
6.94011
1430.38
270.977
25.6185
1500.54
224.089
17.8391
1367.08
182.677
2.61859
1147.05
153.314
-11.0576
966.472
117.048
-16.7622
762.039
85.8501
-34.4677
581.983
54.4475
-22.972
389.863
24.3075
12.2903
171.904
-0.424728
-15.011
130.983
-66.7563
27.3407
464.276
-168.976
-3.62182
821.864
-254.517
-1.23
1341.51
-294.795
7.15465
1592.05
-2.20834
1816.48
285.422
7.97955
1446.16
271.781
26.2322
1501.76
223.955
18.2708
1351.45
182.029
2.51198
1127.82
152.424
-13.8287
957.364
113.101
-19.0886
758.136
78.4166
-29.9482
608.914
45.5045
-14.7372
473.711
23.1395
10.9821
253.423
-7.75125
-21.3519
138.687
-78.9786
8.42291
409.264
-169.303
29.9652
893.53
-254.176
2.68277
1337.49
-295.458
7.71459
1585.03
-0.684675
1813.5
286.424
7.94733
1454.83
273.037
24.0759
1499.65
223.593
17.4572
1335.48
181.005
2.99886
1109.59
151.389
-14.4662
950.216
111.724
-19.7687
761.165
78.9482
-25.7939
621.592
43.9227
-2.22569
491.404
13.1966
24.0973
301.049
-16.6881
1.97364
161.087
-81.0415
-4.90127
353.834
-171.43
32.7326
799.629
-254.358
4.55106
1348.6
-297.728
10.543
1577.03
-0.211568
1805.57
288.208
6.99683
1458.53
274.255
20.9043
1498.5
222.729
16.0345
1322.7
179.309
3.74703
1093.43
150.209
-13.6615
943.626
111.432
-19.6259
764.577
82.9236
-26.1361
636.802
50.281
3.03536
494.986
7.04825
28.2434
255.37
-18.1317
11.0974
107.349
-88.1313
-12.6385
308.867
-175.141
8.75554
729.247
-255.839
5.88582
1348.65
-301.298
14.0452
1558.02
-3.28813
1793.54
290.056
5.32591
1458.21
276.242
16.2483
1493.68
223.194
13.669
1307.71
178.813
4.86737
1075.36
149.814
-10.9833
936.176
109.615
-16.9898
761.336
83.6695
-23.2567
672.553
52.428
0.152472
505.365
5.18835
29.6499
246.024
-13.7378
-13.538
83.5611
-85.9831
-14.0259
309.918
-172.915
-8.69665
731.172
-253.064
4.86629
1350.35
-294.378
12.4524
1573.26
-3.05141
1831.51
292.221
1458.31
278.48
1492.91
223.897
1293.86
178.908
1050.4
149.778
917.409
108.588
754.446
83.6918
697.471
52.9499
554.799
-0.535546
269.075
-28.5683
92.5656
-80.2576
328.694
-170.533
744.925
-252.591
1338.88
-291.846
1583.36
1849.63
519.385
-6.34023
1281.57
478.142
-21.0902
1540.67
403.402
-22.4354
1377.2
313.208
-10.9029
1146.01
256.902
16.6925
970.32
189.736
29.3947
812.497
140.581
43.5579
735.668
80.4778
11.4403
609.266
-12.4722
-28.8088
373.523
-85.6114
25.0715
200.003
-158.694
42.3036
421.059
-303.493
13.8638
884.262
-409.495
-10.9323
1439.72
-510.687
-15.0266
1684.65
6.68045
1769.14
515.449
-7.62543
1283.25
473.721
-26.4317
1541.03
401.816
-26.4733
1386.46
313.019
-9.5435
1166.44
257.136
21.5848
989.999
190.545
34.2167
822.966
138.567
51.0015
720.328
78.1331
12.1902
575.337
-10.3106
-31.6094
351.664
-80.9251
26.7668
199.866
-163.842
51.1996
421.684
-308.69
3.95949
880.922
-412.569
-12.8467
1447.06
-516.08
-17.4694
1674.23
6.95086
1751.91
512.431
-7.36551
1284.25
469.915
-29.4441
1544.31
400.321
-28.892
1397.62
313.007
-7.88668
1182.58
257.523
23.7966
999.584
193.074
35.0767
828.902
139.768
49.6772
694.281
75.9939
19.4038
545.905
-11.2634
-15.4614
356.883
-85.8955
42.5626
200.994
-174.167
46.4334
419.254
-314.148
-18.8079
881.732
-422.949
-8.06622
1443.64
-531.664
-14.329
1657.99
-0.791664
1712.45
509.378
-5.17723
1281.67
467.18
-30.9811
1543.65
401.111
-30.7669
1406.46
315.69
-6.61448
1197.33
259.683
23.9925
1008.07
194.582
34.1466
830.32
135.183
51.5801
678.072
68.1907
36.2115
536.566
-5.44986
12.6609
370.545
-76.9057
61.9289
215.912
-169.453
26.4459
445.749
-312.67
-28.7284
917.759
-419.758
-6.71689
1449.39
-524.885
-12.1118
1674.59
-2.5089
1723.98
507.659
-1.23535
1274.24
465.156
-28.6232
1541.83
401.046
-29.7865
1417.41
316.888
-5.49118
1214.25
261.105
20.933
1017.18
195.565
31.1291
828.827
133.649
55.7483
669.645
73.4264
44.9744
529.058
4.00696
15.3759
312.168
-69.453
54.8742
228.405
-158.405
1.77015
524.386
-305.875
8.27505
990.859
-417.066
-1.22178
1437.45
-520.032
-12.0806
1683.61
-0.848137
1731.25
508.426
2.65329
1260.3
464.946
-20.371
1535.3
400.708
-22.9102
1427.19
317.567
-3.85896
1231.96
262.884
14.1317
1027.97
199.972
23.3344
832.05
144.384
45.6959
662.071
82.8131
24.4421
468.145
12.403
-1.58331
264.825
-56.2684
27.777
194.215
-159.247
3.43381
499.458
-309.319
33.2138
961.129
-417.63
-0.35726
1445.89
-519.376
-11.504
1690.48
1.62242
1731.08
513.639
3.68807
1237.92
468.507
-5.10687
1521.69
400.029
-5.94324
1431.72
316.704
0.346702
1247.57
261.617
6.53597
1039.65
201.724
11.7372
842.76
143.437
25.6245
640.414
77.0682
20.0496
452.174
-2.52035
4.68633
273.455
-69.3191
-3.05293
163.731
-172.282
1.44225
448.602
-314.858
21.5714
916.003
-420.674
-0.937906
1458.1
-524.496
-7.09942
1685.31
1.40278
1716.92
516.79
3.32541
1227.86
471.21
12.1076
1514.34
400.518
14.9198
1430.16
316.923
5.87835
1250.9
261.251
-0.555135
1042.86
203.082
-0.81921
849.636
148.773
-3.90265
636.723
74.4426
10.0198
427.717
-31.1769
38.9302
253.253
-102.49
-5.85467
162.857
-186.199
-20.1829
413.417
-322.341
-19.6297
883.297
-430.056
0.234373
1458.35
-537.314
0.919287
1670.3
-6.9906
1688.05
512.889
5.31407
1243.12
467.753
25.7212
1525.04
400.402
29.521
1431.08
317.13
9.66367
1245
262.343
-7.98189
1038.58
203.838
-13.5599
844.974
154.104
-35.8383
640.986
88.7382
-19.5296
428.3
-1.16385
33.6905
243.083
-67.862
-1.84547
188.298
-167.61
-7.45294
441.794
-316.08
-39.264
895.903
-419.758
-2.77149
1465.37
-523.097
5.74436
1687.61
-8.53739
1721.98
508.951
8.51026
1265.02
465.01
32.6322
1537.57
401.096
34.8317
1425.68
317.938
11.0053
1228.86
263.448
-14.3527
1027.34
201.554
-23.194
833.57
143.801
-48.5857
652.487
79.9481
-33.7181
467.91
14.0866
10.6724
260.795
-44.7629
-28.4617
216.462
-146.42
21.7441
536.74
-307.628
-6.88122
950.691
-416.233
-2.22427
1449.57
-516.633
6.05715
1692.14
-6.27245
1737.78
508.614
10.6545
1279.44
465.523
33.9646
1543.52
401.475
34.6276
1415.7
317.418
11.666
1211.22
262.391
-18.0773
1016.12
196.947
-27.4692
827.858
133.379
-44.2172
668.117
68.6955
-22.094
526.775
-3.14887
18.975
316.974
-71.4183
-45.9646
224.468
-158.321
-8.30756
526.222
-306.02
32.6079
1001.74
-417.013
3.83384
1442.42
-517.977
6.75789
1685.3
-4.19353
1734.17
510.453
11.131
1286.61
467.866
31.5663
1544.64
401.699
31.8195
1404.46
316.403
12.3649
1194.19
260.944
-18.6504
1006.25
195.138
-28.7587
828.264
134.122
-40.1449
678.54
66.4574
-4.68637
541.665
-13.8914
49.8118
350.569
-81.8312
-39.7962
222.869
-165.575
-38.7538
468.03
-310.68
35.8531
941.492
-419.622
8.10841
1453.27
-522.761
10.5078
1676.42
-4.59346
1724.92
513.78
10.0659
1288.32
470.975
27.9045
1544.96
401.094
28.6572
1395.75
313.928
13.2612
1179.7
258.868
-17.3176
997.355
194.514
-28.6882
828.863
140.398
-41.9148
692.692
73.768
5.01764
551.918
-23.4458
67.7571
334.648
-95.3397
-41.6446
181.103
-177.901
-55.9758
408.656
-316.063
11.8522
891.414
-423.741
12.8328
1451.61
-529.829
14.9474
1659.67
-11.3179
1713.08
516.978
7.83172
1286.53
475.017
22.0418
1541.5
402.718
23.9581
1384.71
314.036
13.7434
1163.56
258.606
-13.3717
987.661
192.574
-24.9127
823.596
141.606
-37.5626
719.171
79.7429
2.53826
569.713
-11.7604
61.5164
343.776
-85.7007
-59.4912
175.358
-173.052
-52.4957
393.794
-311.581
-5.21616
886.772
-413.901
10.2978
1455.21
-514.569
13.5717
1675.31
-9.78785
1751.39
521.116
1284.16
479.634
1541.27
404.422
1375.95
314.323
1143.65
258.521
968.376
192.24
813.532
144.043
734.604
86.8842
614.619
4.20945
374.755
-72.9395
181.464
-161.047
400.832
-305.955
892.127
-411.373
1448.23
-509.403
1685.49
1768.07
741.175
-6.6433
1008.24
729.121
-19.8252
1557.83
624.49
-28.7745
1489.06
475.144
-22.9785
1299.99
369.885
11.8444
1070.76
279.894
33.5509
893.755
209.926
55.8929
791.291
128.942
14.0265
688.702
23.5801
-49.4643
498.565
-85.6886
49.256
308.787
-222.146
58.9816
543.522
-443.136
6.40437
1108.48
-623.113
-21.6612
1628.77
-758.082
-8.70303
1821.74
12.3777
1581.84
736.531
-7.39747
1012.03
721.779
-23.6065
1559.56
620.347
-34.775
1493.9
473.92
-23.8323
1313.73
370.442
16.8363
1088.49
280.335
39.2386
907.387
205.523
64.4842
786.551
118.895
13.6416
662.353
-0.129812
-61.6133
482.843
-105.279
48.3363
305.941
-233.506
70.0974
538.798
-452.332
-1.99501
1108.15
-631.46
-25.9491
1630.47
-765.859
-11.9736
1811.9
12.1168
1566.86
732.981
-5.88069
1014.23
715.722
-24.4038
1562.36
616.487
-38.731
1500.81
472.287
-23.1307
1326.08
370.216
19.5892
1098.9
282.05
40.5438
915.764
206.323
62.3446
772.15
112.851
19.4846
633.539
-20.7979
-41.4434
470.367
-128.775
51.8672
305.447
-249.391
66.4529
543.517
-463.582
-17.5359
1111.46
-656.865
-13.3421
1624.32
-788.514
-12.3511
1790.02
-2.55479
1527.36
728.293
-1.21696
1014.51
710.058
-23.8134
1561.3
615.34
-42.6306
1505.08
474.916
-22.7065
1337.33
373.39
20.2898
1108.89
283.99
39.7746
920.492
200.51
62.4815
761.418
98.7006
40.0544
617.81
-37.1515
1.86534
463.094
-141.872
48.4815
324.025
-255.166
37.012
588.487
-464.744
-24.9262
1134.73
-643.987
-10.3963
1625.68
-774.582
-11.4705
1804.31
-4.79639
1539.51
725.586
4.51611
1010.61
706.359
-19.8471
1557.09
613.605
-42.3999
1509.94
475.264
-20.7274
1350.61
374.971
17.7314
1120.03
284.846
35.8544
922.875
197.865
64.1447
754.966
99.6453
57.5343
609.802
-39.3449
24.957
428.073
-142.837
34.7018
345.684
-244.734
7.87783
655.42
-457.252
6.02901
1172.42
-635.93
-7.83774
1613.57
-766.665
-12.2971
1815.17
-1.20767
1547.83
726.479
7.47414
1000.85
707.039
-11.9042
1546.8
612.704
-33.1845
1512.31
475.194
-15.3318
1364.08
376.763
11.7556
1132.38
289.45
26.3604
928.859
209.364
52.8883
753.417
116.922
39.7837
578.343
-15.4477
13.2672
408.892
-121.468
23.4975
311.449
-244.327
12.798
617.4
-461.933
27.1698
1157.6
-635.416
-9.72195
1621.26
-765.531
-11.9879
1820.29
3.93539
1547.17
731.698
5.07079
983.095
714.868
-1.2991
1527.91
613.243
-8.85284
1509.01
473.63
-2.91686
1374.77
374.661
6.23069
1144.14
290.49
12.966
940.328
211.426
28.907
743.464
114.515
27.9998
560.874
-20.8512
11.996
410.1
-124.733
4.87098
286.249
-253.936
14.9953
575.612
-468.707
19.0117
1138.93
-644.127
-7.42105
1631.22
-774.252
-8.60754
1812.05
3.20395
1532.13
734.289
1.38517
974.576
719.743
8.99804
1518.59
614.871
21.1251
1505.05
474.069
12.378
1376.41
374.212
1.83158
1147.11
291.284
-0.699269
946.232
217.451
-5.00581
744.474
116.48
9.42205
547.271
-37.8224
31.2804
388.279
-143.288
1.35129
271.852
-265.734
-3.78743
554.651
-479.59
-12.5278
1128.69
-667.526
6.54342
1632.32
-795.023
-2.85824
1792.05
-11.7778
1500.83
730.138
2.66212
986.477
713.09
18.5635
1532.52
613.462
41.7382
1510.09
474.247
23.4328
1373.16
375.57
-3.66804
1142.76
292.45
-14.3728
941.77
221.777
-39.2593
745.917
133.556
-29.6394
555.588
-7.73932
24.4196
391.247
-117.684
10.1353
289.468
-252.581
-3.44513
576.352
-470.536
-31.0723
1132.4
-642.631
6.01034
1638
-773.28
1.83247
1813.57
-14.7677
1536.9
726.955
6.98637
1003.59
707.275
25.3593
1550.45
613.397
48.6272
1512.67
475.796
27.908
1361.99
377.433
-9.19383
1131.23
291.414
-25.2385
930.457
210.241
-54.0906
748.495
113.897
-44.2936
578.914
-11.3074
8.53504
401.891
-103.416
-8.94623
327.659
-233.43
7.01006
656.302
-461.703
-7.41984
1155.31
-633.453
1.8534
1625.48
-762.931
2.74496
1820.71
-10.2695
1552.77
728.01
10.3713
1014.19
707.808
28.6426
1560.43
614.566
47.4459
1510.12
475.978
29.0703
1348.64
376.451
-12.5014
1118.95
287.091
-30.7143
922.695
198.783
-52.5506
754.889
96.1998
-25.7445
610.813
-42.7756
29.6398
434.85
-139.928
-28.431
341.112
-242.328
-21.7204
657.354
-457.113
26.5879
1182.52
-636.15
5.27443
1618.04
-764.395
2.90878
1813.38
-5.95927
1549.11
731.008
11.6803
1018.59
711.86
28.5514
1563.88
616.532
42.3907
1504.84
475.86
28.6355
1335.29
374.89
-12.7146
1107.43
285.112
-32.0064
919.336
199.694
-50.7019
762.112
93.6583
-0.0874038
622.047
-49.2898
71.2401
451.92
-145.824
-44.7291
335.704
-249.76
-58.7986
609.044
-462.892
30.3622
1150.85
-644.671
11.3403
1628.98
-772.001
5.3218
1801.34
-5.93401
1538.06
735.375
10.8848
1017.86
717.824
26.8432
1564.22
617.983
37.4673
1500.51
473.565
28.36
1324.39
371.852
-11.0385
1097.39
284.258
-31.7944
916.246
207.941
-54.1674
772.476
109.793
11.1606
638.82
-24.9541
81.5896
459.047
-126.93
-64.5085
302.859
-249.741
-70.2001
542.867
-466.206
17.0162
1121.22
-658.681
24.5345
1630.89
-786.501
6.84205
1785.97
-18.9606
1524.77
738.831
8.67143
1014.87
724.17
22.0776
1560.92
622.072
30.6672
1493.61
475.36
26.4615
1312.17
372.188
-7.21468
1087.01
283.111
-27.4602
908.34
209.36
-48.9958
787.752
122.811
5.82136
661.603
17.6393
53.4583
477.08
-88.8462
-80.6081
297.943
-235.614
-52.056
522.418
-455.386
7.23032
1116.33
-634.052
20.6869
1637.72
-764.29
5.59597
1806.79
-17.0336
1562.06
743.581
1010.33
731.771
1559.08
626.393
1489.2
476.735
1299.07
371.787
1069.89
283.109
895.222
213.12
792.684
136.414
695.88
52.7647
489.067
-59.3545
295.355
-222.144
544.115
-447.895
1122.24
-627.539
1636.48
-757.446
1816.11
1575.36
887.336
-4.65347
754.508
967.747
-15.9923
1481.04
883.556
-28.2733
1579.73
686.876
-33.4664
1503.41
499.832
-2.25953
1256.05
363.001
31.4914
1022.51
271.247
65.384
869.136
197.445
27.989
758.27
130.629
4.06786
577.449
-19.6282
57.3255
458.294
-316.136
21.2783
837.452
-657.563
-18.2773
1458.55
-913.244
-27.6928
1894.73
-974.489
20.8012
1872.05
22.0215
1348.94
884.398
-4.43332
758.117
959.789
-16.8316
1485
876.204
-33.929
1583.14
682.535
-37.1469
1511.08
499.579
0.688433
1268.49
364.761
37.2191
1036.48
269.931
73.9107
872.856
185.571
26.1222
748.582
102.608
-14.6976
584.574
-38.1018
49.1737
454.806
-323.307
21.6243
823.659
-664.687
-26.4811
1457.73
-919.268
-30.8666
1888.23
-979.816
26.0705
1867.17
24.1798
1341.97
881.625
-1.4038
760.424
953.1
-14.0596
1488.11
869.495
-37.0896
1587.57
677.604
-38.2117
1519.04
497.382
2.77843
1277.04
365.355
38.6204
1046.39
270.661
71.3601
869.395
174.59
25.1629
730.572
67.3238
-17.9964
580.935
-67.9766
38.6323
451.292
-337.449
20.6657
813.95
-682.385
-28.6989
1458.62
-950.343
-11.8794
1873.29
-996.122
19.1934
1842.67
3.63477
1319.37
877.594
4.21777
762.487
945.506
-9.14689
1488.47
864.682
-40.3328
1589.15
677.908
-39.736
1525.63
500.813
2.92926
1285.84
368.172
37.7653
1053.99
265.661
69.0795
866.212
150.329
44.8308
713.477
6.62655
9.98145
578.823
-121.317
22.4644
468.141
-346.145
6.76597
827.216
-672.358
-26.4872
1458.73
-924.499
-7.08834
1873.03
-981.124
11.971
1868.16
-3.49394
1334.16
876.074
8.49635
761.676
941.317
-1.76678
1484.46
860.663
-38.9427
1589.2
675.935
-37.5607
1533.16
501.507
1.44063
1295.95
369.081
33.2705
1059.8
262.869
66.3837
863.876
144.02
68.2356
705.249
-19.2304
37.2298
564.08
-143.726
15.3854
477.263
-339.472
2.87771
855.056
-660.507
-0.180113
1467.15
-909.199
-9.15514
1864.33
-973.447
5.58979
1885.8
-0.250811
1339.28
876.46
8.87178
757.27
942.393
5.20393
1473.89
859.714
-28.86
1584.91
674.728
-28.0807
1539.58
502.428
-0.508246
1306.63
373.339
23.8586
1067.36
273.89
52.9936
866.259
173.999
53.539
692.934
43.6357
29.8701
546.62
-96.3438
25.0271
441.793
-337.24
26.3412
834.834
-665.034
18.7049
1466.51
-907.244
-14.9965
1869.31
-974.03
0.5967
1892.07
4.34843
1336.66
877.634
4.33431
748.431
950.373
5.95148
1454.43
863.133
-6.16497
1573.56
673.923
-6.33236
1542.23
499.235
2.64658
1315.68
373.118
12.0293
1078.28
277.496
28.3404
863.742
180.589
32.8599
678.463
67.9186
13.8398
538.806
-78.9831
16.6602
441.523
-349.096
36.3016
835.766
-677.932
16.927
1469.55
-921.837
-11.9346
1872.06
-982.264
-6.53175
1879.61
2.38672
1322.48
876.852
-0.0812619
744.339
954.382
1.90611
1445.11
866.233
20.2044
1566.83
675.53
19.6858
1541.1
499.006
8.61358
1317.67
373.365
0.851051
1083.05
282.094
-3.60241
867.69
187.568
4.77487
669.886
63.8905
6.24631
519.555
-97.2055
5.72138
443.893
-373.288
16.3217
850.715
-702.591
-2.04716
1476.97
-956.072
7.10509
1866.76
-1000.07
-20.7086
1850.22
-14.5588
1293.33
874.71
1.16924
750.561
947.168
2.73069
1459.24
862.232
38.8087
1576.42
674.376
38.3832
1542.32
500.291
10.884
1314.58
374.731
-10.3652
1078.55
285.59
-35.4441
866.902
206.311
-38.1485
677.794
83.2982
-0.73324
521.244
-89.833
18.1346
450.19
-359.818
5.08596
857.574
-681.637
-19.6394
1471.82
-921.493
7.54558
1877.41
-984.761
-23.8732
1880
-20.0446
1322.62
875.361
5.40301
758.972
941.941
8.83465
1477.77
860.383
45.9917
1587.04
675.623
45.7991
1539.33
503.233
8.8576
1305.64
375.472
-20.2486
1068.1
276.83
-52.215
863.91
178.58
-53.3935
692.412
42.6067
6.13568
531.001
-101.526
22.7158
467.216
-341.96
10.7289
891.095
-668.986
-7.7235
1470.42
-906.852
-1.91829
1872.81
-974.842
-25.1783
1890
-16.8626
1335.8
878.72
8.41792
763.515
944.154
15.7126
1488.12
862.889
46.145
1591.23
677.283
46.8772
1533.17
503.02
6.46349
1295.61
371.887
-26.2977
1059.88
265.662
-55.6965
864.598
146.422
-32.1459
708.809
-5.59618
27.2303
565.778
-128.366
16.1084
470.493
-338.84
13.5673
864.991
-663.739
21.7876
1477.91
-911.791
-2.4834
1866.66
-973.489
-28.5714
1878.47
-14.3783
1334.94
882.065
9.54619
764.699
949.597
20.3889
1491.67
867.599
42.2327
1590.75
679.69
44.4814
1525.6
502.441
5.59328
1285.55
369.752
-27.9203
1053.65
265.871
-57.2207
867.519
142.329
-2.73059
716.175
-6.66602
45.9438
582.205
-121.289
-12.6127
479.052
-342.589
2.92641
840.985
-674.748
34.3837
1470.41
-927.634
6.11415
1873.27
-979.512
-32.0595
1856.7
-20.0993
1326.57
885.523
8.69612
762.753
956.974
22.4551
1490.7
872.635
38.1852
1588.9
679.868
42.3481
1519.29
499.257
6.46089
1277.14
367.936
-28.0167
1047.67
272.869
-61.7367
872.061
171.201
1.79319
735.967
65.0581
24.789
586.347
-60.6765
-46.1209
462.104
-338.141
5.33036
817.929
-689.821
38.9707
1468.32
-954.128
26.5737
1874.73
-993.502
-35.4023
1828.69
-37.9123
1309.71
887.186
7.00123
760.235
963.291
20.2088
1487.06
879.421
31.3884
1584.27
685.025
37.4705
1511.45
501.617
8.06752
1268.81
367.637
-23.8988
1038.2
273.423
-56.443
876.674
189.327
-6.7012
754.195
120.465
-12.5474
583.279
-17.1071
-66.4507
455.845
-325.172
14.2769
821.535
-673.94
34.9529
1469.11
-924.155
24.6715
1889.84
-976.296
-27.4317
1850.96
-31.2222
1330.13
889.94
756.169
971.39
1482.8
886.942
1581.11
689.558
1504.41
502.056
1257.25
366.177
1025.02
273.535
873.935
200.18
770.817
141.9
565.264
-12.733
452.677
-326.803
855.633
-671.044
1475.65
-920.903
1895.72
-971.551
1853.39
1334.62
959.467
-1.9627
619.499
1109.79
-12.4798
1333.35
1115.9
-22.6579
1578.22
949.495
-36.5992
1677.11
694.465
-19.9725
1513.09
463.107
20.4949
1247.15
303.925
72.3291
1013.74
235.317
68.2915
813.954
170.922
78.1008
632.062
-80.4052
-8.60873
720.977
-520.074
-55.7084
1302.56
-902.285
-32.0775
1859.43
-1165.26
-19.0193
2171.64
-1111.25
40.5979
1802.97
12.9886
1213.03
957.912
-0.236056
621.519
1103.91
-11.4681
1338
1107.81
-25.8964
1582.47
941.608
-41.487
1682.17
690.653
-20.3137
1519.79
465.153
25.3777
1257.1
310.357
81.479
1018.5
236.088
74.6718
816.473
164.825
84.3757
649.565
-88.8117
-16.5542
716.391
-535.756
-77.1448
1292.04
-919.296
-45.7018
1854.9
-1175.89
-28.7613
2154.56
-1114.79
36.0033
1810.67
7.10799
1217.42
956.837
2.83758
622.96
1099.17
-6.59849
1340.91
1100.6
-25.856
1586.1
933.539
-42.8603
1687.47
684.692
-19.8139
1525.38
464.754
25.7989
1265.91
313.7
78.061
1023.87
230.926
65.3236
822.697
164.598
64.9568
666.684
-80.9516
-7.84878
688.14
-550.761
-61.4533
1268.07
-947.671
-39.4724
1849.3
-1194.92
-25.947
2117.73
-1113.63
6.70896
1790.67
-10.8263
1213.95
955.666
6.13864
624.497
1093.26
1.48375
1342.79
1093.73
-24.7863
1587.6
929.916
-44.3787
1690.96
686.128
-21.1581
1530.97
468.874
23.3222
1273.72
313.76
72.0979
1027.29
207.251
63.2138
822.099
119.925
40.9629
690.146
-90.0525
3.86925
666.404
-520.942
-31.8739
1228.53
-915.41
-28.517
1842.24
-1156.44
-24.6214
2112.74
-1100.58
1.32731
1817.68
-10.2759
1220.58
956.069
7.30723
624.836
1090.51
10.992
1340.51
1088.99
-19.7918
1585.72
925.226
-40.8426
1693.39
684.025
-21.3033
1537.3
469.086
18.0534
1280.01
313.276
63.5031
1028.28
194.012
71.1337
816.597
88.6705
25.4762
684.911
-94.9599
20.4092
644.357
-492.06
10.3237
1209.96
-893.561
1.76605
1838.37
-1142.07
-19.8121
2108.02
-1100.77
4.22003
1841.61
-8.49258
1223.18
955.862
6.26013
624.232
1090.83
16.6085
1333.31
1088.25
-10.6656
1578.36
923.213
-28.8228
1692.6
682.859
-17.1646
1542.85
470.761
11.6221
1285.89
322.987
46.8048
1030.73
230.069
57.9033
799.086
149.552
13.0698
639.547
-70.4749
38.2693
643.964
-504.92
50.2909
1229.31
-902.334
21.8433
1843.84
-1142.92
-16.0566
2106.14
-1101.57
8.34054
1846.6
-3.89144
1218.21
953.67
3.47393
622.983
1094.44
10.3285
1319.93
1092.51
1.43579
1563.39
924.609
-5.00961
1686.31
679.445
-2.06064
1545.74
467.82
7.96785
1293.56
323.637
24.3629
1030.37
245.078
31.3841
783.544
163.216
-0.123667
633.866
-96.3877
30.379
709.021
-542.13
52.0795
1279.72
-923.291
18.7147
1853.84
-1155.82
-9.91314
2098.45
-1103.83
-2.93182
1838.89
-7.98173
1213.41
950.881
1.98707
622.891
1095.02
-2.63398
1313.93
1095.08
12.3777
1555.82
927.649
21.56
1681.96
680.363
17.3398
1545.56
467.939
6.46105
1296.99
324.164
-0.545861
1036.38
248.606
-7.34565
784.177
139.778
-3.81217
632.075
-153.59