/*--------------------------------*- C++ -*----------------------------------*\
| =========                 |                                                 |
| \\      /  F ield         | OpenFOAM: The Open Source CFD Toolbox           |
|  \\    /   O peration     | Version:  4.1                                   |
|   \\  /    A nd           | Web:      www.OpenFOAM.org                      |
|    \\/     M anipulation  |                                                 |
\*---------------------------------------------------------------------------*/
FoamFile
{
    version     2.0;
    format      ascii;
    class       volVectorField;
    location    "24";
    object      U;
}
// * * * * * * * * * * * * * * * * * * * * * * * * * * * * * * * * * * * * * //

dimensions      [0 1 -1 0 0 0 0];

internalField   nonuniform List<vector> 
6750
(
(2.88141 -0.00642189 16.9991)
(0.244928 -0.0211536 16.5085)
(1.39396 -0.0142024 13.6409)
(0.467249 -0.00252725 11.1984)
(0.722144 0.0173859 9.99341)
(0.425256 0.0251923 7.96969)
(0.35085 0.031866 7.67334)
(0.27224 0.00330849 5.75803)
(0.108474 0.00445978 2.42074)
(0.145603 -0.0154205 0.985089)
(-0.330418 0.0134889 3.29633)
(0.00677313 0.0259843 6.97695)
(-1.48465 -0.0042033 13.5973)
(0.127897 -0.0187834 17.0582)
(-3.60629 0.00025601 20.4706)
(2.87193 -0.0122308 16.9762)
(0.241874 -0.0405433 16.5432)
(1.38259 -0.0242606 13.8635)
(0.469809 -0.00062243 11.5252)
(0.720339 0.0321304 10.1821)
(0.427681 0.0456494 8.01235)
(0.356782 0.060475 7.30188)
(0.271886 0.00109133 5.34152)
(0.102765 0.007045 2.35096)
(0.150936 -0.0209702 1.15774)
(-0.322154 0.0351841 3.06716)
(0.000223537 0.034411 6.62345)
(-1.48321 -0.00756906 13.7755)
(0.130208 -0.037033 16.9614)
(-3.63873 0.00212727 20.2451)
(2.86213 -0.0129916 16.9621)
(0.239402 -0.044617 16.6194)
(1.37411 -0.0233268 14.0702)
(0.474139 0.00377562 11.7328)
(0.724008 0.0338696 10.2332)
(0.428756 0.0451757 8.04401)
(0.370746 0.0593312 6.79282)
(0.265003 0.00249648 5.10619)
(0.0854717 0.000274353 2.77211)
(0.144019 0.00270433 1.45779)
(-0.365111 0.0356393 2.63028)
(-0.00670406 -0.00434495 6.40448)
(-1.49487 -0.0024751 13.7837)
(0.133297 -0.0287344 16.8039)
(-3.71665 -0.000717237 19.781)
(2.85723 -0.0135019 16.8974)
(0.236896 -0.0520418 16.659)
(1.37143 -0.0249823 14.2563)
(0.482564 0.00527173 11.921)
(0.730374 0.0365306 10.2669)
(0.431473 0.0470445 8.00987)
(0.370993 0.0611351 6.55951)
(0.241661 0.0299741 5.15561)
(0.0666864 0.0255805 3.43043)
(0.123362 0.0820892 1.85636)
(-0.391484 0.0163603 2.59845)
(-0.0063591 -0.0739676 7.11618)
(-1.49707 -0.0020368 13.8001)
(0.13134 -0.0193178 17.0423)
(-3.68129 -0.00443198 19.9434)
(2.86113 -0.0111598 16.7786)
(0.233915 -0.05327 16.7207)
(1.36703 -0.023052 14.4767)
(0.489156 0.00627987 12.1222)
(0.735004 0.0342604 10.2994)
(0.435699 0.0460159 7.94809)
(0.37255 0.0770313 6.46527)
(0.238363 0.0652571 5.01397)
(0.107378 0.0376376 2.25837)
(0.15017 0.143189 1.26957)
(-0.391114 -0.0354697 3.38683)
(-0.00624531 -0.033265 9.05986)
(-1.49879 3.71832e-05 13.6826)
(0.131212 -0.0183267 17.1464)
(-3.66196 -0.003218 20.0242)
(2.87949 -0.00671776 16.5812)
(0.230817 -0.0476813 16.7604)
(1.36186 -0.0198341 14.7042)
(0.494115 0.00462789 12.3396)
(0.738311 0.0271892 10.3581)
(0.444529 0.0419873 7.94115)
(0.391783 0.074675 6.17181)
(0.291518 0.0401137 3.60455)
(0.113354 0.0126545 1.4529)
(0.293987 0.161207 0.396889)
(-0.364323 -0.0763169 3.33252)
(0.00271037 0.0526464 8.36009)
(-1.50673 0.00315753 13.7176)
(0.128268 -0.0195302 17.2677)
(-3.65669 -0.00241247 20.0275)
(2.91772 -0.000795477 16.2961)
(0.228407 -0.026865 16.7276)
(1.35822 -0.0105089 14.879)
(0.495208 0.00292037 12.5534)
(0.737277 0.0154847 10.4582)
(0.441733 0.0274458 8.04552)
(0.411585 0.0488182 5.64047)
(0.254571 0.00597071 3.83139)
(0.0997027 -0.0103413 1.97627)
(0.557033 0.0258025 0.070984)
(-0.373518 0.00962871 2.52522)
(0.0123175 0.0849984 7.07515)
(-1.50784 0.00222271 13.8642)
(0.127031 -0.0184251 17.2584)
(-3.68142 0.00060624 19.8643)
(2.93641 0.00430102 16.1773)
(0.227714 0.00583549 16.677)
(1.36001 0.00455754 14.8995)
(0.496066 0.00356468 12.6106)
(0.737759 0.00399727 10.4907)
(0.44079 0.00881981 8.1387)
(0.425824 0.0219604 5.46396)
(0.276667 0.0433089 3.24281)
(0.0838148 -0.00221084 1.87475)
(0.294804 -0.0597215 0.51926)
(-0.456435 0.0806871 2.05634)
(-0.000840103 0.0139678 6.0506)
(-1.52402 0.00196058 13.8675)
(0.126207 -0.00221729 17.1108)
(-3.7428 -0.00250466 19.5166)
(2.90937 0.00917165 16.3708)
(0.228316 0.0356196 16.7295)
(1.35938 0.0186396 14.8478)
(0.495478 0.00389964 12.5193)
(0.73861 -0.00782017 10.457)
(0.445121 -0.0124061 8.07161)
(0.425405 -0.0315855 5.54433)
(0.310131 0.00506028 2.97024)
(0.130665 0.0445517 1.01349)
(0.107623 -0.0242196 1.11175)
(-0.343886 0.0132222 3.08118)
(-0.000831551 -0.105566 6.50866)
(-1.50461 -0.00231099 13.9361)
(0.12456 0.0147556 17.3019)
(-3.67031 -0.00620532 19.9116)
(2.87688 0.0140703 16.6445)
(0.230602 0.0528254 16.7499)
(1.3636 0.0268327 14.664)
(0.493977 0.00213445 12.3008)
(0.7395 -0.0190268 10.3644)
(0.446246 -0.0315854 7.93446)
(0.399436 -0.0708538 5.95312)
(0.268158 -0.0454212 3.75495)
(0.105576 0.0410152 1.31399)
(0.128891 0.00115355 1.05052)
(-0.277147 0.0547342 4.62847)
(-0.00273748 -0.0517949 8.20861)
(-1.50199 -0.00438098 13.7538)
(0.124884 0.0150723 17.3052)
(-3.63859 -0.0035903 20.1021)
(2.86266 0.0169936 16.8349)
(0.233549 0.0568076 16.7099)
(1.36916 0.0292201 14.4347)
(0.488923 0.000220515 12.0821)
(0.737032 -0.0264808 10.2884)
(0.439921 -0.038468 7.90936)
(0.372534 -0.0670373 6.41344)
(0.231031 -0.0398154 4.97136)
(0.0789954 0.0255297 2.48131)
(0.227975 -0.0220893 1.06321)
(-0.397701 0.062806 3.2249)
(-0.0152343 0.0448485 9.23203)
(-1.49803 -0.000123073 13.7621)
(0.125405 0.013037 17.2168)
(-3.64599 -0.00240373 20.0719)
(2.86222 0.0180129 16.9448)
(0.23631 0.0541712 16.6467)
(1.37436 0.0300437 14.2114)
(0.482277 0.000569183 11.8773)
(0.733074 -0.0301268 10.2408)
(0.43458 -0.0397231 7.96224)
(0.368656 -0.0519093 6.58029)
(0.238908 -0.00876192 5.20563)
(0.0678302 0.0340849 3.11023)
(0.126663 0.0186484 1.80095)
(-0.378146 -0.00470156 2.82004)
(-0.0166914 0.0939911 7.68444)
(-1.49454 0.00338095 13.8834)
(0.124175 0.016343 17.1312)
(-3.66393 -0.000163717 19.9853)
(2.86979 0.0161672 17.0015)
(0.238782 0.0458425 16.6084)
(1.37776 0.027257 14.0262)
(0.473877 0.00104571 11.688)
(0.727338 -0.0286469 10.1976)
(0.431258 -0.0384969 8.02644)
(0.373961 -0.0462304 6.74686)
(0.265237 0.015506 5.17182)
(0.103002 0.046976 2.26197)
(0.150973 0.114441 1.09097)
(-0.399483 -0.0215273 2.29737)
(-0.0206227 0.0588137 6.50898)
(-1.49855 0.005325 13.9049)
(0.123918 0.0276156 16.8985)
(-3.69674 -0.0024691 19.8288)
(2.88145 0.0144537 17.0094)
(0.241268 0.0411805 16.5334)
(1.38683 0.0273207 13.8202)
(0.469669 0.00461005 11.4774)
(0.723706 -0.0279006 10.145)
(0.43077 -0.040256 8.00593)
(0.361696 -0.0520345 7.23661)
(0.280681 0.0106871 5.18174)
(0.112822 0.0226848 2.09191)
(0.254711 0.183646 0.374846)
(-0.393363 -0.0387568 2.33879)
(-0.0139088 -0.021057 6.63423)
(-1.49018 0.00840516 13.8982)
(0.119787 0.0360812 17.0489)
(-3.61919 -0.00460413 20.2898)
(2.89235 0.00741848 17.0274)
(0.244336 0.0213449 16.502)
(1.39849 0.0156556 13.6029)
(0.467148 0.00458674 11.1524)
(0.725471 -0.0152439 9.95728)
(0.428353 -0.0224574 7.96477)
(0.355247 -0.0290147 7.61819)
(0.27425 0.000741396 5.77309)
(0.113636 0.0166672 2.09366)
(0.108811 0.0480608 0.28752)
(-0.357913 -0.0113084 2.9144)
(-0.00750797 -0.0254393 7.00732)
(-1.49162 0.00449415 13.7245)
(0.116595 0.0182282 17.1418)
(-3.58567 -0.00142666 20.5182)
(8.29357 -0.0167235 16.8269)
(0.999601 -0.0609485 16.6131)
(3.93315 -0.0508535 14.1946)
(1.68803 -0.0160966 11.4865)
(2.08305 0.0493826 10.1549)
(1.35943 0.077498 8.21879)
(1.04207 0.103436 7.74733)
(0.809645 0.024568 5.96787)
(0.289232 0.00317623 2.70036)
(0.114743 -0.0023317 1.15634)
(-0.926006 0.0502512 3.68178)
(-0.429653 0.0664369 7.64514)
(-4.10956 -0.018005 14.3946)
(0.235965 -0.0484304 17.3706)
(-10.4088 0.00554753 20.7471)
(8.26803 -0.0311934 16.8108)
(0.979512 -0.111614 16.6333)
(3.91089 -0.0844083 14.383)
(1.68798 -0.0156835 11.7935)
(2.0819 0.089964 10.3606)
(1.36482 0.132795 8.28367)
(1.05581 0.186585 7.42943)
(0.80433 0.0281838 5.56536)
(0.297107 0.00221297 2.63453)
(0.282306 -0.0120857 1.2379)
(-0.892765 0.110121 3.46629)
(-0.471852 0.0748786 7.41032)
(-4.10809 -0.0342931 14.5484)
(0.221697 -0.0910025 17.2575)
(-10.4797 0.0164047 20.5362)
(8.24478 -0.0325251 16.8013)
(0.96297 -0.11917 16.6975)
(3.89212 -0.0807946 14.5704)
(1.69141 -0.00207613 11.9999)
(2.09118 0.0945287 10.429)
(1.36813 0.128444 8.32233)
(1.09395 0.178354 6.97357)
(0.792058 0.029638 5.29078)
(0.265235 -0.0149209 2.98789)
(0.305461 0.0240183 1.43231)
(-0.979389 0.118666 3.12925)
(-0.530135 -0.0146678 7.2761)
(-4.12661 -0.0196541 14.5452)
(0.177584 -0.0750436 17.0789)
(-10.6522 -1.81796e-05 20.0963)
(8.23075 -0.0326118 16.7437)
(0.948248 -0.138669 16.7218)
(3.88633 -0.0899877 14.7346)
(1.71239 0.00130555 12.1871)
(2.11047 0.102047 10.4814)
(1.37789 0.133875 8.29954)
(1.098 0.178146 6.74853)
(0.725577 0.0915713 5.29173)
(0.20783 0.0567605 3.545)
(0.321704 0.205061 1.75454)
(-1.00532 0.0890867 3.16543)
(-0.482967 -0.18061 7.86221)
(-4.13612 -0.0202594 14.5728)
(0.195442 -0.0583159 17.3117)
(-10.5732 -0.0172546 20.2485)
(8.23772 -0.0242602 16.6317)
(0.938674 -0.139013 16.7616)
(3.87564 -0.0861418 14.9331)
(1.72599 0.00600571 12.3913)
(2.12298 0.0954958 10.5334)
(1.39002 0.127395 8.24478)
(1.10188 0.215502 6.6523)
(0.711836 0.188294 5.18018)
(0.321437 0.11131 2.54856)
(0.401751 0.324935 1.37214)
(-1.00699 -0.0165051 4.0137)
(-0.404879 -0.0804189 9.42871)
(-4.14162 -0.0085678 14.4416)
(0.213021 -0.053599 17.4176)
(-10.5288 -0.0103672 20.3267)
(8.2766 -0.0105614 16.4422)
(0.937403 -0.122066 16.7702)
(3.86254 -0.0771297 15.134)
(1.73547 0.0036183 12.6107)
(2.13177 0.0749943 10.6101)
(1.4138 0.113802 8.24729)
(1.1506 0.212446 6.42959)
(0.848886 0.129701 3.98709)
(0.339854 0.0235793 1.74464)
(0.707857 0.304268 0.650794)
(-0.944947 -0.0940523 3.89556)
(-0.419895 0.137897 8.84312)
(-4.16152 0.0108062 14.5042)
(0.205267 -0.054381 17.5287)
(-10.5142 -0.00472675 20.3273)
(8.36054 0.00467385 16.1682)
(0.951301 -0.0669272 16.7036)
(3.852 -0.0425075 15.2787)
(1.735 0.00324598 12.8214)
(2.12874 0.0417338 10.7202)
(1.40325 0.0728458 8.35555)
(1.19731 0.139397 5.97484)
(0.771105 0.0307549 4.0277)
(0.302429 -0.0558101 2.11888)
(0.9316 0.0578183 0.255026)
(-0.990753 0.0392471 3.20808)
(-0.477532 0.192444 7.82784)
(-4.16172 0.00825629 14.6586)
(0.181899 -0.045303 17.5018)
(-10.5671 0.00791008 20.17)
(8.40307 0.0132208 16.0555)
(0.960732 0.0156308 16.6437)
(3.85503 0.0154362 15.289)
(1.73803 0.0105618 12.8757)
(2.13 0.0112668 10.7544)
(1.39868 0.0230753 8.44535)
(1.23199 0.0598117 5.84111)
(0.824635 0.106274 3.5274)
(0.255328 0.0425118 1.92513)
(0.368563 -0.0792807 0.653148)
(-1.1481 0.0363912 2.80582)
(-0.583684 0.0312199 7.05992)
(-4.18939 0.00495666 14.669)
(0.139602 -0.00688922 17.3354)
(-10.7017 -0.00745406 19.8433)
(8.34494 0.0218519 16.243)
(0.945043 0.091272 16.7138)
(3.85559 0.0683336 15.2523)
(1.73637 0.0168718 12.7875)
(2.13207 -0.0201375 10.716)
(1.41233 -0.0315104 8.38343)
(1.22722 -0.0878536 5.92037)
(0.920427 -0.00920306 3.35291)
(0.361429 0.177373 1.36814)
(0.357568 -0.0178452 1.15293)
(-0.922415 -0.087033 3.50707)
(-0.509133 -0.237732 7.37278)
(-4.15583 -0.0100651 14.7343)
(0.181903 0.0341993 17.5413)
(-10.5427 -0.026444 20.2172)
(8.27441 0.0345158 16.508)
(0.93261 0.137467 16.7664)
(3.86739 0.0970426 15.0984)
(1.73595 0.016228 12.5719)
(2.13493 -0.0512278 10.613)
(1.41903 -0.0826614 8.2493)
(1.16811 -0.195767 6.24078)
(0.802858 -0.130916 4.06838)
(0.332279 0.0849243 1.64605)
(0.470035 -0.0302059 1.09265)
(-0.780598 0.127345 4.88245)
(-0.409373 -0.13929 8.68199)
(-4.15266 -0.0167133 14.5361)
(0.208928 0.0418642 17.5619)
(-10.4733 -0.0161855 20.399)
(8.24475 0.0430865 16.691)
(0.935283 0.149681 16.7559)
(3.88155 0.102829 14.897)
(1.72664 0.0130236 12.3519)
(2.12814 -0.0725216 10.5225)
(1.40344 -0.104109 8.21399)
(1.1018 -0.187644 6.61072)
(0.697972 -0.120301 5.13315)
(0.253259 0.0428786 2.68101)
(0.504787 -0.149561 1.21285)
(-1.01958 0.148222 3.95344)
(-0.417205 0.100373 9.5902)
(-4.14151 0.00476301 14.5107)
(0.206639 0.0387959 17.4752)
(-10.4904 -0.00899649 20.3667)
(8.24599 0.0465915 16.7942)
(0.946341 0.145593 16.7142)
(3.89416 0.103445 14.6962)
(1.71349 0.0160213 12.1448)
(2.11747 -0.0829216 10.457)
(1.38824 -0.111748 8.25843)
(1.08995 -0.151089 6.76416)
(0.717374 -0.0442631 5.34614)
(0.209199 0.096013 3.26442)
(0.289499 -0.0754358 1.67205)
(-0.990864 -0.0306655 3.39175)
(-0.474457 0.224293 8.32913)
(-4.13147 0.0226188 14.6361)
(0.18707 0.0487643 17.3832)
(-10.5307 0.00225731 20.2787)
(8.26631 0.0419629 16.8437)
(0.962088 0.123708 16.6904)
(3.90152 0.0912075 14.5332)
(1.69315 0.0164793 11.9577)
(2.09992 -0.0786868 10.3963)
(1.37724 -0.108586 8.30966)
(1.09819 -0.138992 6.93517)
(0.793371 0.0177639 5.3516)
(0.258289 0.155954 2.6033)
(0.211546 0.0852274 0.966514)
(-1.04452 -0.0309935 2.89959)
(-0.560165 0.139327 7.39405)
(-4.13584 0.0291092 14.6529)
(0.16202 0.0699319 17.155)
(-10.6046 -0.00909858 20.13)
(8.29393 0.0377257 16.8466)
(0.97961 0.114459 16.6269)
(3.92149 0.092553 14.3467)
(1.69055 0.0279809 11.749)
(2.09085 -0.076667 10.3262)
(1.37575 -0.115575 8.28169)
(1.06486 -0.158767 7.38068)
(0.832654 0.0115733 5.42436)
(0.272466 0.182766 2.41642)
(0.232511 0.0466174 0.552709)
(-1.03624 -0.104385 2.96694)
(-0.525017 -0.0380029 7.45935)
(-4.12277 0.0360647 14.658)
(0.200744 0.0879233 17.3269)
(-10.4329 -0.0240911 20.5654)
(8.32289 0.0196427 16.8574)
(1.0006 0.0621009 16.6096)
(3.94442 0.05489 14.1639)
(1.69111 0.0227339 11.4454)
(2.09213 -0.0421592 10.1225)
(1.3716 -0.06775 8.22001)
(1.0523 -0.0914665 7.70824)
(0.838764 -0.00632766 5.99523)
(0.27193 0.129689 2.5654)
(-0.0141437 -0.205706 0.659447)
(-0.9816 -0.0636809 3.33781)
(-0.470817 -0.0547924 7.69423)
(-4.12741 0.0173475 14.5055)
(0.214625 0.0473446 17.4351)
(-10.3597 -0.00958262 20.7777)
(13.1726 -0.0242979 15.8023)
(2.63671 -0.0850526 17.0644)
(6.32036 -0.0942981 14.9452)
(3.42523 -0.0517574 12.2344)
(3.40129 0.0643556 10.5451)
(2.45985 0.122523 8.75006)
(1.79275 0.177226 8.00943)
(1.38078 0.0555493 6.44169)
(0.379914 -0.116521 3.44045)
(-0.490585 0.14672 1.69173)
(-1.71633 0.181562 4.3667)
(-1.43175 0.0781796 9.03591)
(-6.4415 -0.0403352 15.491)
(-0.147117 -0.0601441 18.2331)
(-16.79 0.0213398 20.6887)
(13.1428 -0.0439015 15.8051)
(2.57441 -0.147613 17.0662)
(6.28959 -0.152527 15.0808)
(3.41534 -0.0663364 12.4983)
(3.40476 0.118119 10.7674)
(2.46448 0.199309 8.84802)
(1.79988 0.299577 7.78019)
(1.33609 0.0679099 6.04683)
(0.373852 -0.201735 3.25681)
(-0.42298 0.136921 1.7375)
(-1.70507 0.288236 4.32742)
(-1.54693 0.0693617 8.96002)
(-6.43631 -0.0831661 15.5981)
(-0.225185 -0.106282 18.1119)
(-16.8665 0.053023 20.4913)
(13.1198 -0.0429645 15.807)
(2.52538 -0.152765 17.1093)
(6.26083 -0.149046 15.2326)
(3.40511 -0.0437542 12.695)
(3.41414 0.127141 10.863)
(2.46591 0.190812 8.90194)
(1.84997 0.280498 7.42289)
(1.32027 0.0752507 5.7287)
(0.34036 -0.159096 3.47321)
(-0.417791 0.16398 1.79308)
(-1.82217 0.291328 4.18391)
(-1.65896 -0.0166727 8.93255)
(-6.44072 -0.0550403 15.564)
(-0.452851 -0.089192 17.9336)
(-17.0512 0.018179 20.0601)
(13.1021 -0.038533 15.7641)
(2.48232 -0.176934 17.1101)
(6.24697 -0.174141 15.3594)
(3.43138 -0.0433237 12.8738)
(3.44685 0.138911 10.9444)
(2.48418 0.200299 8.90152)
(1.86149 0.274343 7.21852)
(1.21015 0.139359 5.65932)
(0.280302 -0.00605532 3.7986)
(-0.242724 0.320314 1.95001)
(-1.78878 0.233211 4.30922)
(-1.59414 -0.207608 9.36987)
(-6.46088 -0.0428105 15.6269)
(-0.369839 -0.0727685 18.133)
(-16.961 -0.0202562 20.1821)
(13.1061 -0.0196256 15.6646)
(2.45929 -0.172382 17.1098)
(6.22837 -0.172816 15.5166)
(3.44158 -0.032017 13.0758)
(3.46373 0.131478 11.0294)
(2.50177 0.185955 8.8663)
(1.86319 0.311118 7.11997)
(1.17843 0.272935 5.57333)
(0.416934 0.137494 3.01171)
(-0.151211 0.363368 1.96813)
(-1.71568 0.0554212 5.20867)
(-1.42941 -0.0941176 10.4059)
(-6.47201 -0.0246988 15.4907)
(-0.294797 -0.0649188 18.2291)
(-16.9138 -0.0086517 20.2574)
(13.1435 0.00577855 15.4904)
(2.4709 -0.149017 17.0645)
(6.20986 -0.161581 15.6656)
(3.44569 -0.0294356 13.289)
(3.47541 0.102809 11.1358)
(2.5328 0.162442 8.88779)
(1.92676 0.309708 6.99496)
(1.35823 0.219086 4.70847)
(0.444302 0.0388137 2.29417)
(0.0494745 0.261254 1.57841)
(-1.66304 -0.0286874 5.03991)
(-1.48751 0.173126 9.99294)
(-6.4936 0.00494996 15.5775)
(-0.292213 -0.0705998 18.3108)
(-16.8977 -0.00076991 20.2537)
(13.2285 0.0224675 15.2284)
(2.54835 -0.0786806 16.9466)
(6.20124 -0.0935655 15.7549)
(3.43486 -0.0140923 13.4832)
(3.46871 0.056523 11.2614)
(2.51206 0.100322 9.00311)
(1.98077 0.206369 6.67674)
(1.29485 0.0708878 4.56429)
(0.370695 -0.059817 2.43483)
(-0.168119 0.0498343 1.24814)
(-1.79679 0.0614208 4.49544)
(-1.62396 0.203758 9.34095)
(-6.4839 -0.00878879 15.7213)
(-0.372683 -0.058593 18.2607)
(-16.9537 0.0210383 20.1021)
(13.2714 0.0184647 15.1166)
(2.59657 0.0214371 16.8763)
(6.20815 0.02802 15.7479)
(3.43831 0.0182295 13.5281)
(3.4707 0.0172342 11.2979)
(2.50268 0.0315032 9.08558)
(2.01808 0.0809018 6.60471)
(1.37928 0.147333 4.21056)
(0.234929 0.129152 2.20836)
(-0.719076 -0.0806 1.36224)
(-1.95388 -0.0402025 4.09546)
(-1.77828 0.0349245 8.85644)
(-6.49976 0.000895937 15.7139)
(-0.560919 -0.0182434 18.0946)
(-17.0985 -0.0140981 19.7945)
(13.2169 0.0206256 15.2973)
(2.5311 0.11403 16.9748)
(6.20589 0.137617 15.7389)
(3.43857 0.0476475 13.451)
(3.47375 -0.023872 11.2522)
(2.52416 -0.0406707 9.03067)
(2.01418 -0.126535 6.66962)
(1.50515 -0.0315299 4.16034)
(0.414422 0.285814 1.99554)
(-0.211231 0.0143244 1.68477)
(-1.67079 -0.185618 4.44994)
(-1.65587 -0.256484 9.03397)
(-6.47961 -0.00276134 15.8035)
(-0.354384 0.0261104 18.2934)
(-16.9285 -0.0567403 20.1546)
(13.1504 0.0395253 15.5543)
(2.46466 0.174544 17.0794)
(6.21775 0.192823 15.6391)
(3.44797 0.0612836 13.2513)
(3.48061 -0.0658183 11.1325)
(2.5404 -0.112202 8.90159)
(1.95292 -0.274449 6.85854)
(1.32496 -0.194936 4.71276)
(0.403628 0.0989256 2.25536)
(0.11758 -0.0512981 1.86186)
(-1.43107 0.112556 5.54632)
(-1.45426 -0.178764 9.83762)
(-6.49004 -0.0255175 15.6157)
(-0.260262 0.0376113 18.3396)
(-16.8511 -0.0401061 20.3278)
(13.1244 0.0555645 15.7278)
(2.45491 0.191948 17.1175)
(6.23788 0.197914 15.4886)
(3.44429 0.0619261 13.0389)
(3.47161 -0.0952304 11.0184)
(2.52366 -0.147049 8.84923)
(1.8704 -0.268949 7.09423)
(1.169 -0.177453 5.53344)
(0.314245 0.0257419 3.05409)
(-0.194257 -0.257712 1.92145)
(-1.72835 0.10437 5.23515)
(-1.41901 0.105754 10.5404)
(-6.48086 0.00369899 15.5519)
(-0.283245 0.0304617 18.2702)
(-16.8653 -0.0308292 20.2941)
(13.1283 0.0642845 15.8195)
(2.48014 0.190948 17.1118)
(6.2592 0.19283 15.3294)
(3.43544 0.0705215 12.8353)
(3.45747 -0.107959 10.9229)
(2.50266 -0.163446 8.87248)
(1.85371 -0.230375 7.22547)
(1.19933 -0.0714876 5.71835)
(0.240893 0.197758 3.53762)
(-0.381065 -0.251851 1.97228)
(-1.76571 -0.177699 4.54911)
(-1.53755 0.251097 9.69066)
(-6.46536 0.0352282 15.6769)
(-0.362432 0.0469051 18.183)
(-16.9042 -0.0145939 20.2034)
(13.153 0.0596387 15.8531)
(2.52792 0.162461 17.1101)
(6.27563 0.163055 15.2045)
(3.41089 0.0664546 12.6584)
(3.42777 -0.10093 10.8353)
(2.48367 -0.157527 8.8981)
(1.86147 -0.219867 7.39667)
(1.33119 0.020856 5.79515)
(0.262123 0.349011 3.17042)
(-0.582663 -0.195843 1.47272)
(-1.89588 -0.269001 4.02196)
(-1.67104 0.152143 9.04606)
(-6.46056 0.0594955 15.6615)
(-0.455993 0.0721642 17.9849)
(-16.9847 -0.0446568 20.0824)
(13.1807 0.055102 15.8433)
(2.5802 0.154607 17.0668)
(6.30586 0.163451 15.054)
(3.4227 0.0860876 12.4608)
(3.41908 -0.0954375 10.738)
(2.48466 -0.169204 8.85318)
(1.82169 -0.256457 7.75537)
(1.39148 0.0304825 5.95607)
(0.336801 0.429432 3.14092)
(-0.390014 -0.277928 1.33612)
(-1.87181 -0.36222 3.98149)
(-1.58267 -0.0164057 9.02581)
(-6.45886 0.0794703 15.6955)
(-0.238753 0.0948354 18.1564)
(-16.7959 -0.075789 20.5056)
(13.2146 0.0294261 15.8338)
(2.64561 0.0884049 17.0672)
(6.3377 0.100003 14.9241)
(3.43391 0.0629211 12.202)
(3.41645 -0.051058 10.5193)
(2.48278 -0.104049 8.75967)
(1.82197 -0.155603 7.98816)
(1.44094 -2.8604e-05 6.49619)
(0.434102 0.234622 3.50261)
(-0.154508 -0.395361 1.42289)
(-1.76012 -0.214811 4.05193)
(-1.44673 -0.0420257 9.09966)
(-6.47261 0.0372866 15.5902)
(-0.166995 0.0554165 18.2749)
(-16.7149 -0.0323285 20.7025)
(16.6175 -0.026187 13.0716)
(5.57866 -0.0838383 17.6684)
(8.80286 -0.123319 16.0616)
(5.82188 -0.105777 13.557)
(4.7435 0.0421815 11.295)
(3.62283 0.143708 9.53505)
(2.66449 0.239931 8.54703)
(2.08329 0.0708586 7.27386)
(0.747128 -0.177016 4.95322)
(-0.0828486 0.274374 2.81399)
(-2.03199 0.263599 5.15988)
(-2.60763 0.056677 10.8782)
(-8.48851 -0.073772 16.9271)
(-2.33694 -0.037578 19.7112)
(-21.9901 0.0396237 19.136)
(16.61 -0.0449758 13.1069)
(5.47452 -0.136606 17.6737)
(8.74487 -0.196961 16.1342)
(5.78607 -0.148135 13.7532)
(4.74819 0.0874853 11.516)
(3.63285 0.226872 9.67349)
(2.65956 0.378459 8.4326)
(1.99424 0.0826826 6.90753)
(0.617642 -0.366024 4.65225)
(-0.481108 0.275905 2.76778)
(-2.10029 0.383978 5.20803)
(-2.78421 0.00982835 10.8796)
(-8.50615 -0.1713 16.9858)
(-2.51872 -0.0605011 19.6021)
(-22.0176 0.0989704 18.9481)
(16.6074 -0.0395419 13.127)
(5.39429 -0.130878 17.7035)
(8.69346 -0.197014 16.2329)
(5.74775 -0.122845 13.9194)
(4.74833 0.103661 11.6359)
(3.6293 0.219178 9.7531)
(2.69793 0.353137 8.20428)
(1.97936 0.0772543 6.5653)
(0.495336 -0.335065 4.55832)
(-0.823221 0.270865 2.74202)
(-2.29085 0.414663 5.29016)
(-2.9562 -0.0267769 10.9249)
(-8.56964 -0.108118 16.9435)
(-3.04275 -0.0707145 19.4196)
(-22.0682 0.0259357 18.4933)
(16.5994 -0.0244345 13.1124)
(5.31008 -0.142962 17.6867)
(8.65165 -0.237429 16.3049)
(5.76084 -0.135451 14.0725)
(4.7923 0.115557 11.7457)
(3.65842 0.233747 9.78571)
(2.70955 0.344517 8.04473)
(1.83919 0.13761 6.42604)
(0.322206 -0.121452 4.54897)
(-1.02085 0.31694 2.92746)
(-2.39264 0.327412 5.7512)
(-2.9873 -0.178731 11.2981)
(-8.56223 -0.05427 17.0079)
(-2.76096 -0.0706229 19.597)
(-22.0242 -0.042905 18.6342)
(16.6055 0.0100075 13.0447)
(5.26344 -0.125943 17.6455)
(8.61548 -0.242906 16.3947)
(5.75312 -0.121062 14.2515)
(4.80754 0.112991 11.8661)
(3.68057 0.215841 9.78776)
(2.70433 0.362312 7.95426)
(1.78822 0.318711 6.34361)
(0.388301 0.138188 4.02623)
(-1.1252 0.226268 3.19603)
(-2.32119 0.0797151 6.61627)
(-2.82229 -0.0903251 11.9058)
(-8.56216 -0.0550368 16.8751)
(-2.57901 -0.0603006 19.7067)
(-22.0131 -0.0132857 18.7246)
(16.6272 0.0398751 12.9042)
(5.28955 -0.0963604 17.5433)
(8.59963 -0.233445 16.4655)
(5.74372 -0.111576 14.4365)
(4.81555 0.0857118 12.0024)
(3.71416 0.185801 9.83853)
(2.77217 0.355248 7.90908)
(1.97964 0.318732 5.83818)
(0.586006 0.14418 3.67627)
(-0.767924 0.163036 2.82181)
(-2.22121 0.0201492 6.22872)
(-2.90644 0.150024 11.6497)
(-8.57883 -0.03792 16.9778)
(-2.56062 -0.0772135 19.7811)
(-21.9999 0.0011671 18.7257)
(16.6544 0.0424826 12.6626)
(5.43007 -0.0375979 17.3549)
(8.6247 -0.137022 16.4786)
(5.72754 -0.0613127 14.5934)
(4.79826 0.0468909 12.1396)
(3.6845 0.111185 9.96419)
(2.82194 0.24091 7.74031)
(1.98367 0.136632 5.6231)
(0.518382 -0.00223245 3.72628)
(-0.800736 0.102999 2.47292)
(-2.28447 0.122199 5.63605)
(-3.05141 0.160307 11.286)
(-8.5798 -0.0724609 17.109)
(-2.76332 -0.0581712 19.716)
(-22.0113 0.0452941 18.5589)
(16.6607 0.0142135 12.5487)
(5.5101 0.0221847 17.2603)
(8.65131 0.0390879 16.4512)
(5.73667 0.0287023 14.624)
(4.79981 0.0235952 12.1757)
(3.67304 0.0344504 10.0367)
(2.84995 0.0839601 7.72972)
(2.09312 0.176011 5.42706)
(0.452416 0.143904 3.49941)
(-1.11669 -0.0435705 2.34454)
(-2.38498 0.0530277 5.24486)
(-3.21953 0.0485331 11.0338)
(-8.64482 -0.000928709 17.1246)
(-3.23169 -0.0337638 19.5469)
(-22.0498 -0.0215451 18.2166)
(16.6484 0.00373877 12.7114)
(5.39778 0.0788006 17.402)
(8.62348 0.195867 16.4801)
(5.73317 0.110324 14.5677)
(4.80574 -0.00359335 12.1249)
(3.69794 -0.0422421 9.98645)
(2.85154 -0.141276 7.76058)
(2.18822 -0.0696036 5.489)
(0.739317 0.205018 3.48975)
(-0.72416 0.0570184 2.59383)
(-2.20303 -0.0993207 5.52195)
(-3.10018 -0.186676 11.1401)
(-8.57317 0.0629856 17.1905)
(-2.72806 -0.00193485 19.7335)
(-22.0043 -0.100322 18.6195)
(16.6366 0.0269162 12.9471)
(5.28688 0.13065 17.5797)
(8.61046 0.272003 16.458)
(5.74941 0.153797 14.4046)
(4.82254 -0.037576 11.9914)
(3.72241 -0.119816 9.85898)
(2.80713 -0.299554 7.83022)
(1.96819 -0.268163 5.82862)
(0.51807 0.0651076 3.62809)
(-0.597132 0.0393193 3.04478)
(-1.98004 0.059357 6.55516)
(-2.90793 -0.163064 11.5688)
(-8.57602 0.00733305 17.0223)
(-2.5054 0.0222408 19.7865)
(-21.9721 -0.0663249 18.8015)
(16.6344 0.0508504 13.0985)
(5.27654 0.15482 17.6766)
(8.63346 0.273918 16.3841)
(5.75926 0.159319 14.2203)
(4.81627 -0.0658418 11.8534)
(3.70572 -0.162831 9.78308)
(2.72859 -0.30692 7.94613)
(1.7874 -0.224752 6.33262)
(0.30421 0.0388827 4.09168)
(-1.10167 -0.120296 3.1598)
(-2.29062 0.00982922 6.63371)
(-2.80184 0.0828849 12.0146)
(-8.57798 0.0173822 16.9256)
(-2.5577 0.0075163 19.6988)
(-21.9669 -0.0506158 18.7529)
(16.6375 0.0659314 13.1677)
(5.32389 0.168548 17.708)
(8.67337 0.260919 16.2899)
(5.76921 0.169156 14.0402)
(4.80399 -0.0743425 11.7264)
(3.681 -0.183906 9.76858)
(2.71075 -0.285705 8.0487)
(1.82466 -0.0649667 6.482)
(0.212265 0.298174 4.35726)
(-1.17031 -0.204972 3.06331)
(-2.33803 -0.250284 6.01589)
(-2.92492 0.210862 11.5094)
(-8.57973 0.0363949 17.0448)
(-2.75199 0.0264491 19.5823)
(-21.9601 -0.0121984 18.6334)
(16.6476 0.0638064 13.1726)
(5.40977 0.151213 17.7179)
(8.71861 0.214389 16.219)
(5.75964 0.150504 13.891)
(4.76412 -0.0684591 11.6136)
(3.65103 -0.174269 9.75617)
(2.72385 -0.283392 8.19519)
(1.9956 0.0643339 6.63357)
(0.394877 0.489346 4.35795)
(-0.794047 -0.299622 2.61529)
(-2.28919 -0.405346 5.22358)
(-2.97324 0.131701 11.0273)
(-8.60209 0.101206 17.0246)
(-3.04973 0.0365062 19.4002)
(-21.9918 -0.0679952 18.483)
(16.652 0.0604922 13.1425)
(5.49349 0.152854 17.6845)
(8.77229 0.21034 16.1218)
(5.80073 0.172107 13.7259)
(4.7651 -0.0563502 11.493)
(3.65613 -0.186504 9.68267)
(2.69643 -0.330535 8.43193)
(2.04949 0.0568448 6.87117)
(0.635106 0.439662 4.59046)
(-0.0847354 -0.434541 2.62043)
(-2.129 -0.384043 4.94258)
(-2.80992 0.0623894 10.9432)
(-8.53981 0.163306 17.0715)
(-2.54482 0.0365246 19.5768)
(-21.9292 -0.133884 18.919)
(16.6621 0.0329831 13.0985)
(5.60187 0.092094 17.6795)
(8.83162 0.130713 16.0547)
(5.83866 0.119868 13.5362)
(4.76166 -0.0228495 11.2772)
(3.64831 -0.117773 9.54879)
(2.70892 -0.212871 8.54519)
(2.11633 0.00923618 7.34018)
(0.863563 0.142018 4.92612)
(0.473269 -0.464243 2.67708)
(-1.99575 -0.192545 5.02862)
(-2.65107 0.0169197 10.9898)
(-8.54031 0.0707886 17.0187)
(-2.39109 0.0274425 19.6829)
(-21.8903 -0.0554335 19.0934)
(18.5785 -0.0187427 9.64057)
(8.45376 -0.0708348 17.3737)
(11.2879 -0.123465 17.4591)
(8.95309 -0.152278 15.6953)
(6.49799 -0.0209593 12.8002)
(4.74532 0.13499 10.5746)
(3.42022 0.294304 9.25788)
(2.70838 0.134555 8.21609)
(1.66521 0.0869125 6.27079)
(1.40507 0.321404 4.169)
(-1.98864 0.111896 7.09661)
(-4.86554 -0.0514118 14.0707)
(-10.9816 -0.101544 19.7782)
(-6.04164 0.0636813 21.3672)
(-25.1133 0.0701019 16.5341)
(18.5998 -0.0305335 9.69015)
(8.35727 -0.106217 17.4082)
(11.2048 -0.193212 17.4951)
(8.87326 -0.220812 15.8081)
(6.47677 -0.00656338 12.9784)
(4.76206 0.213696 10.7433)
(3.44015 0.432772 9.2663)
(2.66311 0.175612 7.99051)
(1.44363 -0.03574 6.21479)
(1.00299 0.314485 4.1455)
(-2.01505 0.113519 6.94069)
(-5.00137 -0.158235 14.0594)
(-10.9884 -0.21265 19.7526)
(-6.18663 0.161171 21.2457)
(-25.12 0.173219 16.3805)
(18.6179 -0.0198927 9.71934)
(8.27867 -0.0851037 17.4416)
(11.1323 -0.18994 17.5514)
(8.79453 -0.199241 15.9196)
(6.44279 0.0152515 13.0929)
(4.74776 0.208905 10.8522)
(3.46549 0.404428 9.17076)
(2.65895 0.124488 7.68534)
(1.19494 -0.132183 6.02522)
(0.462825 0.242995 4.1535)
(-2.14768 0.139915 6.96474)
(-5.19945 -0.138532 14.086)
(-11.1617 -0.119862 19.6538)
(-6.73555 0.135005 20.9257)
(-25.0172 0.0844334 15.9403)
(18.6351 0.00564277 9.73942)
(8.17982 -0.0720411 17.4348)
(11.0548 -0.22683 17.575)
(8.7641 -0.229165 16.0194)
(6.47799 0.015467 13.2081)
(4.79066 0.22311 10.9263)
(3.48395 0.395266 9.08927)
(2.53181 0.155913 7.4732)
(0.773233 -0.0663139 5.86563)
(-0.475997 0.189829 4.38082)
(-2.41225 0.0876878 7.51576)
(-5.13383 -0.187924 14.2364)
(-11.0025 -0.0263308 19.6166)
(-6.31336 0.0764957 21.0581)
(-25.1022 -0.0315487 16.0671)
(18.659 0.0396954 9.71873)
(8.13169 -0.0311395 17.3824)
(11.0024 -0.227273 17.5949)
(8.72458 -0.218708 16.1394)
(6.47261 0.0175302 13.3388)
(4.81285 0.203572 10.9783)
(3.48045 0.38486 9.0349)
(2.47622 0.354922 7.37644)
(0.682284 0.176784 5.59614)
(-0.957417 0.0674634 4.6019)
(-2.44529 -0.0215127 8.15697)
(-4.94818 -0.105166 14.4786)
(-10.9216 -0.0472656 19.4748)
(-6.05617 0.0577363 21.1868)
(-25.1722 -0.00787698 16.1631)
(18.6647 0.0557017 9.63928)
(8.15591 0.0123591 17.252)
(10.9971 -0.210354 17.5768)
(8.70587 -0.203388 16.257)
(6.46406 -0.00167252 13.48)
(4.84235 0.169238 11.0619)
(3.54621 0.359075 9.04468)
(2.6561 0.403355 7.17194)
(1.18662 0.246392 5.51128)
(-0.0511526 0.105966 4.20672)
(-2.28777 0.0657793 7.68933)
(-5.05883 0.100304 14.4027)
(-10.9018 -0.0587418 19.5432)
(-6.04532 0.00480463 21.2213)
(-25.1878 0.00518295 16.1425)
(18.6283 0.0424857 9.48187)
(8.26669 0.0440402 17.0138)
(11.0615 -0.11225 17.4892)
(8.71574 -0.112827 16.3407)
(6.43749 -0.00374489 13.6075)
(4.79686 0.099642 11.1943)
(3.58525 0.237896 8.98917)
(2.70171 0.20356 6.99293)
(1.28535 0.0817481 5.4887)
(0.400047 0.176388 3.98939)
(-2.34872 0.229202 7.34051)
(-5.26883 0.114139 14.3479)
(-10.969 -0.110572 19.6354)
(-6.31992 0.00335594 21.1004)
(-25.1165 0.0462642 15.9713)
(18.599 0.00626198 9.40488)
(8.31405 0.0206607 16.898)
(11.1012 0.0442695 17.428)
(8.74456 0.0417852 16.3477)
(6.44582 0.0340325 13.6385)
(4.78312 0.0355558 11.255)
(3.60414 0.0809736 9.02265)
(2.78649 0.165733 6.88214)
(1.35808 0.0826533 5.22596)
(0.23579 0.0115078 3.79295)
(-2.58883 0.180661 7.25656)
(-5.58398 0.0695519 14.3702)
(-11.191 -0.0140431 19.645)