/*--------------------------------*- C++ -*----------------------------------*\
| =========                 |                                                 |
| \\      /  F ield         | OpenFOAM: The Open Source CFD Toolbox           |
|  \\    /   O peration     | Version:  4.1                                   |
|   \\  /    A nd           | Web:      www.OpenFOAM.org                      |
|    \\/     M anipulation  |                                                 |
\*---------------------------------------------------------------------------*/
FoamFile
{
    version     2.0;
    format      ascii;
    class       volScalarField;
    location    "738";
    object      p;
}
// * * * * * * * * * * * * * * * * * * * * * * * * * * * * * * * * * * * * * //

dimensions      [0 2 -2 0 0 0 0];

internalField   nonuniform List<scalar> 
204246
(
135.152
-4.01737
42.2795
20.6734
16.8475
17.8504
8.43312
8.11923
-0.435686
-1.09146
-10.5116
-9.6727
-22.7609
-17.0876
-32.3429
-25.6675
-33.1832
-44.2728
-30.4301
-45.4401
-30.4437
-39.7131
-27.3959
-31.1467
-19.1502
-20.7061
-8.07291
-11.3786
3.11812
-1.84211
12.7972
6.78652
20.2654
14.8626
23.4122
25.0951
19.9428
32.4317
22.0397
35.034
24.2421
37.3798
24.7975
39.2057
23.6157
40.5945
23.7963
40.5632
25.0836
38.3962
27.3151
35.7682
32.9044
25.7003
38.2026
24.2665
37.6205
24.4619
37.5389
24.0044
38.3047
22.0789
39.0473
21.8307
38.6822
22.9306
36.4139
25.121
33.8892
30.5211
24.773
34.5814
23.4477
35.5337
23.0012
35.8737
22.4753
36.7835
20.5569
37.5564
20.2925
37.1184
21.3399
34.6602
23.3435
31.9376
28.4163
22.4058
32.1048
20.5474
32.6715
19.1709
33.0896
16.3397
33.0727
14.8497
31.7567
13.7905
29.1833
13.9608
25.1091
12.4233
21.7737
10.7397
17.6011
11.0535
5.39541
10.7912
0.445654
7.7787
-6.18851
3.49518
-10.8242
-1.6924
-16.167
-6.33642
-21.3073
-10.2457
-25.2183
-13.4151
-26.3622
-17.2418
-21.6807
-27.8422
-15.1282
-29.1391
-12.2447
-27.6642
-9.82595
-25.2643
-7.42694
-22.6987
-5.16098
-20.3954
-3.23084
-18.0626
-2.348
-14.8987
-3.61699
-7.89341
-12.7033
-0.703827
-14.2491
1.48186
-13.9519
2.62981
-13.4265
3.42579
-12.7283
4.15459
-11.8762
4.86339
-10.6284
5.30155
-7.96691
3.86446
-0.705745
-4.78563
7.23957
-5.30654
10.7364
-3.23276
13.1661
0.444525
15.8569
5.11023
19.7429
10.8685
24.8554
17.8563
31.166
26.8368
39.1528
38.3926
48.6469
55.1718
57.4128
71.2687
75.8069
89.1145
98.8627
112.235
126.575
141.477
161.417
179.246
207.534
230.192
274.093
303.037
390.769
406.693
613.733
52.3241
27.5375
25.1206
26.5644
19.2047
18.9123
12.7687
10.5821
4.52208
1.52223
-4.81296
-8.29808
-15.2123
-18.7072
-23.7959
-29.2923
-27.1198
-38.8559
-36.7037
-40.7107
-36.7393
-39.1854
-33.9193
-32.36
-26.8194
-22.557
-16.1583
-11.7689
-5.70639
-1.08092
3.96825
8.33498
11.8119
16.4626
16.5157
23.6572
20.7018
28.4452
24.8664
30.3896
27.0267
32.2662
28.5224
33.8687
29.0259
34.3157
29.6943
34.0864
30.6794
33.1023
31.7324
31.3102
34.4054
28.877
33.7181
29.2078
33.1111
28.9115
33.1106
28.3956
33.4181
27.8741
33.037
27.9979
32.3678
28.7151
31.2262
29.6567
29.5407
32.109
27.5078
31.49
27.411
31.4696
27.2793
31.5809
26.8851
31.9658
26.4282
31.6105
26.5531
30.9005
27.1823
29.6785
27.9458
27.8112
30.2122
25.3966
29.2668
24.7947
28.9074
23.8811
28.7211
22.6929
27.664
21.7428
26.1852
20.6932
24.1232
19.4452
22.2599
17.6233
19.2742
16.0691
14.816
15.4932
10.0069
9.84246
5.11224
6.47467
0.12763
1.52015
-4.56141
-3.72296
-9.84606
-8.7018
-14.9114
-13.4943
-18.7997
-17.9423
-20.5224
-22.022
-19.3028
-25.5702
-19.8009
-24.8934
-18.7592
-23.0376
-16.7917
-20.5366
-14.4521
-17.8936
-12.1052
-15.4273
-10.1424
-13.0174
-9.00403
-10.2623
-9.51533
-6.19597
-10.8589
-5.09365
-9.86692
-4.25701
-9.02298
-3.46219
-8.28455
-2.78547
-7.56635
-2.14679
-6.74491
-1.59302
-5.54011
-1.40641
-3.24394
-2.17649
0.687749
-3.41884
2.26844
-1.68982
4.12651
0.672954
6.44545
3.42511
9.37716
6.87272
13.0937
11.3961
17.8393
17.2137
23.2447
24.9629
30.1966
34.7336
38.3741
47.1233
50.8169
59.8897
66.4541
75.9742
85.6602
96.1184
109.158
120.74
137.92
150.733
173.942
187.369
222.622
229.264
303.986
269.426
404.106
23.3978
33.9451
26.7933
25.9116
20.9906
19.3326
13.6217
11.85
5.63664
3.08237
-3.39264
-6.69135
-13.2215
-17.5045
-22.9501
-28.0969
-31.2901
-37.1243
-37.1218
-40.8016
-38.4203
-39.5157
-35.4897
-33.9066
-27.7572
-24.6045
-17.329
-13.2273
-6.46032
-1.94517
3.50474
8.15539
11.8487
16.4858
17.7731
22.7173
22.04
27.3273
25.931
29.8226
28.1585
32.0815
29.129
33.7218
29.5597
34.4459
30.077
34.4186
30.7733
33.6603
31.7032
32.1568
33.0948
30.3294
33.39
29.58
33.3172
29.0918
33.226
28.6251
33.2161
28.1741
32.9889
28.113
32.484
28.5147
31.5495
29.3212
30.1029
30.6876
28.4659
31.0661
27.73
31.3313
27.3687
31.4837
27.0056
31.6316
26.6368
31.4846
26.6093
30.9743
26.9688
29.9451
27.6462
28.3112
28.7926
26.3643
28.8656
25.143
28.7556
24.0908
28.4163
22.9459
27.6221
21.8871
26.3504
20.7639
24.5362
19.6446
22.031
18.2462
18.893
16.7489
14.8698
14.3452
10.7962
10.7581
6.41381
6.00238
1.73684
0.960187
-3.0408
-4.3305
-8.37888
-9.50476
-13.5949
-14.2896
-17.889
-18.4529
-20.2806
-22.041
-20.8412
-24.5295
-20.6869
-24.665
-19.1958
-23.1999
-17.1762
-20.6916
-14.7562
-17.8811
-12.2492
-15.2727
-10.1163
-12.8465
-8.90686
-10.1468
-8.9379
-7.21092
-9.39481
-5.51084
-9.22303
-4.22169
-8.68696
-3.28265
-8.02911
-2.53363
-7.31952
-1.87437
-6.49303
-1.34182
-5.31541
-1.11225
-3.35482
-1.52516
-0.409895
-2.08191
1.83466
-1.21688
4.14632
0.658152
6.3981
3.58945
8.98116
7.47798
12.4706
12.2533
17.1212
18.2141
23.1566
25.6676
30.6635
35.1812
40.2786
46.7925
51.8183
60.8206
67.434
77.6676
87.3389
98.5961
112.144
124.668
143.251
157.126
182.784
197.462
237.166
245.089
321.249
299.978
388.759
11.5426
26.1877
21.6609
24.1781
20.5814
20.2093
15.6167
13.877
8.75486
5.86484
0.171534
-3.71037
-9.72387
-14.5496
-19.9106
-26.1054
-28.844
-35.9883
-38.2295
-41.7168
-42.0909
-42.6374
-40.0687
-38.2766
-33.2479
-29.0437
-22.8248
-17.4306
-11.2861
-5.54301
-0.403716
5.19073
8.72141
14.264
15.6567
21.1689
21.1339
25.2386
25.6474
28.2892
28.2702
30.3427
29.9355
31.6889
30.8972
32.1971
31.5736
32.2075
32.174
31.8185
32.6723
31.1323
33.1886
30.7417
32.4281
30.7337
31.9341
30.45
31.7061
30.1225
31.5585
29.9461
31.1379
29.9966
30.6112
30.2724
29.9884
30.6737
29.2482
31.1577
28.9356
30.5675
28.8742
30.2871
28.7883
30.1903
28.6208
30.1343
28.5418
29.7688
28.6252
29.2517
28.8498
28.5815
29.1285
27.6697
29.4563
27.0794
28.6151
26.6222
27.9759
26.0089
27.3549
25.3158
26.365
24.5482
25.096
23.579
23.5474
22.1434
21.9477
20.5053
19.4746
18.7333
16.2958
16.2485
12.7852
12.1917
8.83775
7.72574
4.45435
2.4503
-0.495558
-2.93951
-5.9271
-8.51684
-11.3436
-13.9985
-16.1024
-18.8472
-19.5105
-22.4226
-21.4503
-24.4614
-22.6785
-24.3843
-22.0893
-22.5856
-20.2377
-19.903
-17.8165
-16.9537
-15.2581
-14.2152
-12.9818
-11.8594
-11.2999
-9.7198
-10.4979
-7.7462
-9.50023
-6.83583
-8.47026
-6.29213
-7.61939
-5.68829
-6.88732
-5.09006
-6.1911
-4.52386
-5.413
-4.05908
-4.39009
-3.80709
-2.79449
-3.57614
-1.22643
-2.7448
-0.288445
-1.27081
1.03335
0.634669
2.94237
2.88822
5.31909
5.74695
8.45758
9.38626
12.504
14.0508
17.4423
20.236
23.7108
27.9617
31.544
37.7486
41.8922
48.8245
54.9448
62.2772
70.9433
78.7703
90.3586
98.6659
113.88
122.66
143.227
150.323
183.366
178.249
235.737
222.602
293.699
12.1828
26.5279
21.4477
23.8595
21.5384
20.7157
16.964
15.2899
10.516
7.90025
2.36679
-1.39391
-7.35245
-12.4831
-18.1077
-24.3869
-29.1465
-34.846
-38.7051
-42.7364
-43.7285
-45.1166
-42.9414
-41.4072
-36.229
-32.1011
-25.1441
-19.7609
-12.8166
-7.10082
-1.19036
4.31089
8.5494
13.7247
16.1437
20.6602
21.8774
25.4344
26.0428
28.6601
28.7496
30.5862
30.4802
31.99
31.4506
32.6142
32.0941
32.7102
32.527
32.4592
32.7971
31.9386
32.8001
31.6814
32.3853
31.2422
32.1151
30.782
31.8484
30.3873
31.5558
30.1707
31.1535
30.0891
30.7072
30.1581
30.1895
30.3236
29.6032
30.4393
29.4035
30.1801
29.1396
30.0868
28.9105
30.0338
28.7183
29.9294
28.6421
29.6626
28.6383
29.2664
28.7105
28.7143
28.8303
28.0002
28.7469
27.5801
28.2492
26.938
27.7886
26.2294
27.217
25.4893
26.4094
24.7069
25.2811
23.7218
23.8562
22.4701
22.0169
20.9226
19.6157
18.9395
16.8646
16.3239
13.7292
12.9028
9.82419
8.53791
5.45707
3.56226
0.417798
-1.85732
-5.02811
-7.61315
-10.531
-13.3242
-15.5957
-18.3964
-19.669
-22.1893
-22.4062
-24.398
-23.5347
-24.606
-22.8909
-23.146
-21.0308
-20.3359
-18.3304
-17.1163
-15.3828
-14.1209
-12.7781
-11.6612
-10.9278
-9.63239
-9.565
-7.86637
-8.51455
-7.02315
-7.68368
-6.13253
-7.01224
-5.34606
-6.34369
-4.6717
-5.66188
-4.07548
-4.91545
-3.64121
-3.92811
-3.41287
-2.73923
-2.86525
-1.3911
-2.06626
-0.360545
-0.759151
1.10536
0.943456
3.01339
3.23894
5.5515
6.15219
8.83472
9.88539
13.0065
14.7508
18.2302
20.9617
24.8515
28.8606
33.1849
38.6154
43.8451
50.5733
57.4507
65.1937
74.4786
83.1128
95.5628
104.931
121.374
131.024
153.527
161.283
195.633
192.57
241.858
230.497
275.595
11.2293
23.2562
19.7463
22.6315
20.9892
21.1101
18.099
16.9482
12.8503
10.3342
5.40914
1.46274
-4.08026
-9.51877
-15.3134
-21.9987
-27.4987
-34.4642
-39.159
-44.38
-47.0563
-49.1652
-48.3883
-47.045
-42.7727
-38.1724
-31.5908
-25.0726
-18.089
-11.1497
-5.08398
1.47657
5.91897
11.8127
14.5302
19.4758
20.8388
24.5141
25.4244
27.8507
28.4416
29.9317
30.3846
31.1892
31.4975
31.7421
32.1638
31.9252
32.5125
31.8696
32.657
31.6929
32.4959
31.5891
32.0197
31.4634
31.5505
31.164
31.2216
30.8984
30.914
30.7752
30.5243
30.7196
30.1622
30.7077
29.842
30.7022
29.5188
30.6186
29.5453
30.1544
29.5472
29.8663
29.4825
29.6758
29.4011
29.4879
29.3936
29.197
29.4176
28.8768
29.3916
28.5519
29.327
28.1647
29.0928
27.9463
28.5031
27.6692
27.8313
27.2004
27.2011
26.6265
26.4062
25.9091
25.4448
24.9751
24.2658
23.735
22.8579
22.2754
20.857
20.3916
18.3529
17.895
15.3302
14.5341
11.7832
10.3532
7.48799
5.44383
2.46031
-0.10636
-3.185
-6.15348
-9.14272
-12.3545
-14.8825
-18.113
-19.7468
-22.6612
-23.2648
-25.3153
-25.1765
-25.8002
-24.866
-24.3728
-22.9024
-21.6518
-19.9435
-18.3129
-16.7698
-15.0133
-13.9278
-12.3024
-11.7974
-10.172
-10.3188
-8.66985
-8.924
-7.80932
-7.94623
-7.23677
-7.19232
-6.71233
-6.54722
-6.16295
-5.92653
-5.61998
-5.26542
-5.10824
-4.4706
-4.69211
-3.51489
-4.14178
-2.6801
-3.09384
-1.85757
-1.98395
-0.759013
-0.567948
0.714062
1.15932
2.66921
3.34917
5.19795
6.20385
8.41694
9.97465
12.4936
14.8522
17.6603
21.048
24.2892
28.7356
32.8799
38.0011
43.7032
49.2823
57.1312
63.0769
73.5538
79.8116
93.5999
99.5789
118.405
121.636
152.061
145.61
186.792
184.283
224.876
14.9461
24.4074
20.9041
23.4126
21.6368
22.1621
19.4947
18.5735
14.9512
12.6909
8.13522
4.40419
-1.02262
-6.36874
-12.462
-19.1834
-25.7155
-32.8317
-39.1436
-45.0922
-49.1627
-52.42
-52.6345
-52.0439
-47.9901
-43.3158
-35.9825
-28.9755
-21.1221
-13.8539
-6.89851
-0.292116
5.09137
10.8257
14.5707
19.1148
21.4275
24.6409
26.0174
28.3059
29.0799
30.4961
31.0749
31.935
32.1893
32.5691
32.8882
32.7879
33.1564
32.6883
33.1914
32.4822
32.9127
32.2791
32.4263
31.937
31.9185
31.4823
31.4529
31.1035
31.0285
30.8977
30.6036
30.7479
30.2327
30.6328
29.9191
30.5329
29.6229
30.2878
29.7147
29.906
29.6651
29.6953
29.544
29.5474
29.4331
29.3737
29.3878
29.1445
29.3444
28.9101
29.2744
28.6117
29.1278
28.2722
28.8495
28.1028
28.3632
27.819
27.791
27.3332
27.2028
26.7757
26.4896
26.0719
25.616
25.1662
24.5221
24.0175
23.1006
22.6095
21.3151
20.8373
19.0935
18.4961
16.3968
15.417
13.006
11.5445
8.87485
6.8601
3.92643
1.40442
-1.73758
-4.71556
-7.85839
-11.172
-13.9825
-17.3375
-19.4741
-22.3878
-23.6496
-25.6391
-25.889
-26.7557
-25.9081
-25.7004
-23.9321
-22.8217
-20.6302
-18.9697
-16.9288
-15.1564
-13.6057
-12.116
-11.2221
-9.83948
-9.61335
-8.2274
-8.27615
-7.40953
-7.30001
-6.6553
-6.54258
-6.00706
-5.86833
-5.48322
-5.23397
-5.0066
-4.63498
-4.5515
-3.965
-4.08035
-3.19211
-3.47112
-2.37204
-2.73006
-1.5338
-1.6193
-0.406415
-0.220399
1.13378
1.56481
3.19364
3.8428
5.86406
6.80772
9.20115
10.729
13.4539
15.7637
18.8994
22.1281
25.865
30.055
34.8116
39.8244
46.1716
51.8299
60.2782
66.4778
77.5713
84.0776
98.5236
104.639
124.269
126.485
154.43
151.079
182.291
178.449
207.251
15.326
24.0964
20.546
23.4952
21.9533
22.6251
20.6048
19.9872
16.9287
14.9093
10.833
7.24725
2.13669
-3.22588
-9.4083
-16.4144
-23.5346
-31.5541
-38.8403
-46.4849
-52.2537
-57.3028
-59.1908
-59.2894
-56.0551
-51.4003
-44.3722
-36.3428
-27.6048
-19.0059
-11.0478
-3.30498
2.58447
9.05891
13.18
18.2847
20.6732
24.2022
25.5896
27.9285
28.7845
30.1121
30.728
31.3837
31.893
32.0457
32.5418
32.2701
32.8485
32.2273
32.8312
32.0804
32.5807
31.953
32.1657
31.7156
31.7609
31.4155
31.325
31.1787
30.8593
31.0303
30.4737
30.875
30.1782
30.7657
29.9001
30.6745
29.7038
30.3861
29.8228
29.9985
29.8617
29.722
29.8209
29.5071
29.7609
29.3189
29.7359
29.1279
29.6802
28.9363
29.592
28.7403
29.4566
28.4907
29.1267
28.4375
28.6171
28.2229
28.1246
27.8452
27.565
27.3862
26.9156
26.7672
26.1677
25.9742
25.243
24.9608
24.0523
23.6986
22.4278
22.0502
20.3856
19.8589
17.8423
16.9797
14.6922
13.2825
10.746
8.72445
5.89895
3.2477
0.149618
-3.09506
-6.34386
-10.0301
-13.1642
-16.9617
-19.5922
-22.9984
-24.7291
-27.2015
-27.79
-28.7755
-28.1963
-27.7232
-26.2424
-24.6599
-22.6809
-20.4828
-18.5286
-16.2199
-14.7671
-12.7077
-12.0037
-10.246
-10.1905
-8.70157
-8.68799
-8.03346
-7.85805
-7.50493
-7.26615
-7.04641
-6.68387
-6.60853
-6.08101
-6.12461
-5.47815
-5.65344
-4.84641
-5.17652
-4.18186
-4.62904
-3.54234
-3.78433
-2.97507
-2.9211
-2.11487
-1.91565
-0.964704
-0.665179
0.51844
0.988262
2.42945
3.20988
4.89328
6.13147
8.09247
9.92106
12.2459
14.7577
17.6484
20.8145
24.6643
28.3449
33.5677
37.6385
44.7428
49.0912
58.5484
63.0663
75.5314
79.3642
97.044
97.7447
122.341
120.425
148.875
148.783
175.804
18.5707
25.912
22.4844
24.895
23.4563
24.0863
22.3613
21.9088
19.3165
17.5804
13.9793
10.6983
5.91832
0.846314
-5.36714
-12.3407
-20.1976
-28.8618
-37.7029
-46.5461
-54.4006
-61.0902
-65.1506
-67.0574
-65.0124
-60.4639
-52.7314
-43.6558
-33.4996
-24.1909
-14.9512
-6.48972
0.668004
7.33661
12.583
17.8
21.1386
24.4254
26.3441
28.4987
29.7052
30.8152
31.707
32.3137
32.9104
33.0596
33.5321
33.3523
33.6959
33.3249
33.5538
33.0697
33.1536
32.7151
32.6873
32.2858
32.1508
31.8192
31.5718
31.4292
31.0307
31.1115
30.5723
30.8859
30.2104
30.7002
29.9186
30.5274
29.7391
30.215
29.8341
29.8583
29.8402
29.6301
29.7802
29.4344
29.7234
29.2548
29.6784
29.0876
29.6233
28.91
29.5244
28.729
29.3364
28.5771
28.9988
28.5079
28.5504
28.2838
28.1303
27.9325
27.6292
27.4982
27.0452
26.94
26.3352
26.2025
25.4841
25.2729
24.4054
24.1489
23.0006
22.6763
21.2329
20.7114
19.0017
18.0904
16.1428
14.7235
12.4558
10.4494
7.79855
5.16311
2.11182
-1.15564
-4.51461
-8.30996
-11.7302
-15.7306
-18.8484
-22.4883
-24.8689
-27.4928
-28.7279
-29.99
-29.815
-29.727
-28.1688
-26.6981
-24.1878
-21.8724
-19.2224
-16.7654
-14.6884
-12.6354
-11.487
-9.88463
-9.52705
-8.20786
-8.13804
-7.30593
-7.20787
-6.58784
-6.43941
-6.06796
-5.82614
-5.67069
-5.29948
-5.31173
-4.8091
-4.94624
-4.31031
-4.58057
-3.73859
-4.08434
-3.19456
-3.40292
-2.57277
-2.58998
-1.70092
-1.56346
-0.562025
-0.240064
0.958361
1.45536
2.9385
3.70049
5.45993
6.66687
8.72798
10.4958
12.974
15.3633
18.4749
21.4868
25.5671
29.0912
34.6186
38.4983
45.8761
50.0182
59.6465
63.8482
76.4277
79.6515
96.577
96.9017
118.59
116.232
139.012
137.859
159.286
19.4803
25.8012
22.6933
25.3789
23.8982
24.7045
23.2871
23.1152
20.9087
19.4917
16.2896
13.3692
8.90326
4.09156
-1.96009
-8.90361
-16.811
-25.9981
-35.911
-46.5043
-56.4228
-65.8369
-72.4626
-76.6616
-76.005
-71.7205
-63.5235
-53.8662
-41.9713
-30.6014
-19.9286
-10.1649
-2.13685
5.39015
11.0386
17.086
20.6371
24.2442
26.2507
28.3216
29.5808
30.5467
31.3437
31.8464
32.4415
32.4691
32.9481
32.8409
33.0841
32.7615
33.0867
32.5557
32.8691
32.2753
32.4778
32.0079
31.9901
31.6988
31.4735
31.4199
30.9577
31.1852
30.5363
30.9729
30.2075
30.795
29.9684
30.6293
29.8395
30.3167
29.9465
29.9657
29.9719
29.7343
29.934
29.5238
29.8998
29.3333
29.8798
29.1706
29.8368
29.0308
29.7508
28.8989
29.5766
28.7793
29.2453
28.7782
28.8036
28.5939
28.4354
28.2994
27.9991
27.9301
27.495
27.4537
26.9005
26.8374
26.1542
26.0336
25.1914
25.0122
23.9243
23.656
22.3081
21.8554
20.2635
19.4476
17.6174
16.3115
14.1785
12.2772
9.7559
7.15581
4.17796
0.819873
-2.61276
-6.67541
-10.4199
-14.8776
-18.5612
-22.8559
-25.8911
-29.3114
-30.9902
-32.684
-32.6677
-32.3799
-30.9145
-29.0521
-26.611
-23.6945
-20.9925
-17.7931
-15.6364
-12.8916
-11.7849
-9.79576
-9.60846
-8.20491
-8.28709
-7.7396
-7.72472
-7.44456
-7.2953
-7.14319
-6.79157
-6.78121
-6.25272
-6.33689
-5.70162
-5.90133
-5.16193
-5.47308
-4.64215
-4.97195
-4.20427
-4.36239
-3.73853
-3.76088
-3.11049
-3.04187
-2.3081
-2.13935
-1.24668
-0.944477
0.147957
0.678363
1.96633
2.83483
4.37973
5.65878
7.58231
9.30007
11.8033
13.9336
17.3304
19.8086
24.442
27.1795
33.4713
36.3809
44.7685
47.6769
58.9008
61.0468
76.5958
76.3812
95.8733
96.2879
116.702
117.195
137.236
21.8954
28.2566
24.7535
27.1931
25.8752
26.4111
25.3047
25.1771
23.4296
22.2777
19.6245
17.0813
13.2388
8.85256
3.12115
-3.68187
-12.1041
-21.6815
-32.6314
-44.6185
-57.2298
-69.4594
-79.9648
-87.4861
-90.2822
-88.0316
-79.7731
-68.581
-54.1297
-40.3274
-27.1016
-15.5697
-5.67688
2.66123
9.46169
16.0855
20.6815
24.7942
27.0182
29.3305
30.6476
31.61
32.5168
33.1208
33.7421
33.7452
34.2751
34.1007
34.3847
33.9588
34.1383
33.5746
33.6708
33.1167
33.0464
32.6771
32.3878
32.1403
31.7067
31.6794
31.1027
31.2747
30.5868
30.9749
30.2021
30.7448
29.9164
30.5126
29.8065
30.1977
29.8989
29.8547
29.9158
29.6337
29.8821
29.4417
29.841
29.2647
29.8157
29.1127
29.7915
28.9781
29.7141
28.8853
29.5304
28.8174
29.1959
28.8186
28.7836
28.6625
28.4447
28.3923
28.0524
28.0573
27.5995
27.6383
27.0635
27.0958
26.4254
26.3948
25.6182
25.5316
24.5579
24.3887
23.2037
22.8259
21.4899
20.7167
19.197
17.939
16.1046
14.2532
11.9792
9.41804
6.58105
3.21561
-0.238601
-4.39655
-8.38903
-13.125
-17.3208
-22.0346
-25.7887
-29.6509
-32.2168
-34.4497
-35.1877
-35.5148
-34.3808
-32.7441
-29.8848
-26.6878
-23.1223
-19.4641
-16.3987
-13.3826
-11.6721
-9.62958
-9.11658
-7.70207
-7.7692
-6.76951
-6.96678
-6.2637
-6.1913
-6.04236
-5.68692
-5.84286
-5.35405
-5.61193
-4.97472
-5.33349
-4.63329
-5.06965
-4.24328
-4.6495
-3.88933
-4.06861
-3.50389
-3.49344
-2.91563
-2.79108
-2.15139
-1.92597
-1.13263
-0.797514
0.202955
0.745307
1.95093
2.79333
4.26709
5.47176
7.34224
8.92109
11.3989
13.321
16.6991
18.8697
23.5271
25.8679
32.1258
34.5755
42.8109
45.099
56.08
57.146
71.6668
71.4926
87.8569
87.7909
104.977
105.126
122.121
22.3167
28.6559
25.195
27.7207
26.2965
27.2585
26.1443
26.307
24.7884
23.9772
21.6558
19.5269
16.043
12.1952
6.92533
0.663536
-7.36291
-17.0555
-28.8157
-42.2645
-56.8894
-71.9693
-86.0064
-98.1449
-105.01
-104.774
-96.4953
-83.4526
-66.4795
-50.4265
-34.8112
-21.156
-9.66046
0.076788
7.33584
14.6791
20.15
24.4719
27.6171
28.9934
30.87
31.2184
32.1473
32.5909
32.8371
33.0611
33.4733
33.2302
33.6792
33.261
33.6307
33.0054
33.3642
32.7065
32.8317
32.4235
32.2671
32.0798
31.6609
31.7029
31.069
31.3676
30.5864
31.0614
30.2239
30.8335
29.9959
30.5997
29.909
30.3043
30.0076
29.9641
30.0351
29.7418
30.0131
29.5375
29.9871
29.349
29.9775
29.2086
29.9465
29.1076
29.8794
29.0419
29.7123
29.0033
29.405
29.0354
28.9896
28.9134
28.6929
28.6853
28.3462
28.4026
27.9583
28.0378
27.5134
27.5728
26.9535
26.9664
26.2246
26.1919
25.2766
25.1418
24.0754
23.7199
22.5365
21.8328
20.4689
19.3357
17.6812
15.9918
13.9
11.5033
8.82355
5.56715
2.16172
-2.05312
-6.20592
-11.2577
-15.9561
-21.4088
-25.9958
-30.9049
-34.2671
-37.3038
-38.4666
-38.8384
-37.6189
-35.5988
-32.6755
-28.8112
-25.032
-20.3225
-16.9494
-12.8394
-11.0709
-8.58009
-8.35278
-6.93797
-7.40872
-7.00328
-7.45591
-7.25854
-7.25415
-7.16214
-6.78909
-6.85095
-6.31269
-6.47355
-5.79209
-6.02398
-5.29898
-5.67078
-4.8958
-5.26492
-4.64327
-4.77535
-4.31306
-4.37219
-3.88045
-3.89635
-3.3536
-3.29129
-2.66784
-2.51238
-1.7157
-1.43386
-0.462461
0.0475495
1.23997
2.01739
3.56531
4.59353
6.68449
7.94694
10.7945
12.2504
16.2029
17.7437
23.1538
24.6913
31.9905
33.3425
43.2527
43.7817
56.2446
57.3389
71.5402
73.0505
88.2059
89.3303
105.196
24.4325
30.6873
26.9901
29.6586
28.021
28.845
27.9475
28.0415
26.8879
26.2621
24.4682
22.7288
19.9004
16.5714
11.9848
6.29929
-1.21928
-10.5474
-22.4256
-36.6776
-53.3473
-71.3744
-90.1673
-108.175
-122.102
-127.943
-122.854
-109.554
-88.15
-66.5721
-47.1273
-30.0986
-15.8923
-4.37085
4.4398
12.5683
18.7828
25.453
28.1259
30.8677
31.7649
33.1604
33.4465
34.1015
34.5753
34.5098
35.1376
34.799
35.151
34.6137
34.8175
34.0512
34.2584
33.5048
33.4544
33.0309
32.6292
32.4803
31.8787
31.9488
31.1806
31.4514
30.5973
31.0484
30.1758
30.7329
29.9224
30.4879
29.8296
30.2052
29.9312
29.872
29.9608
29.6448
29.9525
29.445
29.9337
29.263
29.9317
29.1385
29.9016
29.0465
29.8665
29.0227
29.722
29.0095
29.4158
29.0731
28.9945
28.9924
28.7049
28.7835
28.3933
28.5253
28.0548
28.2179
27.6704
27.8358
27.2146
27.3348
26.6479
26.704
25.8944
25.8632
24.9362
24.6791
23.7054
23.0815
21.997
20.9584
19.5984
18.031
16.2443
13.9809
11.5472
8.36934
5.04473
0.760316
-3.59838
-9.00948
-14.2569
-20.2754
-25.7341
-31.4439
-35.9074
-39.9006
-42.1171
-43.4662
-43.1242
-41.8074
-38.7903
-34.7217
-29.9063
-24.4015
-19.4181
-14.5696
-11.448
-8.56562
-7.89412
-6.1703
-6.56801
-5.43326
-6.25877
-5.57653
-5.74696
-5.81986
-5.49995
-5.91613
-5.40899
-5.87624
-5.16637
-5.66058
-4.87006
-5.4943
-4.681
-5.13202
-4.41073
-4.61104
-4.24249
-4.2216
-3.89356
-3.77352
-3.47958
-3.28064
-2.89106
-2.63585
-2.07832
-1.73751
-0.994985
-0.493939
0.487121
1.18736
2.52843
3.41319
5.29893
6.32354
9.03029
10.0378
13.8625
14.8943
20.0405
21.0717
27.758
28.6474
37.3893
38.32
48.7339
49.876
61.7052
63.0783
76.1887
77.2807
91.3845
24.7231
31.0413
27.1953
30.2419
28.3448
29.6332
28.604
28.8873
27.8926
27.5178
26.0042
24.6297
22.2238
19.4608
15.4931
10.5371
3.72447
-5.01318
-16.5741
-30.7663
-47.9922
-67.4945
-89.3835
-112.929
-133.93
-145.869
-145.172
-132.835
-109.973
-84.0348
-59.9192
-39.0583
-22.1179
-7.81743
1.10763
10.2862
16.7026
24.1168
28.2399
30.505
32.6745
32.3981
32.95
32.9074
33.4556
33.5946
33.9917
33.7761
34.3802
33.8674
34.3546
33.5399
33.8822
33.2552
33.2407
33.0114
32.5949
32.5601
31.888
32.0639
31.2236
31.5812
30.6354
31.1581
30.1974
30.8488
29.9821
30.6031
29.9073
30.3351
30.0298
29.9899
30.0838
29.7425
30.0816
29.5277
30.0684
29.3247
30.0722
29.2043
30.0442
29.1384
30.0158
29.1259
29.8727
29.1635
29.583
29.2663
29.1543
29.2083
28.9027
29.0247
28.6168
28.8213
28.31
28.5802
27.9639
28.2605
27.5639
27.8315
27.0807
27.2455
26.4686
26.4568
25.6774
25.3907
24.6179
24.0106
23.1249
22.2045
21.074
19.6943
18.1542
16.1323
13.9658
11.0553
7.97045
3.86996
-0.384712
-5.8073
-11.2818
-17.9047
-24.1332
-31.0409
-36.7678
-42.063
-45.2989
-47.1644
-46.9739
-45.1703
-42.112
-37.2431
-32.2945
-25.4065
-20.0863
-13.29
-10.0993
-6.3515
-6.06603
-4.67501
-5.59677
-5.63145
-6.89381
-7.42538
-7.11849
-7.25869
-6.51748
-6.83863
-6.27462
-6.61775
-5.80092
-6.0266
-5.23834
-5.78716
-5.10312
-5.55174
-4.9281
-5.04324
-4.74869
-4.79756
-4.51536
-4.48646
-4.24027
-4.11074
-3.89551
-3.71758
-3.33256
-3.13632
-2.56174
-2.30312
-1.50317
-1.16478
-0.00559766
0.372022
2.07589
2.42033
4.83221
5.23529
8.44443
8.88228
13.2385
13.6862
19.5456
19.9494
27.5147
28.1801
37.3526
38.5228
49.0758
50.6297
62.5404
63.7874
77.2741
26.3852
33.1152
28.678
31.838
29.8036
30.8696
29.9438
30.2095
29.4244
29.1546
28.0594
26.9813
25.1624
22.8908
19.6774
15.4946
9.67626
2.04141
-8.41229
-21.7578
-38.4898
-58.6387
-82.2089
-110.024
-138.551
-160.682
-169.808
-162.352
-136.887
-104.993
-77.4014
-51.7805
-32.0602
-14.3207
-4.0202
7.26474
13.6047
22.1172
28.12
32.5175
33.7768
35.3957
34.9406
34.5318
35.4384
35.0391
35.9391
35.4328
35.9068
35.2938
35.4968
34.6349
34.7382
33.9403
33.7343
33.4933
32.8674
32.8806
32.1005
32.2483
31.303
31.6495
30.5965
31.1011
30.0831
30.7219
29.8354
30.4827
29.7822
30.2354
29.9333
29.9004
30.0204
29.647
30.0195
29.4312
30.0103
29.2409
30.0155
29.1301
30.0126
29.0622
30.0372
29.097
29.9044
29.1627
29.6266
29.2916
29.2035
29.2588
28.9149
29.1184
28.6313
28.9553
28.3328
28.7542
28.0396
28.4902
27.7245
28.1471
27.358
27.6807
26.9131
27.0454
26.3507
26.1647
25.5654
25.0356
24.3737
23.5842
22.7156
21.5135
20.2975
18.5137
16.7028
14.0578
11.2871
7.38475
3.21793
-2.35169
-8.28451
-15.5837
-23.0342
-31.2626
-38.4778
-45.4073
-50.0936
-53.4398
-54.4242
-54.2064
-51.6565
-47.2005
-41.1501
-33.4524
-25.3154
-17.0967
-10.9351
-6.18553
-5.34624
-3.36221
-3.70464
-2.62468
-4.39313
-4.4632
-5.32525
-5.70253
-5.32705
-5.84655
-5.48024
-6.18264
-5.4598
-5.95464
-5.01815
-5.80133
-4.93856
-5.51066
-4.81645
-4.97626
-4.74023
-4.70607
-4.56902
-4.43967
-4.42731
-4.25262
-4.18394
-3.98896
-3.81147
-3.57994
-3.2782
-2.97263
-2.4793
-2.1078
-1.28474
-0.902277
0.467818
0.760092
2.78904
2.97263
5.9345
5.98655
9.94143
10.0203
15.0489
15.0526
21.7203
21.7227
29.9472
30.0941
39.6396
40.1162
51.0836
51.4937
64.2758
26.3416
33.6284
28.7628
32.3839
30.0597
31.5666
30.5431
30.8354
30.2023
30.0193
29.1444
28.2843
26.8131
24.9675
22.2864
18.7763
13.7874
7.19478
-2.00681
-13.8972
-29.4911
-48.1203
-71.419
-99.6303
-131.397
-159.444
-177.943
-179.317
-158.918
-122.909
-91.1195
-62.0159
-39.2063
-19.8836
-6.97445
2.71772
10.9673
19.2497
25.8665
31.2787
31.8084
33.9876
34.2791
33.379
34.1619
33.2674
34.2498
34.093
35.0355
34.5675
35.1761
34.2152
34.4428
33.9001
33.6573
33.6616
32.9594
33.0696
32.1621
32.4978
31.4211
31.8435
30.6876
31.2649
30.1191
30.8493
29.8728
30.6148
29.8277
30.367
30.0306
30.0135
30.1555
29.729
30.1666
29.4855
30.162
29.234
30.1649
29.117
30.148
29.0839
30.162
29.1466
30.0387
29.2651
29.7634
29.4537
29.3246
29.4535
29.0399
29.3399
28.7573
29.2212
28.4775
29.061
28.2161
28.8435
27.9455
28.5508
27.6528
28.1354
27.2831
27.5745
26.8354
26.7829
26.2211
25.7748
25.2545
24.5789
23.9121
22.8776
21.9082
20.3782
18.8902
16.6043
14.2275
10.7313
6.96813
1.72838
-4.00704
-11.5027
-19.2751
-28.5938
-37.2917
-46.1138
-52.6604
-57.1242
-58.9155
-58.5946
-56.5263
-51.3253
-45.7855
-36.3889
-28.2328
-16.3562
-9.32968
-2.12621
-1.9539
-0.9574
-2.62087
-3.63564
-5.26352
-7.7498
-7.36272
-7.40509
-6.10072
-6.42841
-6.19599
-7.11657
-5.82868
-5.97433
-4.88767
-5.78875
-5.35693
-5.90673
-5.14589
-5.2614
-4.98722
-5.10039
-5.00592
-4.8859
-4.8772
-4.66441
-4.84053
-4.64428
-4.62624
-4.46022
-4.31288
-4.11121
-3.86961
-3.63085
-3.13068
-2.91027
-1.89958
-1.91054
-0.253218
-0.441064
1.92128
1.56186
4.71056
4.52221
8.44652
8.20328
13.6229
13.4996
20.3983
20.8805
28.6648
29.5937
39.0608
39.6267
51.6247
27.606
35.4618
29.9166
33.5657
31.1636
32.3998
31.4252
31.6274
31.1284
30.9574
30.3663
29.6744
28.6081
27.1238
25.0256
22.173
18.0794
12.6636
4.91333
-5.0776
-18.6664
-35.0375
-56.5228
-81.2483
-111.868
-142.754
-167.715
-178.389
-164.291
-133.858
-104.272
-74.2828
-50.4018
-28.0327
-12.4471
-1.35824
5.97487
15.9084
24.8786
30.9729
35.468
34.9372
36.442
35.1901
36.2272
35.4514
35.8644
35.7343
36.2193
35.7844
36.0491
35.3308
35.1701
34.3967
33.9092
33.99
33.1625
33.3652
32.3748
32.6594
31.5704
31.9485
30.7025
31.219
29.956
30.6875
29.6824
30.4797
29.6684
30.2575
29.9313
29.9248
30.1217
29.6374
30.1507
29.401
30.1243
29.1599
30.1245
29.0523
30.1311
28.9998
30.2144
29.0989
30.1049
29.2671
29.8323
29.5037
29.375
29.5562
29.0387
29.4904
28.7209
29.3809
28.4459
29.2388
28.2157
29.0504
28.0169
28.8097
27.8132
28.4971
27.5783
28.0631
27.2962
27.4219
26.9167
26.5394
26.1956
25.6201
25.1898
24.3309
23.6657
22.3981
21.29
19.3658
17.4498
14.3941
11.0892
6.18654
0.670619
-6.93355
-15.4623
-25.8854
-36.4491
-47.8371
-56.5364
-62.8755
-66.1065
-67.9453
-67.5662
-64.0304
-58.3899
-49.0792
-38.2409
-25.3438
-12.4908
-1.83389
-1.29887
1.00911
1.74701
2.61313
0.0214852
-2.12879
-6.3882
-7.05115
-5.5128
-5.52767
-5.00975
-6.65436
-6.49722
-6.54476
-4.9924
-5.53931
-4.89739
-5.90652
-5.26966
-5.2524
-4.93816
-4.90111
-4.9801
-4.83027
-5.03162
-4.80948
-5.01306
-4.84627
-5.0249
-4.79434
-4.90948
-4.64792
-4.66893
-4.38592
-4.25198
-4.01237
-3.28408
-3.20633
-2.13414
-2.38392
-0.196934
-0.996588
1.79661
1.28904
4.60994
3.67327
8.56273
7.34397
13.6352
12.7755
20.0018
19.1734
27.9528
26.9865
38.9498
27.5073
36.0226
30.11
33.8677
31.386
33.099
31.9421
32.152
31.7349
31.5111
31.0524
30.4199
29.5452
28.3051
26.5513
24.1977
20.7481
16.2557
9.71332
1.36958
-10.2201
-24.1945
-42.305
-63.5018
-88.8257
-114.982
-138.821
-153.132
-152.807
-133.393
-108.241
-79.8278
-55.7244
-33.4425
-17.3705
-4.84513
3.64509
12.5618
20.5007
27.4736
31.9915
32.7043
33.1924
33.8723
33.8901
33.2618
34.4036
34.1185
35.5092
35.0787
35.8416
34.8528
35.0977
34.5625
33.9483
34.2429
33.2946
33.5844
32.5081
32.9293
31.7053
32.2161
30.8702
31.4134
30.0607
30.8091
29.6564
30.6146
29.6833
30.3553
30.0197
30.0098
30.2837
29.6814
30.3296
29.415
30.2875
29.0972
30.245
28.9625
30.2406
28.9277
30.3134
29.091
30.1924
29.3359
29.9158
29.6508
29.4368
29.7371
29.079
29.6886
28.7807
29.5936
28.4978
29.488
28.2847
29.3368
28.1088
29.1145
27.9802
28.7981
27.8205
28.4139
27.6288
27.866
27.3859
27.0735
26.8346
26.3333
26.0537
25.3149
24.8477
23.7983
22.9858
21.4223
19.9432
17.4131
14.7145
10.4925
5.59898
-1.51117
-9.73167
-20.8038
-32.1331
-45.6416
-56.9326
-64.6268
-68.0973
-69.3235
-69.9957
-66.9368
-63.7087
-54.7542
-44.8859
-27.9892
-14.3758
3.96118
5.81908
1.81154
-0.385309
-1.05338
-1.65704
-6.30082
-7.92305
-8.93848
-5.85763
-5.79046
-5.32874
-7.699
-6.50932
-6.26352
-4.21116
-5.29392
-5.64382
-6.43057
-5.3219
-5.40032
-4.93218
-5.31493
-5.28373
-5.02698
-5.09876
-4.89014
-5.27613
-5.14204
-5.38989
-5.18679
-5.40522
-5.17762
-5.32181
-5.1726
-5.2344
-5.05975
-4.57562
-4.76826
-3.85033
-4.25184
-2.60047
-3.64759
-1.67701
-2.10637
0.0206977
-1.11986
2.59394
0.916325
6.16418
6.10605
10.7095
11.2048
16.5084
16.6954
25.9779
28.6906
37.5555
30.7992
34.828
31.9768
33.2606
32.4004
32.4645
32.1343
31.8689
31.5643
30.9988
30.3373
29.2877
27.8455
25.8916
22.9531
19.2426
13.6293
6.68226
-3.29889
-15.3145
-31.311
-49.6558
-72.2757
-95.541
-118.184
-132.911
-137.584
-126.473
-108.703
-84.1838
-62.1156
-39.5974
-23.2068
-10.8095
0.688016
11.0899
21.2859
28.502
33.9209
35.7727
36.9707
36.3489
36.5939
35.2112
35.9256
35.373