/*--------------------------------*- C++ -*----------------------------------*\
| =========                 |                                                 |
| \\      /  F ield         | OpenFOAM: The Open Source CFD Toolbox           |
|  \\    /   O peration     | Version:  4.1                                   |
|   \\  /    A nd           | Web:      www.OpenFOAM.org                      |
|    \\/     M anipulation  |                                                 |
\*---------------------------------------------------------------------------*/
FoamFile
{
    version     2.0;
    format      ascii;
    class       volScalarField;
    location    "3";
    object      epsilon;
}
// * * * * * * * * * * * * * * * * * * * * * * * * * * * * * * * * * * * * * //

dimensions      [0 2 -3 0 0 0 0];

internalField   nonuniform List<scalar> 
204246
(
1.03615
1.10872
1.10526
1.1074
1.11154
1.11214
1.11446
1.11474
1.11466
1.11393
1.11324
1.11143
1.10963
1.1078
1.10656
1.10628
1.10655
1.10315
1.10612
1.10745
1.1087
1.11112
1.11229
1.11492
1.11642
1.11714
1.11699
1.11556
1.11516
1.11384
1.11229
1.11057
1.10924
1.1086
1.10841
1.10917
1.10662
1.10966
1.11189
1.113
1.11549
1.11708
1.11929
1.12024
1.11952
1.11983
1.1189
1.11829
1.11704
1.11534
1.11414
1.11158
1.11015
1.1053
1.1076
1.10857
1.10919
1.11091
1.1122
1.11519
1.11702
1.1189
1.1201
1.11951
1.11894
1.11752
1.11547
1.11394
1.11117
1.1097
1.10451
1.106
1.10688
1.10758
1.10915
1.11043
1.11333
1.11513
1.1169
1.11807
1.11753
1.11699
1.11566
1.11388
1.1125
1.11091
1.11033
1.10728
1.10953
1.11071
1.11167
1.11363
1.11512
1.11737
1.11954
1.12027
1.12111
1.12141
1.12267
1.1235
1.12461
1.12582
1.12748
1.12917
1.13175
1.136
1.13641
1.14638
1.15051
1.1599
1.16865
1.18066
1.19196
1.20515
1.22215
1.24132
1.26878
1.30367
1.35514
1.42901
1.53882
1.70247
1.92855
2.13546
2.20302
2.201
2.13342
1.95494
1.82432
1.76174
1.68379
1.55338
1.44858
1.3816
1.32154
1.23707
1.16395
1.0998
1.0433
0.978183
0.916466
0.87082
0.82052
0.767663
0.719835
0.680886
0.645041
0.602634
0.566447
0.533826
0.505289
0.471232
0.444891
0.420058
0.397279
0.371913
0.355686
0.334585
0.32268
0.304984
0.296727
0.283182
0.277146
0.27082
0.269773
0.269343
0.270224
0.271616
0.274942
0.280707
0.289172
0.301469
0.316963
0.337123
0.36217
0.393265
0.431942
0.481978
0.534767
0.60708
0.678917
0.779011
0.871973
1.00202
1.11406
1.27317
1.40317
1.5956
1.74189
1.95616
2.08286
2.22892
2.27109
0.0037706
0.107067
0.104462
0.106392
0.110916
0.10962
0.114399
0.113593
0.116726
0.114855
0.116707
0.114173
0.115656
0.111575
0.114282
0.111473
0.11516
0.113282
0.113213
0.117296
0.115177
0.119853
0.117829
0.12198
0.120569
0.123028
0.1207
0.12259
0.118245
0.120396
0.114835
0.116668
0.111995
0.114913
0.112196
0.115737
0.11489
0.114704
0.11928
0.117234
0.121789
0.12061
0.123654
0.121486
0.123473
0.119616
0.121975
0.11728
0.119425
0.114259
0.115715
0.11182
0.113513
0.111726
0.110897
0.114627
0.112439
0.116993
0.116255
0.121748
0.120975
0.124104
0.120872
0.123363
0.118514
0.120465
0.1142
0.115303
0.111061
0.112909
0.111369
0.110675
0.114049
0.112861
0.117345
0.116548
0.121875
0.121034
0.12404
0.120824
0.123345
0.118582
0.120597
0.11487
0.116423
0.114033
0.116669
0.115408
0.11476
0.118286
0.117058
0.121583
0.12073
0.12522
0.122864
0.125904
0.122347
0.125133
0.121739
0.125002
0.122125
0.125455
0.123864
0.128544
0.127617
0.134594
0.133956
0.138614
0.147808
0.149373
0.165958
0.169618
0.194145
0.200803
0.236934
0.250881
0.305419
0.338071
0.432221
0.524857
0.731268
0.996118
1.41754
1.611
1.63464
1.50126
1.12773
0.691509
0.485289
0.407568
0.360418
0.33696
0.278852
0.25958
0.232357
0.224985
0.201416
0.196637
0.181453
0.179647
0.167464
0.162242
0.158372
0.147395
0.145201
0.134878
0.133285
0.125357
0.124477
0.118359
0.117967
0.113229
0.113238
0.109995
0.110468
0.10938
0.111087
0.110979
0.112447
0.117645
0.120095
0.129552
0.134729
0.148345
0.156489
0.17431
0.186493
0.209551
0.227636
0.256493
0.282883
0.320397
0.36014
0.409814
0.467624
0.531011
0.607641
0.682347
0.773406
0.86107
0.963598
1.06246
1.17681
1.28696
1.41488
1.53509
1.68109
1.82407
2.02725
2.25933
2.6198
2.86261
2.95403
0.00830773
0.00853689
0.00835027
0.00817075
0.00854028
0.00851288
0.008919
0.00885009
0.00906196
0.00887975
0.00896693
0.00871773
0.00878009
0.00848483
0.00874168
0.00850348
0.00881752
0.00868662
0.0087341
0.00911922
0.00903635
0.00955977
0.0094438
0.00979301
0.0096014
0.00976513
0.0094897
0.00961853
0.0091497
0.00930163
0.00876975
0.00891462
0.00856023
0.00883701
0.00861128
0.0089072
0.00883378
0.00891525
0.00935192
0.00925008
0.00973593
0.00964628
0.00989383
0.00965143
0.00980758
0.00941347
0.00959556
0.00913123
0.00929341
0.00879381
0.00889296
0.00851166
0.00864359
0.00847116
0.00840958
0.00875332
0.0086606
0.00913125
0.00916403
0.00977049
0.00971374
0.00995721
0.00961506
0.00977638
0.00924901
0.00938876
0.00879394
0.00887168
0.00846746
0.0086035
0.00847297
0.00845319
0.00878502
0.00875152
0.00925418
0.00927317
0.00982508
0.00972829
0.00993634
0.00957953
0.00973865
0.00921759
0.00936173
0.00883083
0.00896644
0.00875073
0.00897958
0.00888979
0.00889096
0.00926324
0.00920759
0.00974836
0.00972
0.0101485
0.00988605
0.0100967
0.00966684
0.00988955
0.00954551
0.00987125
0.00961958
0.00996801
0.00984366
0.0103696
0.0103231
0.0111534
0.0111582
0.01208
0.0134102
0.0143852
0.0173265
0.0188881
0.024122
0.027243
0.0364154
0.0442328
0.0632326
0.0871131
0.136895
0.215648
0.369134
0.621079
1.01096
1.1894
1.19378
0.999387
0.572075
0.237822
0.130732
0.0947964
0.0788487
0.0725228
0.0650041
0.0609108
0.0556658
0.054151
0.0507368
0.0500365
0.0482073
0.0481567
0.0471299
0.046764
0.0467914
0.0458777
0.0459178
0.0450339
0.0450778
0.044411
0.0445499
0.0442993
0.0446526
0.044544
0.0453033
0.0454361
0.0471103
0.0478196
0.0505372
0.0519245
0.0554439
0.0589726
0.063476
0.0696011
0.0757446
0.0852101
0.0938321
0.10761
0.119971
0.139204
0.156996
0.183235
0.208308
0.24327
0.27701
0.321589
0.364274
0.418522
0.470651
0.532852
0.597042
0.664452
0.741193
0.816591
0.907465
0.987906
1.09192
1.17047
1.27972
1.33907
1.41849
1.44198
1.45631
1.36019
1.32422
0.00497202
0.00530565
0.00528953
0.00527514
0.00528188
0.00527838
0.00528624
0.00528438
0.0052917
0.0052904
0.00529567
0.00529185
0.00529381
0.00528683
0.00529475
0.00528847
0.0052977
0.00529405
0.00529596
0.00530689
0.00530581
0.00532266
0.00532007
0.00533439
0.00532747
0.00533361
0.00532318
0.00532788
0.00531107
0.00531618
0.00529768
0.00530194
0.00529051
0.00529885
0.00529162
0.00530066
0.00529869
0.00530227
0.00531649
0.00531438
0.00533322
0.00532996
0.00533947
0.00532993
0.00533575
0.00532049
0.00532714
0.00531028
0.00531567
0.00529828
0.00530127
0.00528721
0.00528952
0.00528283
0.00528015
0.00528779
0.00528643
0.00530051
0.00530486
0.00533164
0.0053334
0.00534317
0.00532963
0.00533539
0.00531593
0.00532079
0.00529985
0.00530196
0.00528689
0.00528967
0.00528411
0.0052823
0.00529122
0.00529191
0.00530767
0.00531359
0.00533985
0.00533905
0.00534724
0.00533287
0.00533875
0.00531914
0.00532394
0.0053038
0.0053068
0.00529779
0.00530432
0.00530063
0.00530036
0.00531222
0.00531107
0.0053305
0.0053321
0.00535354
0.00534512
0.00535546
0.00533873
0.00534584
0.00533024
0.00534146
0.00533108
0.00534478
0.00533997
0.00536358
0.00536241
0.00541006
0.00541809
0.00549115
0.00560872
0.00573481
0.00603327
0.00631429
0.00698864
0.00772194
0.00943199
0.0119365
0.0175646
0.0279721
0.0505378
0.0954698
0.188149
0.363424
0.675072
0.955453
1.00402
0.906435
0.594111
0.228466
0.0865078
0.0428986
0.029485
0.0252206
0.0232441
0.0224833
0.021937
0.0218852
0.021626
0.0216449
0.0213286
0.0212772
0.0207674
0.0205608
0.0204023
0.0202347
0.0202905
0.0202274
0.0203534
0.0203202
0.0205047
0.0204981
0.0208293
0.020916
0.0215431
0.021872
0.0229459
0.0236502
0.0253043
0.0266408
0.029102
0.0317544
0.0355012
0.0400856
0.0458659
0.0530721
0.0617213
0.0723385
0.085118
0.100165
0.118352
0.13839
0.162725
0.187937
0.218313
0.247892
0.282229
0.313549
0.348326
0.378465
0.409288
0.437518
0.463162
0.486866
0.505205
0.520758
0.53129
0.541156
0.551325
0.565636
0.587082
0.613173
0.645736
0.658616
0.665636
0.00533401
0.00529035
0.00527563
0.00526756
0.00526412
0.00526164
0.00526093
0.00526
0.00525982
0.00525974
0.00525965
0.00525898
0.00525899
0.00525861
0.00525829
0.0052583
0.0052582
0.00525784
0.00525785
0.00525776
0.00525749
0.0052578
0.0052576
0.00525769
0.00525767
0.0052575
0.00525755
0.00525867
0.00525866
0.00525872
0.00525825
0.00525824
0.00525792
0.00525767
0.00525735
0.00525725
0.00525691
0.00525687
0.00525686
0.00525641
0.00525644
0.00525628
0.00525627
0.00525603
0.00525628
0.00525606
0.00525595
0.00525657
0.00525863
0.00525917
0.00525939
0.00525939
0.00525922
0.00525878
0.00525879
0.00525868
0.00525824
0.00525824
0.0052577
0.00525767
0.00525757
0.00525755
0.00525707
0.00525706
0.00525647
0.00525642
0.00525579
0.00525586
0.00525579
0.00525545
0.00525522
0.00525521
0.00525512
0.00525484
0.00525502
0.00525494
0.00525489
0.00525485
0.00525485
0.00525449
0.00525447
0.00525403
0.0052544
0.00525567
0.00525787
0.00525882
0.00525974
0.00525992
0.00525996
0.00525991
0.00525978
0.00525998
0.00525996
0.00525968
0.00525955
0.00526085
0.00526144
0.00526187
0.00526167
0.00526198
0.00526185
0.00526184
0.00526159
0.00526218
0.00526211
0.00526193
0.00526208
0.00526442
0.00527068
0.00528157
0.00530708
0.00534775
0.00543599
0.00559097
0.00594446
0.00667148
0.00839919
0.0123042
0.0215202
0.0423174
0.0888506
0.185962
0.375512
0.684211
0.860558
0.86386
0.683221
0.331613
0.111795
0.044548
0.0224554
0.015344
0.0132991
0.0128351
0.0127792
0.0130881
0.013754
0.0142809
0.0143753
0.014422
0.0143705
0.0143238
0.0143507
0.0143367
0.0143827
0.0143768
0.014474
0.0144969
0.0146969
0.0148354
0.0153014
0.015794
0.0167522
0.0177834
0.0193772
0.02115
0.0237595
0.0268724
0.0311826
0.0364846
0.0434819
0.0520099
0.0627239
0.0752296
0.0903358
0.107346
0.127359
0.149094
0.173949
0.199753
0.227738
0.254932
0.282978
0.308663
0.334466
0.357404
0.379922
0.398439
0.417254
0.431036
0.446534
0.45609
0.462611
0.463412
0.463641
0.459445
0.456624
0.45458
0.456736
0.463285
0.474499
0.478795
0.481877
0.00529554
0.0052839
0.005265
0.00525928
0.00525584
0.00525428
0.00525358
0.00525309
0.00525361
0.00525435
0.0052545
0.00525441
0.00525394
0.00525394
0.00525361
0.00525319
0.0052532
0.00525285
0.00525251
0.0052525
0.00525202
0.00525177
0.00525174
0.00525119
0.00525104
0.00525102
0.00525037
0.00525023
0.00525019
0.00525018
0.00525013
0.00525006
0.00524996
0.00524976
0.00525024
0.00525258
0.00525536
0.0052562
0.00525631
0.00525633
0.00525613
0.00525577
0.00525571
0.00525538
0.00525526
0.0052552
0.00525519
0.00525512
0.00525495
0.00525541
0.00525662
0.00525688
0.00525694
0.00525692
0.00525646
0.00525645
0.00525631
0.00525593
0.0052559
0.00525573
0.0052556
0.00525548
0.00525549
0.00525542
0.00525531
0.00525583
0.0052569
0.00525705
0.00525689
0.00525685
0.00525658
0.00525652
0.00525652
0.00525607
0.00525608
0.00525603
0.00525551
0.0052555
0.00525512
0.00525474
0.00525474
0.00525428
0.00525405
0.00525404
0.00525397
0.00525394
0.00525366
0.00525367
0.0052534
0.00525343
0.0052547
0.00525586
0.0052561
0.00525609
0.00525579
0.00525579
0.00525567
0.00525545
0.00525549
0.00525547
0.00525511
0.00525508
0.00525501
0.0052551
0.00525638
0.0052594
0.00526387
0.00526919
0.00527474
0.00528074
0.00528857
0.00530001
0.0053206
0.00536015
0.00545061
0.00566418
0.00620536
0.00755129
0.010946
0.0192047
0.0389602
0.083407
0.17805
0.357277
0.634308
0.776156
0.768777
0.616097
0.317761
0.116026
0.0520162
0.026739
0.0168979
0.0124127
0.0106306
0.00989449
0.00967729
0.00964666
0.00966157
0.00977346
0.00991527
0.0101006
0.010351
0.0105102
0.010748
0.0108248
0.0109158
0.0109448
0.0110727
0.0112299
0.0116203
0.012137
0.0130219
0.0141443
0.0158084
0.017927
0.0209176
0.0247721
0.0299068
0.0363377
0.0444538
0.0543043
0.0661864
0.0799692
0.0959225
0.113328
0.132809
0.153064
0.17577
0.198249
0.222811
0.244602
0.266347
0.28269
0.298648
0.310065
0.322101
0.329743
0.337733
0.342079
0.347758
0.351663
0.356964
0.361363
0.366385
0.371445
0.377261
0.383729
0.391027
0.398025
0.404384
0.407152
0.4089
0.00531412
0.00529241
0.00527567
0.00526877
0.00526304
0.00526051
0.00525923
0.00525876
0.00525905
0.00525903
0.00525901
0.00525844
0.00525816
0.00525816
0.00525766
0.00525729
0.00525727
0.00525688
0.00525653
0.00525652
0.00525616
0.00525575
0.00525574
0.00525519
0.00525497
0.00525494
0.00525451
0.00525432
0.00525432
0.00525416
0.00525413
0.00525409
0.00525398
0.00525407
0.00525588
0.00525858
0.00525934
0.00525947
0.00525945
0.00525922
0.00525929
0.00525927
0.00525885
0.00525885
0.00525875
0.00525869
0.00525938
0.00526
0.00526012
0.00526013
0.0052597
0.00525976
0.00525974
0.00525925
0.00525927
0.00525926
0.00525867
0.00525868
0.00525861
0.00525803
0.00525805
0.00525783
0.00525733
0.00525731
0.00525686
0.00525653
0.0052564
0.00525593
0.00525579
0.0052557
0.00525521
0.00525507
0.00525505
0.00525496
0.00525498
0.00525488
0.00525473
0.00525528
0.00525737
0.00525833
0.00525845
0.00525842
0.00525794
0.00525793
0.00525776
0.00525733
0.00525733
0.00525722
0.00525676
0.00525675
0.00525653
0.00525607
0.00525606
0.00525602
0.00525588
0.00525568
0.00525566
0.00525561
0.00525553
0.00525541
0.0052552
0.00525569
0.00525803
0.00526142
0.00526305
0.0052634
0.00526352
0.00526353
0.00526354
0.00526442
0.00526664
0.00527069
0.00527823
0.00529208
0.00532245
0.00539236
0.00556691
0.00600437
0.00713839
0.0100121
0.0172265
0.0344029
0.0736228
0.155579
0.308764
0.549707
0.712413
0.727211
0.661653
0.491188
0.297168
0.15641
0.0845078
0.040196
0.0220119
0.0136961
0.0108599
0.00957669
0.00915773
0.00899579
0.00897711
0.00901318
0.00916118
0.00930226
0.00937277
0.0094048
0.00950508
0.00968226
0.0100339
0.0105505
0.0113604
0.0124708
0.0140478
0.0161806
0.0190963
0.0230181
0.0281285
0.0348485
0.0432063
0.0533158
0.0658178
0.0798885
0.0968224
0.114955
0.136309
0.157952
0.181842
0.203439
0.225811
0.244021
0.262243
0.275603
0.288714
0.296763
0.304734
0.309544
0.315796
0.319843
0.324312
0.32621
0.329072
0.330456
0.333995
0.336824
0.341975
0.346267
0.35199
0.357245
0.363665
0.36925
0.374317
0.376648
0.377902
0.00531849
0.00529063
0.0052777
0.00527122
0.00526425
0.00526152
0.00525927
0.00525815
0.0052575
0.00525693
0.00525654
0.00525623
0.00525624
0.00525577
0.00525543
0.00525544
0.00525524
0.00525507
0.00525503
0.00525505
0.00525498
0.00525486
0.00525551
0.00525708
0.00525748
0.00525742
0.00525744
0.00525732
0.00525693
0.00525693
0.00525678
0.00525641
0.00525633
0.00525636
0.00525622
0.00525622
0.00525609
0.00525596
0.00525677
0.00525878
0.00525965
0.00525971
0.00525973
0.00525974
0.00525926
0.00525926
0.00525922
0.00525859
0.00525859
0.00525854
0.00525795
0.00525795
0.00525786
0.00525731
0.0052573
0.00525704
0.00525657
0.00525658
0.00525626
0.00525587
0.00525587
0.00525562
0.00525516
0.00525517
0.00525505
0.00525474
0.00525485
0.00525488
0.00525462
0.00525469
0.00525465
0.00525462
0.00525461
0.00525454
0.00525532
0.00525772
0.00525925
0.00525947
0.00525954
0.00525956
0.00525915
0.00525915
0.00525918
0.00525897
0.00525912
0.00525916
0.00525903
0.00525929
0.00525931
0.00525932
0.00525905
0.0052586
0.0052586
0.00525827
0.00525809
0.00525808
0.00525804
0.00525803
0.00525804
0.00525785
0.00525786
0.00525763
0.00525764
0.00525748
0.00525729
0.0052579
0.00525985
0.00526331
0.00526774
0.0052716
0.00527462
0.00527722
0.00528131
0.00528881
0.00530299
0.00533201
0.00539536
0.00554459
0.0059148
0.00685039
0.00923856
0.0151217
0.0292137
0.0606765
0.125639
0.246955
0.440482
0.6434
0.699991
0.703208
0.667853
0.58875
0.478836
0.357282
0.240659
0.119714
0.0480545
0.0221507
0.0133109
0.0099617
0.00878661
0.00835753
0.00820879
0.00816832
0.00816903
0.00820616
0.00833503
0.00859477
0.00906616
0.00979424
0.0108831
0.0124102
0.0145404
0.0174442
0.0213585
0.0266152
0.033441
0.0423715
0.0534459
0.0667282
0.0825129
0.0998801
0.119446
0.139464
0.161562
0.183105
0.205869
0.225161
0.242727
0.25405
0.26404
0.270017
0.277336
0.281632
0.287168
0.289947
0.29436
0.297182
0.302377
0.305854
0.311512
0.315143
0.321126
0.325444
0.331848
0.336763
0.343355
0.348579
0.35465
0.359471
0.363817
0.365925
0.36696
0.00532314
0.00529476
0.00528313
0.00527579
0.0052686
0.00526563
0.00526266
0.0052614
0.00526044
0.00525944
0.00525877
0.00525853
0.00525838
0.00525746
0.00525726
0.00525726
0.00525675
0.00525644
0.00525645
0.00525608
0.00525571
0.00525571
0.00525541
0.00525499
0.00525499
0.00525475
0.0052543
0.0052543
0.0052539
0.00525359
0.00525361
0.00525359
0.00525334
0.00525335
0.00525326
0.0052531
0.00525378
0.00525642
0.00525843
0.00525869
0.00525868
0.00525859
0.00525834
0.0052583
0.00525824
0.00525779
0.00525788
0.00525778
0.00525741
0.00525741
0.00525733
0.00525714
0.00525707
0.00525699
0.00525743
0.00525785
0.00525785
0.00525768
0.00525774
0.00525768
0.00525726
0.00525727
0.00525706
0.00525654
0.00525651
0.00525607
0.00525578
0.00525565
0.00525515
0.00525504
0.0052548
0.00525433
0.00525432
0.00525414
0.00525385
0.00525374
0.00525376
0.0052537
0.0052536
0.00525357
0.0052534
0.00525348
0.0052548
0.00525689
0.00525888
0.00526024
0.00526124
0.00526154
0.00526161
0.00526157
0.00526133
0.0052614
0.00526139
0.00526099
0.00526107
0.00526106
0.00526059
0.00526058
0.00526039
0.00526011
0.0052601
0.0052595
0.0052595
0.00526033
0.00526098
0.00526145
0.00526248
0.00526309
0.00526424
0.00526496
0.00526623
0.00526776
0.00527046
0.0052743
0.00528159
0.00529482
0.00532199
0.00537707
0.00549981
0.00578743
0.00650276
0.00827548
0.0126491
0.0228684
0.045392
0.0915901
0.175829
0.316472
0.503735
0.633657
0.662479
0.66002
0.628251
0.564332
0.469638
0.350835
0.214696
0.0880165
0.0354872
0.0180511
0.0121121
0.00977779
0.00880903
0.00849189
0.00840434
0.00841335
0.00855512
0.00894344
0.00962239
0.0107287
0.0123928
0.0148736
0.0183372
0.0231634
0.0294606
0.0377745
0.0479834
0.0609285
0.0761459
0.0939253
0.114552
0.136393
0.159702
0.181176
0.202149
0.219311
0.235973
0.248077
0.25909
0.264243
0.268245
0.270362
0.273571
0.276514
0.280478
0.283035
0.286607
0.289809
0.29507
0.299712
0.306107
0.310941
0.317153
0.32248
0.329341
0.335003
0.341866
0.347588
0.353445
0.358261
0.362147
0.3642
0.365078
0.00532011
0.00529271
0.00528114
0.00527053
0.00526423
0.00525973
0.00525718
0.00525524
0.00525428
0.00525392
0.0052535
0.00525323
0.00525317
0.0052529
0.00525299
0.00525433
0.00525586
0.00525615
0.00525622
0.0052562
0.00525575
0.00525574
0.00525564
0.00525509
0.00525508
0.00525464
0.00525433
0.00525429
0.00525426
0.00525416
0.00525405
0.00525433
0.00525604
0.00525717
0.0052574
0.00525737
0.00525691
0.00525691
0.00525664
0.00525628
0.00525628
0.00525584
0.00525553
0.0052555
0.00525507
0.00525487
0.00525484
0.0052548
0.00525482
0.00525465
0.00525461
0.0052544
0.00525454
0.0052562
0.00525836
0.0052588
0.00525877
0.00525872
0.00525853
0.00525848
0.00525825
0.00525783
0.00525785
0.00525785
0.00525741
0.00525744
0.00525741
0.00525686
0.00525688
0.00525676
0.00525621
0.00525621
0.00525587
0.00525551
0.00525548
0.00525493
0.00525474
0.00525473
0.00525411
0.00525394
0.00525391
0.00525389
0.00525382
0.00525373
0.00525373
0.00525361
0.00525353
0.00525458
0.00525783
0.00526172
0.00526306
0.00526358
0.00526382
0.00526392
0.00526394
0.00526397
0.00526396
0.00526392
0.00526372
0.00526358
0.00526359
0.00526348
0.00526341
0.00526423
0.00526558
0.00526587
0.00526582
0.00526573
0.00526596
0.00526712
0.00526885
0.00527045
0.00527185
0.00527488
0.00528007
0.00528945
0.00530541
0.00533349
0.00538465
0.00548513
0.00570547
0.00621795
0.00746078
0.0104034
0.0171197
0.031673
0.0602296
0.112268
0.19393
0.313061
0.441814
0.530548
0.545131
0.528328
0.472153
0.3966
0.308162
0.223342
0.142976
0.0794393
0.0369366
0.0202371
0.0131734
0.0103729
0.00931386
0.00903743
0.00899786
0.00919419
0.00987708
0.0112486
0.0133919
0.016572
0.0210507
0.0273589
0.0357414
0.046771
0.0602365
0.0767654
0.0954389
0.116007
0.138611
0.161607
0.185356
0.2059
0.223913
0.235647
0.244963
0.25028
0.256675
0.26046
0.264209
0.265947
0.268544
0.27067
0.274776
0.278625
0.283524
0.287424
0.293102
0.298796
0.306195
0.312958
0.320877
0.328101
0.336284
0.343616
0.351425
0.358239
0.36454
0.369827
0.373647
0.37593
0.376808
0.00532572
0.0053002
0.00528896
0.00527728
0.00527121
0.00526532
0.0052623
0.00525964
0.00525848
0.00525771
0.00525729
0.00525698
0.005257
0.00525893
0.00526126
0.00526164
0.00526159
0.00526124
0.00526107
0.00526082
0.00526041
0.00526042
0.00526016
0.00525972
0.00525972
0.0052594
0.00525901
0.005259
0.00525864
0.00525837
0.00525841
0.00525835
0.00525815
0.0052581
0.00525793
0.0052581
0.00525895
0.00525922
0.00525921
0.00525913
0.00525875
0.00525855
0.00525834
0.00525795
0.00525796
0.00525785
0.00525735
0.00525736
0.00525712
0.00525673
0.00525674
0.00525651
0.00525605
0.00525604
0.00525571
0.0052553
0.00525529
0.00525506
0.00525485
0.00525476
0.00525478
0.00525468
0.00525456
0.00525538
0.00525789
0.00525906
0.00525925
0.00525919
0.00525873
0.00525875
0.00525866
0.00525815
0.00525815
0.00525807
0.00525749
0.00525751
0.00525742
0.00525687
0.00525689
0.00525674
0.00525621
0.0052562
0.00525591
0.00525551
0.00525551
0.00525521
0.0052548
0.00525481
0.00525452
0.00525416
0.00525415
0.005254
0.00525375
0.00525372
0.00525367
0.00525362
0.00525353
0.00525443
0.0052567
0.00525993
0.00526266
0.00526474
0.0052664
0.005269
0.00527051
0.00527085
0.00527082
0.00527075
0.0052711
0.00527242
0.00527352
0.005274
0.00527451
0.00527569
0.0052785
0.00528418
0.00529422
0.00531134
0.00533853
0.00538357
0.00546426
0.0056228
0.00596822
0.00674727
0.00851662
0.0124448
0.0204957
0.0361064
0.0625282
0.104184
0.157221
0.218958
0.274579
0.311138
0.315064
0.301497
0.260155
0.207377
0.147
0.0992694
0.0592948
0.0362019
0.023056
0.0172279
0.0134656
0.0117221
0.0112072
0.0112317
0.0118414
0.0136815
0.0167892
0.0214136
0.0275813
0.0361439
0.0473782
0.0621873
0.0800972
0.101602
0.124768
0.148485
0.171926
0.193302
0.213802
0.230754
0.244274
0.250064
0.252772
0.254093
0.255631
0.257986
0.261153
0.264192
0.266787
0.269226
0.273223
0.278795
0.285534
0.292439
0.299845
0.307749
0.31655
0.325674
0.334727
0.34396
0.353037
0.362188
0.370337
0.378237
0.384712
0.390587
0.39407
0.396531
0.397364
0.00532534
0.00530684
0.00529151
0.00528216
0.00527601
0.00527018
0.00526734
0.00526463
0.00526329
0.00526249
0.00526108
0.00526052
0.00526032
0.00525999
0.00525935
0.00525917
0.00525897
0.00525843
0.00525834
0.00525802
0.00525757
0.00525759
0.00525734
0.00525691
0.00525691
0.00525674
0.00525625
0.00525625
0.00525605
0.00525559
0.00525557
0.00525539
0.0052552
0.00525503
0.00525504
0.00525495
0.00525485
0.00525562
0.00525748
0.00525809
0.00525813
0.00525812
0.00525813
0.00525821
0.00525908
0.00525998
0.00525999
0.00525999
0.00525997
0.00525959
0.00525958
0.00525948
0.00525898
0.00525899
0.00525879
0.00525832
0.0052583
0.00525783
0.00525756
0.00525756
0.00525747
0.00525707
0.00525701
0.00525694
0.00525693
0.00525683
0.00525669
0.00525714
0.00525857
0.0052589
0.00525896
0.00525884
0.00525841
0.00525841
0.00525797
0.00525769
0.00525768
0.00525709
0.00525689
0.00525684
0.00525626
0.00525613
0.00525605
0.00525567
0.00525563
0.00525557
0.00525524
0.00525522
0.00525519
0.0052551
0.00525506
0.00525494
0.00525486
0.00525471
0.00525528
0.00525727
0.0052594
0.00526009
0.00526038
0.00526045
0.00526037
0.00526013
0.0052601
0.00526005
0.00525993
0.00525986
0.00525968
0.00526018
0.00526199
0.00526339
0.00526403
0.00526456
0.00526561
0.00526733
0.00527057
0.0052756
0.00528427
0.00529709
0.00531695
0.00534564
0.00538912
0.00545622
0.00557463
0.00579881
0.00626003
0.00724237
0.00925801
0.0132819
0.0204427
0.0325324
0.0494223
0.0717995
0.0945594
0.118435
0.129545
0.131643
0.126967
0.119374
0.103074
0.0848377
0.0603532
0.0421238
0.0322228
0.0289031
0.0272088
0.0244742
0.0190947
0.0160255
0.015495
0.0161161
0.0189314
0.0247687
0.0332475
0.0443456
0.0578588
0.0748938
0.095343
0.119861
0.145954
0.171786
0.195388
0.214183
0.22917
0.238927
0.246934
0.251103
0.253654
0.254766
0.255859
0.257139
0.260015
0.26363
0.268373
0.272855
0.278273
0.284624
0.293055
0.301743
0.311098
0.320524
0.330674
0.341355
0.352066
0.362745
0.37292
0.383361
0.392573
0.401322
0.408278
0.414858
0.418249
0.420836
0.421637
0.00531691
0.00530278
0.00528821
0.00527887
0.00527344
0.00526822
0.00526585
0.0052645
0.00526286
0.00526213
0.0052612
0.00526065
0.0052602
0.00526
0.00525916
0.00525891
0.0052589
0.00525831
0.00525804
0.00525804
0.0052576
0.00525736
0.00525734
0.00525725
0.0052572
0.00525705
0.00525731
0.00525832
0.00525868
0.0052587
0.00525833
0.00525833
0.00525813
0.00525766
0.00525766
0.00525724
0.00525691
0.00525688
0.00525639
0.00525612
0.00525608
0.00525601
0.00525592
0.0052559
0.00525581
0.00525565
0.00525623
0.00525814
0.0052591
0.00525919
0.0052592
0.00525921
0.0052591
0.00525888
0.00525888
0.00525867
0.00525856
0.00525915
0.00525987
0.00526016
0.00526025
0.00526029
0.00526029
0.00525975
0.00525976
0.00525972
0.00525916
0.00525916
0.00525892
0.00525842
0.0052584
0.00525796
0.0052576
0.00525762
0.00525733
0.0052571
0.00525712
0.00525709
0.00525704
0.00525701
0.00525688
0.00525736
0.00525977
0.00526211
0.00526256
0.00526249
0.00526216
0.00526212
0.00526167
0.00526152
0.00526145
0.00526092
0.00526092
0.00526089
0.00526065
0.00526057
0.00526057
0.00526034
0.00526013
0.00526013
0.00526012
0.00525993
0.00525995
0.00525992
0.00525987
0.00525978
0.00525963
0.00526017
0.00526238
0.00526412
0.00526451
0.00526464
0.00526483
0.00526543
0.00526737
0.00527152
0.00527833
0.00528893
0.00530371
0.00532422
0.0053518
0.0053905
0.00544717
0.00553409
0.00568004
0.00594782
0.0064464
0.00740849
0.00912712
0.0121459
0.0166495
0.0231774
0.0306319
0.0393363
0.0467811
0.0510159
0.0512623
0.0503568
0.046766
0.0431279
0.0379738
0.0326017
0.0267841
0.0248966
0.0248277
0.0256611
0.0263151
0.0256763
0.0236254
0.023147
0.0243159
0.0297985
0.0398182
0.0539909
0.0711584
0.0916545
0.114858
0.14155
0.169655
0.197475
0.222272
0.239334
0.246954
0.250224
0.251958
0.253246
0.255506
0.257488
0.259393
0.260577
0.263058
0.266749
0.273024
0.279829
0.287442
0.294868
0.304332
0.31461
0.326126
0.337509
0.349155
0.361096
0.373428
0.385874
0.397394
0.409546
0.420218
0.430518
0.438395
0.446154
0.44984
0.452773
0.453601
0.00532741
0.00531097
0.00529831
0.00528618
0.00528022
0.00527274
0.00526923
0.00526618
0.00526475
0.00526335
0.00526274
0.00526167
0.00526118
0.00526092
0.00526054
0.00525994
0.00525993
0.00525956
0.00525909
0.00525909
0.0052588
0.00525843
0.00525843
0.00525818
0.00525774
0.00525771
0.00525756
0.00525743
0.00525735
0.00525733
0.00525777
0.00525821
0.0052582
0.00525821
0.00525816
0.00525763
0.00525761
0.0052573
0.00525693
0.00525691
0.00525646
0.0052562
0.00525617
0.00525564
0.00525553
0.00525547
0.00525541
0.00525536
0.00525524
0.00525552
0.00525731
0.00525846
0.00525845
0.00525829
0.00525826
0.00525822
0.00525823
0.0052582
0.00525759
0.0052576
0.00525729
0.00525702
0.00525703
0.00525698
0.00525677
0.00525679
0.00525675
0.00525661
0.00525685
0.00525806
0.00525867
0.00525872
0.00525876
0.00525868
0.00525829
0.00525829
0.00525798
0.0052576
0.00525756
0.00525734
0.00525707
0.00525691
0.00525688
0.00525674
0.00525676
0.00525663
0.00525643
0.00525696
0.00525875
0.00525978
0.00526006
0.00526016
0.00526015
0.00526013
0.00525962
0.00525958
0.00526014
0.00526042
0.00526097
0.00526122
0.00526139
0.00526152
0.00526154
0.00526151
0.00526108
0.00526111
0.00526106
0.00526052
0.00526054
0.00526025
0.00525997
0.00526016
0.00526049
0.00526119
0.0052628
0.00526506
0.00526979
0.00527716
0.00528855
0.00530414
0.00532546
0.00535292
0.00538989
0.00543914
0.00550865
0.00561074
0.00576951
0.00603088
0.00645613
0.00717563
0.00826148
0.00991112
0.0119567
0.0145607
0.0170843
0.0197114
0.0209179
0.021241
0.0207993
0.0201895
0.0187658
0.0173893
0.0161301
0.0158356
0.0164336
0.0182762
0.021726
0.0259711
0.031074
0.0349865
0.0370701
0.038924
0.0446862
0.0575693
0.0774488
0.102919
0.131357
0.161139
0.189588
0.215607
0.23894
0.251544
0.256142
0.257543
0.257917
0.257888
0.25823
0.259795
0.263241
0.266792
0.27044
0.274464
0.280995
0.289538
0.299293
0.308327
0.318623
0.329396
0.341529
0.354548
0.367827
0.381387
0.395291
0.41025
0.423956
0.438574
0.451453
0.464498
0.47412
0.483816
0.488453
0.491995
0.49294
0.00531708
0.00530435
0.00529071
0.00528128
0.00527302
0.00526856
0.00526281
0.00526044
0.00525766
0.00525657
0.00525559
0.00525487
0.00525405
0.00525383
0.00525358
0.00525322
0.00525316
0.00525302
0.00525302
0.00525278
0.00525264
0.0052534
0.00525498
0.00525603
0.00525668
0.00525682
0.00525683
0.00525665
0.00525635
0.0052563
0.00525584
0.00525557
0.00525535
0.00525485
0.00525479
0.00525449
0.0052541
0.00525411
0.0052538
0.00525339
0.00525339
0.00525309
0.00525268
0.0052527
0.00525236
0.00525199
0.005252
0.00525169
0.00525128
0.00525129
0.00525102
0.00525063
0.00525062
0.00525047
0.00525027
0.00525017
0.00525018
0.00525007
0.00524998
0.00525094
0.00525398
0.00525603
0.00525649
0.00525643
0.00525643
0.00525622
0.00525596
0.00525595
0.00525595
0.00525587
0.0052557
0.0052559
0.00525713
0.00525801
0.00525815
0.00525819
0.00525818
0.00525787
0.00525798
0.00525796
0.00525746
0.00525747
0.00525736
0.00525684
0.00525682
0.00525657
0.00525622
0.00525612
0.00525615
0.00525613
0.00525576
0.00525575
0.0052557
0.00525563
0.00525561
0.00525534
0.00525534
0.00525498
0.00525489
0.00525559
0.00525628
0.00525664
0.00525733
0.00525842
0.00525918
0.00525983
0.0052604
0.00526113
0.00526183
0.00526255
0.00526303
0.00526302
0.00526291
0.00526303
0.00526399
0.00526645
0.00527068
0.00527738
0.00528709
0.00530089
0.0053192
0.0053433
0.00537367
0.00541179
0.00545885
0.00552073
0.00560159
0.00571305
0.00586287
0.0060786
0.00637161
0.00679675
0.00732669
0.00802297
0.00875789
0.00959605
0.010272
0.0107794
0.0108526
0.010857
0.010618
0.0103324
0.0101018
0.0100554
0.0102877
0.0109979
0.0127525
0.0161468
0.0221132
0.0303176
0.040612
0.0503764
0.0590165
0.067995
0.0822778
0.106094
0.137972
0.173637
0.20796
0.23819
0.260139
0.268524
0.271219
0.271554
0.271368
0.270187
0.269535
0.269393
0.271142
0.275822
0.28249
0.288341
0.294919
0.302533
0.312701
0.322617
0.33421
0.345534
0.35857
0.373037
0.389068
0.405488
0.421999
0.440267
0.457412
0.475819
0.491927
0.508786
0.52116
0.533613
0.539871