/*--------------------------------*- C++ -*----------------------------------*\
| =========                 |                                                 |
| \\      /  F ield         | OpenFOAM: The Open Source CFD Toolbox           |
|  \\    /   O peration     | Version:  4.1                                   |
|   \\  /    A nd           | Web:      www.OpenFOAM.org                      |
|    \\/     M anipulation  |                                                 |
\*---------------------------------------------------------------------------*/
FoamFile
{
    version     2.0;
    format      ascii;
    class       volScalarField;
    location    "3";
    object      k;
}
// * * * * * * * * * * * * * * * * * * * * * * * * * * * * * * * * * * * * * //

dimensions      [0 2 -2 0 0 0 0];

internalField   nonuniform List<scalar> 
204246
(
1.07923
1.12649
1.12671
1.12563
1.13099
1.12924
1.13255
1.1309
1.13261
1.1303
1.13161
1.12857
1.12949
1.1257
1.12743
1.12476
1.12751
1.12521
1.12471
1.12817
1.12649
1.1307
1.12934
1.13292
1.13212
1.13431
1.13238
1.13356
1.13071
1.13236
1.12873
1.1301
1.12672
1.12887
1.12662
1.12894
1.1276
1.12714
1.13122
1.12982
1.13331
1.13261
1.13584
1.13463
1.13627
1.1339
1.13581
1.13284
1.13454
1.1312
1.13216
1.12863
1.12946
1.12663
1.12569
1.12892
1.12719
1.13019
1.12929
1.13313
1.13258
1.13592
1.13412
1.13623
1.13327
1.13485
1.13126
1.13202
1.12835
1.12915
1.12609
1.12499
1.1274
1.1261
1.12899
1.12809
1.13187
1.1313
1.13457
1.13275
1.13489
1.13196
1.1336
1.1302
1.13106
1.12824
1.12969
1.12802
1.12741
1.13002
1.1289
1.13205
1.13128
1.13493
1.13382
1.13681
1.13483
1.13761
1.13593
1.13906
1.13766
1.1403
1.13963
1.14263
1.14258
1.14769
1.14762
1.15262
1.15725
1.16185
1.16994
1.17541
1.18559
1.19207
1.20561
1.21634
1.23702
1.25794
1.29441
1.34015
1.41301
1.5115
1.64777
1.75467
1.78317
1.78346
1.73746
1.63989
1.56802
1.53594
1.4841
1.40793
1.34406
1.30637
1.26453
1.21161
1.16198
1.12155
1.08021
1.03662
0.993105
0.958371
0.922256
0.880413
0.84575
0.813797
0.786079
0.749515
0.721145
0.692038
0.668192
0.636553
0.614322
0.590097
0.56954
0.544271
0.529742
0.508647
0.495737
0.478708
0.469292
0.456086
0.449011
0.443934
0.442289
0.442804
0.443025
0.445709
0.448832
0.456443
0.46518
0.47973
0.495619
0.517961
0.542937
0.575333
0.613141
0.658944
0.707981
0.769352
0.830581
0.908583
0.980957
1.07364
1.15358
1.25777
1.34368
1.46009
1.54999
1.67019
1.74439
1.82108
1.84735
0.100615
0.206922
0.203805
0.206354
0.212171
0.210926
0.216908
0.216158
0.219729
0.217623
0.219474
0.216436
0.217778
0.212963
0.215811
0.21295
0.217073
0.215151
0.215108
0.220178
0.21822
0.224106
0.222267
0.227243
0.225913
0.228454
0.225834
0.227609
0.222472
0.224482
0.21795
0.219622
0.214118
0.217063
0.214242
0.218258
0.217434
0.217474
0.22327
0.221452
0.227063
0.226082
0.229748
0.227497
0.229466
0.22511
0.2274
0.221908
0.223899
0.217661
0.218879
0.21383
0.215192
0.213108
0.212263
0.2167
0.214694
0.220523
0.220089
0.226934
0.226459
0.230457
0.227163
0.22966
0.223931
0.225617
0.218051
0.218861
0.213202
0.214649
0.212741
0.211997
0.216115
0.215127
0.220889
0.220387
0.226994
0.226418
0.230205
0.226924
0.229476
0.224078
0.225965
0.219249
0.220531
0.217425
0.220135
0.218797
0.218172
0.222442
0.22136
0.226728
0.225987
0.231704
0.230064
0.233895
0.23024
0.232853
0.229089
0.232389
0.22948
0.233075
0.231612
0.237135
0.236554
0.245112
0.245088
0.252625
0.264723
0.268476
0.290067
0.296499
0.327397
0.337948
0.38324
0.402703
0.468405
0.511224
0.620622
0.726165
0.939579
1.1913
1.49392
1.5793
1.57679
1.43698
1.12831
0.773663
0.575605
0.501362
0.455681
0.430937
0.371712
0.348221
0.316866
0.306183
0.277275
0.269755
0.250643
0.247025
0.231313
0.22432
0.217296
0.203135
0.199396
0.185329
0.182464
0.171368
0.169576
0.160757
0.159701
0.152528
0.15209
0.146883
0.147179
0.144862
0.146597
0.146138
0.147072
0.153129
0.155555
0.167613
0.173818
0.19195
0.20183
0.225635
0.241137
0.272418
0.296286
0.335773
0.371535
0.423746
0.479137
0.549839
0.631934
0.723808
0.832784
0.941683
1.06639
1.19207
1.32645
1.46256
1.60224
1.74251
1.88095
2.01568
2.15056
2.29063
2.46151
2.67329
2.97692
3.19254
3.27046
0.0128948
0.0231397
0.0228348
0.0225492
0.0234492
0.0234351
0.0242421
0.0240725
0.02445
0.0240925
0.0242181
0.0237132
0.0237809
0.0231534
0.0236353
0.023207
0.0238194
0.0235825
0.0237805
0.024584
0.0244558
0.0255585
0.0253418
0.0260276
0.0256707
0.0259464
0.0254058
0.0256132
0.0246697
0.0249312
0.0238378
0.0240671
0.0233282
0.0238478
0.0234575
0.0240427
0.0239259
0.0241704
0.0250997
0.0249288
0.0259188
0.0257796
0.0262504
0.0257938
0.0260677
0.0252777
0.0256046
0.0246656
0.0249395
0.0239178
0.0240789
0.0232458
0.0234391
0.0231039
0.0230225
0.0237246
0.0235764
0.0246255
0.0247737
0.0260107
0.0259367
0.0264046
0.0257622
0.0260354
0.0249574
0.0251777
0.0239445
0.0240511
0.023159
0.0233796
0.0231275
0.0231032
0.0237964
0.0237695
0.0248966
0.0249939
0.0261069
0.0259562
0.0263529
0.0256754
0.0259451
0.0248953
0.0251345
0.0240405
0.0242412
0.0238013
0.0242385
0.0240816
0.0241141
0.0249153
0.0248417
0.0259413
0.0259193
0.0268374
0.0264029
0.0268249
0.0260072
0.0263437
0.0256503
0.0262398
0.0257814
0.0264499
0.0262439
0.0273042
0.0272637
0.0289704
0.0291042
0.031193
0.033913
0.0362895
0.0421712
0.0456223
0.0557826
0.0620209
0.0791767
0.0935755
0.127039
0.166863
0.245667
0.360204
0.567432
0.877494
1.26363
1.37902
1.36232
1.13594
0.696203
0.316782
0.186144
0.140496
0.119831
0.111382
0.101639
0.0958564
0.0886742
0.086514
0.0817966
0.0807865
0.0784116
0.0783914
0.0771956
0.076786
0.0768865
0.0758377
0.0759313
0.0749287
0.075043
0.0745304
0.0749004
0.074697
0.0754318
0.0754414
0.077071
0.0777619
0.080946
0.0826255
0.0873785
0.0903801
0.0967972
0.103207
0.111828
0.12248
0.134422
0.150509
0.167191
0.19056
0.214143
0.24681
0.280386
0.325111
0.372358
0.432237
0.496074
0.57276
0.653253
0.744976
0.840129
0.942912
1.04847
1.15726
1.27313
1.39212
1.52471
1.65571
1.80792
1.94536
2.11073
2.2406
2.39672
2.46473
2.50938
2.47301
2.40094
0.0148319
0.0147058
0.0147077
0.0146703
0.0146907
0.0146845
0.0147075
0.0147066
0.014729
0.0147271
0.0147443
0.0147294
0.0147328
0.0147092
0.0147275
0.0147092
0.014733
0.014724
0.0147291
0.0147586
0.0147563
0.0148021
0.0147957
0.014833
0.0148156
0.0148307
0.0148041
0.0148156
0.0147718
0.0147848
0.0147369
0.0147486
0.0147192
0.0147416
0.0147235
0.014748
0.0147434
0.0147545
0.0147935
0.0147881
0.0148355
0.0148256
0.0148476
0.0148227
0.0148372
0.0147975
0.0148144
0.0147704
0.0147842
0.0147384
0.0147462
0.0147086
0.0147144
0.0146966
0.0146896
0.0147118
0.0147087
0.0147484
0.0147612
0.0148314
0.0148336
0.014857
0.0148222
0.0148363
0.0147847
0.0147968
0.0147413
0.0147468
0.0147079
0.0147161
0.0147028
0.0146999
0.0147254
0.0147277
0.0147725
0.0147891
0.0148534
0.0148484
0.0148674
0.0148301
0.0148448
0.0147937
0.0148061
0.0147535
0.0147616
0.0147369
0.0147539
0.0147451
0.0147446
0.0147767
0.0147741
0.0148259
0.0148297
0.0148845
0.0148636
0.01489
0.0148476
0.014866
0.0148235
0.0148511
0.0148245
0.0148595
0.0148476
0.0149085
0.0149066
0.0150296
0.0150532
0.0152424
0.0155365
0.0158527
0.0165763
0.0172406
0.0187981
0.0204139
0.0241036
0.0291913
0.0402428
0.0593567
0.0987225
0.171596
0.312142
0.556786
0.95326
1.23025
1.2664
1.13656
0.761953
0.32173
0.133986
0.0731541
0.0537225
0.0473872
0.0444601
0.0433105
0.0424911
0.0423885
0.0419999
0.0420133
0.0415118
0.0414096
0.0406217
0.0402992
0.0401153
0.0399362
0.0400534
0.0399833
0.040221
0.0401973
0.040583
0.0406451
0.0413779
0.0416814
0.0429796
0.0438032
0.0459237
0.0475351
0.0508292
0.0538847
0.0590513
0.0648804
0.0730594
0.0830168
0.0957135
0.111269
0.130334
0.153292
0.181277
0.213855
0.253702
0.297805
0.352249
0.409638
0.479969
0.549203
0.629326
0.699964
0.776908
0.83938
0.901297
0.954738
1.00184
1.04491
1.07722
1.10557
1.1228
1.13979
1.15333
1.17468
1.20402
1.24281
1.28647
1.30318
1.31263
0.0147086
0.0146955
0.0146448
0.0146297
0.0146232
0.0146184
0.014617
0.0146153
0.0146148
0.0146141
0.0146144
0.0146141
0.0146137
0.0146128
0.0146135
0.0146132
0.0146132
0.0146134
0.0146133
0.0146133
0.014613
0.0146137
0.014613
0.0146132
0.0146122
0.0146124
0.0146115
0.0146115
0.0146097
0.01461
0.0146092
0.0146092
0.0146081
0.0146084
0.0146075
0.0146075
0.0146072
0.0146066
0.0146074
0.0146081
0.0146089
0.0146086
0.0146092
0.0146089
0.0146087
0.0146082
0.0146101
0.0146124
0.0146136
0.0146131
0.0146132
0.0146123
0.0146119
0.0146119
0.0146114
0.0146113
0.0146113
0.0146113
0.0146105
0.0146106
0.01461
0.0146103
0.0146093
0.0146097
0.0146086
0.0146086
0.0146072
0.0146072
0.0146062
0.014606
0.0146059
0.0146053
0.0146055
0.0146053
0.0146053
0.0146047
0.0146049
0.0146044
0.0146046
0.0146039
0.0146045
0.0146039
0.0146046
0.0146046
0.0146088
0.014613
0.0146167
0.014618
0.0146192
0.01462
0.0146196
0.0146199
0.0146193
0.0146195
0.0146181
0.0146183
0.0146166
0.0146167
0.0146158
0.0146169
0.0146163
0.0146166
0.0146161
0.0146165
0.0146159
0.014617
0.0146193
0.014628
0.0146469
0.0146763
0.0147412
0.0148413
0.0150524
0.0154039
0.0161794
0.0176874
0.0211311
0.0285076
0.045121
0.080588
0.155651
0.302526
0.569732
0.965693
1.1485
1.14464
0.929648
0.49448
0.179021
0.0784841
0.0443909
0.0329305
0.0295329
0.0287289
0.0286248
0.029065
0.0300386
0.0308112
0.030936
0.0309987
0.0308907
0.0308036
0.0308474
0.0308355
0.0309637
0.0310041
0.0312971
0.0314083
0.0318823
0.0322753
0.0333538
0.0345476
0.0366726
0.039042
0.0425851
0.0467213
0.0526547
0.0600204
0.0700906
0.0826096
0.0992381
0.119376
0.14503
0.174655
0.211216
0.251921
0.30119
0.353845
0.415773
0.478165
0.54751
0.611314
0.677862
0.732997
0.788765
0.832486
0.877243
0.908738
0.94286
0.964456
0.992012
1.00831
1.01949
1.02075
1.02094
1.01301
1.0057
0.997712
0.996282
0.999326
1.01118
1.01519
1.0192
0.0146872
0.0146567
0.0146239
0.0146126
0.0146047
0.0145995
0.0145973
0.0145952
0.0145942
0.0145929
0.0145923
0.0145913
0.0145909
0.0145909
0.0145904
0.01459
0.0145899
0.0145898
0.0145892
0.0145892
0.0145891
0.0145883
0.0145883
0.0145879
0.0145873
0.0145873
0.0145866
0.0145862
0.0145862
0.0145855
0.0145851
0.0145851
0.0145849
0.0145848
0.0145846
0.0145848
0.0145881
0.0145973
0.0146069
0.0146091
0.0146092
0.0146091
0.0146089
0.0146085
0.0146082
0.0146081
0.0146079
0.0146077
0.0146073
0.0146073
0.0146064
0.0146059
0.0146059
0.0146057
0.014605
0.014605
0.014605
0.0146048
0.0146045
0.0146045
0.0146044
0.0146043
0.0146054
0.0146059
0.0146059
0.0146059
0.0146055
0.0146049
0.0146048
0.0146043
0.0146039
0.0146038
0.0146031
0.014603
0.0146028
0.0146025
0.0146024
0.0146021
0.0146021
0.0146018
0.0146012
0.0146012
0.0146007
0.0146002
0.0146002
0.0145993
0.0145989
0.0145989
0.0145984
0.0145975
0.0145973
0.0145973
0.0145966
0.0145962
0.0145963
0.0145961
0.0145954
0.0145954
0.0145952
0.0145952
0.0145951
0.014595
0.0145963
0.0146008
0.0146088
0.0146196
0.0146311
0.0146418
0.0146514
0.0146624
0.0146787
0.0147043
0.0147506
0.0148371
0.0150298
0.0154676
0.0165413
0.0191102
0.0253539
0.0399243
0.0733048
0.14479
0.289057
0.545794
0.913639
1.07097
1.06021
0.878242
0.504539
0.199264
0.094781
0.0527504
0.0359249
0.0280568
0.0248504
0.0234936
0.0230785
0.0230127
0.0230286
0.0232057
0.0234363
0.0237428
0.0241632
0.0244319
0.0249004
0.0250857
0.0253618
0.0254797
0.025859
0.0262993
0.0272998
0.0286239
0.0308367
0.0337073
0.0379536
0.0434948
0.0512621
0.0613699
0.0747709
0.0915699
0.112928
0.138704
0.170253
0.206576
0.249333
0.295596
0.348347
0.402542
0.464071
0.523797
0.588524
0.642043
0.692574
0.724718
0.75495
0.77217
0.791027
0.799729
0.810642
0.81528
0.823923
0.827682
0.83416
0.837375
0.842159
0.846309
0.852642
0.85924
0.867477
0.873943
0.879696
0.881746
0.883954
0.0147179
0.0146758
0.0146447
0.0146317
0.0146208
0.014616
0.0146138
0.0146124
0.0146117
0.0146109
0.0146105
0.0146095
0.0146086
0.0146084
0.0146081
0.0146069
0.0146065
0.0146065
0.0146058
0.0146052
0.0146052
0.0146046
0.0146041
0.0146041
0.0146039
0.014603
0.014603
0.0146027
0.0146023
0.0146023
0.0146023
0.0146015
0.0146015
0.0146012
0.0146013
0.014604
0.0146112
0.0146145
0.0146147
0.0146147
0.0146147
0.0146145
0.0146144
0.0146144
0.0146141
0.0146135
0.0146135
0.0146131
0.0146126
0.0146126
0.0146123
0.0146116
0.0146115
0.0146108
0.0146102
0.0146101
0.0146093
0.0146091
0.0146089
0.0146084
0.0146083
0.0146083
0.0146075
0.0146075
0.0146072
0.0146066
0.0146067
0.0146064
0.0146057
0.0146057
0.014605
0.0146047
0.0146047
0.0146046
0.0146045
0.0146042
0.0146045
0.0146075
0.0146109
0.0146118
0.0146118
0.0146118
0.0146115
0.0146109
0.0146109
0.0146101
0.0146097
0.0146097
0.0146088
0.0146086
0.0146085
0.0146076
0.0146073
0.0146073
0.0146073
0.0146072
0.014607
0.0146065
0.0146064
0.0146061
0.0146068
0.0146097
0.0146144
0.0146183
0.0146211
0.0146224
0.0146232
0.0146237
0.0146248
0.0146268
0.0146316
0.0146405
0.0146574
0.0146889
0.014755
0.0148996
0.0152485
0.0160969
0.0182272
0.0234496
0.0361295
0.0652121
0.128966
0.256265
0.483048
0.820097
1.01011
1.02702
0.948227
0.73605
0.475273
0.269563
0.155093
0.0782944
0.0450793
0.0302634
0.0251523
0.0228814
0.0221354
0.0218521
0.0218186
0.0218815
0.0221444
0.0224311
0.0226473
0.0227475
0.0230171
0.0235282
0.0244586
0.0258185
0.0278885
0.0307766
0.0348524
0.0404648
0.0481047
0.0585101
0.072004
0.0898994
0.112133
0.139076
0.172443
0.210186
0.255841
0.305018
0.362834
0.42113
0.485025
0.541892
0.599693
0.643672
0.684998
0.71018
0.732604
0.743094
0.755548
0.762078
0.771701
0.776089
0.780159
0.780708
0.78065
0.779238
0.778403
0.777893
0.778603
0.779821
0.78512
0.788765
0.795938
0.800705
0.806238
0.80833
0.809974
0.0147305
0.0146741
0.0146487
0.0146358
0.0146218
0.0146164
0.014612
0.0146098
0.0146088
0.0146073
0.0146063
0.0146059
0.0146059
0.0146052
0.0146046
0.0146046
0.0146045
0.0146043
0.0146041
0.0146041
0.014604
0.0146039
0.0146051
0.0146077
0.0146084
0.0146083
0.0146083
0.0146082
0.0146078
0.0146074
0.0146072
0.0146067
0.0146062
0.0146059
0.0146053
0.0146049
0.0146046
0.0146039
0.0146034
0.0146024
0.0146009
0.0145997
0.0145992
0.0145989
0.0145982
0.0145977
0.0145977
0.0145968
0.0145965
0.0145963
0.0145956
0.0145954
0.0145951
0.0145945
0.0145945
0.014594
0.0145933
0.0145933
0.0145926
0.0145921
0.0145921
0.014592
0.0145911
0.0145908
0.0145908
0.0145906
0.0145903
0.0145902
0.0145901
0.0145914
0.014597
0.0146044
0.0146061
0.0146061
0.0146058
0.0146047
0.0146032
0.0146017
0.014601
0.0146005
0.0146003
0.0146002
0.0146001
0.0146001
0.0145998
0.0145995
0.014601
0.0146048
0.014608
0.0146093
0.0146103
0.0146112
0.0146117
0.0146119
0.014612
0.014612
0.014612
0.0146119
0.0146122
0.0146122
0.0146122
0.0146116
0.0146116
0.0146113
0.0146113
0.0146137
0.0146186
0.0146259
0.0146347
0.0146424
0.0146487
0.0146544
0.014663
0.014679
0.0147098
0.014771
0.0149006
0.0151969
0.0159107
0.0176626
0.0220097
0.0324059
0.0565353
0.108536
0.211891
0.397197
0.679731
0.936573
1.00385
1.00749
0.962517
0.863188
0.720343
0.552396
0.383755
0.202343
0.0861241
0.0435307
0.0289631
0.0233979
0.0214375
0.0207296
0.0204957
0.0204422
0.0204598
0.020592
0.0209613
0.0216697
0.0229136
0.0248455
0.0277385
0.0318459
0.0376039
0.0455546
0.0562859
0.0708018
0.0896343
0.114463
0.145339
0.182492
0.226883
0.27561
0.33069
0.386793
0.448403
0.507291
0.567586
0.615237
0.65468
0.673651
0.68723
0.694482
0.704215
0.709122
0.715105
0.718004
0.721742
0.723415
0.726177
0.727237
0.730344
0.73197
0.736225
0.738681
0.744109
0.747085
0.754067
0.75777
0.764598
0.768613
0.773315
0.775259
0.776524
0.014739
0.0146827
0.0146594
0.0146444
0.0146292
0.0146228
0.0146159
0.0146129
0.0146102
0.0146088
0.0146073
0.0146063
0.014606
0.0146058
0.0146056
0.0146043
0.0146039
0.0146039
0.0146031
0.0146027
0.0146026
0.0146019
0.0146015
0.0146012
0.0146004
0.0146003
0.0146
0.0145994
0.0145994
0.0145992
0.0145985
0.0145985
0.0145984
0.0145982
0.014598
0.0145988
0.0146028
0.0146065
0.0146071
0.0146073
0.0146073
0.0146068
0.0146068
0.0146066
0.014606
0.014606
0.014606
0.0146054
0.0146055
0.0146055
0.0146047
0.0146047
0.0146043
0.0146036
0.0146036
0.0146028
0.0146025
0.0146024
0.0146018
0.0146016
0.0146016
0.0146007
0.0146007
0.0146004
0.0145998
0.0145998
0.0145994
0.0145987
0.0145986
0.0145978
0.0145977
0.0145973
0.0145965
0.0145965
0.0145965
0.0145963
0.0145961
0.014596
0.0145959
0.014596
0.0145984
0.0146055
0.0146126
0.0146141
0.014614
0.0146141
0.0146169
0.0146224
0.014624
0.014624
0.0146237
0.0146236
0.0146234
0.0146227
0.0146227
0.0146225
0.0146218
0.0146218
0.0146214
0.0146209
0.0146207
0.0146201
0.0146201
0.0146197
0.0146194
0.0146194
0.0146189
0.014619
0.0146211
0.0146242
0.0146267
0.0146298
0.0146362
0.0146449
0.0146612
0.0146889
0.0147445
0.0148549
0.0150979
0.015654
0.0170029
0.0202595
0.0280854
0.0458675
0.0839041
0.1594
0.292323
0.506132
0.769201
0.931305
0.967036
0.966202
0.930529
0.852446
0.729641
0.563161
0.362228
0.158828
0.0671719
0.0372322
0.0271812
0.023293
0.0217115
0.0212217
0.0211059
0.0211869
0.021661
0.02279
0.0246848
0.0277243
0.0322659
0.0390578
0.0485616
0.0618444
0.0792266
0.102253
0.13067
0.166844
0.209573
0.259576
0.317542
0.378585
0.443094
0.501446
0.557129
0.60054
0.640049
0.664067
0.677567
0.683094
0.685831
0.687724
0.689748
0.692553
0.694386
0.695151
0.695298
0.69617
0.698426
0.701246
0.706338
0.710343
0.716076
0.720464
0.72717
0.732044
0.739203
0.744277
0.750447
0.754694
0.75873
0.760606
0.761572
0.0147312
0.014678
0.0146554
0.0146345
0.014622
0.014613
0.014608
0.0146041
0.0146024
0.0146016
0.0146007
0.0146003
0.0146
0.0145996
0.0145994
0.0145989
0.0145978
0.0145975
0.0145975
0.0145971
0.0145967
0.0145963
0.0145963
0.0145953
0.0145951
0.014595
0.0145949
0.0145948
0.0145947
0.0145946
0.0145965
0.0146002
0.0146018
0.0146019
0.0146019
0.0146017
0.0146017
0.0146015
0.0146009
0.0146009
0.0146006
0.0146
0.0146
0.0145997
0.0145993
0.0145994
0.0145994
0.014599
0.014599
0.0145987
0.0145989
0.0146016
0.014607
0.0146086
0.0146087
0.0146085
0.0146081
0.0146081
0.0146077
0.0146072
0.0146072
0.0146066
0.0146064
0.0146064
0.014606
0.014606
0.0146059
0.0146053
0.0146055
0.0146054
0.0146048
0.014605
0.0146049
0.0146042
0.0146042
0.0146037
0.014603
0.0146029
0.0146025
0.0146024
0.0146021
0.0146021
0.014602
0.0146019
0.0146018
0.0146015
0.014602
0.0146051
0.0146094
0.0146113
0.014612
0.0146128
0.0146136
0.0146148
0.0146153
0.0146159
0.0146162
0.0146171
0.0146175
0.0146188
0.0146197
0.0146212
0.014622
0.0146232
0.0146239
0.0146252
0.0146267
0.0146288
0.01463
0.0146314
0.0146328
0.0146358
0.0146395
0.0146465
0.0146572
0.0146766
0.0147084
0.0147649
0.0148679
0.0150691
0.0155014
0.0164816
0.0187995
0.0241568
0.0360953
0.0613206
0.109516
0.194931
0.325125
0.511015
0.70133
0.819602
0.839161
0.819424
0.748552
0.647347
0.52039
0.387202
0.25321
0.13802
0.0657096
0.0391114
0.0285117
0.0245042
0.023085
0.0227972
0.0228381
0.0236459
0.0257586
0.0296676
0.0356468
0.0445267
0.0570706
0.0748514
0.0985589
0.129896
0.168223
0.21534
0.268581
0.327136
0.391292
0.455646
0.520569
0.574065
0.61768
0.641139
0.654224
0.660679
0.666542
0.669197
0.67084
0.671312
0.671313
0.671554
0.672434
0.674437
0.67692
0.679431
0.683161
0.687511
0.693921
0.6994
0.706056
0.712299
0.719788
0.726597
0.733828
0.739708
0.745779
0.750195
0.754009
0.755864
0.756763
0.0147424
0.014693
0.0146714
0.0146484
0.0146364
0.014625
0.014619
0.0146135
0.0146114
0.0146104
0.014609
0.0146087
0.0146103
0.014616
0.014619
0.0146192
0.014619
0.0146186
0.0146184
0.0146178
0.0146178
0.0146171
0.0146165
0.0146164
0.0146158
0.0146153
0.0146152
0.0146144
0.014614
0.0146139
0.0146129
0.0146125
0.0146125
0.0146115
0.0146111
0.0146111
0.0146103
0.0146097
0.0146096
0.014609
0.0146086
0.0146084
0.0146076
0.0146076
0.0146072
0.0146067
0.0146067
0.0146067
0.0146057
0.0146057
0.0146052
0.0146047
0.0146047
0.014604
0.0146036
0.0146037
0.014603
0.0146027
0.0146027
0.0146025
0.0146024
0.0146022
0.0146024
0.0146047
0.0146085
0.0146095
0.0146097
0.0146096
0.0146094
0.0146093
0.0146086
0.0146083
0.0146081
0.0146075
0.0146075
0.0146074
0.0146067
0.0146069
0.0146069
0.0146061
0.0146061
0.0146059
0.0146051
0.0146051
0.0146045
0.014604
0.0146039
0.0146031
0.014603
0.0146028
0.0146022
0.0146021
0.0146021
0.014602
0.0146018
0.0146023
0.0146053
0.0146116
0.0146198
0.0146262
0.0146286
0.0146298
0.0146305
0.0146316
0.0146335
0.0146363
0.0146393
0.0146414
0.0146428
0.0146437
0.0146447
0.0146465
0.014649
0.014653
0.0146593
0.0146706
0.0146902
0.0147239
0.0147778
0.0148684
0.01503
0.0153436
0.0160133
0.0174924
0.0207841
0.0279475
0.0423418
0.0697131
0.115224
0.185934
0.275257
0.38238
0.478922
0.542822
0.551638
0.531316
0.465014
0.37722
0.276092
0.190556
0.116177
0.0681195
0.0437504
0.0338641
0.0295753
0.0281012
0.0277243
0.0282704
0.0307289
0.0363538
0.0451795
0.0580553
0.0753788
0.0995309
0.131366
0.173346
0.224152
0.284925
0.350076
0.416333
0.481374
0.540118
0.595813
0.636004
0.652166
0.657325
0.658791
0.658936
0.658833
0.658897
0.659262
0.659238
0.658393
0.658115
0.658292
0.661117
0.665256
0.670292
0.67536
0.681627
0.688401
0.695526
0.70273
0.710455
0.718417
0.726575
0.734325
0.741389
0.747911
0.75308
0.756788
0.758797
0.759625
0.0147434
0.0147044
0.0146781
0.0146582
0.0146467
0.0146347
0.0146289
0.0146227
0.0146191
0.0146174
0.0146156
0.0146149
0.0146141
0.0146124
0.0146119
0.0146118
0.0146116
0.0146105
0.0146102
0.0146102
0.0146093
0.014609
0.014609
0.0146085
0.0146075
0.0146073
0.014607
0.014606
0.0146057
0.0146056
0.0146054
0.0146052
0.0146049
0.0146049
0.0146043
0.0146041
0.0146041
0.014604
0.0146037
0.0146032
0.0146041
0.0146084
0.014615
0.0146172
0.0146174
0.0146173
0.0146171
0.0146169
0.0146163
0.0146158
0.0146155
0.014615
0.0146149
0.0146144
0.014614
0.0146139
0.0146134
0.0146131
0.014613
0.0146124
0.0146124
0.0146121
0.0146117
0.0146116
0.0146109
0.0146106
0.0146105
0.0146094
0.014609
0.014609
0.0146085
0.0146079
0.0146079
0.0146077
0.0146069
0.0146069
0.0146066
0.0146059
0.0146059
0.0146056
0.0146049
0.0146049
0.0146049
0.0146042
0.0146042
0.0146041
0.0146033
0.0146034
0.0146032
0.0146028
0.0146028
0.0146028
0.0146026
0.0146025
0.0146039
0.0146066
0.0146085
0.0146092
0.0146105
0.0146128
0.0146149
0.0146154
0.0146154
0.0146154
0.0146154
0.0146154
0.0146153
0.0146153
0.0146152
0.0146152
0.0146178
0.0146224
0.0146288
0.0146341
0.0146416
0.0146523
0.0146719
0.0146988
0.0147403
0.0147979
0.0148854
0.0150188
0.0152528
0.0156922
0.0165853
0.0184589
0.0222459
0.0296985
0.0428116
0.0647609
0.0953976
0.136249
0.178749
0.223578
0.250999
0.259136
0.256362
0.244973
0.214084
0.174978
0.125204
0.0870299
0.0626033
0.0539396
0.0499305
0.0462693
0.0403594
0.0380978
0.0380425
0.0415348
0.0512043
0.0683275
0.0920171
0.122919
0.161192
0.209921
0.268496
0.338121
0.411445
0.482716
0.546199
0.594876
0.632169
0.648471
0.65387
0.654802
0.654696
0.653755
0.651956
0.65001
0.64916
0.648849
0.648943
0.650532
0.651974
0.655281
0.660316
0.666641
0.673404
0.681595
0.690859
0.701767
0.712855
0.723848
0.734139
0.744962
0.754482
0.76288
0.76994
0.776116
0.779554
0.781767
0.782545
0.0147275
0.0146985
0.0146705
0.0146525
0.0146418
0.0146314
0.0146268
0.0146241
0.0146212
0.01462
0.0146185
0.0146177
0.0146161
0.0146156
0.0146154
0.014615
0.014614
0.0146136
0.0146136
0.014613
0.0146125
0.0146125
0.0146121
0.0146121
0.0146125
0.0146125
0.0146125
0.0146118
0.0146118
0.0146116
0.014611
0.014611
0.0146105
0.0146099
0.0146099
0.0146093
0.0146088
0.0146088
0.0146084
0.0146078
0.0146077
0.0146073
0.0146068
0.0146068
0.0146065
0.0146063
0.0146062
0.0146062
0.014609
0.0146146
0.0146162
0.0146162
0.0146161
0.0146159
0.0146152
0.0146148
0.0146147
0.014614
0.0146135
0.0146134
0.0146126
0.0146123
0.0146121
0.0146116
0.0146116
0.0146112
0.0146105
0.0146105
0.01461
0.0146093
0.0146093
0.0146088
0.0146083
0.0146083
0.014608
0.0146079
0.0146077
0.0146081
0.0146111
0.0146149
0.0146156
0.0146157
0.0146155
0.0146149
0.014615
0.0146149
0.0146145
0.0146147
0.0146146
0.0146142
0.0146144
0.0146144
0.0146139
0.0146139
0.0146139
0.0146134
0.0146136
0.0146136
0.0146132
0.0146134
0.0146134
0.0146128
0.0146129
0.0146127
0.0146121
0.014612
0.0146117
0.0146116
0.0146115
0.0146115
0.0146114
0.0146114
0.0146129
0.0146171
0.0146244
0.0146364
0.0146551
0.0146803
0.014713
0.0147551
0.0148095
0.0148841
0.0149937
0.0151646
0.0154542
0.0159842
0.0169635
0.0188309
0.0221387
0.0279169
0.0365528
0.0491386
0.063793
0.0811577
0.0968363
0.109061
0.111469
0.111036
0.105338
0.099083
0.0879623
0.0742815
0.0573042
0.0495628
0.0481482
0.0483439
0.0499662
0.0517267
0.0530245
0.0558303
0.0642246
0.0822023
0.110149
0.148492
0.196279
0.254121
0.320312
0.395627
0.474437
0.551729
0.618089
0.646638
0.656796
0.659322
0.659577
0.658494
0.656454
0.653219
0.650006
0.646672
0.644948
0.644313
0.644271
0.646447
0.651007
0.655871
0.663016
0.673556
0.684779
0.696535
0.707411
0.718952
0.730512
0.741835
0.751758
0.762437
0.77189
0.780158
0.786865
0.792972
0.795986
0.798078
0.798744
0.0147449
0.0147138
0.0146887
0.0146659
0.0146545
0.0146407
0.0146342
0.0146283
0.0146255
0.0146217
0.0146199
0.0146176
0.014617
0.0146159
0.0146152
0.0146142
0.0146141
0.0146131
0.0146128
0.0146127
0.0146122
0.0146116
0.0146113
0.0146112
0.0146109
0.0146105
0.0146101
0.0146101
0.0146092
0.014609
0.0146089
0.0146082
0.0146076
0.0146076
0.0146074
0.0146067
0.0146064
0.0146063
0.0146059
0.014605
0.014605
0.0146043
0.0146039
0.0146039
0.0146035
0.014603
0.014603
0.014603
0.0146029
0.0146028
0.0146047
0.0146088
0.0146116
0.0146123
0.0146126
0.0146128
0.0146128
0.0146128
0.014612
0.014612
0.0146115
0.0146111
0.0146111
0.0146109
0.0146104
0.0146103
0.0146102
0.0146101
0.0146099
0.0146102
0.0146123
0.0146136
0.0146137
0.0146136
0.0146133
0.0146133
0.0146131
0.0146125
0.0146125
0.014612
0.0146114
0.0146114
0.014611
0.0146106
0.0146105
0.0146105
0.0146103
0.0146101
0.014611
0.0146143
0.0146156
0.0146158
0.0146157
0.014615
0.0146151
0.014615
0.0146141
0.0146141
0.014614
0.0146131
0.0146131
0.0146131
0.0146124
0.0146125
0.0146125
0.0146117
0.0146117
0.0146118
0.0146112
0.0146113
0.0146112
0.0146108
0.0146112
0.0146129
0.0146167
0.0146238
0.0146356
0.0146535
0.0146787
0.0147125
0.0147568
0.0148122
0.0148854
0.0149826
0.0151206
0.0153244
0.0156423
0.0161652
0.0170145
0.0184497
0.020623
0.023944
0.0281344
0.033557
0.0390284
0.0450056
0.0488982
0.0503072
0.0498581
0.0489414
0.0461779
0.043223
0.0396705
0.0371686
0.037162
0.0387603
0.043027
0.0494319
0.0585073
0.0685625
0.0799477
0.0948874
0.119506
0.15913
0.214639
0.283732
0.361761
0.444577
0.525724
0.601242
0.649077
0.664308
0.668742
0.669289
0.6682
0.663903
0.658192
0.653245
0.650374
0.647153
0.645301
0.644824
0.645789
0.651049
0.659122
0.666829
0.675511
0.685179
0.695395
0.70678
0.718052
0.729083
0.740693
0.753013
0.764386
0.776444
0.787599
0.798395
0.806639
0.814714
0.818637
0.821412
0.822195
0.0147219
0.0146953
0.0146696
0.0146496
0.0146321
0.0146227
0.0146099
0.0146046
0.0145978
0.0145949
0.0145917
0.0145903
0.0145888
0.0145877
0.0145871
0.0145869
0.0145864
0.0145863
0.0145861
0.0145873
0.0145919
0.0145943
0.0145945
0.0145944
0.0145942
0.014594
0.0145938
0.0145936
0.0145932
0.0145929
0.0145929
0.0145923
0.0145919
0.0145919
0.0145912
0.0145908
0.0145908
0.0145902
0.0145896
0.0145896
0.0145893
0.0145886
0.0145886
0.0145882
0.0145875
0.0145875
0.0145868
0.0145864
0.0145861
0.0145854
0.0145853
0.0145848
0.0145843
0.0145842
0.014584
0.014584
0.0145839
0.0145838
0.0145837
0.0145841
0.0145878
0.0145969
0.0146057
0.0146074
0.0146077
0.0146076
0.0146075
0.0146074
0.0146073
0.0146072
0.0146071
0.014607
0.0146085
0.0146105
0.0146109
0.0146108
0.0146103
0.0146102
0.0146097
0.0146093
0.0146091
0.0146085
0.0146085
0.0146085
0.0146082
0.0146081
0.0146081
0.0146079
0.0146079
0.0146096
0.0146114
0.0146117
0.0146116
0.0146116
0.0146115
0.0146109
0.0146104
0.0146103
0.0146097
0.0146097
0.0146089
0.0146084
0.0146083
0.0146081
0.0146079
0.0146076
0.0146076
0.0146073
0.0146073
0.0146089
0.0146125
0.0146145
0.0146156
0.014617
0.0146205
0.0146271
0.0146379
0.0146538
0.0146761
0.0147064
0.0147455
0.0147953
0.0148564
0.0149322
0.0150252
0.015147
0.0153063
0.0155276
0.0158278
0.0162638
0.0168627
0.0177402
0.0188542
0.0203431
0.0219671
0.0238726
0.0255187
0.0270461
0.0274697
0.027591
0.0271996
0.0266367
0.0258325
0.0253738
0.0254789
0.0262272
0.0286438
0.033683
0.0433636
0.0577676
0.0777485
0.100484
0.128097
0.163556
0.213995
0.28477
0.373709
0.472312
0.571092
0.653329
0.685499
0.694149
0.695817
0.694733
0.690529
0.682159
0.672901
0.663628
0.659273
0.657038
0.656366
0.656341
0.659208
0.665107
0.672376
0.67905
0.687695
0.696535
0.706323
0.717686
0.730703
0.744067
0.757595
0.773126
0.787407
0.803356
0.817119
0.831533
0.84186
0.852297
0.857598
0.861274
0.862308
0.0147673
0.0147218
0.0147022
0.0146758
0.0146631
0.0146469
0.0146381
0.0146287
0.0146241
0.0146187
0.0146163
0.0146132
0.0146119
0.0146096
0.0146084
0.0146076
0.0146074
0.0146067
0.0146058
0.0146055
0.0146051
0.0146043
0.0146044
0.014604
0.014604
0.0146037
0.0146036
0.0146048
0.0146073
0.014608
0.0146084
0.0146087
0.0146088
0.0146088
0.0146088
0.0146079
0.0146079
0.0146079
0.0146069
0.014607
0.0146069
0.0146061
0.0146061
0.0146061
0.014605
0.014605
0.0146046
0.014604
0.014604
0.0146038
0.0146029
0.0146029
0.0146026
0.0146026
0.0146025
0.0146025
0.0146051
0.014611
0.0146147
0.0146152
0.0146153
0.0146152
0.0146146
0.0146146
0.014614
0.0146137
0.0146136
0.0146129
0.0146129
0.0146128
0.0146123
0.0146122
0.0146118
0.0146115
0.0146114
0.0146109
0.0146109
0.0146106
0.01461
0.01461
0.0146095
0.0146089
0.0146089
0.0146081
0.0146077
0.0146077
0.0146067
0.0146064
0.0146064
0.0146063
0.0146053
0.0146048
0.0146049
0.0146045
0.0146039
0.0146039
0.0146038
0.014603
0.0146031
0.014603
0.0146021
0.0146021
0.0146019
0.014601
0.014601
0.0146005
0.0145999
0.0145998
0.0145994
0.0145994
0.0145991
0.0145985
0.014599
0.0146004
0.0146022
0.0146054
0.0146119
0.0146221
0.0146391
0.0146624
0.0146951
0.0147353
0.0147862
0.0148449
0.0149164
0.0150022
0.0151111
0.0152475
0.0154143
0.0156253
0.0158776
0.0161988
0.0165685
0.0170357
0.0175336
0.0181283
0.018671
0.0192721
0.0196638
0.0199536
0.0199768
0.0199565
0.019892
0.0198566
0.0199658
0.0203162
0.0212857
0.0231889
0.027171
0.0344834
0.0488985
0.0730276
0.110259
0.156711
0.213468
0.280474
0.363277
0.468433
0.595676
0.703353
0.741107
0.751231
0.753463
0.751184
0.741409
0.721791
0.703138
0.689641
0.684041
0.680626
0.679818
0.679844
0.683811
0.689728
0.69543
0.6984