/*--------------------------------*- C++ -*----------------------------------*\
| =========                 |                                                 |
| \\      /  F ield         | OpenFOAM: The Open Source CFD Toolbox           |
|  \\    /   O peration     | Version:  4.1                                   |
|   \\  /    A nd           | Web:      www.OpenFOAM.org                      |
|    \\/     M anipulation  |                                                 |
\*---------------------------------------------------------------------------*/
FoamFile
{
    version     2.0;
    format      ascii;
    class       volScalarField;
    location    "3";
    object      p;
}
// * * * * * * * * * * * * * * * * * * * * * * * * * * * * * * * * * * * * * //

dimensions      [0 2 -2 0 0 0 0];

internalField   nonuniform List<scalar> 
204246
(
-32.9007
-45.8569
-45.9845
-45.6117
-45.443
-45.2095
-44.9867
-44.7109
-44.515
-44.2892
-44.0957
-43.8423
-43.6013
-43.3464
-43.2117
-43.2058
-43.4663
-43.5191
-43.1681
-43.1074
-43.017
-42.96
-42.8729
-42.8081
-42.7306
-42.6936
-42.6562
-42.6415
-42.5733
-42.5094
-42.391
-42.2793
-42.1457
-42.1012
-42.1477
-42.391
-42.5056
-42.2305
-42.2364
-42.1821
-42.1362
-42.0606
-42.0328
-42.0022
-42.0011
-41.9479
-41.8981
-41.7973
-41.7043
-41.5785
-41.5125
-41.5435
-41.7715
-41.9026
-41.6515
-41.6751
-41.6066
-41.5569
-41.5005
-41.4764
-41.4493
-41.4458
-41.3995
-41.3519
-41.2366
-41.1353
-41.0099
-40.9467
-40.9717
-41.1956
-41.3456
-41.1357
-41.1127
-41.0346
-40.9823
-40.9249
-40.8965
-40.8652
-40.8646
-40.8237
-40.7753
-40.6621
-40.559
-40.4281
-40.3657
-40.3872
-40.5993
-40.709
-40.5887
-40.5092
-40.4384
-40.3881
-40.3283
-40.2853
-40.2077
-40.1724
-40.1136
-40.0735
-39.9859
-39.9035
-39.7706
-39.6417
-39.4786
-39.3977
-39.3007
-39.5023
-39.4449
-39.1969
-39.0695
-38.7746
-38.5719
-38.2798
-37.9745
-37.6208
-37.2397
-36.8113
-36.3608
-35.845
-35.3517
-34.9406
-34.803
-34.9853
-35.7745
-37.3785
-40.168
-45.7694
-55.4013
-65.5811
-71.3457
-74.887
-78.5283
-81.1105
-82.998
-84.1194
-84.7467
-85.2598
-85.4118
-85.7311
-86.2626
-87.2208
-87.7575
-87.6192
-88.2478
-88.2391
-88.4216
-88.6622
-89.0771
-89.4759
-89.8951
-90.2007
-90.3944
-90.4262
-90.4478
-90.5445
-90.8079
-90.9381
-92.3698
-92.8303
-92.2598
-92.7216
-92.3364
-91.8846
-91.2918
-90.6572
-89.9702
-89.3279
-87.5197
-86.3864
-84.0402
-82.0573
-78.8821
-75.8668
-71.6397
-67.3636
-62.3717
-56.6665
-50.0922
-42.55
-34.2096
-24.4963
-13.4595
-0.753635
13.6629
30.1759
48.7981
69.7452
92.9593
119.048
148.9
188.267
247.878
342.395
469.391
-44.2362
-44.0542
-44.974
-45.4291
-45.5043
-45.3985
-45.1972
-44.9649
-44.7291
-44.4962
-44.27
-44.0245
-43.7878
-43.5664
-43.3876
-43.3032
-43.3999
-43.4321
-43.3242
-43.2155
-43.1166
-43.0383
-42.9654
-42.9032
-42.8304
-42.7823
-42.7312
-42.7121
-42.6552
-42.6055
-42.51
-42.4013
-42.2876
-42.216
-42.2009
-42.337
-42.4
-42.3504
-42.2938
-42.2515
-42.2069
-42.1528
-42.1182
-42.0738
-42.0596
-42.0075
-41.9871
-41.9034
-41.8153
-41.7103
-41.6368
-41.6191
-41.7338
-41.8065
-41.7646
-41.7135
-41.6673
-41.6244
-41.5828
-41.5471
-41.5221
-41.494
-41.4562
-41.4371
-41.3453
-41.2501
-41.1463
-41.0733
-41.0531
-41.1651
-41.2416
-41.2169
-41.169
-41.1176
-41.0663
-41.0182
-40.9759
-40.9437
-40.9184
-40.8807
-40.8685
-40.7781
-40.6785
-40.5675
-40.4927
-40.4732
-40.5802
-40.6358
-40.6178
-40.5792
-40.5223
-40.478
-40.4274
-40.3612
-40.2989
-40.2511
-40.2002
-40.1534
-40.0868
-40.0107
-39.9053
-39.7817
-39.6914
-39.6239
-39.5671
-39.4992
-39.4333
-39.3424
-39.2068
-39.019
-38.82
-38.6156
-38.3783
-38.0807
-37.7483
-37.3778
-36.9522
-36.4453
-35.9167
-35.4138
-34.9877
-34.7731
-34.9953
-35.904
-37.9161
-41.7714
-51.5441
-63.5242
-71.0795
-75.0372
-77.862
-80.3923
-82.6332
-84.0446
-84.8108
-85.1513
-85.517
-85.7562
-86.2219
-86.6709
-87.1575
-87.5132
-87.8763
-88.2406
-88.4162
-88.756
-89.0123
-89.4178
-89.7701
-90.2363
-90.507
-90.8892
-90.9984
-91.3021
-91.412
-91.7923
-92.2835
-92.7703
-93.0188
-93.2015
-93.4069
-93.2521
-93.1144
-92.7014
-92.3416
-91.8379
-91.0068
-90.0255
-88.6796
-87.0428
-84.8433
-82.1954
-78.9655
-75.243
-70.9246
-66.0136
-60.3071
-53.8221
-46.526
-38.2123
-28.8388
-18.1535
-6.05867
7.77889
23.3793
40.8995
60.0612
80.7227
102.702
128.129
164.451
230.736
328.313
-53.1177
-49.0753
-47.0021
-46.123
-45.6501
-45.3644
-45.1424
-44.918
-44.6977
-44.4813
-44.2514
-44.0335
-43.8205
-43.6189
-43.449
-43.3456
-43.3127
-43.3077
-43.2592
-43.1711
-43.0706
-42.9847
-42.9022
-42.8304
-42.764
-42.7063
-42.6519
-42.619
-42.5824
-42.5364
-42.4749
-42.4042
-42.3349
-42.2722
-42.2351
-42.2298
-42.2476
-42.2491
-42.2278
-42.1879
-42.1434
-42.0939
-42.0546
-42.0104
-41.9794
-41.9402
-41.909
-41.8614
-41.7971
-41.7371
-41.6838
-41.6495
-41.6386
-41.6595
-41.6625
-41.6441
-41.6077
-41.5711
-41.5236
-41.4879
-41.4533
-41.4314
-41.3885
-41.3505
-41.2972
-41.2309
-41.1676
-41.1112
-41.0858
-41.074
-41.0915
-41.092
-41.0735
-41.0299
-40.991
-40.9492
-40.917
-40.8808
-40.8555
-40.8156
-40.7786
-40.7196
-40.6512
-40.5936
-40.5356
-40.5037
-40.4969
-40.5077
-40.5004
-40.4783
-40.4412
-40.4057
-40.3581
-40.3114
-40.2584
-40.2147
-40.1711
-40.1261
-40.0618
-39.9673
-39.8503
-39.7476
-39.673
-39.6183
-39.5454
-39.4827
-39.4061
-39.3183
-39.1699
-39.0064
-38.7976
-38.5699
-38.3287
-38.0513
-37.7324
-37.3833
-36.9969
-36.579
-36.1674
-35.807
-35.5439
-35.4514
-35.7024
-37.1251
-41.3584
-46.0142
-53.4162
-63.4068
-70.6859
-75.5501
-78.1086
-80.3087
-82.3495
-83.9152
-84.6957
-85.1625
-85.4874
-85.7689
-86.1102
-86.357
-86.6469
-86.9968
-87.4175
-87.7502
-88.035
-88.3171
-88.5626
-88.8604
-89.1603
-89.4535
-89.7487
-89.9586
-90.2108
-90.4287
-90.6818
-90.9531
-91.254
-91.5333
-91.727
-91.8113
-91.7432
-91.5221
-91.1866
-90.6687
-89.9949
-89.0579
-87.9388
-86.5428
-84.951
-83.0785
-80.9465
-78.411
-75.4448
-71.9183
-67.7969
-62.9979
-57.4691
-51.2263
-44.0818
-36.0056
-26.8227
-16.4764
-4.76679
8.41143
23.3406
40.0472
58.566
78.275
98.9536
121.051
149.833
193.014
250.138
-55.8659
-52.1676
-49.529
-47.8251
-46.718
-46.0313
-45.5276
-45.1559
-44.8576
-44.595
-44.3557
-44.1312
-43.9279
-43.7588
-43.6363
-43.5419
-43.4685
-43.3988
-43.3288
-43.2521
-43.1793
-43.1078
-43.0483
-42.9866
-42.9321
-42.8815
-42.8307
-42.7732
-42.7138
-42.6487
-42.5739
-42.5131
-42.4608
-42.4168
-42.3917
-42.4011
-42.3874
-42.3525
-42.325
-42.3048
-42.2743
-42.2383
-42.1993
-42.1701
-42.1347
-42.0863
-42.0287
-41.9677
-41.9143
-41.8673
-41.8375
-41.8137
-41.8113
-41.8033
-41.7741
-41.7452
-41.7196
-41.6884
-41.6648
-41.6287
-41.5991
-41.5628
-41.5294
-41.4747
-41.4091
-41.3519
-41.3035
-41.2765
-41.2498
-41.2573
-41.2554
-41.2301
-41.2089
-41.1766
-41.1349
-41.1085
-41.067
-41.032
-40.9871
-40.9471
-40.8955
-40.8341
-40.7796
-40.7327
-40.6976
-40.6702
-40.6659
-40.6568
-40.638
-40.6143
-40.585
-40.5445
-40.5045
-40.445
-40.3961
-40.3432
-40.3021
-40.2531
-40.1905
-40.1153
-40.0427
-39.9758
-39.9126
-39.8486
-39.7796
-39.6949
-39.606
-39.5051
-39.388
-39.2496
-39.1012
-38.9311
-38.7353
-38.4804
-38.1809
-37.843
-37.4536
-37.017
-36.6011
-36.268
-36.0215
-35.9431
-36.2244
-37.4455
-41.4235
-48.047
-55.3284
-64.3027
-72.046
-76.2954
-78.7656
-80.7546
-82.7651
-84.1104
-84.9777
-85.5085
-85.7849
-86.0767
-86.5527
-86.711
-86.9115
-87.2541
-87.6325
-88.0187
-88.3378
-88.762
-89.0331
-89.4662
-89.7879
-90.2177
-90.5358
-90.9496
-91.2052
-91.6955
-91.954
-92.4527
-92.678
-93.0165
-93.4198
-93.7837
-94.1594
-94.2844
-94.3864
-94.4312
-94.3709
-94.3546
-93.9347
-93.3905
-92.3627
-90.9317
-89.0165
-86.7235
-83.9859
-80.8
-77.0379
-72.685
-67.6236
-61.8583
-55.3043
-47.8825
-39.5303
-30.0725
-19.4885
-7.63888
5.50371
20.0288
35.891
53.1415
72.0242
93.8189
121.207
156.057
194.577
-56.582
-53.1775
-50.6028
-48.6932
-47.3414
-46.4265
-45.7626
-45.2872
-44.9117
-44.6086
-44.3369
-44.0989
-43.879
-43.6961
-43.5303
-43.4208
-43.3236
-43.2625
-43.2077
-43.1354
-43.0467
-42.961
-42.8725
-42.8035
-42.7366
-42.6789
-42.6441
-42.6214
-42.5841
-42.5327
-42.4763
-42.4168
-42.364
-42.3162
-42.2697
-42.2191
-42.2059
-42.1999
-42.1798
-42.142
-42.1087
-42.0634
-42.0229
-41.9769
-41.9564
-41.9372
-41.9043
-41.8574
-41.8
-41.7512
-41.7051
-41.6759
-41.6324
-41.6207
-41.632
-41.607
-41.5696
-41.5358
-41.4925
-41.4714
-41.4291
-41.3952
-41.3633
-41.3418
-41.2976
-41.2357
-41.1861
-41.1386
-41.1087
-41.0575
-41.0406
-41.0448
-41.0185
-40.9848
-40.9558
-40.9152
-40.8977
-40.8605
-40.8377
-40.8076
-40.7766
-40.7285
-40.6674
-40.6156
-40.5656
-40.5337
-40.4933
-40.4742
-40.4563
-40.4326
-40.3996
-40.3754
-40.3335
-40.3054
-40.2642
-40.2351
-40.1908
-40.1519
-40.0924
-40.0176
-39.9142
-39.8416
-39.7694
-39.719
-39.6857
-39.6055
-39.5307
-39.463
-39.3605
-39.2316
-39.0775
-38.9351
-38.7714
-38.576
-38.3424
-38.0944
-37.8333
-37.541
-37.2313
-36.9262
-36.6798
-36.6295
-36.9242
-37.8584
-40.4848
-46.3639
-53.254
-61.4176
-69.1441
-74.2565
-77.7749
-79.6753
-81.6423
-83.0934
-84.2505
-84.8459
-85.0515
-85.1685
-85.343
-85.6919
-85.9834
-86.2546
-86.6715
-86.9935
-87.336
-87.6005
-87.8857
-88.1643
-88.5497
-88.789
-89.1345
-89.4087
-89.7245
-89.8854
-90.1849
-90.4435
-90.781
-91.0443
-91.2111
-91.3664
-91.4276
-91.4109
-91.1791
-90.7237
-90.1527
-89.4732
-88.806
-87.9564
-87.0988
-86.0405
-84.7438
-83.0671
-81.0294
-78.5504
-75.5759
-71.971
-67.7253
-62.8516
-57.1802
-50.6049
-43.0396
-34.4443
-24.7591
-14.011
-2.24804
10.3771
23.7964
38.059
53.7655
72.2764
95.4364
123.426
151.497
-56.4015
-53.541
-51.1787
-49.3409
-47.931
-46.8828
-46.1068
-45.5317
-45.0947
-44.7469
-44.4569
-44.2053
-43.9955
-43.825
-43.7076
-43.6069
-43.5182
-43.4416
-43.3717
-43.2958
-43.226
-43.1611
-43.1081
-43.0471
-42.9932
-42.9406
-42.8913
-42.8401
-42.7829
-42.7228
-42.6619
-42.6114
-42.5607
-42.5182
-42.4876
-42.4862
-42.4558
-42.4105
-42.3731
-42.3557
-42.3282
-42.3056
-42.2739
-42.2468
-42.1933
-42.1367
-42.0922
-42.0478
-42.015
-41.975
-41.9423
-41.9086
-41.9053
-41.8772
-41.8286
-41.7986
-41.773
-41.7466
-41.7333
-41.6951
-41.6751
-41.6376
-41.6
-41.5398
-41.4914
-41.4548
-41.416
-41.3882
-41.3512
-41.3491
-41.3247
-41.2818
-41.2642
-41.2371
-41.1996
-41.1803
-41.1371
-41.1117
-41.0617
-41.0136
-40.9593
-40.9178
-40.8859
-40.8467
-40.8138
-40.7711
-40.759
-40.7417
-40.7127
-40.6809
-40.654
-40.6125
-40.5814
-40.5217
-40.4817
-40.4192
-40.3811
-40.3442
-40.3022
-40.2434
-40.192
-40.1408
-40.0788
-40.001
-39.9217
-39.8706
-39.7874
-39.6804
-39.5815
-39.4755
-39.371
-39.2433
-39.096
-38.9024
-38.6853
-38.4518
-38.2127
-37.9642
-37.7262
-37.5175
-37.3834
-37.4319
-37.823
-38.8174
-40.986
-45.2437
-51.5173
-59.2229
-67.0104
-73.3016
-77.2468
-80.8227
-83.2358
-83.9295
-85.1012
-85.7199
-86.1396
-86.2206
-86.2986
-86.5639
-86.79
-87.1058
-87.436
-87.7851
-88.1755
-88.6336
-88.8792
-89.2593
-89.6472
-90.0711
-90.3821
-90.8819
-91.2202
-91.6524
-92.0362
-92.5752
-92.7387
-93.0462
-93.5473
-93.9916
-94.4009
-94.8068
-95.2282
-95.5575
-95.7362
-95.8127
-95.6359
-95.2168
-94.4061
-93.2415
-91.7504
-89.9019
-87.6487
-85.0475
-82.0693
-78.6302
-74.5984
-69.9819
-64.6812
-58.5638
-51.5769
-43.6464
-34.725
-24.8043
-13.9771
-2.38755
9.85217
22.7639
36.7625
53.0395
72.5404
95.1658
116.726
-55.0999
-52.8084
-50.8781
-49.3031
-47.9937
-46.9616
-46.1633
-45.5494
-45.071
-44.6953
-44.3834
-44.124
-43.8997
-43.7208
-43.5589
-43.4307
-43.2948
-43.1963
-43.1488
-43.1002
-43.0242
-42.9417
-42.848
-42.7783
-42.7131
-42.6492
-42.6063
-42.5854
-42.5657
-42.5271
-42.4835
-42.4302
-42.3828
-42.3387
-42.2919
-42.2298
-42.2033
-42.188
-42.1647
-42.1226
-42.0899
-42.048
-42.0161
-41.9714
-41.954
-41.933
-41.9004
-41.8645
-41.8133
-41.7642
-41.7154
-41.6898
-41.6347
-41.612
-41.6176
-41.5901
-41.5529
-41.5218
-41.4772
-41.4571
-41.4056
-41.3817
-41.3546
-41.3355
-41.2977
-41.2464
-41.2027
-41.1526
-41.1251
-41.0635
-41.0295
-41.0267
-40.9987
-40.9672
-40.9419
-40.8975
-40.8845
-40.8415
-40.8227
-40.7902
-40.7697
-40.7291
-40.6788
-40.6327
-40.5799
-40.5507
-40.494
-40.4591
-40.4501
-40.4239
-40.3875
-40.3669
-40.3283
-40.3173
-40.2763
-40.2581
-40.2018
-40.1813
-40.1014
-40.0728
-39.9989
-39.9373
-39.8711
-39.829
-39.8004
-39.7484
-39.6967
-39.6386
-39.5585
-39.4733
-39.3763
-39.2899
-39.1929
-39.073
-38.9241
-38.7737
-38.6062
-38.4308
-38.2554
-38.1164
-38.0563
-38.1593
-38.5521
-39.4655
-41.2994
-44.5912
-49.5703
-56.0297
-63.354
-70.1733
-75.2536
-79.0307
-81.3804
-83.3205
-84.4078
-84.6587
-84.8135
-84.9237
-85.1703
-85.2299
-85.4191
-85.6033
-85.9586
-86.3487
-86.6861
-86.9501
-87.3444
-87.6567
-88.0164
-88.3667
-88.7025
-88.9855
-89.3662
-89.5719
-89.8913
-90.2028
-90.6221
-90.9275
-91.0719
-91.2886
-91.3294
-91.4974
-91.4576
-91.3571
-91.2422
-90.8125
-90.6014
-90.3319
-90.1791
-89.8321
-89.2851
-88.4198
-87.1462
-85.417
-83.2494
-80.5839
-77.3319
-73.4824
-68.9781
-63.7304
-57.6878
-50.7955
-43.0196
-34.3248
-24.7661
-14.455
-3.49373
8.14789
20.8046
35.2725
51.9838
70.6949
87.924
-53.2323
-51.5433
-50.0842
-48.8692
-47.7847
-46.8875
-46.1659
-45.5761
-45.1107
-44.7354
-44.4362
-44.1878
-43.9821
-43.8016
-43.6612
-43.5524
-43.4925
-43.435
-43.3647
-43.2904
-43.2318
-43.1814
-43.1423
-43.0819
-43.0318
-42.9851
-42.9392
-42.8864
-42.8306
-42.7786
-42.7227
-42.6755
-42.6229
-42.5831
-42.556
-42.5533
-42.5176
-42.4683
-42.4265
-42.4078
-42.3807
-42.3585
-42.3261
-42.3038
-42.2529
-42.1992
-42.1519
-42.112
-42.0863
-42.05
-42.0196
-41.9809
-41.9821
-41.9507
-41.8827
-41.8504
-41.826
-41.7993
-41.7935
-41.7584
-41.7415
-41.6983
-41.6617
-41.6006
-41.5594
-41.5285
-41.4928
-41.4677
-41.4275
-41.4288
-41.3981
-41.342
-41.3188
-41.2917
-41.2561
-41.2417
-41.1963
-41.1782
-41.1323
-41.0943
-41.0293
-40.991
-40.9614
-40.9254
-40.8975
-40.8535
-40.8453
-40.8145
-40.7627
-40.7388
-40.7145
-40.6739
-40.6486
-40.5873
-40.5558
-40.4936
-40.4599
-40.4204
-40.3825
-40.3383
-40.3
-40.2615
-40.2096
-40.1387
-40.06
-40.0169
-39.9564
-39.8692
-39.7943
-39.7187
-39.6457
-39.5573
-39.4679
-39.3468
-39.2183
-39.0842
-38.9557
-38.8403
-38.7441
-38.6831
-38.6967
-38.8511
-39.2389
-40.0273
-41.4942
-44.0239
-47.9023
-53.1455
-59.4655
-66.0419
-72.0869
-77.1233
-80.7145
-83.3604
-84.8495
-85.7667
-86.2941
-86.2992
-86.198
-86.3849
-86.2728
-86.5422
-86.8315
-87.3511
-87.6837
-88.0728
-88.459
-88.8538
-89.2244
-89.6683
-90.0554
-90.5812
-90.8796
-91.3028
-91.6884
-92.2683
-92.4849
-92.8243
-93.3314
-93.7852
-94.2381
-94.7289
-95.234
-95.6535
-96.0145
-96.1742
-96.1108
-95.8721
-95.3884
-94.6817
-93.723
-92.5852
-91.1863
-89.4622
-87.3962
-84.9427
-81.9673
-78.4409
-74.3491
-69.6218
-64.196
-58.0427
-51.152
-43.4788
-35.0244
-25.8933
-16.1417
-5.68517
5.76845
18.6946
33.2684
49.152
63.4107
-50.8173
-49.7439
-48.7598
-47.901
-47.1049
-46.4096
-45.8118
-45.3015
-44.8847
-44.5386
-44.2524
-44.0146
-43.8095
-43.6385
-43.4838
-43.3547
-43.2322
-43.147
-43.0873
-43.0244
-42.9699
-42.9111
-42.8189
-42.7501
-42.6832
-42.6172
-42.581
-42.5612
-42.5513
-42.5248
-42.4903
-42.4406
-42.3954
-42.3502
-42.3011
-42.2485
-42.2243
-42.1963
-42.1694
-42.1237
-42.0903
-42.0507
-42.0193
-41.976
-41.9591
-41.9399
-41.9136
-41.8816
-41.8305
-41.7826
-41.7322
-41.7058
-41.6448
-41.6163
-41.6223
-41.593
-41.5544
-41.5239
-41.4752
-41.4541
-41.4029
-41.3843
-41.371
-41.3619
-41.3141
-41.2645
-41.2214
-41.1711
-41.145
-41.076
-41.0409
-41.0362
-41.0046
-40.9705
-40.9447
-40.8975
-40.883
-40.8283
-40.8148
-40.7976
-40.7898
-40.7463
-40.6973
-40.6524
-40.6016
-40.5791
-40.5158
-40.4743
-40.4619
-40.4326
-40.397
-40.3773
-40.3372
-40.3351
-40.2996
-40.2892
-40.2347
-40.2009
-40.1556
-40.1135
-40.066
-40.0135
-39.9543
-39.9206
-39.9243
-39.8761
-39.8221
-39.7914
-39.7472
-39.701
-39.6404
-39.595
-39.5387
-39.4863
-39.4221
-39.3486
-39.27
-39.2103
-39.1788
-39.1815
-39.2546
-39.458
-39.8558
-40.5724
-41.7856
-43.7448
-46.7008
-50.7674
-55.8598
-61.561
-67.2911
-72.4796
-76.7179
-79.97
-82.1237
-83.3793
-83.9758
-84.1769
-84.2104
-84.4727
-85.1203
-85.4902
-85.5904
-85.7645
-86.2114
-86.5691
-86.9037
-87.13
-87.6243
-87.9875
-88.3595
-88.7277
-89.1445
-89.4185
-89.7454
-90.0905
-90.5404
-90.8843
-91.1566
-91.418
-91.6547
-91.9046
-92.1261
-92.408
-92.5942
-92.8692
-93.0008
-93.1069
-93.2986
-93.37
-93.3013
-93.0189
-92.4722
-91.5384
-90.1548
-88.328
-85.9759
-83.0353
-79.5094
-75.3983
-70.6419
-65.2058
-59.1055
-52.3281
-44.8693
-36.7867
-28.1142
-18.7329
-8.39536
3.19107
16.0796
29.879
42.0357
-48.189
-47.6562
-47.14
-46.6477
-46.1687
-45.7268
-45.3168
-44.9492
-44.6438
-44.3751
-44.151
-43.9538
-43.7902
-43.6444
-43.5315
-43.4363
-43.3793
-43.3273
-43.2698
-43.2276
-43.1879
-43.144
-43.1284
-43.0868
-43.0468
-43.006
-42.9581
-42.9078
-42.8552
-42.8104
-42.76
-42.7158
-42.6666
-42.6318
-42.6033
-42.589
-42.5497
-42.5128
-42.4724
-42.4532
-42.4219
-42.3985
-42.3682
-42.3479
-42.2971
-42.2455
-42.199
-42.16
-42.1366
-42.1046
-42.078
-42.0387
-42.0468
-42.0211
-41.9448
-41.9115
-41.8802
-41.8477
-41.8404
-41.8023
-41.7873
-41.7386
-41.6888
-41.6329
-41.6065
-41.5794
-41.5465
-41.5242
-41.4829
-41.4879
-41.4562
-41.3931
-41.3679
-41.3405
-41.3041
-41.2934
-41.2498
-41.2341
-41.1762
-41.1217
-41.0561
-41.0353
-41.0121
-40.9797
-40.9566
-40.9126
-40.9118
-40.8852
-40.8321
-40.7976
-40.7698
-40.7267
-40.7003
-40.6377
-40.6087
-40.5545
-40.5264
-40.4783
-40.4402
-40.4055
-40.3783
-40.3463
-40.3037
-40.2498
-40.1814
-40.1519
-40.0995
-40.0274
-39.9795
-39.9334
-39.9027
-39.8542
-39.804
-39.7422
-39.681
-39.6104
-39.5484
-39.5257
-39.5436
-39.6012
-39.7269
-39.9612
-40.363
-41.0174
-42.0536
-43.6432
-45.9543
-49.0996
-53.1091
-57.8115
-62.8669
-67.8543
-72.3749
-76.2263
-79.2711
-81.555
-83.2087
-84.3083
-84.9153
-85.1904
-85.3675
-85.4815
-86.2771
-86.8937
-87.0087
-87.3579
-87.7714
-88.2485
-88.6988
-89.1325
-89.5276
-90.0031
-90.3604
-90.8325
-91.2421
-91.5996
-91.9402
-92.3507
-92.7913
-93.2393
-93.7164
-94.1652
-94.581
-94.9779
-95.4279
-95.7342
-95.9705
-96.0849
-96.0033
-95.7548
-95.3631
-94.9102
-94.4341
-93.7741
-92.7945
-91.4543
-89.6676
-87.3322
-84.412
-80.94
-76.88
-72.1657
-66.8196
-60.875
-54.3328
-47.203
-39.4957
-31.0884
-21.7716
-11.355
0.17286
12.3809
23.0067
-45.3836
-45.346
-45.2424
-45.0896
-44.9248
-44.7464
-44.5306
-44.3279
-44.1414
-43.9699
-43.8058
-43.6528
-43.5136
-43.3925
-43.282
-43.1896
-43.1013
-43.035
-42.9877
-42.9407
-42.8923
-42.8503
-42.7717
-42.7
-42.6378
-42.5827
-42.5608
-42.5376
-42.5329
-42.513
-42.4882
-42.4483
-42.409
-42.3632
-42.3162
-42.2649
-42.2367
-42.2104
-42.1869
-42.1422
-42.111
-42.072
-42.0375
-41.9919
-41.9762
-41.9589
-41.9369
-41.9058
-41.8553
-41.8092
-41.758
-41.7293
-41.6636
-41.6299
-41.6337
-41.6118
-41.5766
-41.5459
-41.4939
-41.4714
-41.4176
-41.3973
-41.37
-41.3634
-41.3295
-41.2866
-41.246
-41.1958
-41.1703
-41.0997
-41.0623
-41.0576
-41.0256
-40.9897
-40.9638
-40.9152
-40.9002
-40.8486
-40.8385
-40.8263
-40.8211
-40.7714
-40.723
-40.6799
-40.6308
-40.6088
-40.5386
-40.4972
-40.4855
-40.4606
-40.4266
-40.4065
-40.3695
-40.3686
-40.3327
-40.3207
-40.2834
-40.2535
-40.2129
-40.1708
-40.1229
-40.0744
-40.0442
-40.0227
-39.9894
-39.9628
-39.9402
-39.9285
-39.8968
-39.875
-39.8446
-39.83
-39.8123
-39.8105
-39.8036
-39.8018
-39.8116
-39.8394
-39.8817
-39.9659
-40.125
-40.3857
-40.7818
-41.3829
-42.2865
-43.6144
-45.4851
-47.9804
-51.1466
-54.9338
-59.1838
-63.6123
-67.8984
-71.7869
-75.0774
-77.7008
-79.6581
-81.0254
-81.9252
-82.5737
-83.0904
-83.4975
-83.9658
-84.8219
-85.8373
-86.2137
-86.5172
-86.9174
-87.3682
-87.8167
-88.1683
-88.5088
-88.9275
-89.2783
-89.6774
-90.0593
-90.4429
-90.8035
-91.1619
-91.5225
-91.9197
-92.3544
-92.8325
-93.3319
-93.8382
-94.3961
-94.9692
-95.4653
-95.8946
-96.2151
-96.3713
-96.3437
-96.185
-95.8839
-95.2993
-94.3772
-93.0968
-91.3507
-89.0431
-86.2003
-82.8312
-78.8477
-74.2431
-69.0902
-63.4122
-57.174
-50.3548
-42.8493
-34.4734
-25.0747
-14.6759
-3.72038
5.75143
-42.5835
-42.9275
-43.2101
-43.3969
-43.5391
-43.6179
-43.6141
-43.6171
-43.5841
-43.5394
-43.4857
-43.4257
-43.3638
-43.2942
-43.2415
-43.1952
-43.1728
-43.1453
-43.1137
-43.102
-43.075
-43.0463
-43.0613
-43.0517
-43.0284
-42.9984
-42.9518
-42.9081
-42.8605
-42.8195
-42.7758
-42.7375
-42.6933
-42.6611
-42.6318
-42.6168
-42.5796
-42.5437
-42.5051
-42.484
-42.4501
-42.4288
-42.4025
-42.3859
-42.3343
-42.2819
-42.2337
-42.1957
-42.1727
-42.1425
-42.1182
-42.079
-42.0877
-42.0636
-41.9907
-41.9587
-41.9201
-41.8858
-41.8772
-41.838
-41.8256
-41.7759
-41.7283
-41.6708
-41.6385
-41.6128
-41.5827
-41.5623
-41.5202
-41.5264
-41.4999
-41.4371
-41.4064
-41.3771
-41.3395
-41.3283
-41.2826
-41.2691
-41.2109
-41.1574
-41.094
-41.0724
-41.0473
-41.017
-40.9968
-40.9527
-40.9523
-40.9235
-40.8667
-40.8327
-40.8057
-40.7647
-40.7402
-40.6818
-40.6547
-40.5974
-40.5698
-40.5255
-40.4907
-40.4593
-40.4301
-40.4046
-40.3792
-40.3499
-40.3217
-40.2515
-40.2064
-40.1691
-40.1432
-40.1105
-40.1018
-40.0878
-40.0799
-40.0562
-40.0375
-40.0302
-40.0414
-40.0673
-40.1246
-40.2394
-40.4335
-40.7155
-41.1158
-41.6739
-42.47
-43.6055
-45.1625
-47.1968
-49.7467
-52.8074
-56.3195
-60.1275
-64.0021
-67.7229
-71.1043
-74.0484
-76.5025
-78.4744
-80.0155
-81.2661
-82.3639
-83.3497
-84.2804
-85.1384
-85.6623
-86.6897
-87.6075
-87.8125
-88.0484
-88.4658
-88.9332
-89.4034
-89.8014
-90.1983
-90.5242
-90.9587
-91.3569
-91.7336
-92.1061
-92.5103
-92.9188
-93.3469
-93.7918
-94.2481
-94.708
-95.2005
-95.689
-96.1613
-96.5614
-96.9336
-97.2859
-97.5253
-97.6441
-97.6794
-97.5225
-97.0561
-96.2666
-95.0828
-93.3904
-91.1741
-88.4746
-85.2123
-81.3448
-76.9536
-72.0925
-66.7054
-60.7416
-54.098
-46.6002
-38.1147
-28.6794
-18.7269
-10.1248
-39.7782
-40.422
-41.0506
-41.5556
-41.9775
-42.3146
-42.5225
-42.7106
-42.8371
-42.8964
-42.949
-42.9737
-42.9675
-42.9503
-42.9226
-42.8935
-42.8555
-42.8297
-42.8122
-42.7836
-42.7617
-42.7217
-42.6717
-42.6157
-42.5802
-42.5513
-42.5468
-42.5296
-42.5251
-42.4998
-42.4828
-42.4533
-42.425
-42.3875
-42.3417
-42.2849
-42.2588
-42.2378
-42.2184
-42.1752
-42.144
-42.1019
-42.0656
-42.02
-42.0089
-41.9935
-41.9718
-41.9394
-41.8913
-41.8476
-41.7966
-41.7663
-41.701
-41.664
-41.6678
-41.6482
-41.616
-41.5844
-41.5317
-41.51
-41.4585
-41.4405
-41.4183
-41.4092
-41.3686
-41.3238
-41.2831
-41.2336
-41.206
-41.1351
-41.0966
-41.0944
-41.0621
-41.0263
-41.0004
-40.9529
-40.9384
-40.8889
-40.8778
-40.8656
-40.861
-40.8117
-40.7635
-40.7204
-40.6719
-40.6489
-40.5839
-40.5414
-40.531
-40.5031
-40.4683
-40.4482
-40.4137
-40.4136
-40.3817
-40.3744
-40.3405
-40.3147
-40.278
-40.2349
-40.1859
-40.1405
-40.1207
-40.1006
-40.0863
-40.0608
-40.0443
-40.0416
-40.0156
-40.0125
-39.9965
-39.9999
-40.0026
-40.0243
-40.0557
-40.1061
-40.166
-40.2463
-40.3617
-40.5198
-40.7208
-41.0052
-41.3855
-41.8997
-42.615
-43.6041
-44.9339
-46.6402
-48.7427
-51.2526
-54.1698
-57.4008
-60.8082
-64.2182
-67.467
-70.4532
-73.0977
-75.359
-77.2209
-78.7384
-80.0047
-81.0964
-82.1054
-83.0973
-84.0164
-84.8897
-85.4984
-86.5579
-87.4646
-87.6675
-88.0034
-88.3627
-88.7864
-89.192
-89.5931
-89.9437
-90.3179
-90.7215
-91.1421
-91.5678
-92.0272
-92.5334
-93.0838
-93.6717
-94.3066
-95.0231
-95.7579
-96.4076
-96.9732
-97.5026
-98.0265
-98.4818
-98.8403
-99.1726
-99.4225
-99.4124
-99.1016
-98.4796
-97.4242
-95.8489
-93.7969
-91.232
-88.0911
-84.4318
-80.3421
-75.785
-70.6757
-64.8822
-58.231
-50.6011
-42.0163
-32.8875
-24.9119
-37.021
-37.9604
-38.857
-39.6699
-40.3539
-40.9525
-41.3889
-41.7472
-42.0477
-42.2494
-42.4251
-42.5594
-42.6608
-42.7238
-42.7747
-42.8097
-42.8494
-42.8735
-42.8837
-42.9024
-42.9123
-42.9303
-42.9509
-42.9732
-42.9631
-42.9423
-42.9055
-42.873
-42.8381
-42.8035
-42.7621
-42.7297
-42.6949
-42.6698
-42.641
-42.6227
-42.5862
-42.554
-42.5184
-42.4975
-42.4649
-42.4465
-42.4236
-42.4105
-42.3601
-42.3084
-42.2601
-42.2193
-42.1923
-42.164
-42.1421
-42.1028
-42.1024
-42.0756
-42.0056
-41.9696
-41.9365
-41.9061
-41.8977
-41.859
-41.8491
-41.8008
-41.7542
-41.6989
-41.6657
-41.635
-41.6047
-41.5843
-41.542
-41.5421
-41.5146
-41.4573
-41.427
-41.3962
-41.3593
-41.3459
-41.2999
-41.2888
-41.2353
-41.1864
-41.1263
-41.0995
-41.0696
-41.0394
-41.0199
-40.9768
-40.9716
-40.9396
-40.8815
-40.8496
-40.8239
-40.7856
-40.7616
-40.7073
-40.6827
-40.6317
-40.6077
-40.5651
-40.5318
-40.5029
-40.4765
-40.464
-40.4448
-40.4176
-40.3821
-40.2983
-40.2555
-40.2423
-40.2639
-40.2497
-40.2559
-40.2584
-40.2716
-40.2713
-40.2892
-40.3218
-40.3751
-40.4426
-40.548
-40.696
-40.9016
-41.1872
-41.5655
-42.0535
-42.702
-43.5825
-44.7467
-46.2106
-47.9844
-50.0892
-52.535
-55.2859
-58.2563
-61.3228
-64.353
-67.2461
-69.9311
-72.3457
-74.4504
-76.2669
-77.8494
-79.2454
-80.5374
-81.7923
-83.0367
-84.2987
-85.4612
-86.4771
-87.0638
-88.0551
-88.845
-89.0141
-89.3149
-89.6179
-89.9797
-90.3981
-90.7355
-91.0652
-91.413
-91.7867
-92.188
-92.6003
-93.0361
-93.5392
-94.1142
-94.8223
-95.6413
-96.4656
-97.204
-97.8562
-98.508
-99.1645
-99.7939
-100.395
-100.958
-101.362
-101.535
-101.467
-101.068
-100.18
-98.7824
-96.8808
-94.4389
-91.4796
-88.1179
-84.3776
-80.1398
-75.2132
-69.4213
-62.6256
-54.8205
-46.3901
-38.8281
-34.2955
-35.5028
-36.6586
-37.7277
-38.6533
-39.4633
-40.1219
-40.656
-41.1084
-41.4556
-41.7438
-41.9774
-42.1504
-42.2844
-42.3799
-42.4508
-42.4956
-42.5363
-42.5713
-42.5862
-42.5939
-42.5841
-42.5572
-42.5315
-42.5268
-42.5267
-42.5366
-42.5354
-42.5347
-42.5115
-42.4936
-42.4638
-42.4385
-42.4069
-42.3701
-42.3017
-42.2759
-42.2696
-42.2537
-42.2145
-42.185
-42.1425
-42.1039
-42.0657
-42.0632
-42.0467
-42.0237
-41.9881
-41.9402
-41.8971
-41.8489
-41.8175
-41.7542
-41.7179
-41.7174
-41.6946
-41.6636
-41.631
-41.58
-41.5603
-41.5137
-41.4973
-41.4822
-41.4711
-41.424
-41.3766
-41.3344
-41.2854
-41.2548
-41.1872
-41.1479
-41.1419
-41.1081
-41.0757
-41.05
-41.0062
-40.9941
-40.9485
-40.9346
-40.9228
-40.9165
-40.8657
-40.8168
-40.773
-40.7259
-40.701
-40.6436
-40.6006
-40.587
-40.5546
-40.5202
-40.4991
-40.4673
-40.4655
-40.4333
-40.4315
-40.4047
-40.3834
-40.3441
-40.2971
-40.2493
-40.2096
-40.2015
-40.1819
-40.1503
-40.1337
-40.1151
-40.0945
-40.0961
-40.1179
-40.1128
-40.125
-40.1324
-40.1632
-40.2095
-40.2804
-40.3652
-40.4732
-40.6108
-40.7967
-41.04
-41.3534
-41.727
-42.1856
-42.772
-43.5512
-44.5758
-45.8536
-47.3875
-49.1827
-51.2664
-53.6265
-56.2207
-58.9589
-61.7395
-64.4775
-67.1018
-69.5491
-71.7749
-73.7637
-75.5423
-77.131
-78.5825
-79.9475
-81.2471
-82.5114
-83.7231
-84.8885
-85.9107
-86.7939
-87.381
-88.3285
-89.1026
-89.3041
-89.5155
-89.7873
-90.1782
-90.6374
-91.04
-91.465
-91.9361
-92.4057
-92.8792
-93.3798
-93.9619
-94.6609
-95.5051
-96.4106
-97.2788
-98.0896
-98.8989
-99.7291
-100.542
-101.311
-102.096
-102.854
-103.494
-103.973
-104.238
-104.089
-103.383
-102.126
-100.342
-98.0503
-95.392
-92.4395
-89.0752
-85.063
-80.1792
-74.2381
-67.1896
-59.3652
-52.1572
-31.647
-33.1041
-34.4765
-35.7903
-36.946
-37.96
-38.832
-39.5428
-40.169
-40.6743
-41.0915
-41.4485
-41.7321
-41.9531
-42.1359
-42.2812
-42.4076
-42.5052
-42.575
-42.6384
-42.6869
-42.7383
-42.7833
-42.8295
-42.8384
-42.836
-42.8209
-42.8031
-42.7809
-42.7688
-42.7378
-42.7148
-42.6716
-42.6467
-42.627
-42.6112
-42.5781
-42.5394
-42.5073
-42.4907
-42.4629
-42.447
-42.4262
-42.3988
-42.3508
-42.3159
-42.2746
-42.2366
-42.2083
-42.1766
-42.1485
-42.1094
-42.0977
-42.0661
-42.0071
-41.9721
-41.9371
-41.9103
-41.9002
-41.8631
-41.854
-41.8125
-41.7741
-41.7256
-41.6871
-41.6512
-41.6181
-41.591
-41.5481
-41.5384
-41.5061
-41.4531
-41.427
-41.394
-41.3615
-41.3446
-41.3006
-41.2897
-41.2444
-41.2046
-41.1543
-41.1218
-41.0848
-41.0515
-41.0254
-40.9814
-40.9664
-40.9369
-40.8874
-40.8578
-40.8238
-40.7877
-40.764
-40.717
-40.6949
-40.6528
-40.6313
-40.5905
-40.5705
-40.5442
-40.5121
-40.496
-40.4738
-40.4448
-40.3945
-40.3569
-40.3372
-40.3421
-40.3177
-40.3056
-40.3392
-40.3626
-40.392
-40.4095
-40.4457
-40.4937
-40.5657
-40.6611
-40.7932
-40.9532
-41.1654
-41.4477
-41.8027
-42.232
-42.7652
-43.4731
-44.3932
-45.5308
-46.879
-48.4451
-50.2468
-52.2971
-54.5734
-57.0146
-59.5481
-62.1017
-64.6136
-67.0256
-69.2868
-71.3634
-73.2701
-75.0031
-76.5944
-78.0873
-79.5053
-80.8758
-82.1959
-83.4799
-84.7273
-85.9321
-87.0047
-87.9371
-88.4952
-89.2417
-89.8764
-90.0548
-90.1706
-90.4904
-90.8092
-91.2048
-91.6661
-92.1005
-92.5473
-93.0406
-93.6079
-94.2915
-95.1517
-96.1427
-97.1512
-98.098
-99.0282
-99.9868
-100.941
-101.851
-102.794
-103.841
-104.943
-105.984
-106.879
-107.46
-107.498
-106.91
-105.77
-104.157
-102.18
-99.9314
-97.3791
-94.3131
-90.4389
-85.4517
-79.2301
-72.0157
-65.2586
-29.0418
-30.7066
-32.3117
-33.8387
-35.1994
-36.4185
-37.4736
-38.3614
-39.1362
-39.7883
-40.3217
-40.7813
-41.1527
-41.4499
-41.6904
-41.8842
-42.0327
-42.1604
-42.2654
-42.3363
-42.3849
-42.4108
-42.4195
-42.4399
-42.466
-42.4974
-42.522
-42.5394
-42.5474
-42.5389
-42.5268
-42.5057
-42.4806
-42.4361
-42.3935
-42.3391
-42.3246
-42.3129
-42.2915
-42.2544
-42.2294
-42.1973
-42.168
-42.1379
-42.1329
-42.1136
-42.0889
-42.0531
-42.0087
-41.9631
-41.9128
-41.8787
-41.8241
-41.7976
-41.7959
-41.7619
-41.7252
-41.6843
-41.6362
-41.6177
-41.581
-41.5676
-41.544
-41.5293
-41.4913
-41.4453
-41.4006
-41.35
-41.3157
-41.2579
-41.2289
-41.219
-41.1712
-41.139
-41.11
-41.0685
-41.0532
-41.0197
-41.0085
-40.9851
-40.974
-40.9331
-40.8864
-40.8418
-40.7931
-40.761
-40.7071
-40.6734
-40.6555
-40.6153
-40.5847
-40.5584
-40.5271
-40.5188
-40.4927
-40.4918
-40.4749
-40.4559
-40.4159
-40.3737
-40.3326
-40.2957
-40.2836
-40.2584
-40.2285
-40.1932
-40.1743
-40.1562
-40.1729
-40.1747
-40.189
-40.2138
-40.222
-40.2571
-40.3058
-40.3767
-40.4601
-40.5749
-40.7194
-40.9034
-41.1301
-41.4242
-41.7921
-42.2335
-42.7577
-43.4137
-44.2464
-45.2574
-46.4525
-47.8296
-49.4174
-51.2246
-53.2393
-55.4255
-57.7284
-60.0899
-62.4636
-64.802
-67.0454
-69.1595
-71.1468
-72.9726
-74.6649
-76.248
-77.751
-79.195
-80.5796
-81.9113
-83.1958
-84.456
-85.6686
-86.8128
-87.7742
-88.5664
-89.1063
-89.5671
-90.1749
-90.6484
-90.8795
-91.1863
-91.5674
-91.9652
-92.3908
-92.8464
-93.3959
-94.0449
-94.8592
-95.8454
-96.969
-98.0735
-99.0884
-100.103
-101.158
-102.248
-103.374
-104.575
-105.957
-107.453
-108.907
-110.12
-110.904
-111.121
-110.768
-109.874
-108.51
-106.815
-104.908
-102.74
-100.022
-96.2367
-91.0923
-84.6828
-78.4201
-26.4631
-28.3477
-30.1835
-31.9181
-33.4997
-34.9094