/*--------------------------------*- C++ -*----------------------------------*\
| =========                 |                                                 |
| \\      /  F ield         | OpenFOAM: The Open Source CFD Toolbox           |
|  \\    /   O peration     | Version:  4.1                                   |
|   \\  /    A nd           | Web:      www.OpenFOAM.org                      |
|    \\/     M anipulation  |                                                 |
\*---------------------------------------------------------------------------*/
FoamFile
{
    version     2.0;
    format      ascii;
    class       volScalarField;
    location    "493";
    object      p;
}
// * * * * * * * * * * * * * * * * * * * * * * * * * * * * * * * * * * * * * //

dimensions      [0 2 -2 0 0 0 0];

internalField   nonuniform List<scalar> 
204246
(
133.04
0.761924
45.8594
28.8995
24.5896
31.8067
20.0822
31.7767
18.7161
31.6157
18.0325
32.2467
16.4597
32.5646
17.7147
29.96
24.1663
18.6769
30.9522
16.236
32.2495
16.6515
30.9383
17.4694
30.8659
17.3273
31.7885
15.5946
32.7263
15.3412
32.7241
15.7844
31.7886
18.2938
27.9262
24.4486
17.592
30.0846
16.217
29.6703
16.5133
29.6934
16.1369
30.5218
14.2575
31.2754
13.9907
30.8313
14.9894
28.3391
16.9807
25.4465
22.2957
14.8045
27.0731
12.8257
25.4252
12.5523
23.3096
11.2274
21.2281
7.62914
18.3427
4.23652
13.9257
0.642153
6.99692
-3.78578
-1.16803
-6.51115
-15.1576
-14.0989
-23.1028
-22.1062
-32.6025
-27.5906
-41.2187
-31.1782
-48.0477
-31.7164
-46.7034
-31.8621
-40.9081
-28.7366
-31.9316
-22.0611
-18.1661
-18.7772
-8.46934
-9.85429
1.30255
-2.65924
10.7289
1.65595
17.4213
5.50482
22.009
8.19257
24.3303
10.8379
24.3539
12.8811
24.7599
14.5979
23.6478
18.8124
14.9821
23.9762
12.4261
25.6042
9.61967
25.6501
8.98877
23.9468
7.7769
22.2076
6.19707
19.8138
4.92778
16.5291
3.68062
11.8558
5.57896
-1.22186
7.29762
-5.8388
4.39279
-9.85726
1.04134
-14.0111
-2.16264
-17.9256
-4.89018
-21.1498
-6.97874
-22.8727
-9.11407
-22.5061
-12.4687
-17.2354
-22.975
-10.9042
-24.7915
-8.86076
-24.3455
-7.45337
-23.4081
-6.22079
-22.1843
-5.00726
-20.7923
-3.85269
-19.0208
-3.10134
-15.8716
-4.12871
-8.38556
-12.3686
-0.179745
-12.6433
3.48326
-10.3372
5.96767
-6.46776
8.86468
-1.73187
12.8639
4.08977
18.0494
11.1364
24.4087
20.1657
32.4434
31.7509
41.9778
48.5474
50.7748
64.6565
69.1904
82.5168
92.2595
105.646
119.981
134.894
154.829
172.666
200.949
223.614
267.509
296.459
384.187
400.112
607.152
48.833
28.9809
26.7731
31.6151
24.4017
28.8615
23.2831
27.6729
22.7073
27.1993
22.2639
27.2185
22.1799
26.2821
23.5901
24.1364
26.786
21.2637
26.7068
21.5007
26.4471
22.1024
26.1316
22.0297
26.3811
21.725
26.9195
21.3469
26.7822
21.4817
26.433
22.0021
25.3944
23.506
23.3837
26.3576
20.8176
25.7758
21.2252
25.262
21.0352
25.3467
20.6056
25.7198
20.1331
25.3727
20.2717
24.6733
20.94
23.3676
21.7253
21.323
24.2637
18.5199
23.0549
18.3942
21.5936
17.3169
20.4624
15.4938
19.1353
12.9186
16.3685
10.0971
12.3924
7.15788
6.495
2.98458
-1.17752
-1.33112
-9.60389
-11.2219
-17.9419
-20.8646
-26.9485
-29.3827
-35.0343
-35.2774
-40.6183
-39.1692
-41.5504
-38.0881
-40.0033
-35.4396
-32.6657
-30.1361
-22.1452
-21.0866
-13.5467
-11.5528
-4.14166
-2.54093
4.33134
3.89634
10.2431
8.82269
14.7131
12.4221
17.4474
15.1716
18.8752
16.8639
19.6175
18.5543
18.9566
21.117
16.8912
21.1599
16.3922
21.3007
15.6684
20.293
15.1433
19.0444
13.9479
17.5198
12.3801
15.4428
10.6971
12.8552
9.53227
8.354
9.61662
3.44881
4.86145
-0.332658
1.79169
-4.14359
-1.69193
-7.95616
-5.36592
-11.5035
-8.96048
-14.5111
-12.1948
-16.5391
-14.891
-16.9202
-17.6391
-14.9257
-20.667
-15.1929
-20.3044
-14.6853
-19.4643
-13.7094
-18.3572
-12.6169
-17.1153
-11.4809
-15.7491
-10.4436
-14.0518
-9.78956
-11.4756
-10.2303
-7.18596
-11.1498
-5.32182
-9.15818
-3.27704
-6.58378
-0.778616
-3.72584
2.28654
-0.12281
6.12874
4.49843
10.9537
10.413
16.4292
18.2263
23.4523
28.0399
31.683
40.4627
44.1623
53.2585
59.8238
69.3636
79.048
89.5218
102.559
114.152
131.329
144.152
167.356
180.789
216.037
222.684
297.405
262.845
397.525
24.468
34.7749
29.0404
31.1844
26.3877
28.8577
24.1513
27.747
23.1297
27.2861
22.6312
26.9985
22.5557
26.2825
23.4269
24.7256
25.243
22.7536
25.9931
22.0426
26.3
22.0129
26.254
21.9817
26.3435
21.8285
26.5669
21.5994
26.5872
21.6356
26.3439
22.0604
25.5416
23.1479
23.8647
24.7231
22.0498
25.1524
21.4307
25.214
21.0769
25.2454
20.7292
25.3291
20.3712
25.1513
20.3503
24.6284
20.738
23.5553
21.4115
21.8271
22.5933
19.6809
22.5671
18.5828
21.8106
17.5678
20.4572
16.177
18.4168
14.1007
15.4555
11.4137
11.486
8.02783
6.15985
3.47453
-0.535247
-2.70571
-8.11275
-10.4845
-16.6382
-19.376
-25.4164
-28.5421
-33.8545
-36.2781
-40.1843
-40.1721
-42.2952
-40.162
-39.9958
-37.035
-33.5441
-30.1892
-24.3957
-21.5977
-14.4
-12.1305
-5.00181
-2.90446
3.27306
4.80737
9.49663
10.0558
14.1859
13.4082
17.2241
15.7955
18.9199
17.3734
19.7421
18.7674
19.3518
20.2776
18.1237
20.8824
17.0572
21.0608
16.1118
20.4833
15.3014
19.3824
14.1226
17.936
12.607
15.8702
11.2931
12.7255
10.2218
8.75555
8.30632
4.55121
5.30611
0.801823
1.56897
-2.93749
-2.1933
-6.80003
-5.89339
-10.5443
-9.26031
-13.852
-12.0985
-16.1651
-14.6578
-16.8917
-17.3149
-16.3667
-19.3514
-15.7824
-19.8375
-14.8439
-19.3484
-13.7537
-18.334
-12.5957
-17.0912
-11.4209
-15.6812
-10.3592
-13.9299
-9.65433
-11.4205
-9.72346
-8.13871
-9.74587
-5.6227
-8.57822
-3.11578
-6.46725
-0.757762
-3.31564
1.98427
0.651596
5.58892
5.4886
10.3165
11.4974
16.4132
18.9806
23.9655
28.5212
33.6147
40.1584
45.1786
54.2059
60.8142
71.067
80.7334
92.0051
105.55
118.084
136.662
150.546
176.198
190.885
230.585
238.51
314.668
293.398
382.178
10.0721
25.0654
21.0258
27.3327
23.1503
27.0291
23.6233
26.1163
23.7615
25.5619
23.7878
25.1971
24.0778
24.4761
24.8707
23.5326
25.6743
23.1325
25.1864
23.3486
24.8401
23.6186
24.7416
23.5672
24.8464
23.443
24.9589
23.4202
24.7719
23.5696
24.4357
23.9455
23.8142
24.6473
23.0272
25.2249
22.6744
24.5094
22.788
24.0947
22.6355
23.9664
22.4158
23.9018
22.3162
23.5468
22.4068
23.039
22.6862
22.3158
22.9159
21.3318
23.4027
20.795
22.2029
20.4268
21.2627
19.4801
20.3518
18.3324
18.8621
16.5885
16.4568
14.2112
13.115
11.0691
8.57212
6.66593
2.64608
0.923048
-4.82827
-7.31087
-13.3471
-16.8238
-22.7114
-26.5957
-31.8192
-35.5386
-39.1906
-42.2114
-43.0788
-43.8424
-42.7436
-41.4286
-37.6773
-35.182
-28.5464
-25.791
-18.5215
-15.2668
-8.57467
-5.33638
-0.00288324
3.08403
6.82473
9.26212
11.845
13.5463
15.0625
16.3482
17.1674
18.0816
18.3091
19.3722
18.4636
20.4381
18.4589
20.4433
18.3299
20.0079
18.0303
19.1755
17.4903
18.1409
16.5143
16.8449
15.1257
15.0434
13.5155
12.75
12.0302
9.62568
9.8889
6.47768
6.08208
3.20318
1.97625
-0.432271
-2.03262
-4.32813
-6.09318
-8.21788
-10.0226
-11.7591
-13.5197
-14.5291
-16.2512
-16.1268
-18.1867
-16.5524
-19.4796
-17.2939
-19.1912
-17.0128
-18.3591
-16.2375
-17.1737
-15.2106
-15.8785
-14.114
-14.5221
-13.151
-12.9727
-12.3904
-11.1108
-11.8087
-9.33587
-10.596
-8.02948
-8.85836
-6.51081
-6.73933
-4.43625
-4.32215
-1.87724
-1.32042
1.41101
2.43102
5.5733
7.18614
10.6057
13.449
16.9463
21.2352
24.8334
31.0701
35.2231
42.1809
48.3058
55.6582
64.3261
72.1678
83.7567
92.0749
107.287
116.075
136.641
143.74
176.783
171.669
229.157
216.022
287.118
11.2706
25.9471
21.2615
26.451
23.9843
26.3813
24.384
26.031
24.1996
25.5836
24.1211
25.1693
24.29
24.5734
24.6654
24.0749
24.9429
23.9133
24.7459
23.7735
24.6758
23.6857
24.7209
23.5597
24.7863
23.497
24.7899
23.5481
24.6466
23.6465
24.3784
23.8751
23.9049
24.2285
23.3644
24.3923
23.2096
24.0416
23.0135
23.9085
22.7101
23.804
22.4766
23.6434
22.3845
23.3426
22.3733
22.9208
22.5638
22.3442
22.5768
21.6127
22.4695
21.1969
21.8803
20.5734
21.2852
19.7707
20.3002
18.5654
18.8605
17.0182
16.5437
14.7815
13.4148
11.6439
9.36361
7.43305
3.93967
1.76372
-2.69508
-5.73051
-11.0173
-14.8311
-20.6751
-25.0149
-30.7087
-34.8787
-39.4099
-42.4763
-44.6626
-45.686
-45.0637
-43.9443
-40.4086
-37.4436
-31.4456
-27.4036
-20.4143
-16.3111
-9.46452
-5.76901
-0.0406159
2.99938
7.08748
9.48957
12.061
13.9174
15.4117
16.6612
17.5565
18.3647
18.7597
19.5241
19.2586
20.3124
19.3394
20.2796
19.0322
20.0329
18.5286
19.4963
17.896
18.5743
16.9075
17.3294
15.7345
15.4816
14.259
13.0504
12.3928
10.3644
9.89673
7.44101
6.71554
4.14736
2.88651
0.426335
-1.14391
-3.49021
-5.27556
-7.38663
-9.29965
-11.0158
-12.8806
-14.0169
-15.7812
-16.1318
-17.7046
-17.4044
-18.6324
-17.7086
-18.8367
-17.3187
-18.1939
-16.4222
-17.0803
-15.2709
-15.7853
-14.0479
-14.3463
-12.9801
-12.7267
-12.0909
-10.9966
-10.961
-9.24228
-9.72662
-7.8815
-8.08502
-6.17656
-6.15452
-4.08114
-3.70671
-1.40782
-0.695451
1.97528
3.10457
6.2192
8.01233
11.4926
14.2632
18.1523
22.1944
26.5165
31.9752
37.2018
43.9545
50.8281
58.5904
67.8715
76.5196
88.9672
98.3443
114.788
124.441
146.944
154.703
189.051
185.991
235.278
223.917
269.014
8.83709
20.2944
17.6825
22.7434
21.5863
24.197
23.1652
24.6395
23.8726
24.5707
24.1884
24.375
24.5103
24.1147
24.7695
23.8377
24.86
23.9481
24.575
24.0943
24.3093
24.2447
24.2438
24.2057
24.2398
24.1714
24.18
24.2228
24.0378
24.3397
23.819
24.5112
23.5254
24.6859
23.3304
24.588
23.464
24.0227
23.4951
23.7026
23.3732
23.4974
23.2545
23.2984
23.229
23.0212
23.2286
22.7382
23.1654
22.4145
23.2305
21.9989
22.9211
21.7052
22.3063
21.4212
21.6561
20.8557
20.9395
19.9917
19.8034
18.6808
18.0458
16.7672
15.4573
14.02
11.7727
10.1535
6.7793
4.71575
0.209666
-2.6782
-8.05396
-11.9842
-17.9373
-22.7461
-28.7833
-33.9171
-39.0981
-43.5849
-46.6431
-49.0499
-49.1625
-48.862
-45.6472
-43.0214
-36.8767
-32.7842
-25.3197
-20.5924
-13.3823
-8.80425
-2.87534
1.08733
5.32199
8.4377
11.1224
13.4908
14.8995
16.5688
17.2369
18.4652
18.5183
19.5548
19.1132
20.2183
19.457
20.2094
19.4427
19.8834
19.2039
19.2953
18.7369
18.5162
17.9053
17.4454
16.7371
15.9938
15.3501
14.0212
13.5471
11.5682
11.1533
8.71198
7.89356
5.47374
4.10901
1.73734
-0.0258448
-2.38828
-4.40991
-6.65922
-8.80799
-10.7465
-12.877
-14.2354
-16.2252
-16.7853
-18.5238
-18.3711
-19.5457
-18.9633
-19.4696
-18.6563
-18.6365
-17.8264
-17.307
-16.6693
-15.9275
-15.4504
-14.5929
-14.3093
-13.3242
-13.3698
-12.052
-12.4559
-10.8486
-11.1104
-9.74396
-9.72353
-8.38642
-8.09543
-6.70686
-6.17188
-4.56548
-3.80723
-1.88403
-0.804635
1.46086
3.07444
5.63397
8.04096
10.8774
14.3055
17.5654
22.0455
26.201
31.3486
37.0588
42.6571
50.5119
56.4694
66.9531
73.2166
87.008
92.9942
111.821
115.056
145.479
139.031
180.211
177.703
218.296
11.8592
22.0463
18.7205
22.9174
22.0666
24.0408
23.4738
24.5632
24.1102
24.6024
24.4016
24.44
24.57
24.2678
24.6891
24.0447
24.6279
24.151
24.3779
24.2546
24.2323
24.2657
24.2414
24.1402
24.2757
24.1604
24.1785
24.2346
24.0121
24.304
23.8018
24.3757
23.5571
24.3968
23.4403
24.1914
23.5907
23.8032
23.5789
23.5447
23.3664
23.3542
23.2105
23.1036
23.1433
22.8782
23.0504
22.6525
22.9728
22.3026
22.8319
22.002
22.6501
21.8122
22.0655
21.4663
21.5878
20.9813
20.9111
20.2305
19.874
19.0587
18.3065
17.3383
16.059
14.9042
12.8863
11.4262
8.54284
6.51919
2.73887
-0.279327
-5.04443
-9.24624
-14.9997
-20.2936
-26.6233
-32.487
-38.4752
-43.7637
-48.055
-51.2774
-52.4676
-52.7098
-50.0749
-47.2041
-41.0704
-35.9043
-28.2221
-22.4839
-14.9439
-9.63425
-3.37452
0.909528
5.38571
8.55168
11.4041
13.8006
15.2927
16.9357
17.733
18.8518
19.0413
20.0175
19.7439
20.6314
20.1129
20.643
20.0768
20.3739
19.7947
19.883
19.2856
19.1017
18.4963
18.0095
17.3888
16.5464
15.9519
14.7043
14.1587
12.4489
11.8064
9.82163
8.81696
6.70896
5.24013
3.00488
1.2159
-1.09864
-3.16098
-5.42006
-7.66248
-9.67424
-11.9276
-13.4803
-15.5312
-16.4553
-18.0382
-18.4209
-19.2883
-19.2321
-19.4603
-18.9522
-18.7886
-18.0698
-17.5227
-16.7739
-16.043
-15.3432
-14.5315
-13.9893
-13.0328
-12.7783
-11.5804
-11.5989
-10.2172
-10.3785
-8.98056
-8.95276
-7.56806
-7.34223
-5.84262
-5.42245
-3.68576
-3.03352
-0.960595
0.017309
2.42913
3.99018
6.72176
9.06218
12.2006
15.4566
19.1949
23.4088
28.1667
33.1991
39.5475
45.221
53.6711
59.8802
70.9759
77.4901
91.9364
98.0551
117.686
119.907
147.848
144.5
175.712
171.869
200.671
10.5974
19.6401
16.9275
20.9209
20.4344
22.5557
22.3785
23.5198
23.4823
23.9142
24.0468
24.0207
24.3651
23.9695
24.5646
23.9587
24.5731
24.1328
24.3375
24.3177
24.1957
24.4464
24.1024
24.4954
24.0403
24.4522
23.9761
24.4902
23.9072
24.5696
23.7854
24.6467
23.6144
24.6583
23.5903
24.3555
23.8082
23.888
23.806
23.6396
23.7127
23.4378
23.6116
23.2304
23.535
23.029
23.4718
22.8717
23.4205
22.6649
23.3094
22.3894
22.9525
22.2411
22.5346
21.9807
22.1577
21.632
21.7002
21.1685
20.9655
20.3113
19.708
18.9242
17.776
16.8231
14.9752
13.697
11.0032
9.1132
5.47868
2.65949
-2.02571
-6.08895
-11.9006
-17.3675
-24.1271
-30.6817
-37.6077
-44.2138
-49.8769
-54.7742
-57.259
-58.6959
-56.7089
-54.4144
-48.5978
-43.3755
-35.0911
-28.401
-19.8954
-13.3971
-6.27336
-0.955661
4.17456
7.92712
11.1586
13.714
15.4953
17.1046
17.8502
19.1031
19.0779
20.1068
19.6647
20.6084
20.0576
20.5254
20.0883
20.3554
19.9079
19.9782
19.5678
19.3771
18.9791
18.5046
18.0804
17.2812
16.8346
15.6228
15.1654
13.5253
12.9244
10.9487
9.9797
7.89373
6.45571
4.18963
2.3293
-0.063978
-2.28962
-4.71643
-7.18447
-9.46768
-11.9798
-13.8671
-16.1797
-17.4112
-19.2439
-19.6965
-20.8313
-20.6294
-20.8426
-20.2578
-19.8129
-19.0946
-18.3608
-17.6613
-16.7915
-16.2494
-15.2929
-15.0231
-13.9781
-14.0268
-12.843
-13.119
-11.8392
-11.9545
-10.9543
-10.8175
-9.81601
-9.54905
-8.43609
-8.05807
-6.74803
-6.20867
-4.67718
-3.83058
-2.08329
-0.784969
1.21975
3.10047
5.45455
8.00986
10.9192
14.1209
17.9828
21.6905
26.922
31.0122
38.124
42.4827
51.9494
56.4724
68.9448
72.7801
90.4597
91.1686
115.761
113.847
142.297
142.203
169.224
13.3264
21.3823
18.264
21.866
21.117
22.8649
22.7717
23.6268
23.6808
24.0234
24.1712
24.1053
24.432
24.0582
24.5349
24.0273
24.4697
24.2425
24.1843
24.3738
24.0908
24.4095
24.1063
24.3903
24.0754
24.4145
23.9726
24.4464
23.8485
24.4669
23.6927
24.4897
23.5612
24.4006
23.6141
24.0988
23.8089
23.8303
23.7543
23.5423
23.6151
23.2798
23.5068
23.0254
23.3576
22.9079
23.2168
22.687
23.1386
22.424
23.0194
22.2566
22.7899
22.1803
22.383
22.0209
22.0557
21.7376
21.6916
21.372
21.0658
20.6844
20.045
19.5524
18.4879
17.8148
16.2089
15.2039
12.9526
11.3183
8.25287
5.59925
1.47046
-2.60428
-8.09132
-13.8665
-20.7242
-28.0262
-35.7591
-43.6651
-50.7477
-57.2043
-61.3267
-64.0625
-63.3345
-61.2865
-55.4319
-49.336
-40.2499
-32.4858
-23.2417
-15.6403
-7.85146
-1.8552
3.6077
7.88005
11.0272
14.2563
15.8166
17.5552
18.4299
19.6794
19.8363
20.7584
20.4657
21.2837
20.7789
21.2747
20.8266
21.0512
20.6383
20.622
20.2503
20.0102
19.6414
19.1331
18.7636
17.9528
17.5627
16.4277
15.9822
14.5388
13.8732
12.2262
11.1408
9.34201
7.83842
5.7938
3.87625
1.6111
-0.678008
-3.08027
-5.66006
-8.02428
-10.6945
-12.7931
-15.2505
-16.8392
-18.7021
-19.6881
-20.6355
-20.9861
-21.1477
-20.8313
-20.4494
-19.7076
-18.9173
-18.1076
-17.1048
-16.3887
-15.2632
-14.7608
-13.5658
-13.3771
-12.1212
-12.1574
-10.9831
-11.0015
-9.92049
-9.86111
-8.77396
-8.63573
-7.47439
-7.1938
-5.886
-5.38972
-3.8661
-3.07524
-1.30586
-0.0674887
1.99493
3.79292
6.27124
8.68635
11.7993
14.834
18.9179
22.4595
27.992
31.884
39.2701
43.4146
53.0503
57.2589
69.8424
73.0718
89.9939
90.3264
112.012
109.655
132.435
131.282
152.708
12.5803
20.391
17.2678
20.9158
20.1589
22.0124
22.0211
22.9569
23.1828
23.5207
23.8726
23.7905
24.2835
23.8588
24.486
23.931
24.4415
24.2441
24.2297
24.439
24.1763
24.4825
24.1067
24.5443
24.0266
24.5814
23.9876
24.6317
23.9135
24.6717
23.8222
24.6863
23.7308
24.5804
23.7704
24.3025
23.9136
23.9323
23.9678
23.7226
23.884
23.5066
23.7726
23.3059
23.6867
23.1163
23.67
22.944
23.578
22.8872
23.2872
22.6463
23.0936
22.4947
22.6768
22.4523
22.4642
22.2627
22.2307
22.076
21.8703
21.6376
21.0984
20.7362
19.7923
19.2723
17.844
16.9832
14.9318
13.469
10.6524
8.28144
4.45409
0.754445
-4.49494
-10.0976
-17.2087
-24.8967
-33.5128
-42.5626
-51.4693
-60.0215
-66.5399
-71.3823
-72.1129
-70.6909
-65.2842
-59.0358
-49.6606
-40.3226
-29.6732
-20.4453
-11.2063
-3.67238
2.952
7.90844
11.618
14.8019
16.4637
18.1533
18.8844
20.1192
20.0114
20.8957
20.4081
21.2159
20.5677
21.0804
20.6369
20.8762
20.589
20.5736
20.3781
20.1733
20.0012
19.52
19.329
18.5647
18.2909
17.229
16.8385
15.4929
14.8576
13.2693
12.263
10.4544
9.04959
6.9705
5.08842
2.73719
0.390359
-2.1777
-4.93613
-7.59985
-10.5453
-13.0594
-15.8896
-17.8776
-20.1653
-21.2795
-22.6971
-22.7407
-23.0464
-22.2967
-21.7131
-20.6925
-19.7543
-18.8286
-17.7783
-17.0684
-15.9871
-15.6113
-14.5237
-14.5212
-13.4514
-13.6215
-12.6181
-12.664
-11.8266
-11.7394
-10.8603
-10.716
-9.78251
-9.53959
-8.51639
-8.13422
-6.95721
-6.35243
-5.00485
-4.07076
-2.48414
-1.15165
0.800858
2.55984
5.0814
7.24448
10.6556
13.1585
17.8012
20.5584
26.8564
29.7804
38.1701
41.0853
52.3127
54.4707
70.0099
69.8093
89.2955
89.7139
110.124
110.62
130.656
14.7827
22.1975
18.7241
22.2007
21.0351
22.7021
22.5365
23.2751
23.4717
23.6805
24.0281
23.8618
24.3669
23.9103
24.4921
23.976
24.4027
24.2623
24.1875
24.4455
24.1049
24.4711
24.0495
24.4723
24.0178
24.4997
23.9156
24.5308
23.8059
24.5528
23.683
24.5592
23.6158
24.439
23.6917
24.15
23.8676
23.7983
23.8583
23.5536
23.7598
23.3423
23.6392
23.1094
23.4928
22.9386
23.3534
22.7749
23.2774
22.6374
23.1817
22.3868
22.8355
22.5285
22.5233
22.3863
22.3885
22.293
22.2257
22.1917
21.9816
21.9514
21.4688
21.3454
20.5217
20.2473
19.0677
18.5259
16.896
15.787
13.4825
11.4292
8.12432
4.63004
-0.160803
-5.6636
-12.4236
-20.5498
-29.6942
-40.3154
-50.9971
-62.1624
-71.1919
-78.5887
-81.6891
-81.9552
-77.21
-70.2296
-59.7146
-49.0171
-36.5631
-25.6797
-15.1351
-6.52957
1.02362
7.31866
11.0693
15.3678
16.8599
19.1247
19.5591
21.1632
20.9114
21.9462
21.3603
22.3078
21.4925
21.999
21.5018
21.6615
21.4176
21.31
21.1273
20.8115
20.6989
20.1725
20.0394
19.2923
19.09
18.1054
17.7781
16.5826
15.9914
14.6224
13.6409
12.0591
10.6476
8.80567
6.89158
4.71286
2.30351
-0.190661
-3.05632
-5.79533
-8.92955
-11.6745
-14.7519
-17.1755
-19.6616
-21.4389
-22.8423
-23.6598
-23.892
-23.7202
-23.0258
-22.1461
-20.8831
-19.9449
-18.557
-17.7043
-16.1706
-15.5725
-14.0228
-13.8383
-12.4754
-12.5535
-11.5288
-11.5708
-10.6842
-10.6744
-9.8618
-9.79646
-9.00055
-8.82589
-7.9312
-7.60594
-6.57656
-6.01479
-4.81168
-3.9341
-2.47027
-1.23048
0.632641
2.24195
4.71701
6.66315
10.0454
12.2341
16.9
19.2483
25.5218
27.9675
36.2259
38.509
49.4951
50.5753
65.081
64.9279
81.2738
81.2275
98.3977
98.5589
115.548
14.1908
21.7367
18.0329
21.8761
20.4743
22.3815
22.098
22.9956
23.1617
23.4613
23.8409
23.7156
24.2751
23.8342
24.4601
23.9911
24.3833
24.2995
24.2253
24.4961
24.1691
24.5406
24.098
24.5886
24.028
24.661
23.9946
24.7232
23.9174
24.7495
23.844
24.7272
23.7988
24.591
23.8637
24.3288
24.0315
23.9881
24.0919
23.7833
24.0159
23.5793
23.9088
23.3901
23.8287
23.1861
23.7882
22.9892
23.6357
22.9613
23.4608
22.8228
23.1344
22.7306
22.7345
22.6268
22.5966
22.6752
22.5623
22.7043
22.5192
22.6447
22.2004
22.2008
21.4518
21.3029
20.2355
19.8068
18.361
17.4562
15.4651
13.7647
10.9163
7.92293
3.60403
-1.49102
-8.09684
-16.0821
-25.641
-36.8598
-49.2808
-62.7768
-75.4204
-86.4709
-92.874
-95.1476
-91.5888
-84.5492
-72.7282
-60.249
-46.0926
-32.5004
-19.4346
-8.35724
0.548074
7.98902
12.6887
16.2924
18.5522
19.8214
20.5613
21.5978
21.2555
22.0611
21.2381
22.1413
21.126
21.6784
21.0394
21.3148
21.1431
21.0844
21.1544
20.8505
20.9398
20.4627
20.4762
19.778
19.6741
18.768
18.491
17.386
16.8451
15.5497
14.6641
13.1477
11.8421
10.0516
8.23998
6.07385
3.70916
1.12337
-1.80108
-4.76642
-8.13891
-11.289
-14.7859
-17.7051
-20.8066
-22.866
-25.011
-25.6272
-26.2355
-25.4035
-24.5745
-23.0029
-21.6329
-20.2844
-18.96
-18.0626
-16.7516
-16.2586
-15.0032
-14.882
-13.8264
-13.9516
-13.1557
-13.2117
-12.5206
-12.3985
-11.6146
-11.5369
-10.768
-10.6457
-9.8848
-9.65234
-8.77602
-8.41585
-7.40664
-6.8178
-5.59252
-4.76366
-3.18519
-2.12721
-0.0166498
1.26619
4.13786
5.60231
9.57685
11.1225
16.5511
18.0883
25.3937
26.7672
36.6507
37.228
49.6527
50.7812
64.9576
66.4868
81.6272
82.76
98.6206
16.3478
23.624
19.4652
23.246
21.4518
23.2523
22.6956
23.4806
23.5038
23.7145
24.0133
23.8552
24.3227
23.927
24.4579
24.0487
24.3803
24.3033
24.162
24.4733
24.0657
24.5426
24.006
24.5432
23.9784
24.5669
23.8897
24.6018
23.7976
24.6255
23.6986
24.6174
23.6662
24.4846
23.7413
24.2024
23.9351
23.8206
23.9873
23.5968
23.9095
23.4434
23.7749
23.2152
23.6498
23.0097
23.508
22.8595
23.4041
22.6707
23.2835
22.4757
22.8982
22.7064
22.6443
22.5916
22.5227
22.5933
22.5183
22.6785
22.5365
22.7916
22.4552
22.6434
22.0348
22.0822
21.2449
21.0715
19.9696
19.3733
17.8448
16.509
14.2497
11.7282
8.18495
3.68887
-2.12312
-9.91501
-19.4487
-31.7309
-45.5766
-61.8538
-78.2072
-94.2261
-105.16
-110.83
-109.684
-102.999
-90.4862
-75.8716
-60.3879
-43.9791
-28.6907
-15.1626
-4.40302
5.90254
11.4099
17.4468
18.9151
21.7284
21.2683
23.4898
22.2511
23.625
22.6449
23.3473
22.452
22.8259
22.1406
22.1562
21.9877
21.7281
21.7969
21.4499
21.5625
21.065
21.1464
20.4542
20.4426
19.6075
19.4249
18.4512
17.9933
16.8673
16.0609
14.728
13.473
11.8737
10.0937
8.07592
5.71651
3.19407
0.193546
-2.84865
-6.42307
-9.84558
-13.6705
-17.0983
-20.5696
-23.4472
-25.81
-27.4556
-28.1199
-28.1748
-27.1175
-25.8597
-23.6879
-22.3976
-20.4669
-19.3054
-17.2381
-16.35
-14.2741
-13.9408
-12.3217
-12.5228
-11.7825
-11.9357
-11.1922
-11.325
-10.687
-10.6865
-10.2327
-10.1275
-9.63241
-9.37262
-8.83581
-8.45081
-7.75351
-7.2132
-6.25007
-5.51305
-4.18081
-3.2604
-1.38154
-0.335182
2.37555
3.40505
7.23007
8.28543
13.4356
14.4783
21.1708
22.0778
30.8002
31.7539
42.1539
43.3148
55.1299
56.5157
69.6236
70.7083
84.8142
15.816
23.5962
19.0247
23.2418
21.1586
23.328
22.524
23.5639
23.402
23.789
23.9596
23.9282
24.3089
23.9778
24.4638
24.1171
24.41
24.3657
24.225
24.5748
24.1481
24.6249
24.0676
24.6653
23.9839
24.7563
23.9344
24.8214
23.8626
24.8254
23.8332
24.7799
23.8206
24.6526
23.9062
24.3922
24.1055
24.0673
24.1584
23.8158
24.1266
23.6474
24.044
23.4659
23.9586
23.2525
23.8961
23.015
23.7429
23.0037
23.5207
22.9268
23.1366
22.8351
22.7643
22.7384
22.6431
22.8219
22.6953
23.0439
22.8569
23.2634
22.9118
23.2416
22.6698
22.8266
22.0465
21.9691
21.0083
20.5845
19.3161
18.2848
16.4337
14.3697
11.3775
7.51132
2.42832
-4.52523
-13.3592
-25.3249
-39.9181
-58.2519
-78.9305
-99.7122
-115.925
-126.357
-129.448
-124.989
-111.184
-94.3634
-73.7415
-55.1576
-34.8058
-18.1968
-5.99275
5.89174
13.3941
18.4406
21.7193
22.2023
22.653
23.3398
23.1779
23.2771
22.697
22.9005
21.9739
22.1699
21.648
21.5653
21.6732
21.443
21.7456
21.4589
21.7671
21.3106
21.5455
20.9184
20.9793
20.2253
20.0856
19.1914
18.8356
17.7884
17.0788
15.9125
14.7638
13.3511
11.7204
9.85964
7.61351
5.20383
2.25327
-0.82934
-4.51195
-8.19873
-12.4392
-16.397
-20.6509
-24.0448
-27.5193
-29.253
-30.7784
-30.1942
-29.2632
-26.6961
-24.3284
-22.0626
-20.4293
-19.4894
-17.8566
-17.3359
-15.6253
-15.1889
-13.8203
-14.0211
-13.3351
-13.7046
-13.1095
-12.857
-12.1723
-11.9309
-11.4714
-11.3667
-11.0341
-10.7773
-10.3186
-10.0103
-9.45471
-9.11204
-8.27826
-7.90406
-6.70824
-6.32548
-4.59599
-4.24197
-1.80572
-1.40376
1.83438
2.26612
6.65505
7.08281
12.9863
13.3658
20.9489
21.6055
30.7899
31.9502
42.5188
44.0516
55.9817
57.2143
70.7055
17.7856
25.6802
20.329
24.5453
22.1368
24.1891
23.1288
24.0945
23.7478
24.0896
24.1388
24.0849
24.3674
24.0785
24.457
24.1453
24.4411
24.3658
24.1719
24.5548
24.0334
24.6373
23.9758
24.6331
23.9347
24.6561
23.8602
24.6921
23.7675
24.7158
23.6905
24.6989
23.6734
24.5725
23.7574
24.2829
23.9871
23.9102
24.102
23.6755
24.0512
23.4713
23.9625
23.2633
23.8595
23.0461
23.7062
22.8657
23.574
22.6646
23.3699
22.6502
23.0091
22.7462
22.6875
22.7252
22.5617
22.7957
22.5704
22.9851
22.7512
23.2465
22.9858
23.4383
23.0079
23.318
22.7552
22.8599
22.1677
21.9636
21.0737
20.3359
19.0193
17.3901
15.1337
11.8946
7.74591
1.70186
-6.07002
-16.9287
-31.5736
-50.5943
-74.0855
-100.307
-122.949
-138.816
-146.32
-144.519
-132.173
-115.221
-96.4942
-74.6169
-53.6861
-31.7092
-16.4818
-1.06896
9.4243
19.9398
21.9778
25.439
23.7963
25.4094
24.3038
25.3859
24.3658
24.8319
23.7045
23.6212
22.768
22.4037
22.3204
21.8637
22.1799
21.8375
22.1962
21.7615
22.0182
21.4417
21.5832
20.904
20.8504
20.0892
19.7861
18.9731
18.2383
17.3133
16.1914
14.9822
13.4294
11.7743
9.63077
7.32927
4.42349
1.33297
-2.49385
-6.45603
-11.0246
-15.5363
-20.3553
-24.7578
-28.8514
-32.08
-34.0505
-34.9945
-33.8254
-32.0921
-27.9264
-25.5344
-22.7121
-21.1517
-18.4241
-17.1603
-14.4822
-13.5542
-11.5205
-11.671
-11.4056
-12.0529
-11.4207
-11.9849
-11.3111
-11.26
-11.0322
-10.9471
-10.8303
-10.6165
-10.4978
-10.231
-10.0359
-9.68109
-9.20383
-8.80772
-7.95714
-7.56255
-6.19925
-5.90136
-3.84415
-3.6583
-0.692136
-0.620741
3.35326
3.42544
8.47355
8.49394
15.138
15.1711
23.3747
23.5417
33.0725
33.5628
44.5151
44.9404
57.7116
17.0712
25.9508
20.1385
24.7479
22.1394
24.573
23.2212
24.4666
23.867
24.3817
24.2572
24.2878
24.5071
24.1879
24.5863
24.2327
24.51
24.4632
24.2354
24.6799
24.0707
24.77
23.9888
24.8042
23.9335
24.8374
23.888
24.8948
23.8171
24.912
23.7793
24.8635
23.798
24.7235
23.9168
24.4377
24.1679
24.0421
24.3526
23.8151
24.3403
23.6242
24.2754
23.4137
24.1817
23.2001
24.0818
22.9733
23.9051
22.9042
23.5768
22.8447
23.1577
22.8875
22.7351
22.8271
22.6041
22.9154
22.6596
23.1165
22.8909
23.4656
23.1671
23.7564
23.3563
23.7769
23.2414
23.4005
22.8077
22.6988
21.9809
21.4266
20.4234
19.158
17.4291
14.8447
11.5331
6.51014
0.0270176
-9.66868
-22.2423
-41.3366
-64.6683
-92.6198
-120.521
-143.329
-158.689
-162.651
-150.907
-130.653
-109.829
-82.7324
-60.7595
-35.28
-20.2576
-3.05333
7.31167
19.4373
22.1672
25.6068
25.7925
25.0919
23.7327
24.3502
23.8313
24.0337
23.0852
22.857
22.2664
21.7784
21.9061
21.6016
21.9954
21.8164
22.325
21.9589
22.4099
21.8518
22.0349
21.4472
21.3825
20.7404
20.4349
19.7834
19.1373
18.3735
17.4296
16.4206
15.0949
13.6192
11.7021
9.621
6.90998
3.97478
0.297678
-3.66428
-8.41747
-13.3121
-18.7757
-23.801
-29.1777
-32.8736
-36.5104
-37.3392
-37.4155
-33.7928
-28.926
-23.8613
-21.537
-21.4644
-19.5639
-19.2876
-17.1254
-15.6758
-13.0285
-13.1807
-12.5282
-14.2275
-13.872
-13.2908
-12.4833
-11.7275
-11.8646
-11.818
-12.0029
-11.5956
-11.4846
-11.1292
-11.1531
-10.8314
-10.6025
-10.301
-9.78498
-9.56751
-8.54353
-8.54943
-6.88132
-7.05912
-4.70341
-5.03411
-1.85105
-2.08034
1.89745
1.64675
7.04648
6.9549
13.8277
14.333
22.1019
23.0401
32.4989
33.0684
45.0623
18.7287
27.9001
21.2688
25.9695
22.9361
25.3471
23.7591
24.9263
24.161
24.6855
24.398
24.4576
24.5453
24.2791
24.5765
24.2637
24.556
24.4741
24.2026
24.6813
23.9851
24.8157
23.877
24.8348
23.8119
24.8477
23.7395
24.8803
23.6646
24.8845
23.6299
24.8351
23.6554
24.6856
23.7876
24.3706
24.0773
23.9351
24.2582
23.6764
24.2684
23.4541
24.2178
23.2289
24.1117
23.0104
23.9503
22.8015
23.7861
22.6848
23.5452
22.6729
23.1368
22.8938
22.6932
22.8572
22.5203
22.9105
22.5263
23.0207
22.7107
23.3366
23.0775
23.6692
23.342
23.9014
23.516
23.8822
23.4904
23.5475
23.1056
22.6995
22.0637
21.0452
19.8457
17.7158
15.226
11.107
6.01048
-1.99942
-12.5656
-29.1799
-51.5053
-79.2342
-110.001
-138.163
-159.56
-170.005
-164.783
-148.297
-127.577
-106.237
-77.3957
-49.7775
-31.7629
-15.4749
1.5035
15.4789
24.1358
26.3874
27.5009
28.3574
26.1166
26.3
25.9605
26.0669
25.3254
24.58
23.4133
22.5195
22.273
21.4837
22.2377
21.8562
22.5582
22.1779
22.746
22.1367
22.5632
21.9039
22.0672
21.4177
21.3227
20.7623
20.1215
19.5413
18.6069
17.7896
16.6224
15.4333
13.6962
11.8695
9.3926
6.64996
3.02124
-1.00616
-5.9879
-11.4123
-17.7204
-23.849
-30.4305
-35.9293
-40.5598
-43.8229
-44.5807
-44.0046
-36.0841
-30.33
-23.3834
-22.2167
-19.1247
-17.9426
-15.5361
-13.7651
-10.3637
-9.48567
-9.42252
-11.0548
-11.795
-13.5192
-12.2943
-11.5932
-11.1138
-11.0302
-11.5292
-11.4612
-11.7245
-11.3145
-11.6619
-11.3348
-11.4277
-11.0877
-10.8636
-10.5995
-9.90518
-9.91917
-8.70358
-9.00906
-6.83898
-7.60956
-4.75505
-5.30795
-1.94861
-2.86694
1.98713
0.809245
7.07679
6.23285
13.4505
12.6258
21.3997
20.438
32.3912
18.1399
28.3566
21.2671
26.4813
23.2267
25.7646
24.2174
25.3596
24.5732
25.008
24.7383
24.6501
24.8014
24.4276
24.8043
24.3433
24.6334
24.594
24.2338
24.8334
23.9927
24.9571
23.8758
24.9869
23.8085
25.012
23.7502
25.0488
23.6892
25.0461
23.6779
24.9799
23.7373
24.8188
23.9107
24.4876
24.2439
24.0364
24.4902
23.7572
24.5514
23.5413
24.5006
23.3285
24.3956
23.1164
24.2353
22.9601
24.0044
22.8742
23.6168
22.8188
23.1779
22.9346
22.6894
22.9784
22.4056
23.1013
22.4219
23.3294
22.6402
23.5844
23.0941
23.887
23.5785
24.1115
23.774
24.0885
23.7888
23.8453
23.5486
23.2113
22.7889
21.9977
21.1743
19.5235
17.6043
14.3169
10.2251
3.86722
-4.61631
-17.2278
-35.6312
-59.0873
-87.5271
-116.679
-142.923
-160.656
-162.931
-149.726
-129.351
-107.666
-78.797
-53.1786
-33.1301
-18.7284
-3.58184
11.0557
20.0525
26.4504
23.8341
27.4551
24.7889
24.6428
24.1753
25.138
24.0478
23.8917
23.1755
22.0449
21.8913
21.3036
21.8172
21.7299
22.5332
22.311
23.1139
22.5022
22.8916
22.2787
22.3539
21.8098
21.7223
21.2198
20.8484
20.3661
19.6237
18.9438
17.9895
17.0049
15.5291
13.9368
11.7405
9.35706
6.09452
2.3179
-2.49191
-7.85164
-14.4627
-21.0439
-28.6284
-34.5849
-41.3268
-45.076
-48.9106
-47.5045
-39.0043
-25.8076
-22.5321
-22.7316
-21.6557
-22.6105
-20.1155
-17.7438
-12.6017
-10.1788
-10.0565
-13.6017
-14.4417
-14.1731
-13.0056
-11.4024
-11.2731
-11.9702
-12.5886
-12.0399
-11.9458
-11.5807
-12.0694
-11.8506
-12.0368
-11.8107
-11.8706
-11.6665
-11.1789
-11.3854
-10.4154
-10.8712
-9.24367
-10.2681
-8.17848
-8.71973
-6.50954
-7.64441
-3.98319
-5.61204
-0.393853
-0.431135
4.16185
4.66654
9.95327
10.1539
19.4243
19.5885
30.0606
22.1785
27.3037
23.8282
26.0827
24.7083
25.5298
24.8919
25.0679
24.993
24.671
24.9395
24.4081
24.9119
24.3315
24.6619
24.6163
24.1632
24.9054
23.8706
25.041
23.7453
25.0575
23.6718
25.0636
23.6041
25.0859
23.5435
25.0695
23.5326
25.001
23.5952
24.8294
23.7903
24.4482
24.1972
23.9065
24.4944
23.5982
24.5522
23.39
24.4889
23.1963
24.3806
22.9584
24.2382
22.7494
24.0112
22.6941
23.6871
22.7561
23.1847
23.0215
22.652
23.0562
22.3738
23.1182
22.2943
23.3086
22.4349
23.5535
22.7546
23.7813
23.2839
23.9969
23.693
24.1905